Membrane in water
40167
    1TCq1    O1    1   0.981   4.107  10.816 -0.1980  0.0217 -0.3377
    1TCq1    C1    2   0.980   3.988  10.868 -0.1624 -0.2626  0.5255
    1TCq1    O2    3   1.084   3.925  10.891  0.4929 -0.3248  0.3989
    1TCq1    C2    4   0.872   3.982  10.952  0.2722 -0.2072  0.6217
    1TCq1    C3    5   0.749   3.992  10.904  0.2035 -0.6299  0.8948
    1TCq1    C4    6   0.637   3.963  10.983 -0.0079  0.3268 -0.3088
    1TCq1    C5    7   0.655   3.921  11.113 -0.0580  0.3966  0.0079
    1TCq1    C6    8   0.782   3.899  11.162 -0.7052  0.2881 -0.1236
    1TCq1    C7    9   0.891   3.935  11.082  0.4943 -0.0027  0.0139
    1TCq1    C8   10   0.798   3.904  11.307  0.6397 -0.0775  0.3194
    1TCq1    O4   11   0.702   3.875  11.378 -0.3314 -0.3263  0.4765
    1TCq1    C9   12   0.509   4.006  10.943  0.2204  0.3120  0.4638
    1TCq1    O5   13   0.417   3.994  11.024  0.0284 -0.0932 -0.7612
    1TCq1    O6   14   0.492   4.046  10.825  0.5834  0.2880  0.6631
    1TCq1    H1   15   0.900   4.152  10.849  1.0487  0.9642  1.4850
    1TCq1    H2   16   0.733   4.038  10.807 -0.4203 -3.0429 -0.1549
    1TCq1    H3   17   0.566   3.916  11.174  0.2062 -1.6604  0.2147
    1TCq1    H4   18   0.987   3.907  11.124 -0.2699 -1.7250  0.5949
    2MPD2     C   19   0.991   4.131  11.729  0.1820  0.4279 -0.5854
    2MPD2    C1   20   0.917   4.013  11.712  0.4345 -0.5403  0.1660
    2MPD2    C2   21   0.902   3.963  11.581  0.2966  0.3346  0.5896
    2MPD2    C3   22   0.934   4.035  11.466  0.3842 -0.7207  0.1145
    2MPD2    C4   23   0.987   4.160  11.490 -0.7366  0.2613 -0.2136
    2MPD2    C5   24   1.019   4.204  11.618  0.4049 -0.3041 -0.6789
    2MPD2     H   25   0.851   3.868  11.573 -0.9751  0.9417  1.4562
    2MPD2    H1   26   1.021   4.226  11.410  1.1886  0.9015  1.1385
    2MPD2    H2   27   1.019   4.167  11.828 -1.2103  0.3874 -0.1760
    2MPD2    H3   28   1.071   4.298  11.633  1.6780 -1.3861  1.6302
    2MPD2     N   29   0.898   3.988  11.337 -0.4309 -0.5649 -0.4406
    2MPD2    H5   30   0.931   4.041  11.257 -0.3913  0.6589  0.3877
    2MPD2    N1   31   0.861   3.935  11.818 -0.5498  0.6176 -0.5897
    2MPD2    H7   32   0.826   3.846  11.784  1.1741 -0.5094  0.5338
    3TCq1    O1   33   4.151   0.827  10.721  0.1766  0.6523 -0.3683
    3TCq1    C1   34   4.283   0.811  10.711 -0.6056  0.7048 -0.3330
    3TCq1    O2   35   4.345   0.705  10.700 -0.0749  0.6887 -0.1309
    3TCq1    C2   36   4.351   0.940  10.731 -0.8308  0.2163 -0.1342
    3TCq1    C3   37   4.310   1.041  10.652  0.0848 -0.3933  0.1636
    3TCq1    C4   38   4.355   1.170  10.683 -0.6324  0.8093  0.2647
    3TCq1    C5   39   4.449   1.186  10.782 -0.0050 -0.1464  0.1664
    3TCq1    C6   40   4.488   1.080  10.857  0.9988 -0.4698 -0.5088
    3TCq1    C7   41   4.431   0.954  10.844 -0.1596 -0.8253  0.2602
    3TCq1    C8   42   4.529   1.114  10.988  0.1810 -0.3773 -0.1289
    3TCq1    O4   43   4.584   1.218  11.011  0.3907  0.1609  0.1221
    3TCq1    C9   44   4.318   1.283  10.604 -0.2393 -0.2475  0.4628
    3TCq1    O5   45   4.362   1.394  10.643 -0.0974  0.6757  0.3878
    3TCq1    O6   46   4.272   1.265  10.488  0.3819 -0.5934 -0.0337
    3TCq1    H1   47   4.133   0.908  10.774  0.1608  0.0285  0.5906
    3TCq1    H2   48   4.255   1.022  10.560 -0.7957 -0.4694  0.7077
    3TCq1    H3   49   4.495   1.283  10.799 -0.2917 -0.1160  0.7752
    3TCq1    H4   50   4.459   0.865  10.899  0.4261 -0.2414  0.9131
    4MPD2     C   51   4.553   1.046  11.496  0.6998  0.4407 -0.1129
    4MPD2    C1   52   4.473   0.948  11.445  0.4684  0.2841 -0.0622
    4MPD2    C2   53   4.459   0.944  11.307  0.2221 -0.7612  0.6241
    4MPD2    C3   54   4.526   1.041  11.224 -0.4210 -0.1076  0.5695
    4MPD2    C4   55   4.606   1.135  11.283 -0.0995 -0.3209 -0.0603
    4MPD2    C5   56   4.622   1.139  11.418  0.6381  0.0996 -0.6529
    4MPD2     H   57   4.389   0.871  11.268  2.3012 -1.6526 -1.4623
    4MPD2    H1   58   4.676   1.197  11.229 -0.0828  0.0194  0.3492
    4MPD2    H2   59   4.545   1.058  11.603 -1.5481 -1.7792 -0.0262
    4MPD2    H3   60   4.663   1.225  11.468 -0.5492 -0.3532  1.1057
    4MPD2     N   61   4.496   1.023  11.085  0.2074  0.6762  0.5451
    4MPD2    H5   62   4.443   0.938  11.069  1.6446 -0.5590  2.3412
    4MPD2    N1   63   4.400   0.859  11.525 -0.3642  0.3881 -0.7420
    4MPD2    H7   64   4.350   0.790  11.471 -0.0452  0.1346 -0.7137
    5TCq1    O1   65   0.660   1.329  11.908  0.1368 -0.3630 -0.3097
    5TCq1    C1   66   0.560   1.253  11.970  0.4283  0.8822 -0.2549
    5TCq1    O2   67   0.563   1.205  12.081 -0.0720 -0.2733  0.0547
    5TCq1    C2   68   0.440   1.324  11.916  0.7234  0.1079 -0.0968
    5TCq1    C3   69   0.334   1.353  12.001  0.3187  0.2969  0.3294
    5TCq1    C4   70   0.210   1.390  11.958  0.6651  0.3757 -0.3700
    5TCq1    C5   71   0.187   1.391  11.826  0.2465 -0.0162 -0.6979
    5TCq1    C6   72   0.289   1.356  11.739 -0.1750  0.0911  0.6428
    5TCq1    C7   73   0.411   1.322  11.785  0.1985  0.3008  0.3070
    5TCq1    C8   74   0.263   1.364  11.597  0.8399  0.1011 -0.3015
    5TCq1    O4   75   0.339   1.300  11.526  0.4682  0.1000  0.7418
    5TCq1    C9   76   0.100   1.409  12.041  0.1448  0.3169  0.2721
    5TCq1    O5   77   4.704   1.373  12.001  0.1283  0.6338  0.3917
    5TCq1    O6   78   0.123   1.452  12.162 -0.5364  0.7148 -0.1253
    5TCq1    H1   79   0.637   1.393  11.837  1.4595  0.5021  0.0495
    5TCq1    H2   80   0.343   1.347  12.109 -1.8200  1.7174  0.5636
    5TCq1    H3   81   0.083   1.396  11.796  0.6354 -0.0624 -2.0395
    5TCq1    H4   82   0.481   1.280  11.713  0.2779  2.5826 -0.9366
    6MPD2     C   83   4.716   1.571  11.451  0.3723 -0.0102 -0.6046
    6MPD2    C1   84   0.094   1.482  11.445 -0.3968  0.0294  0.0950
    6MPD2    C2   85   0.146   1.437  11.325 -0.4251 -0.1864 -0.8202
    6MPD2    C3   86   0.094   1.482  11.205  0.1823  1.2132 -0.4030
    6MPD2    C4   87   4.716   1.580  11.212 -0.1383 -0.1448 -0.3400
    6MPD2    C5   88   4.672   1.626  11.335 -0.2860  0.0434  0.6500
    6MPD2     H   89   0.229   1.367  11.329  0.3573  0.6545 -2.4168
    6MPD2    H1   90   4.662   1.605  11.121  0.9104 -0.9542 -1.1929
    6MPD2    H2   91   4.665   1.613  11.537 -2.2483  0.9306 -2.6323
    6MPD2    H3   92   4.587   1.693  11.335 -0.1727  0.1843 -0.4893
    6MPD2     N   93   0.125   1.410  11.091  0.0829 -0.8147  0.2961
    6MPD2    H5   94   0.186   1.331  11.105  2.5244  1.0554  0.2578
    6MPD2    N1   95   0.152   1.442  11.570  0.1999  0.0733  0.2092
    6MPD2    H7   96   0.113   1.499  11.644 -1.6801 -1.1349  0.1455
    7TCq1    O1   97   1.905   1.281  12.566  0.1542  0.5028  0.5328
    7TCq1    C1   98   1.986   1.201  12.641  0.6138  0.0402  0.0451
    7TCq1    O2   99   2.090   1.240  12.696 -0.3534  0.2318  0.6524
    7TCq1    C2  100   1.977   1.070  12.593  0.0582 -0.0592  0.3144
    7TCq1    C3  101   1.962   1.059  12.454  0.1848 -0.1992 -0.6934
    7TCq1    C4  102   2.026   0.960  12.382  0.4591 -0.2178  0.0489
    7TCq1    C5  103   2.104   0.869  12.447 -1.0275 -0.3820  0.2038
    7TCq1    C6  104   2.122   0.883  12.581 -0.5913 -0.2635 -0.1389
    7TCq1    C7  105   2.064   0.985  12.655  0.6813  0.0344 -0.1763
    7TCq1    C8  106   2.218   0.801  12.650  0.7272  0.9647 -0.6755
    7TCq1    O4  107   2.254   0.690  12.606  0.3147 -1.2148 -0.4112
    7TCq1    C9  108   2.008   0.945  12.238 -0.6613  0.4860 -0.2985
    7TCq1    O5  109   2.087   0.872  12.177  0.0086 -0.1702  0.1700
    7TCq1    O6  110   1.910   0.998  12.180  0.7496  0.1007 -0.4896
    7TCq1    H1  111   1.825   1.238  12.529  1.5368 -1.4287 -0.2218
    7TCq1    H2  112   1.900   1.122  12.391  0.0599  0.0850 -0.2859
    7TCq1    H3  113   2.158   0.793  12.393  0.1229  2.1586 -2.2537
    7TCq1    H4  114   2.078   0.998  12.762  2.0619  2.2125 -0.5961
    8MPD2     C  115   2.455   0.714  13.113  0.1866 -0.2989  0.2212
    8MPD2    C1  116   2.394   0.616  13.033  0.7990  0.3040  0.1534
    8MPD2    C2  117   2.328   0.662  12.916 -0.3005  0.6126 -0.1841
    8MPD2    C3  118   2.336   0.796  12.879  0.1718 -0.6040  0.8377
    8MPD2    C4  119   2.411   0.889  12.954 -0.8820  0.4513 -0.0567
    8MPD2    C5  120   2.453   0.849  13.075  0.4492  0.3997  0.2420
    8MPD2     H  121   2.267   0.587  12.866  0.8100 -0.1071 -0.4462
    8MPD2    H1  122   2.410   0.993  12.925  0.9399  0.6397  0.5453
    8MPD2    H2  123   2.494   0.693  13.212 -0.5110 -0.4440  0.4642
    8MPD2    H3  124   2.494   0.928  13.135  0.3119  0.1468  0.6700
    8MPD2     N  125   2.268   0.858  12.766 -0.5463  0.1992 -0.0387
    8MPD2    H5  126   2.269   0.959  12.757 -2.4576  0.1609 -0.7278
    8MPD2    N1  127   2.393   0.486  13.092 -0.5108 -0.1415  0.6206
    8MPD2    H7  128   2.441   0.479  13.181  0.4146 -0.9283  0.0616
    9TCq1    O1  129   0.377   4.500  10.581  0.0614 -0.6253  0.2058
    9TCq1    C1  130   0.286   4.415  10.626  0.8728 -0.5539  0.2318
    9TCq1    O2  131   0.284   4.298  10.605  0.0785 -0.4265 -0.5971
    9TCq1    C2  132   0.262   4.462  10.765  0.0117 -0.2120  0.1391
    9TCq1    C3  133   0.341   4.551  10.832  0.4054  0.3267  0.0328
    9TCq1    C4  134   0.324   4.551  10.969 -0.1848  0.2466 -0.0016
    9TCq1    C5  135   0.228   4.482  11.039  0.6799 -0.0326  0.4709
    9TCq1    C6  136   0.157   4.396  10.961 -0.4298 -0.4967  0.2578
    9TCq1    C7  137   0.176   4.382  10.830 -0.4298  0.2652  0.0427
    9TCq1    C8  138   0.115   4.272  11.032  0.2508 -0.7102 -0.6325
    9TCq1    O4  139   0.152   4.169  10.985  0.2878  0.4066  0.6391
    9TCq1    C9  140   0.416   4.634  11.052 -0.1319 -0.3133 -0.5031
    9TCq1    O5  141   0.400   4.624  11.179  0.3851  0.0216  0.2085
    9TCq1    O6  142   0.508   4.678  10.986  0.0650 -0.5608  1.1139
    9TCq1    H1  143   0.348   4.591  10.605  1.5473  0.0184 -0.4770
    9TCq1    H2  144   0.420   4.608  10.785  1.3032 -0.8981  0.0599
    9TCq1    H3  145   0.216   4.480  11.147 -2.3603 -0.4217  0.1275
    9TCq1    H4  146   0.122   4.306  10.775 -1.8840  0.9837  0.4748
   10MPD2     C  147   0.018   4.087  11.249 -0.1432  0.2003  0.0608
   10MPD2    C1  148   0.028   4.224  11.261  1.2376 -0.2937 -0.3458
   10MPD2    C2  149   4.710   4.282  11.379 -0.1205 -0.2088 -0.1576
   10MPD2    C3  150   4.684   4.209  11.491 -0.1296 -0.8143 -0.1863
   10MPD2    C4  151   4.683   4.069  11.482 -0.2163  0.3822  0.2198
   10MPD2    C5  152   4.705   4.012  11.359 -0.1958 -0.2312  0.1068
   10MPD2     H  153   4.690   4.387  11.396 -0.1472 -0.1182 -0.7444
   10MPD2    H1  154   4.682   4.002  11.567 -0.3015  2.0342  1.5111
   10MPD2    H2  155   0.040   4.034  11.157 -0.6474 -1.2844  0.8045
   10MPD2    H3  156   4.705   3.903  11.360 -0.7539 -0.2417 -0.7623
   10MPD2     N  157   4.667   4.257  11.623  0.5898  0.0314 -0.3749
   10MPD2    H5  158   4.650   4.186  11.693 -0.5161 -1.1914 -1.8756
   10MPD2    N1  159   0.064   4.311  11.153 -0.3025 -0.2010  0.6722
   10MPD2    H7  160   0.038   4.409  11.157  0.7493  0.0261  1.9752
   11TCq1    O1  161   1.292   4.172  14.156  0.1480  0.3557  0.4063
   11TCq1    C1  162   1.209   4.078  14.198 -0.5547  0.5819  0.1015
   11TCq1    O2  163   1.162   3.996  14.122  0.3202 -0.3150  0.0780
   11TCq1    C2  164   1.137   4.138  14.321 -0.0934 -0.7544 -0.5722
   11TCq1    C3  165   1.220   4.176  14.421  0.1191  0.6138  0.7716
   11TCq1    C4  166   1.161   4.220  14.537 -0.4893  0.4255  0.4253
   11TCq1    C5  167   1.029   4.208  14.553 -0.4194 -0.8707 -0.0721
   11TCq1    C6  168   0.949   4.167  14.454 -0.1180 -0.8699 -0.6756
   11TCq1    C7  169   0.999   4.133  14.332  1.1494 -0.4655 -0.5696
   11TCq1    C8  170   0.804   4.176  14.465  0.0444  0.2316 -0.3041
   11TCq1    O4  171   0.761   4.243  14.557 -0.4966  0.2308  0.3470
   11TCq1    C9  172   1.245   4.262  14.646 -0.2167  0.3527 -0.3542
   11TCq1    O5  173   1.356   4.314  14.614 -0.4159  0.3319  0.4033
   11TCq1    O6  174   1.192   4.288  14.758 -0.0964 -0.1772  0.3528
   11TCq1    H1  175   1.293   4.256  14.206 -0.2212 -0.5988  1.9926
   11TCq1    H2  176   1.325   4.157  14.407  0.0180 -0.3157  1.2784
   11TCq1    H3  177   0.979   4.219  14.648  2.7018  0.6673  1.3645
   11TCq1    H4  178   0.940   4.100  14.247 -1.9233  1.1513  0.9323
   12MPD2     C  179   0.504   4.184  14.420 -0.0341 -0.1906  0.0871
   12MPD2    C1  180   0.587   4.096  14.357 -0.7720  0.6084 -0.1395
   12MPD2    C2  181   0.538   4.012  14.264 -0.0414 -0.1870  0.3624
   12MPD2    C3  182   0.404   4.016  14.225 -0.2010 -0.0278  0.4193
   12MPD2    C4  183   0.319   4.102  14.292 -0.3897 -0.7300  0.2569
   12MPD2    C5  184   0.376   4.190  14.388 -0.5867 -1.0546  0.1111
   12MPD2     H  185   0.604   3.942  14.215 -0.3535 -1.5324  1.8490
   12MPD2    H1  186   0.211   4.100  14.284 -0.4978  0.4099  1.4219
   12MPD2    H2  187   0.539   4.254  14.495 -0.8556  0.2696  0.0356
   12MPD2    H3  188   0.312   4.257  14.444  0.0014 -0.7278  0.3859
   12MPD2     N  189   0.364   3.920  14.130  0.5225  1.1689  0.2875
   12MPD2    H5  190   0.437   3.865  14.084 -0.7231 -0.0874 -0.2104
   12MPD2    N1  191   0.734   4.093  14.377 -0.2457 -0.2819 -0.4399
   12MPD2    H7  192   0.781   4.017  14.329  0.5653  0.3965 -0.7239
   13TCq1    O1  193   4.549   4.600  10.215 -0.6014  0.5192 -0.1880
   13TCq1    C1  194   4.621   4.511  10.150  0.2564  0.2211 -0.2752
   13TCq1    O2  195   4.639   4.516  10.027 -0.0068 -0.0761  0.4267
   13TCq1    C2  196   4.601   4.387  10.217  0.0857  0.4031  0.4889
   13TCq1    C3  197   4.620   4.277  10.136  0.2482  0.2465  0.3842
   13TCq1    C4  198   4.631   4.156  10.204  0.1726 -1.4398 -0.2656
   13TCq1    C5  199   4.618   4.138  10.339 -0.6258 -0.0093  0.4304
   13TCq1    C6  200   4.589   4.248  10.413 -0.9567 -0.6851  0.4710
   13TCq1    C7  201   4.591   4.376  10.355  0.0615  0.4248  0.1365
   13TCq1    C8  202   4.549   4.235  10.552  0.1512  0.0137  0.5409
   13TCq1    O4  203   4.538   4.336  10.619 -0.2185 -0.0135 -0.3014
   13TCq1    C9  204   4.650   4.038  10.123 -0.4304  0.0324  0.2030
   13TCq1    O5  205   4.684   3.934  10.187 -0.4373 -0.4475  0.2395
   13TCq1    O6  206   4.681   4.053  10.000 -0.1832  0.1326 -0.1445
   13TCq1    H1  207   4.494   4.557  10.284  0.0116 -2.2047 -1.3940
   13TCq1    H2  208   4.639   4.283  10.030 -2.1612  3.0783  0.1236
   13TCq1    H3  209   4.626   4.040  10.383 -0.0439 -0.4135 -0.5733
   13TCq1    H4  210   4.608   4.460  10.422 -2.1448 -0.9847  2.4511
   14MPD2     C  211   4.407   3.922  10.695  0.4474 -0.6427 -0.3838
   14MPD2    C1  212   4.459   4.051  10.701 -0.1463 -0.1382 -0.2146
   14MPD2    C2  213   4.453   4.120  10.820  0.0105 -0.0104  0.0356
   14MPD2    C3  214   4.376   4.072  10.923  0.2705 -0.3041 -1.1610
   14MPD2    C4  215   4.321   3.947  10.907 -0.5484  0.5553 -0.1625
   14MPD2    C5  216   4.331   3.873  10.797  0.3524 -0.4245  0.3434
   14MPD2     H  217   4.474   4.225  10.839  2.3517 -0.6774  1.0610
   14MPD2    H1  218   4.256   3.901  10.979 -1.1528  1.7146  0.0421
   14MPD2    H2  219   4.417   3.856  10.609  2.6307  0.3088 -0.8693
   14MPD2    H3  220   4.287   3.773  10.795 -1.2387  0.2745  0.4250
   14MPD2     N  221   4.364   4.147  11.041 -0.0107 -0.0938 -0.0809
   14MPD2    H5  222   4.410   4.237  11.049  0.7236 -0.4474 -0.3487
   14MPD2    N1  223   4.520   4.103  10.581 -0.4801  1.0802  0.1000
   14MPD2    H7  224   4.517   4.041  10.501  1.8255  3.4586 -1.8168
   15TCq1    O1  225   1.284   2.447   2.734 -0.4734  0.0024 -0.0792
   15TCq1    C1  226   1.366   2.552   2.698  0.2118 -0.5868 -0.1785
   15TCq1    O2  227   1.481   2.568   2.743 -0.0407 -0.3661  0.6243
   15TCq1    C2  228   1.337   2.601   2.563  0.2358 -0.6055  0.0038
   15TCq1    C3  229   1.207   2.640   2.537 -0.3582 -0.7916 -0.5198
   15TCq1    C4  230   1.186   2.737   2.447 -0.4432 -0.2526  0.0857
   15TCq1    C5  231   1.290   2.795   2.385 -0.0493  0.1112 -0.4677
   15TCq1    C6  232   1.423   2.753   2.405 -0.5729 -0.3995 -0.0110
   15TCq1    C7  233   1.442   2.651   2.494  0.6606  0.4284  0.6771
   15TCq1    C8  234   1.519   2.775   2.299  0.6333  0.7572 -0.2907
   15TCq1    O4  235   1.636   2.743   2.322  0.2209 -0.4737  0.1803
   15TCq1    C9  236   1.058   2.804   2.448 -0.1891 -0.3390  0.2116
   15TCq1    O5  237   1.041   2.880   2.350 -0.9431  0.0965 -0.2433
   15TCq1    O6  238   0.984   2.797   2.547  0.0367 -0.5080 -0.4078
   15TCq1    H1  239   1.220   2.430   2.662  2.3136 -2.1842 -2.0417
   15TCq1    H2  240   1.128   2.592   2.594  1.7580 -2.6225  0.8861
   15TCq1    H3  241   1.267   2.877   2.317  1.3913 -0.4124 -1.5859
   15TCq1    H4  242   1.542   2.621   2.522  0.1679 -0.8268  1.1107
   16MPD2     C  243   1.469   2.981   2.010  0.3152  0.5909 -0.2002
   16MPD2    C1  244   1.539   2.894   2.088 -0.2166  0.6380 -0.2076
   16MPD2    C2  245   1.670   2.862   2.056 -0.0543  0.2823 -0.3136
   16MPD2    C3  246   1.727   2.912   1.939  0.2478 -0.0699  0.1306
   16MPD2    C4  247   1.654   2.993   1.855 -0.4825 -0.8995  0.0704
   16MPD2    C5  248   1.526   3.028   1.892 -0.2664 -0.1951  0.2373
   16MPD2     H  249   1.724   2.791   2.117  2.1047  2.7035  0.5769
   16MPD2    H1  250   1.695   3.037   1.765  2.0819  0.1785  1.7780
   16MPD2    H2  251   1.370   3.009   2.043 -0.1670  0.3496 -1.4423
   16MPD2    H3  252   1.471   3.094   1.826 -1.2024  0.7874  2.0017
   16MPD2     N  253   1.857   2.865   1.916  0.5531 -0.0697 -0.8792
   16MPD2    H5  254   1.899   2.808   1.989 -2.6789  0.6350  1.5167
   16MPD2    N1  255   1.467   2.847   2.200 -0.1306  0.8910  0.6049
   16MPD2    H7  256   1.372   2.883   2.195 -0.4869 -0.0441  0.7125
   17TCq1    O1  257   0.816   3.048  10.602  0.2911  0.0781  0.5614
   17TCq1    C1  258   0.768   3.124  10.496 -0.1531  0.1186 -0.6786
   17TCq1    O2  259   0.824   3.123  10.389  0.1201 -0.0505 -0.1410
   17TCq1    C2  260   0.683   3.232  10.558 -0.0903 -0.9428 -0.0664
   17TCq1    C3  261   0.612   3.204  10.669  0.0866 -0.0610 -0.0038
   17TCq1    C4  262   0.565   3.310  10.741 -0.4140  0.3578  0.8884
   17TCq1    C5  263   0.595   3.438  10.711 -0.4604  0.1860 -0.1266
   17TCq1    C6  264   0.688   3.456  10.612 -0.4405 -0.3051  0.0530
   17TCq1    C7  265   0.728   3.357  10.531  0.4496 -0.0298 -0.1161
   17TCq1    C8  266   0.751   3.593  10.604  0.3656  0.6144  0.1330
   17TCq1    O4  267   0.717   3.671  10.692 -0.1809 -0.3738  0.5060
   17TCq1    C9  268   0.464   3.277  10.842 -0.0328  0.0932 -0.1725
   17TCq1    O5  269   0.450   3.366  10.923  0.2279  0.8631  0.0197
   17TCq1    O6  270   0.424   3.157  10.851 -0.1456 -0.6510 -0.4061
   17TCq1    H1  271   0.798   3.096  10.685 -0.4298  0.3893  0.2246
   17TCq1    H2  272   0.585   3.104  10.702  0.6852 -0.0211  0.6182
   17TCq1    H3  273   0.562   3.525  10.767 -1.8061 -1.1474  1.1285
   17TCq1    H4  274   0.798   3.369  10.449  0.6761  1.5390  0.2921
   18MPD2     C  275   0.915   3.826  10.526 -0.1375  1.0192  0.6222
   18MPD2    C1  276   0.900   3.714  10.449 -1.0861 -0.2271  0.0822
   18MPD2    C2  277   0.980   3.700  10.336  0.2079  0.2617  0.5147
   18MPD2    C3  278   1.069   3.803  10.309  0.1634 -0.7778 -0.5894
   18MPD2    C4  279   1.079   3.917  10.389 -0.0715  0.5553 -0.2881
   18MPD2    C5  280   0.997   3.928  10.492  0.4352 -0.2151  0.1490
   18MPD2     H  281   0.968   3.621  10.262  3.7866  2.7560 -2.7349
   18MPD2    H1  282   1.145   4.000  10.367  0.3811  0.1473 -0.4900
   18MPD2    H2  283   0.855   3.850  10.614  0.0018  0.5276  0.8460
   18MPD2    H3  284   0.992   4.025  10.541  0.4364  0.7579 -1.7659
   18MPD2     N  285   1.153   3.797  10.200 -0.2845 -0.2863 -0.6696
   18MPD2    H5  286   1.213   3.878  10.186 -2.2204  1.2711  0.1921
   18MPD2    N1  287   0.820   3.609  10.489 -0.2303 -0.1305  0.0837
   18MPD2    H7  288   0.825   3.531  10.425  1.1973  0.4144 -0.4594
   19TMC2    C1  289   1.528   3.733  13.840 -0.7296  0.1103 -0.3990
   19TMC2    C2  290   1.449   3.825  13.774  0.2260 -0.2992 -0.8282
   19TMC2    C3  291   1.331   3.854  13.836  0.3592  1.0078 -0.3484
   19TMC2    C4  292   1.493   3.667  13.959 -0.1008  0.3619  0.1353
   19TMC2    C5  293   1.364   3.696  14.004 -0.2102  0.2172 -0.1410
   19TMC2    C6  294   1.289   3.794  13.950  0.0067  0.0138 -0.6304
   19TMC2     C  295   1.671   3.749  13.819  0.2817  0.7633 -0.5324
   19TMC2     O  296   1.694   3.790  13.707 -0.1765 -0.5537  0.0815
   19TMC2     H  297   1.484   3.875  13.685  1.5354  0.9648  0.4113
   19TMC2    H1  298   1.556   3.591  14.004  0.0193  0.8267  0.7527
   19TMC2    H2  299   1.186   3.803  13.981  0.3100  0.0327  0.4118
   19TMC2    C7  300   1.307   3.599  14.110  0.2966  0.0825  0.4538
   19TMC2    C8  301   1.252   3.962  13.774  0.2328  0.0427  0.2429
   19TMC2    O1  302   1.185   3.594  14.113 -0.5097  0.2304 -0.1159
   19TMC2    O2  303   1.285   4.010  13.666 -0.2746  0.2497 -0.1270
   19TMC2    O5  304   1.164   4.022  13.854  0.2033 -0.2983  0.0553
   19TMC2    H5  305   1.172   3.982  13.943  2.8036  0.5118  0.1910
   20MPD2     C  306   1.959   3.674  13.766 -0.6894  0.3707 -0.4898
   20MPD2    C1  307   1.896   3.680  13.889  0.6017 -0.2701  0.3450
   20MPD2    C2  308   1.986   3.656  13.998 -0.2223 -0.1719  0.2277
   20MPD2    C3  309   2.122   3.646  13.987  0.0676 -0.7155  0.1654
   20MPD2    C4  310   2.179   3.666  13.864 -0.5102 -0.2582 -0.1882
   20MPD2    C5  311   2.098   3.673  13.761 -0.9751 -0.1412  0.2141
   20MPD2     H  312   1.934   3.646  14.092 -0.7136 -2.3614 -0.2741
   20MPD2    H1  313   2.285   3.664  13.841  0.1238 -1.4910  2.8435
   20MPD2    H2  314   1.902   3.691  13.675  0.8105  1.8041 -1.1436
   20MPD2    H3  315   2.152   3.674  13.667 -0.6877  2.5412  0.4031
   20MPD2     N  316   2.207   3.607  14.093  0.0578  0.5139 -0.2845
   20MPD2    H5  317   2.304   3.627  14.070  0.4013 -0.7334  0.1220
   20MPD2    N1  318   1.756   3.700  13.910  0.1805 -0.6075  0.1003
   20MPD2    H7  319   1.717   3.686  14.003 -1.6303  0.8193 -0.4535
   21MPD2     C  320   3.979   3.892  14.093 -0.0600 -0.4193  0.0551
   21MPD2    C1  321   4.068   3.879  14.198 -0.7832 -0.1443  0.6166
   21MPD2    C2  322   4.034   3.918  14.332 -0.5362 -0.3255  0.1125
   21MPD2    C3  323   3.905   3.960  14.358 -0.1815  0.1802  0.3585
   21MPD2    C4  324   3.824   3.979  14.249  0.4338  0.1005 -0.2622
   21MPD2    C5  325   3.856   3.947  14.119 -0.1870 -0.5071  0.6535
   21MPD2     H  326   4.108   3.907  14.411  0.3249 -0.3473 -0.6970
   21MPD2    H1  327   3.733   4.034  14.269  0.7937 -0.0947  1.9485
   21MPD2    H2  328   4.010   3.866  13.992 -1.1282  1.4155 -0.7601
   21MPD2    H3  329   3.799   3.979  14.033  0.7635  0.4952  0.3953
   21MPD2     N  330   3.858   4.002  14.489  0.4136 -0.8288  0.4167
   21MPD2    H5  331   3.762   4.034  14.488  0.4503 -0.6551  2.2383
   21MPD2    N1  332   4.202   3.844  14.178  0.0683  0.1047 -0.0345
   21MPD2    H7  333   4.263   3.838  14.259 -1.0147 -1.1293  0.6772
   22TCq2    C1  334   3.924   3.975  14.604  0.2422  0.0353  0.5664
   22TCq2    O2  335   4.022   3.906  14.617 -0.0275  0.0498  0.2188
   22TCq2    C2  336   3.862   4.008  14.732  0.0165  0.5792 -0.0491
   22TCq2    C3  337   3.915   3.960  14.845  0.7528 -0.0464 -0.1481
   22TCq2    C4  338   3.859   3.992  14.964  0.3870  0.1560 -0.0280
   22TCq2    C5  339   3.748   4.067  14.968  0.0387  0.0162 -0.3583
   22TCq2    C6  340   3.690   4.118  14.850 -0.4520  0.3206 -0.1522
   22TCq2    C7  341   3.743   4.085  14.727  0.5785 -0.4366 -0.2070
   22TCq2    C8  342   3.582   4.214  14.864 -0.1091  0.6603 -0.0660
   22TCq2    O4  343   3.550   4.234  14.979 -0.2738 -0.2650  0.6292
   22TCq2    C9  344   3.908   3.934  15.086  0.3553 -0.8380 -0.4052
   22TCq2    O5  345   3.994   3.836  15.081  0.6806 -0.2431  0.2175
   22TCq2    O6  346   3.860   3.982  15.195  0.1281 -0.6240  0.4118
   22TCq2    H2  347   4.006   3.901  14.843  1.2484  0.6646  1.2424
   22TCq2    H3  348   3.708   4.092  15.066 -1.1361 -1.5715 -0.4308
   22TCq2    H4  349   3.713   4.131  14.634  0.6086 -0.3503 -0.1740
   23MPD2     C  350   1.130   0.074  14.365 -0.3973  0.5404  0.4861
   23MPD2    C1  351   1.060   0.137  14.464 -0.0248  1.0042 -1.0743
   23MPD2    C2  352   1.018   0.271  14.444 -0.0787 -0.2863 -0.2544
   23MPD2    C3  353   1.035   0.331  14.310  0.3586  0.1963  0.1371
   23MPD2    C4  354   1.106   0.261  14.214 -0.3856 -0.6850 -0.3079
   23MPD2    C5  355   1.151   0.131  14.244 -0.4618 -0.1437  0.0318
   23MPD2     H  356   0.964   0.315  14.527  1.5966 -2.8861  2.2337
   23MPD2    H1  357   1.141   0.296  14.117 -0.4585 -2.2696 -0.8970
   23MPD2    H2  358   1.185   4.704  14.381 -0.2235  0.7555  1.1150
   23MPD2    H3  359   1.219   0.086  14.171  0.9992 -0.2159  1.4401
   23MPD2     N  360   0.989   0.466  14.287 -0.0214  0.0546  0.5339
   23MPD2    H5  361   1.011   0.514  14.200  0.6579 -1.3245 -0.0580
   23MPD2    N1  362   1.053   0.089  14.594 -0.6898 -0.4843  0.5925
   23MPD2    H7  363   1.022   0.145  14.672 -1.0124  0.2768 -0.0839
   24TCq2    C1  364   0.926   0.545  14.380 -0.0506  0.0062 -0.3227
   24TCq2    O2  365   0.899   0.525  14.500 -0.0256  0.6755  0.3266
   24TCq2    C2  366   0.883   0.674  14.327  0.1530  0.3129 -0.0957
   24TCq2    C3  367   0.884   0.693  14.192 -0.9966 -0.2148 -0.6995
   24TCq2    C4  368   0.813   0.797  14.142  0.1820 -0.4197  0.4477
   24TCq2    C5  369   0.752   0.889  14.222  0.3569 -0.1782  0.2368
   24TCq2    C6  370   0.754   0.862  14.357 -0.0065 -0.6112  0.4861
   24TCq2    C7  371   0.820   0.759  14.415 -0.4202 -0.0252 -0.3869
   24TCq2    C8  372   0.642   0.906  14.438  0.3356 -0.1377  0.5418
   24TCq2    O4  373   0.648   0.905  14.561  0.5701  0.4804  0.3696
   24TCq2    C9  374   0.791   0.805  14.002 -0.5108  0.2765  0.2609
   24TCq2    O5  375   0.724   0.897  13.951 -0.0566 -0.3299  0.2875
   24TCq2    O6  376   0.850   0.723  13.927  0.1220 -0.5181  0.8066
   24TCq2    H2  377   0.919   0.617  14.123 -1.5386 -0.7683 -0.3673
   24TCq2    H3  378   0.696   0.976  14.190  2.1106  0.8311 -0.1095
   24TCq2    H4  379   0.792   0.729  14.515  0.0234  3.2383  0.7102
   25TMC2    C1  380   0.117   3.286  11.659  0.5783  0.0462 -0.5912
   25TMC2    C2  381   0.182   3.380  11.730 -0.1095  0.3479  0.2240
   25TMC2    C3  382   0.147   3.405  11.863 -0.4635 -0.3978 -0.1513
   25TMC2    C4  383   0.044   3.193  11.726 -0.2562  0.0323  0.0754
   25TMC2    C5  384   0.007   3.219  11.855 -0.1331 -0.2100 -1.2245
   25TMC2    C6  385   0.049   3.327  11.920  0.3782  1.0026 -0.3250
   25TMC2     C  386   0.159   3.264  11.522 -0.1720 -0.1953  0.0829
   25TMC2     O  387   0.254   3.329  11.482 -0.4245  0.1795  0.4558
   25TMC2     H  388   0.248   3.450  11.681  1.3541 -0.6500  0.7771
   25TMC2    H1  389   0.045   3.092  11.685 -1.2854 -0.3010  0.8908
   25TMC2    H2  390   0.022   3.339  12.025  0.1355 -1.9636 -0.0528
   25TMC2    C7  391   4.641   3.120  11.926 -0.8482 -0.0016  0.6197
   25TMC2    C8  392   0.233   3.475  11.958  0.3968  0.5175 -0.2257
   25TMC2    O1  393   4.615   3.153  12.041  0.3234 -0.0370 -0.6464
   25TMC2    O2  394   0.262   3.429  12.065 -0.4149  0.0076 -0.5970
   25TMC2    O5  395   0.279   3.590  11.906  0.1365  0.1330  0.7116
   25TMC2    H5  396   0.223   3.622  11.833 -0.6770 -2.0199  0.4078
   26MPD2     C  397   0.085   3.045  11.069  0.5602 -0.8758 -0.6121
   26MPD2    C1  398   4.695   3.018  11.143 -0.4423 -0.0203 -0.6535
   26MPD2    C2  399   4.688   3.073  11.269  0.3147  0.4152  0.8573
   26MPD2    C3  400   0.074   3.151  11.323  0.7697  0.0087 -0.5099
   26MPD2    C4  401   0.184   3.162  11.252  0.1214  0.1228  0.7151
   26MPD2    C5  402   0.194   3.112  11.126  0.0645  0.0662  0.2171
   26MPD2     H  403   4.600   3.048  11.326  2.0524 -1.3991  2.7738
   26MPD2    H1  404   0.272   3.216  11.285  0.1780  1.1151 -1.0937
   26MPD2    H2  405   0.104   3.020  10.966  0.8779 -2.4322 -0.1728
   26MPD2    H3  406   0.281   3.137  11.066  0.3120  0.5001  0.7576
   26MPD2     N  407   0.067   3.197  11.456  0.0558  0.1783 -0.2581
   26MPD2    H5  408   4.706   3.166  11.507 -1.0240  1.8621 -1.0105
   26MPD2    N1  409   4.593   2.952  11.070  0.3589  0.1447 -0.2716
   26MPD2    H7  410   4.617   2.917  10.978 -2.1835  0.8276 -1.1998
   27TMC2    C1  411   3.367   0.183  12.254 -0.1522  0.4065  0.4015
   27TMC2    C2  412   3.365   0.216  12.121  0.0626  0.2122  0.0954
   27TMC2    C3  413   3.355   0.350  12.085  0.0277 -0.5319  0.1990
   27TMC2    C4  414   3.352   0.270  12.354 -0.1069 -0.1604  0.1487
   27TMC2    C5  415   3.341   0.399  12.311  0.1335 -0.6003 -0.3346
   27TMC2    C6  416   3.341   0.440  12.182 -0.3496 -0.2435  0.6741
   27TMC2     C  417   3.340   0.042  12.281 -0.5456  0.5953  0.1352
   27TMC2     O  418   3.377   4.688  12.194 -0.3288  0.0713 -0.0651
   27TMC2     H  419   3.374   0.141  12.044  0.1291 -2.3022  2.5554
   27TMC2    H1  420   3.360   0.241  12.458 -1.9716  1.1265  0.6464
   27TMC2    H2  421   3.322   0.545  12.164  0.2129 -0.0535  1.1931
   27TMC2    C7  422   3.318   0.496  12.416 -0.0123 -0.1789  0.3169
   27TMC2    C8  423   3.349   0.384  11.945 -0.0349  0.3007  0.9095
   27TMC2    O1  424   3.272   0.607  12.388 -0.0936 -0.1082  0.6268
   27TMC2    O2  425   3.369   0.299  11.859 -0.5267 -0.0459 -1.2059
   27TMC2    O5  426   3.253   0.485  11.936  0.5472  0.1903  0.0048
   27TMC2    H5  427   3.215   0.517  12.021  0.3096  0.0981 -0.0677
   28MPD2     C  428   3.039   4.398  12.490  0.4575 -0.6921  0.3430
   28MPD2    C1  429   3.021   4.518  12.554 -0.3356  0.2447 -0.4597
   28MPD2    C2  430   3.103   4.620  12.523  0.0430 -0.0869 -0.2716
   28MPD2    C3  431   3.190   4.617  12.416 -0.1117 -0.0706  0.1648
   28MPD2    C4  432   3.200   4.499  12.343 -0.0031  0.2854  0.0492
   28MPD2    C5  433   3.126   4.390  12.382  0.3968  0.7821  0.7052
   28MPD2     H  434   3.081   4.712  12.577 -2.0870 -0.1942 -0.9295
   28MPD2    H1  435   3.266   4.490  12.258 -0.6071  0.6280 -0.4488
   28MPD2    H2  436   2.991   4.305  12.516 -0.1458  0.0222  1.8011
   28MPD2    H3  437   3.122   4.300  12.321  2.0841  0.1653  1.5178
   28MPD2     N  438   3.256   0.020  12.384 -0.1911  0.2486  0.1268
   28MPD2    H5  439   3.225   0.099  12.439 -0.1341 -0.6895  1.5301
   28MPD2    N1  440   2.920   4.538  12.652  0.0396  0.2672 -0.4927
   28MPD2    H7  441   2.904   4.634  12.681  0.9304  0.4233 -0.5274
   29MPD2     C  442   2.583   2.558  14.091  0.4836 -0.0351 -0.0289
   29MPD2    C1  443   2.663   2.510  14.188  0.0226  0.0522 -0.8734
   29MPD2    C2  444   2.682   2.582  14.305 -0.1854  0.3946  0.2954
   29MPD2    C3  445   2.624   2.710  14.321  0.3233  0.8416 -0.6551
   29MPD2    C4  446   2.553   2.757  14.218 -0.1516  0.1755 -0.8830
   29MPD2    C5  447   2.536   2.682  14.100 -0.5742  0.1152 -0.0090
   29MPD2     H  448   2.744   2.535  14.381  1.1578  1.5475 -0.0919
   29MPD2    H1  449   2.497   2.850  14.221  0.0842  0.2444  1.1041
   29MPD2    H2  450   2.546   2.513  14.000 -1.5199  0.0511  0.7263
   29MPD2    H3  451   2.479   2.726  14.019 -2.5801  0.9192  1.8514
   29MPD2     N  452   2.634   2.783  14.431  0.5077  0.1275 -0.1869
   29MPD2    H5  453   2.591   2.875  14.438  1.8947  0.4976  3.5781
   29MPD2    N1  454   2.713   2.379  14.195  0.5970  0.3132 -0.5253
   29MPD2    H7  455   2.756   2.355  14.284 -0.2280 -0.0871 -0.2392
   30TCq2    C1  456   2.700   2.741  14.549 -0.0057  0.1023  0.4932
   30TCq2    O2  457   2.731   2.626  14.579 -0.0181 -0.6157 -0.6508
   30TCq2    C2  458   2.702   2.843  14.649  0.7735 -0.2247  0.7810
   30TCq2    C3  459   2.694   2.812  14.782  0.0496  0.0694 -0.1157
   30TCq2    C4  460   2.709   2.916  14.875 -0.2270  0.2911 -0.2284
   30TCq2    C5  461   2.723   3.046  14.834 -0.0436  0.3134 -0.6632
   30TCq2    C6  462   2.734   3.068  14.700  0.4916  0.8909 -0.3996
   30TCq2    C7  463   2.732   2.965  14.609 -0.1861 -0.1733  0.2701
   30TCq2    C8  464   2.707   3.197  14.646  0.8767  0.2382 -0.0922
   30TCq2    O4  465   2.681   3.191  14.526 -0.3525 -0.0881  0.1752
   30TCq2    C9  466   2.719   2.886  15.015 -0.0260  0.3647  0.6589
   30TCq2    O5  467   2.755   2.771  15.046 -0.0282 -0.1581 -0.5928
   30TCq2    O6  468   2.723   2.989  15.088  0.1327  0.1775  0.1074
   30TCq2    H2  469   2.694   2.706  14.806 -0.0930  0.1186  0.1012
   30TCq2    H3  470   2.728   3.115  14.918 -1.0329  0.3299 -0.6163
   30TCq2    H4  471   2.759   2.992  14.508 -0.4915  1.4999  0.6293
   31MPD2     C  472   0.726   1.249  14.871 -0.1488  0.2871  0.7052
   31MPD2    C1  473   0.591   1.276  14.847 -0.7505 -0.2540  0.0551
   31MPD2    C2  474   0.497   1.272  14.955  0.6872  0.0353  0.1142
   31MPD2    C3  475   0.547   1.242  15.082  0.1224  0.2237 -0.4585
   31MPD2    C4  476   0.679   1.226  15.105 -0.3378  0.3283 -0.2379
   31MPD2    C5  477   0.767   1.224  14.993 -0.3669  1.5755 -0.0328
   31MPD2     H  478   0.389   1.270  14.939  0.5870 -3.5903  1.0217
   31MPD2    H1  479   0.715   1.184  15.199  0.2548 -1.5532 -1.3017
   31MPD2    H2  480   0.797   1.256  14.790  0.7953  0.2029  1.5212
   31MPD2    H3  481   0.871   1.191  14.991 -1.1970 -1.0184 -0.1130
   31MPD2     N  482   0.466   1.235  15.197 -0.3284  0.7720 -0.3922
   31MPD2    H5  483   0.517   1.236  15.285  0.8413 -1.1404 -1.0371
   31MPD2    N1  484   0.553   1.314  14.718  0.2662 -0.9082  0.0581
   31MPD2    H7  485   0.620   1.340  14.646  0.0340 -2.3912 -0.7125
   32TCq2    C1  486   0.329   1.245  15.199  0.0460 -0.2524 -0.1590
   32TCq2    O2  487   0.243   1.246  15.112  0.3970  0.1901 -0.9376
   32TCq2    C2  488   0.273   1.241  15.338 -0.8944  0.5945  0.3768
   32TCq2    C3  489   0.146   1.289  15.350 -0.3801 -0.7240 -0.2664
   32TCq2    C4  490   0.083   1.272  15.472  0.3909 -0.4896  0.3155
   32TCq2    C5  491   0.147   1.217  15.580  0.7814  0.2447 -1.0704
   32TCq2    C6  492   0.274   1.176  15.565  0.0518 -0.6512  0.1785
   32TCq2    C7  493   0.338   1.178  15.442  0.2685  0.1909  0.0151
   32TCq2    C8  494   0.343   1.112  15.677  0.1952  0.5196  0.2844
   32TCq2    O4  495   0.456   1.062  15.662  0.0666  0.0702 -0.4165
   32TCq2    C9  496   4.677   1.334  15.492 -0.0122  0.5208  0.4923
   32TCq2    O5  497   4.628   1.376  15.385  0.1325 -0.6339  0.2505
   32TCq2    O6  498   4.618   1.343  15.604 -0.0899 -0.1085 -0.5283
   32TCq2    H2  499   0.102   1.352  15.274  2.5084  1.4155 -0.1536
   32TCq2    H3  500   0.088   1.199  15.669  1.3321 -1.0337 -0.9695
   32TCq2    H4  501   0.434   1.130  15.431 -0.1807 -0.5719 -0.5675
   33MPD2     C  502   1.238   3.355   9.531 -0.2599  0.4034  0.6845
   33MPD2    C1  503   1.332   3.449   9.542 -0.3795 -0.0128  0.5174
   33MPD2    C2  504   1.413   3.476   9.432  1.0805  0.3209  0.0584
   33MPD2    C3  505   1.396   3.397   9.316  0.2808  0.8670  0.1765
   33MPD2    C4  506   1.297   3.305   9.312 -0.3576  0.0487  0.0797
   33MPD2    C5  507   1.223   3.280   9.420  0.1667 -0.1706 -0.0358
   33MPD2     H  508   1.483   3.559   9.434  1.9166 -0.3880  0.2689
   33MPD2    H1  509   1.278   3.252   9.219 -0.1752  0.8203 -0.3977
   33MPD2    H2  510   1.166   3.338   9.610  0.6239 -1.5822  1.0668
   33MPD2    H3  511   1.149   3.200   9.419  1.1809 -1.1187  0.7179
   33MPD2     N  512   1.468   3.422   9.192 -0.5490 -0.3331 -0.7621
   33MPD2    H5  513   1.461   3.351   9.119  1.6611  1.9469 -3.1968
   33MPD2    N1  514   1.346   3.519   9.664 -0.4935 -0.4174  0.1045
   33MPD2    H7  515   1.268   3.496   9.725 -1.6565  3.8799  0.2567
   34TCq2    C1  516   1.553   3.525   9.168  0.6484  0.2728 -0.1703
   34TCq2    O2  517   1.580   3.613   9.248  0.0208 -0.2607  0.4653
   34TCq2    C2  518   1.626   3.524   9.038 -0.2931  0.1727 -0.0527
   34TCq2    C3  519   1.563   3.495   8.925 -0.3325 -0.0751  0.8243
   34TCq2    C4  520   1.610   3.541   8.803  0.0609 -0.4517 -0.9464
   34TCq2    C5  521   1.709   3.634   8.803 -0.6011 -0.3104 -0.2860
   34TCq2    C6  522   1.772   3.667   8.915  0.6694  0.0291 -0.0055
   34TCq2    C7  523   1.733   3.613   9.036  0.3028  0.0525 -0.1125
   34TCq2    C8  524   1.853   3.787   8.929 -0.6038  0.0315 -0.3514
   34TCq2    O4  525   1.887   3.826   9.039 -0.1271  0.7304  0.5531
   34TCq2    C9  526   1.539   3.514   8.681  0.0143  0.1116  0.4576
   34TCq2    O5  527   1.562   3.597   8.583 -0.2110 -0.0053 -0.6850
   34TCq2    O6  528   1.429   3.456   8.699  0.3746  0.3697 -0.1949
   34TCq2    H2  529   1.481   3.424   8.922 -0.7080  0.2913  2.5210
   34TCq2    H3  530   1.751   3.669   8.709  1.2092  0.2225  0.7242
   34TCq2    H4  531   1.771   3.641   9.134 -1.1940 -1.2123  0.8396
   35MPD2     C  532   2.405   0.878  11.741 -0.4157 -0.3202 -0.0089
   35MPD2    C1  533   2.357   0.748  11.761  0.6441  0.2237  0.7112
   35MPD2    C2  534   2.302   0.675  11.657  0.0257 -0.2756 -0.3804
   35MPD2    C3  535   2.283   0.735  11.526 -0.3197 -0.3124  0.2296
   35MPD2    C4  536   2.312   0.871  11.525 -0.2003 -0.0592 -0.1110
   35MPD2    C5  537   2.381   0.939  11.622 -0.3110 -0.5058  0.0203
   35MPD2     H  538   2.270   0.574  11.676 -0.4234  0.3821  2.2756
   35MPD2    H1  539   2.311   0.930  11.435  1.7927 -1.7922 -1.2621
   35MPD2    H2  540   2.439   0.938  11.825  2.8876 -1.8666 -0.2331
   35MPD2    H3  541   2.415   1.040  11.602  0.0509 -0.7951 -0.8257
   35MPD2     N  542   2.217   0.679  11.417  0.1659  0.3993  0.1360
   35MPD2    H5  543   2.181   0.584  11.426  1.3191 -0.0436  0.1590
   35MPD2    N1  544   2.368   0.694  11.892  0.1326  0.1131  0.4513
   35MPD2    H7  545   2.413   0.757  11.958  1.5794  2.7742 -3.0491
   36TCq2    C1  546   2.206   0.724  11.293  0.3063  0.2992 -0.4668
   36TCq2    O2  547   2.274   0.810  11.235 -0.1371  0.0625 -0.0212
   36TCq2    C2  548   2.108   0.651  11.215  0.7627 -0.0330  0.0412
   36TCq2    C3  549   2.124   0.630  11.076  0.0070 -0.9270  0.4132
   36TCq2    C4  550   2.027   0.562  11.009 -0.3184 -0.2773  0.1671
   36TCq2    C5  551   1.915   0.514  11.075  0.4944 -0.1940 -0.3470
   36TCq2    C6  552   1.906   0.534  11.206 -0.8058 -0.7240 -0.6393
   36TCq2    C7  553   1.999   0.595  11.280 -0.2012  0.0480  0.5561
   36TCq2    C8  554   1.839   0.431  11.282 -0.5618 -0.1228  1.2039
   36TCq2    O4  555   1.895   0.397  11.385  0.9057 -0.8775 -0.0769
   36TCq2    C9  556   2.052   0.518  10.876  0.6168  0.0372  0.4347
   36TCq2    O5  557   2.140   0.578  10.816  0.2046  0.1230 -0.2721
   36TCq2    O6  558   1.993   0.413  10.835  0.0756  0.8788  0.3524
   36TCq2    H2  559   2.215   0.651  11.021 -1.1074  1.4231 -0.5395
   36TCq2    H3  560   1.839   0.456  11.025 -0.0687  4.0476 -4.3025
   36TCq2    H4  561   1.982   0.602  11.387  0.2057  0.7733  0.5720
   37TMC2    C1  562   3.909   0.285  11.717 -0.4685 -0.2234 -0.1950
   37TMC2    C2  563   3.847   0.250  11.604 -0.3068 -0.3756 -0.0762
   37TMC2    C3  564   3.925   0.246  11.497  0.9291  0.2712 -0.2990
   37TMC2    C4  565   4.047   0.304  11.730  0.1759  0.0937  0.1344
   37TMC2    C5  566   4.113   0.300  11.614  0.0048  0.1390 -0.5646
   37TMC2    C6  567   4.059   0.280  11.493  0.3682  0.0357 -0.5553
   37TMC2     C  568   3.824   0.308  11.828 -0.4242 -0.4764  0.0639
   37TMC2     O  569   3.703   0.304  11.807 -0.1235  0.0706 -0.4699
   37TMC2     H  570   3.741   0.230  11.594 -0.9561  2.4230  1.1689
   37TMC2    H1  571   4.095   0.330  11.824  1.9370 -2.1114 -0.1587
   37TMC2    H2  572   4.127   0.258  11.412  1.0132  2.8233 -0.7797
   37TMC2    C7  573   4.258   0.338  11.623  0.6398  0.2052 -0.1103
   37TMC2    C8  574   3.853   0.217  11.373  0.4596  0.3917  0.2503
   37TMC2    O1  575   4.318   0.338  11.728 -0.1957  0.2723 -0.0557
   37TMC2    O2  576   3.747   0.157  11.360  0.1617  0.2195  0.3905
   37TMC2    O5  577   3.928   0.267  11.271  0.4576  0.1446 -0.0215
   37TMC2    H5  578   3.987   0.338  11.303  1.8907 -0.1674 -1.9970
   38MPD2     C  579   3.751   0.500  12.306  0.1550 -0.2323 -0.3025
   38MPD2    C1  580   3.878   0.448  12.299 -0.0739 -1.0638  0.2186
   38MPD2    C2  581   3.925   0.393  12.177 -0.3725 -0.7712 -0.0963
   38MPD2    C3  582   3.843   0.391  12.065  0.4759  0.7745  0.0148
   38MPD2    C4  583   3.721   0.454  12.075 -0.1222 -0.0701 -0.4199
   38MPD2    C5  584   3.677   0.501  12.193  0.1000 -0.4698 -0.6321
   38MPD2     H  585   4.015   0.332  12.177 -1.4949 -2.4332  3.0245
   38MPD2    H1  586   3.654   0.455  11.990  0.0328 -1.0245 -0.5577
   38MPD2    H2  587   3.714   0.548  12.396 -1.0464  0.8485 -1.3751
   38MPD2    H3  588   3.583   0.554  12.209  0.3216 -0.5042  0.7454
   38MPD2     N  589   3.894   0.329  11.944 -0.1843  0.4613 -0.2017
   38MPD2    H5  590   3.988   0.293  11.949 -0.0386  0.8590 -0.0123
   38MPD2    N1  591   3.978   0.448  12.401 -0.5299  0.0415 -0.0700
   38MPD2    H7  592   4.064   0.402  12.374 -1.0919 -0.1789 -1.5153
   39MPD2     C  593   3.135   2.214   1.797 -0.6712  0.0985 -0.1485
   39MPD2    C1  594   3.030   2.241   1.892 -0.0850 -0.8030 -0.2861
   39MPD2    C2  595   2.901   2.247   1.849  0.1998 -0.0488  0.0917
   39MPD2    C3  596   2.876   2.227   1.716  0.1546  0.0443  0.2833
   39MPD2    C4  597   2.972   2.195   1.623 -0.3442 -0.6495 -0.5161
   39MPD2    C5  598   3.101   2.177   1.666  0.3715 -0.0725  0.1347
   39MPD2     H  599   2.823   2.295   1.907 -2.0968 -3.7691  0.1022
   39MPD2    H1  600   2.957   2.160   1.521  0.7020 -0.9256 -0.5733
   39MPD2    H2  601   3.237   2.187   1.819 -1.0631 -1.0063  0.3361
   39MPD2    H3  602   3.185   2.142   1.606  1.1437  0.6605  0.7944
   39MPD2     N  603   2.741   2.244   1.661  0.4778  0.3021 -0.5472
   39MPD2    H5  604   2.728   2.261   1.562 -0.3158 -0.0849 -0.5010
   39MPD2    N1  605   3.065   2.272   2.026 -0.0820  0.5194  0.1823
   39MPD2    H7  606   3.161   2.304   2.039  0.2551  1.5233 -4.7278
   40TCq2    C1  607   2.980   2.290   2.130 -0.3787  0.4009 -0.3253
   40TCq2    O2  608   2.869   2.244   2.144 -0.7925 -0.1916 -0.0798
   40TCq2    C2  609   3.040   2.356   2.242  0.2051 -0.2014 -0.5678
   40TCq2    C3  610   2.979   2.321   2.363  0.8910  0.8406  0.2302
   40TCq2    C4  611   3.044   2.346   2.476  0.5188 -0.0306  0.6164
   40TCq2    C5  612   3.169   2.412   2.476  0.0337 -0.0988 -0.5862
   40TCq2    C6  613   3.224   2.443   2.350  0.4922  0.0881  0.5489
   40TCq2    C7  614   3.168   2.417   2.231  0.3018 -0.0589 -0.5134
   40TCq2    C8  615   3.332   2.530   2.345 -0.6873  0.5434  0.1129
   40TCq2    O4  616   3.393   2.543   2.451  0.6583  0.0395 -0.1083
   40TCq2    C9  617   3.005   2.290   2.605  0.0948  0.1628 -0.5864
   40TCq2    O5  618   2.886   2.242   2.612 -0.4082 -0.2044 -0.5333
   40TCq2    O6  619   3.102   2.283   2.685 -0.1589 -0.2036 -0.1576
   40TCq2    H2  620   2.894   2.253   2.364  1.3980  0.2031  0.0867
   40TCq2    H3  621   3.227   2.427   2.566 -2.3618 -1.6256  1.2444
   40TCq2    H4  622   3.217   2.432   2.136 -0.8330 -1.4019 -1.3045
   41TMC2    C1  623   1.522   0.727  13.487  0.6654 -0.3213  0.0076
   41TMC2    C2  624   1.629   0.699  13.568 -0.0620 -0.3922  0.1605
   41TMC2    C3  625   1.748   0.674  13.513  0.2468 -0.2535 -0.7170
   41TMC2    C4  626   1.533   0.728  13.347  0.1452  0.0045 -0.2272
   41TMC2    C5  627   1.654   0.673  13.297  0.2615 -0.3121  0.1714
   41TMC2    C6  628   1.764   0.653  13.376  0.2902 -0.2321 -0.0058
   41TMC2     C  629   1.405   0.801  13.536 -0.3183  0.2093  0.2832
   41TMC2     O  630   1.317   0.829  13.453  0.1168  0.3929  0.2848
   41TMC2     H  631   1.620   0.712  13.676 -0.2616 -1.2595  0.2436
   41TMC2    H1  632   1.451   0.759  13.284 -1.6989  0.3957  2.3521
   41TMC2    H2  633   1.857   0.607  13.344  0.3126  0.0250 -0.3063
   41TMC2    C7  634   1.684   0.668  13.152  0.0296  0.8367 -0.3849
   41TMC2    C8  635   1.859   0.617  13.596  0.6401 -0.1743  0.1830
   41TMC2    O1  636   1.803   0.694  13.127  0.2774 -0.2890  0.0733
   41TMC2    O2  637   1.833   0.550  13.699  0.2243 -0.1108  0.5932
   41TMC2    O5  638   1.960   0.705  13.580  0.2017  0.4292  0.1504
   41TMC2    H5  639   1.952   0.770  13.506 -2.9881 -0.8773 -0.6683
   42MPD2     C  640   1.234   1.001  13.655 -0.5179 -0.2598 -0.5798
   42MPD2    C1  641   1.308   0.912  13.731 -0.1733 -0.0597 -0.0979
   42MPD2    C2  642   1.307   0.927  13.867  0.6777 -0.0248  0.3403
   42MPD2    C3  643   1.228   1.018  13.926 -0.8632  0.3226  0.2415
   42MPD2    C4  644   1.149   1.103  13.862  0.4105 -0.2830 -0.5669
   42MPD2    C5  645   1.154   1.094  13.723 -0.5688 -0.8769 -0.1429
   42MPD2     H  646   1.372   0.863  13.925 -1.9217 -0.7356  2.4475
   42MPD2    H1  647   1.085   1.173  13.915 -1.4929 -2.4224 -0.0219
   42MPD2    H2  648   1.234   1.009  13.546  1.2956  1.2716 -0.4574
   42MPD2    H3  649   1.092   1.168  13.674  1.3863  2.6838  2.8009
   42MPD2     N  650   1.205   1.032  14.067  0.4985  0.1376  0.2543
   42MPD2    H5  651   1.139   1.105  14.091  0.2822  0.2250 -0.5776
   42MPD2    N1  652   1.396   0.820  13.670 -0.0652 -0.9100 -0.4162
   42MPD2    H7  653   1.456   0.770  13.735 -2.0657 -1.9183  0.6631
   43MPD2     C  654   2.809   3.449   0.938  0.8844 -0.3395 -0.0123
   43MPD2    C1  655   2.941   3.406   0.913  0.1541  0.2524 -0.0411
   43MPD2    C2  656   3.043   3.500   0.934 -0.0287  0.1887 -0.0819
   43MPD2    C3  657   3.022   3.631   0.980  0.0608 -0.6819 -0.9166
   43MPD2    C4  658   2.895   3.666   1.009 -0.2736  0.2942  0.4248
   43MPD2    C5  659   2.791   3.575   0.986  0.0002 -0.2185  0.4405
   43MPD2     H  660   3.144   3.464   0.915  0.4701  2.5582 -1.9350
   43MPD2    H1  661   2.858   3.760   1.049 -0.3780  0.4532 -0.0400
   43MPD2    H2  662   2.726   3.382   0.916 -0.3646  0.1697  3.0967
   43MPD2    H3  663   2.689   3.600   1.009 -0.4970 -1.7592 -0.0405
   43MPD2     N  664   3.120   3.728   1.005 -0.5462 -0.1509 -0.2328
   43MPD2    H5  665   3.090   3.814   1.050 -0.8662 -0.9172  1.0452
   43MPD2    N1  666   2.972   3.282   0.856  0.6491  0.2119  0.0633
   43MPD2    H7  667   3.068   3.264   0.828  0.8615  3.8263 -1.5496
   44TCq2    C1  668   3.672   3.902   1.085  0.0220 -0.1263  0.0991
   44TCq2    O2  669   3.725   3.801   1.044 -0.0175 -0.0249 -0.1067
   44TCq2    C2  670   3.532   3.936   1.055  0.2260  0.3317  0.1945
   44TCq2    C3  671   3.473   4.064   1.079  0.0852 -0.2958 -0.4157
   44TCq2    C4  672   3.338   4.078   1.065  1.5921  0.7419 -0.3524
   44TCq2    C5  673   3.265   3.970   1.025  0.6969  0.3270 -0.0841
   44TCq2    C6  674   3.326   3.853   1.000 -0.6874 -0.3998  0.6263
   44TCq2    C7  675   3.461   3.831   1.013  0.8869 -0.1040 -0.4494
   44TCq2    C8  676   3.254   3.728   0.966 -0.4359 -0.0651  0.5025
   44TCq2    O4  677   3.311   3.639   0.909  0.3659  0.2187 -0.1993
   44TCq2    C9  678   3.267   4.204   1.085  0.4334 -0.5470 -0.1644
   44TCq2    O5  679   3.158   4.216   1.029 -0.4029  0.0167  0.1527
   44TCq2    O6  680   3.328   4.299   1.140 -0.5462 -0.1398 -0.0738
   44TCq2    H2  681   3.535   4.143   1.120 -0.9677  0.2730  0.0762
   44TCq2    H3  682   3.158   3.974   1.006  0.4665  1.7433  1.5136
   44TCq2    H4  683   3.503   3.731   1.005  3.8035  1.0622  0.4350
   45TMC2    C1  684   3.853   1.025   9.495  0.0158 -0.0911 -0.7325
   45TMC2    C2  685   3.750   1.022   9.406 -0.1100  0.0308  0.4724
   45TMC2    C3  686   3.670   1.137   9.406  0.2958 -0.3487 -0.0858
   45TMC2    C4  687   3.881   1.144   9.554  0.2404  0.1624 -0.4059
   45TMC2    C5  688   3.807   1.256   9.533  0.0982  0.6958 -0.6750
   45TMC2    C6  689   3.698   1.265   9.454  0.2102 -0.0961  0.6585
   45TMC2     C  690   3.957   0.924   9.513 -0.5183 -0.1023  0.4233
   45TMC2     O  691   4.050   0.958   9.589  0.0524 -0.2365  0.0042
   45TMC2     H  692   3.712   0.933   9.357 -1.6911  1.1860 -0.4102
   45TMC2    H1  693   3.964   1.163   9.621 -0.5560 -1.1203  0.9519
   45TMC2    H2  694   3.638   1.352   9.430 -0.1708 -0.3374  0.7338
   45TMC2    C7  695   3.847   1.376   9.609  0.1851  0.0114  0.1187
   45TMC2    C8  696   3.593   1.149   9.287 -0.0011  0.4617 -0.4675
   45TMC2    O1  697   3.861   1.370   9.732  0.4259 -0.3649 -0.0225
   45TMC2    O2  698   3.507   1.236   9.283  0.4410 -0.2878 -0.7468
   45TMC2    O5  699   3.668   1.113   9.180  0.1093  0.1036 -0.2488
   45TMC2    H5  700   3.760   1.087   9.203 -0.3579 -0.7718  0.6470
   46MPD2     C  701   4.148   0.701   9.504 -0.6612  0.2033  0.1122
   46MPD2    C1  702   4.018   0.693   9.457 -0.9479  0.1120  0.4787
   46MPD2    C2  703   3.957   0.574   9.428 -0.1376 -1.1732 -0.5680
   46MPD2    C3  704   4.028   0.455   9.450  0.3192 -0.1535 -0.5217
   46MPD2    C4  705   4.161   0.468   9.496 -0.4391 -0.1035 -0.2440
   46MPD2    C5  706   4.222   0.587   9.507  0.4582  0.2193 -0.6221
   46MPD2     H  707   3.853   0.569   9.396 -0.1805  0.5607 -0.7344
   46MPD2    H1  708   4.222   0.379   9.505  0.9953  1.0321  1.0894
   46MPD2    H2  709   4.187   0.801   9.516 -0.6581  0.0659  1.2304
   46MPD2    H3  710   4.326   0.596   9.539 -0.0918  0.1920  1.1739
   46MPD2     N  711   3.969   0.337   9.406 -0.2126  0.2721 -0.2439
   46MPD2    H5  712   3.886   0.361   9.352 -0.1471 -1.2816 -1.0502
   46MPD2    N1  713   3.938   0.812   9.442 -0.7506  0.0841  0.1131
   46MPD2    H7  714   3.851   0.807   9.389  0.4065  0.8453 -1.8491
   47TMC2    C1  715   1.890   1.578   9.204  0.7840  0.1174  0.2225
   47TMC2    C2  716   1.976   1.502   9.127 -0.0122  0.1917  0.2078
   47TMC2    C3  717   1.985   1.537   8.992 -0.4575  0.1334  0.7191
   47TMC2    C4  718   1.810   1.676   9.147  0.2969  0.9785 -0.1247
   47TMC2    C5  719   1.827   1.705   9.009 -0.7531  0.3970 -0.5228
   47TMC2    C6  720   1.919   1.637   8.931 -0.2069  0.0517  0.7232
   47TMC2     C  721   1.873   1.546   9.349 -0.3594  0.5315 -0.3865
   47TMC2     O  722   1.818   1.623   9.423  0.7074 -0.4411  0.0996
   47TMC2     H  723   2.057   1.452   9.178  1.6698  0.5378 -2.1540
   47TMC2    H1  724   1.731   1.726   9.204 -0.2282 -0.9138  0.8112
   47TMC2    H2  725   1.932   1.654   8.825 -0.8433  0.6775  0.7457
   47TMC2    C7  726   1.757   1.823   8.959  1.1261 -0.6953  0.0073
   47TMC2    C8  727   2.059   1.446   8.901 -0.6236  0.0821  0.7375
   47TMC2    O1  728   1.676   1.876   9.033 -0.6601  0.1317  0.0108
   47TMC2    O2  729   2.129   1.488   8.805 -0.0751  0.4806 -0.3520
   47TMC2    O5  730   2.054   1.319   8.949  0.3419 -0.4031 -0.1906
   47TMC2    H5  731   2.002   1.310   9.032 -1.1411  1.3580 -0.9377
   48MPD2     C  732   1.873   1.438   9.620 -0.6138  0.6684 -0.1961
   48MPD2    C1  733   1.910   1.367   9.508 -0.1901 -0.3701 -0.3970
   48MPD2    C2  734   1.959   1.238   9.524  1.3266 -0.0263 -0.0994
   48MPD2    C3  735   1.967   1.176   9.644  0.1378  0.2530 -0.1853
   48MPD2    C4  736   1.925   1.250   9.755 -0.8510  0.1914  0.0856
   48MPD2    C5  737   1.885   1.380   9.742  0.2292 -0.0002 -0.4133
   48MPD2     H  738   1.990   1.182   9.437 -0.5591  0.1138 -0.8470
   48MPD2    H1  739   1.932   1.211   9.855 -0.7248 -1.8835 -0.7378
   48MPD2    H2  740   1.841   1.541   9.623 -0.7826  0.5435  2.1349
   48MPD2    H3  741   1.867   1.434   9.834 -0.4590  0.5297 -0.8719
   48MPD2     N  742   2.018   1.048   9.654  0.0392  0.1904  0.2109
   48MPD2    H5  743   2.024   0.996   9.566 -0.8581 -0.9735  0.8352
   48MPD2    N1  744   1.911   1.418   9.379  0.6719  0.5185 -0.0626
   48MPD2    H7  745   1.940   1.358   9.303  0.0540  0.1688 -0.0221
   49MPD2     C  746   0.449   3.532  10.331  0.4326 -0.2634  0.1033
   49MPD2    C1  747   0.411   3.401  10.356 -0.8188 -0.2855 -0.3886
   49MPD2    C2  748   0.338   3.372  10.470 -0.1190  0.1047  0.4792
   49MPD2    C3  749   0.295   3.476  10.555  0.3779  0.0073  0.1708
   49MPD2    C4  750   0.346   3.604  10.539  0.0003 -0.4964  0.3662
   49MPD2    C5  751   0.421   3.631  10.428 -0.2840  0.0018 -0.5900
   49MPD2     H  752   0.294   3.274  10.484  2.6431 -1.1011  0.7294
   49MPD2    H1  753   0.314   3.679  10.611  0.1250 -1.6273  1.6090
   49MPD2    H2  754   0.518   3.559  10.251 -0.1049 -0.6457 -0.4916
   49MPD2    H3  755   0.460   3.730  10.408 -1.4167  0.2188 -1.7234
   49MPD2     N  756   0.206   3.451  10.659  0.0785  0.4361  0.6027
   49MPD2    H5  757   0.193   3.527  10.726  0.1158  0.0598  1.0350
   49MPD2    N1  758   0.465   3.293  10.281 -0.4726 -0.1892  0.7232
   49MPD2    H7  759   0.453   3.204  10.327 -0.0820 -0.4930  0.2379
   50TCq2    C1  760   0.527   3.307  10.157 -0.1376  0.3555  0.4161
   50TCq2    O2  761   0.542   3.407  10.087 -0.1308 -0.2652  0.3076
   50TCq2    C2  762   0.587   3.179  10.104  1.0763 -0.0191  0.2892
   50TCq2    C3  763   0.660   3.199   9.992  0.1100  0.0613  0.4038
   50TCq2    C4  764   0.687   3.092   9.906  0.2624  0.3943 -0.1399
   50TCq2    C5  765   0.621   2.971   9.930  0.2731 -0.9087  0.4732
   50TCq2    C6  766   0.535   2.961  10.036 -0.2425 -0.4044  0.1788
   50TCq2    C7  767   0.517   3.063  10.128  0.5751 -0.6989  0.7278
   50TCq2    C8  768   0.441   2.849  10.061 -0.0364  0.3035 -0.1682
   50TCq2    O4  769   0.338   2.878  10.122 -0.0354 -0.0013  0.1539
   50TCq2    C9  770   0.749   3.111   9.770 -0.7235  0.5709 -0.0052
   50TCq2    O5  771   0.767   3.232   9.740  0.2855 -0.0933 -0.0171
   50TCq2    O6  772   0.740   3.021   9.680  0.0311  0.1077 -0.2830
   50TCq2    H2  773   0.720   3.285   9.963 -1.4717  1.2834  0.7500
   50TCq2    H3  774   0.624   2.887   9.862 -0.1726  0.5916 -1.4136
   50TCq2    H4  775   0.432   3.057  10.195  0.1763 -0.1229  0.2722
   51MPD2     C  776   4.562   1.630   1.534  0.7986  0.2600 -0.5436
   51MPD2    C1  777   4.603   1.521   1.607 -0.1356  0.1083  0.7710
   51MPD2    C2  778   4.618   1.541   1.744  0.9135 -0.1925  0.0011
   51MPD2    C3  779   4.596   1.661   1.806  0.0405 -0.6509  0.0478
   51MPD2    C4  780   4.550   1.769   1.732  0.3714 -0.4879  0.3130
   51MPD2    C5  781   4.531   1.745   1.599  0.0414  0.0983  0.1091
   51MPD2     H  782   4.649   1.455   1.802 -1.3137 -1.3276 -0.4901
   51MPD2    H1  783   4.511   1.856   1.784  2.2636  1.5297 -1.6645
   51MPD2    H2  784   4.545   1.618   1.427  0.4220 -2.7553 -0.1266
   51MPD2    H3  785   4.476   1.822   1.547  1.2960  0.7117 -0.3179
   51MPD2     N  786   4.619   1.685   1.942 -0.0163  0.4455 -0.6043
   51MPD2    H5  787   4.618   1.779   1.980  1.7510 -0.7515  2.3613
   51MPD2    N1  788   4.627   1.389   1.556  0.7970 -0.0649 -0.0051
   51MPD2    H7  789   4.637   1.316   1.627  1.2714 -1.3033 -1.3478
   52TCq2    C1  790   4.637   1.584   2.035 -0.1221 -0.9198 -0.2806
   52TCq2    O2  791   4.630   1.462   2.019  0.4769  0.2600  1.0470
   52TCq2    C2  792   4.670   1.635   2.163  0.4787  0.2069  0.0615
   52TCq2    C3  793   4.662   1.540   2.262 -0.3037 -0.1404  0.0082
   52TCq2    C4  794   0.004   1.566   2.377 -0.5889  0.3251  0.4198
   52TCq2    C5  795   0.080   1.682   2.393 -0.1762  0.4368 -0.2078
   52TCq2    C6  796   0.090   1.763   2.292  0.1200 -0.0702  0.1115
   52TCq2    C7  797   0.019   1.749   2.173 -0.2048  1.2028 -0.0383
   52TCq2    C8  798   0.175   1.882   2.309 -0.8588 -0.5243  0.1949
   52TCq2    O4  799   0.249   1.892   2.405  0.3979 -0.2279 -0.5844
   52TCq2    C9  800   4.722   1.472   2.486  0.7084  0.4619 -0.2271
   52TCq2    O5  801   4.651   1.368   2.471  0.2496 -0.4443 -0.2578
   52TCq2    O6  802   0.056   1.504   2.593  0.2931 -0.3724  0.2671
   52TCq2    H2  803   4.613   1.445   2.245  0.4869 -1.0412  2.8342
   52TCq2    H3  804   0.141   1.687   2.483  0.0252  0.8952 -0.3732
   52TCq2    H4  805   0.039   1.805   2.082 -0.6320 -0.5475 -1.2145
   53TMC2    C1  806   0.216   0.603  11.767  0.5118  0.3918  0.1059
   53TMC2    C2  807   0.352   0.627  11.775 -0.5771  0.1186 -0.4092
   53TMC2    C3  808   0.399   0.664  11.894  0.4591 -0.1330  0.7509
   53TMC2    C4  809   0.135   0.623  11.879 -0.4274 -0.7212  0.6350
   53TMC2    C5  810   0.190   0.671  11.998 -0.8531  0.6007 -0.5386
   53TMC2    C6  811   0.324   0.700  12.006 -0.6227  0.1143  0.1990
   53TMC2     C  812   0.155   0.565  11.634  0.1309 -0.9958  0.3066
   53TMC2     O  813   0.210   0.605  11.534 -0.0887 -0.2825  0.5474
   53TMC2     H  814   0.419   0.606  11.692  0.9249 -0.7191  1.0035
   53TMC2    H1  815   0.027   0.618  11.876 -0.3375 -0.6220 -2.5413
   53TMC2    H2  816   0.372   0.728  12.098 -0.8686  1.7677 -0.1810
   53TMC2    C7  817   0.101   0.688  12.109  0.2814  0.2273 -0.7721
   53TMC2    C8  818   0.540   0.657  11.924 -0.4186  0.5617  0.3453
   53TMC2    O1  819   4.705   0.714  12.083  0.1413  0.0966  0.4130
   53TMC2    O2  820   0.589   0.711  12.024 -0.4610 -0.1469  0.6843
   53TMC2    O5  821   0.582   0.543  11.870  0.3715 -0.2546  0.0203
   53TMC2    H5  822   0.528   0.490  11.808  0.7101  1.1179 -1.4467
   54MPD2     C  823   4.662   0.597  11.424 -0.0627  0.1801 -0.2638
   54MPD2    C1  824   4.651   0.520  11.543 -0.3460  0.4269 -0.4839
   54MPD2    C2  825   4.530   0.458  11.570 -0.5932  0.9021 -0.0192
   54MPD2    C3  826   4.422   0.458  11.480 -0.1262 -0.7427 -0.1139
   54MPD2    C4  827   4.443   0.515  11.356 -0.0637  0.3198 -0.2056
   54MPD2    C5  828   4.550   0.595  11.339  0.5148 -0.4929 -0.9174
   54MPD2     H  829   4.521   0.409  11.667 -1.1657  0.1606 -0.4487
   54MPD2    H1  830   4.370   0.511  11.276  1.4420 -2.9968 -1.4018
   54MPD2    H2  831   0.024   0.660  11.396 -0.4534  1.1355  0.6999
   54MPD2    H3  832   4.552   0.655  11.248 -1.3342 -2.0839 -2.0007
   54MPD2     N  833   4.295   0.395  11.498  0.0014  0.3730  0.0154
   54MPD2    H5  834   4.221   0.413  11.431  0.4269 -0.4002 -0.6797
   54MPD2    N1  835   0.021   0.530  11.651 -0.3878 -0.1872  0.3806
   54MPD2    H7  836   4.703   0.508  11.741  1.4494  0.5945  1.3762
   55MPD2     C  837   1.596   3.063   0.200  0.2570  0.1561  0.6785
   55MPD2    C1  838   1.569   3.051   0.338  0.0527  0.0250  0.7135
   55MPD2    C2  839   1.453   3.108   0.398  0.0942 -0.1157 -0.0184
   55MPD2    C3  840   1.382   3.198   0.318  0.0898 -0.5692  0.8723
   55MPD2    C4  841   1.412   3.208   0.187  0.5136  0.0031 -0.4087
   55MPD2    C5  842   1.507   3.136   0.126 -0.6802  0.6729  0.2441
   55MPD2     H  843   1.435   3.106   0.505 -1.5309 -2.5191 -0.3444
   55MPD2    H1  844   1.361   3.270   0.113  2.9940  0.3688 -1.8062
   55MPD2    H2  845   1.669   3.008   0.142 -0.4559  1.5878 -1.5910
   55MPD2    H3  846   1.530   3.166   0.025  0.6789 -0.4546  0.2145
   55MPD2     N  847   1.295   3.275   0.388  1.0935  0.5533  0.0358
   55MPD2    H5  848   1.294   3.262   0.489 -1.0110  0.3456 -0.0122
   55MPD2    N1  849   1.651   2.963   0.409 -0.1186 -0.3079  0.2386
   55MPD2    H7  850   1.723   2.919   0.353 -0.1779 -0.3567  0.2011
   56TCq2    C1  851   1.624   2.916   0.538  0.5949  0.0605  0.3342
   56TCq2    O2  852   1.518   2.925   0.599 -0.6831 -0.0328  0.3871
   56TCq2    C2  853   1.728   2.838   0.588 -0.5007  0.7936  0.2557
   56TCq2    C3  854   1.834   2.789   0.521 -0.4060  0.0524  0.3748
   56TCq2    C4  855   1.911   2.686   0.570  0.4149 -0.0102 -0.5702
   56TCq2    C5  856   1.875   2.620   0.682  0.2568 -0.2558 -0.1195
   56TCq2    C6  857   1.762   2.669   0.749 -0.3809 -0.1185 -0.1859
   56TCq2    C7  858   1.697   2.779   0.707 -0.3889 -0.7113  0.9045
   56TCq2    C8  859   1.698   2.576   0.848 -0.6453  0.0523  0.2367
   56TCq2    O4  860   1.775   2.534   0.933 -0.0298 -0.2934 -0.3488
   56TCq2    C9  861   2.023   2.630   0.495 -0.3015 -0.2892 -0.2764
   56TCq2    O5  862   2.058   2.510   0.537 -0.2434 -0.6023  0.3352
   56TCq2    O6  863   2.051   2.688   0.383  0.4914  0.6808  0.1139
   56TCq2    H2  864   1.867   2.828   0.426 -0.5526 -1.6351 -0.3794
   56TCq2    H3  865   1.922   2.530   0.720  0.1833 -2.0615 -4.3516
   56TCq2    H4  866   1.616   2.805   0.774 -0.5929  1.7052 -0.2412
   57TMC2    C1  867   0.051   4.094  13.640 -0.9230 -0.1211 -0.0885
   57TMC2    C2  868   0.170   4.064  13.694  0.4401  0.0511 -0.1448
   57TMC2    C3  869   0.265   3.990  13.628  0.1762 -0.6588 -0.2017
   57TMC2    C4  870   0.010   4.049  13.517 -0.3732  0.0671 -0.1587
   57TMC2    C5  871   0.100   3.975  13.453  1.1638  0.1230 -0.3902
   57TMC2    C6  872   0.234   3.953  13.502  0.2225  0.1701  0.7014
   57TMC2     C  873   4.657   4.136  13.722  0.6156 -0.5164 -0.6246
   57TMC2     O  874   4.678   4.190  13.831 -0.5523  0.1361  0.2100
   57TMC2     H  875   0.181   4.091  13.799  1.4553 -0.2155 -0.1920
   57TMC2    H1  876   4.637   4.086  13.479 -0.3084  0.0387 -0.3466
   57TMC2    H2  877   0.308   3.889  13.455 -0.5302 -1.1048  1.2742
   57TMC2    C7  878   0.055   3.903  13.332 -0.3610  0.9625  0.7678
   57TMC2    C8  879   0.369   3.920  13.699 -0.3435  0.1760  0.1549
   57TMC2    O1  880   4.664   3.926  13.297 -0.9448  0.7652  0.1748
   57TMC2    O2  881   0.399   3.804  13.675 -0.6025  0.2700 -0.5639
   57TMC2    O5  882   0.403   3.990  13.808 -0.9778 -0.2638  0.1211
   57TMC2    H5  883   0.393   4.088  13.801  1.3180 -0.0501 -0.1834
   58MPD2     C  884   4.165   4.042  13.834  0.1364 -0.9395  0.5831
   58MPD2    C1  885   4.260   4.108  13.909  0.2067  0.4769  0.6690
   58MPD2    C2  886   4.387   4.118  13.860  0.0656  0.2339 -0.2312
   58MPD2    C3  887   4.426   4.043  13.750 -0.0710  0.1343  0.5213
   58MPD2    C4  888   4.329   3.973  13.682 -1.2558  0.2739  0.3076
   58MPD2    C5  889   4.198   3.976  13.723 -0.4308  0.4190  0.6585
   58MPD2     H  890   4.455   4.184  13.913 -1.1073  0.7803  0.5932
   58MPD2    H1  891   4.347   3.925  13.587  0.3517 -2.3728  1.9165
   58MPD2    H2  892   4.059   4.038  13.857 -0.1505  0.9657 -0.4118
   58MPD2    H3  893   4.118   3.923  13.673 -0.7155  3.0102 -1.6251
   58MPD2     N  894   4.551   4.057  13.688  0.1420  0.4879  0.3084
   58MPD2    H5  895   4.554   4.001  13.604 -1.4129 -3.3124  2.7849
   58MPD2    N1  896   4.233   4.169  14.036  0.5127  0.0784  0.0909
   58MPD2    H7  897   4.307   4.202  14.096  0.1386 -0.2297  0.7137
   59MPD2     C  898   2.872   3.860  12.697  0.3096 -0.0195 -0.1271
   59MPD2    C1  899   2.862   3.997  12.714 -0.5219 -0.8669 -0.2984
   59MPD2    C2  900   2.938   4.060  12.812  0.4434 -0.9379 -0.2362
   59MPD2    C3  901   3.022   3.985  12.893 -0.3682 -0.5629  0.1616
   59MPD2    C4  902   3.037   3.846  12.877  0.1275 -0.0866  0.2920
   59MPD2    C5  903   2.956   3.791  12.773  0.1084 -0.6518  0.2017
   59MPD2     H  904   2.924   4.167  12.829 -0.7947 -0.4508 -4.1916
   59MPD2    H1  905   3.093   3.780  12.942  2.7753  1.4625 -0.4396
   59MPD2    H2  906   2.827   3.801  12.617  0.3958  0.4104 -0.4890
   59MPD2    H3  907   2.966   3.684  12.762 -1.7017 -0.8731  0.8029
   59MPD2     N  908   3.097   4.048  12.998  0.3600  0.1859 -0.1638
   59MPD2    H5  909   3.158   3.991  13.056  0.3221  0.9968  0.6708
   59MPD2    N1  910   2.769   4.074  12.634  0.2410 -0.8843 -0.3528
   59MPD2    H7  911   2.777   4.175  12.629 -1.7981 -0.8299 -2.5527
   60TCq2    C1  912   2.673   4.023  12.551  0.4665 -0.5077 -0.6925
   60TCq2    O2  913   2.609   3.915  12.550  0.5727 -0.0455 -0.8451
   60TCq2    C2  914   2.616   4.121  12.464 -0.0492  0.8673  0.5964
   60TCq2    C3  915   2.480   4.121  12.450  0.4234 -0.4517 -0.6369
   60TCq2    C4  916   2.433   4.219  12.368  0.6256 -0.2250  0.1451
   60TCq2    C5  917   2.505   4.330  12.319 -0.2195 -0.0048  0.2213
   60TCq2    C6  918   2.642   4.319  12.336  0.4170  0.8447  0.0831
   60TCq2    C7  919   2.690   4.221  12.420 -0.0199  0.0622 -0.3736
   60TCq2    C8  920   2.731   4.423  12.299  0.2011  0.5496  0.4186
   60TCq2    O4  921   2.842   4.386  12.262 -0.5254  0.5468 -0.5384
   60TCq2    C9  922   2.292   4.233  12.355  0.4494  0.3467  1.1411
   60TCq2    O5  923   2.224   4.137  12.404  0.2880 -0.0990  0.1852
   60TCq2    O6  924   2.241   4.337  12.302 -0.2297  0.1133  0.2853
   60TCq2    H2  925   2.419   4.044  12.497  1.6895  0.2108  2.0918
   60TCq2    H3  926   2.456   4.410  12.265  1.3599  1.7815  1.4410
   60TCq2    H4  927   2.797   4.204  12.432 -0.2973 -0.3408  1.4982
   61MPD2     C  928   1.532   1.200  14.140 -0.3459 -0.4500  0.2899
   61MPD2    C1  929   1.619   1.257  14.228 -0.0170 -0.4470  0.4560
   61MPD2    C2  930   1.689   1.370  14.176  0.3776 -0.0051 -0.6984
   61MPD2    C3  931   1.663   1.417  14.049  0.7454  0.3604  0.4782
   61MPD2    C4  932   1.574   1.357  13.969 -0.3762 -0.0929  0.1782
   61MPD2    C5  933   1.509   1.252  14.019  0.6214  0.1382  0.3228
   61MPD2     H  934   1.743   1.429  14.249 -1.4629  1.5621 -0.5875
   61MPD2    H1  935   1.550   1.389  13.868  2.0873  1.7948  0.1991
   61MPD2    H2  936   1.472   1.114  14.167 -1.1957 -0.0330 -0.2623
   61MPD2    H3  937   1.428   1.199  13.971  0.0008  0.7001  0.7584
   61MPD2     N  938   1.723   1.538  14.002 -0.2243 -0.3450  0.6654
   61MPD2    H5  939   1.675   1.582  13.924  2.0748  0.5178 -0.2436
   61MPD2    N1  940   1.644   1.221  14.360 -0.3837  0.2528  0.1044
   61MPD2    H7  941   1.696   1.280  14.425  3.5419 -3.3750  0.2432
   62TCq2    C1  942   1.600   1.107  14.419 -0.2295 -0.4336  0.5088
   62TCq2    O2  943   1.552   1.008  14.368  0.1219  0.4749  0.5144
   62TCq2    C2  944   1.572   1.133  14.562 -0.2176 -0.0009 -0.2136
   62TCq2    C3  945   1.489   1.049  14.628 -0.0618  0.0722 -0.6965
   62TCq2    C4  946   1.426   1.086  14.746 -0.0736  0.6315 -0.4966
   62TCq2    C5  947   1.419   1.217  14.782  0.0425 -0.1624 -0.2740
   62TCq2    C6  948   1.502   1.300  14.720 -0.0625 -0.1721  0.0407
   62TCq2    C7  949   1.580   1.263  14.615 -0.3615 -0.6630  0.1438
   62TCq2    C8  950   1.500   1.440  14.761 -0.2458 -0.0828  0.4566
   62TCq2    O4  951   1.596   1.511  14.738  0.9361  0.1599  0.1542
   62TCq2    C9  952   1.355   0.986  14.816  0.0206 -0.2986 -0.1367
   62TCq2    O5  953   1.261   1.035  14.886 -0.4904  0.2343 -0.0378
   62TCq2    O6  954   1.369   0.863  14.794  0.9214  0.1112 -0.0955
   62TCq2    H2  955   1.475   0.946  14.595 -0.5782  0.2023 -0.8905
   62TCq2    H3  956   1.370   1.231  14.878  0.5504  1.6702 -0.2842
   62TCq2    H4  957   1.641   1.345  14.578  0.5110 -1.8233 -0.9886
   63TMC2    C1  958   1.473   1.329  10.569 -0.7039  0.2174 -1.5066
   63TMC2    C2  959   1.574   1.231  10.581  0.4324  0.2381  0.9124
   63TMC2    C3  960   1.628   1.205  10.460  0.0705  0.2118 -0.4880
   63TMC2    C4  961   1.425   1.374  10.451  0.3648  0.7285 -0.4874
   63TMC2    C5  962   1.491   1.350  10.339  0.3866  0.1951  1.1387
   63TMC2    C6  963   1.587   1.251  10.339 -0.2611 -0.3019  0.1617
   63TMC2     C  964   1.372   1.317  10.670  0.7917  0.4365 -0.0045
   63TMC2     O  965   1.273   1.388  10.668  0.2020  0.6041  0.0921
   63TMC2     H  966   1.612   1.185  10.672 -0.9834 -4.4795 -0.8828
   63TMC2    H1  967   1.344   1.446  10.463  1.9887  2.3913  0.6165
   63TMC2    H2  968   1.630   1.214  10.247 -0.5838 -0.7375  0.1859
   63TMC2    C7  969   1.419   1.390  10.221  0.1210 -0.2064 -0.2699
   63TMC2    C8  970   1.727   1.104  10.450 -0.4973  0.0713 -0.7658
   63TMC2    O1  971   1.305   1.429  10.235  0.0926  0.1765  0.3650
   63TMC2    O2  972   1.726   1.011  10.528  0.0570 -0.0763  0.1365
   63TMC2    O5  973   1.846   1.169  10.431  0.2117  0.1363  0.2047
   63TMC2    H5  974   1.847   1.266  10.445  3.5286  0.2833 -0.9367
   64MPD2     C  975   1.082   0.979  10.935 -1.0024 -0.0866 -0.9429
   64MPD2    C1  976   1.194   0.916  10.880  0.0066  0.3926 -0.3063
   64MPD2    C2  977   1.287   0.987  10.813 -0.7301 -0.3883 -0.9654
   64MPD2    C3  978   1.277   1.128  10.803 -0.3256  0.1272  0.4675
   64MPD2    C4  979   1.175   1.191  10.869  0.2839  0.0098  0.1448
   64MPD2    C5  980   1.085   1.116  10.939 -0.0605 -0.9733 -0.0122
   64MPD2     H  981   1.373   0.939  10.770 -0.1481 -0.6494  0.4887
   64MPD2    H1  982   1.168   1.299  10.866 -0.1201 -0.0484 -1.1098
   64MPD2    H2  983   0.998   0.929  10.981 -1.2805  1.3277  0.0919
   64MPD2    H3  984   1.003   1.173  10.982 -0.3033 -0.0377 -1.7339
   64MPD2     N  985   1.376   1.194  10.721  0.2890  0.0404  0.6310
   64MPD2    H5  986   1.439   1.124  10.682  0.3419 -0.1787  1.1162
   64MPD2    N1  987   1.222   0.778  10.881  0.4164  0.1235 -0.1625
   64MPD2    H7  988   1.306   0.737  10.840  0.1922 -0.1292 -0.3662
   65MPD2     C  989   2.260   0.516  15.818  0.0630 -1.0490  0.1710
   65MPD2    C1  990   2.192   0.460  15.711  0.0201 -0.2440 -0.7217
   65MPD2    C2  991   2.183   0.322  15.715  0.6016 -0.5727  0.3153
   65MPD2    C3  992   2.246   0.246  15.816  0.5869 -0.3243 -0.2500
   65MPD2    C4  993   2.321   0.310  15.912  0.5037  0.0626 -0.4375
   65MPD2    C5  994   2.327   0.447  15.916 -0.3701 -0.9915  0.1948
   65MPD2     H  995   2.131   0.276  15.632  1.4115 -1.8818  0.5340
   65MPD2    H1  996   2.362   0.251  15.993 -0.4395  0.3413  0.2296
   65MPD2    H2  997   2.282   0.622  15.825 -2.3549 -0.4678 -0.8948
   65MPD2    H3  998   2.393   0.497  15.986  1.8010 -1.1256 -1.7466
   65MPD2     N  999   2.224   0.106  15.829  0.0064 -0.1833 -0.2377
   65MPD2    H5 1000   2.282   0.070  15.905 -0.8531  1.1006  1.0403
   65MPD2    N1 1001   2.126   0.530  15.613  0.1041 -0.0879  0.0948
   65MPD2    H7 1002   2.073   0.468  15.553 -1.3747  1.7984 -0.5342
   66TCq2    C1 1003   2.095   0.664  15.618 -0.1493 -0.1755  0.6450
   66TCq2    O2 1004   2.103   0.744  15.710  0.5420  0.2763 -0.0519
   66TCq2    C2 1005   2.000   0.700  15.517 -0.3565 -0.1346 -0.1227
   66TCq2    C3 1006   2.014   0.644  15.397  0.5183 -0.4476  0.5720
   66TCq2    C4 1007   1.915   0.673  15.309  0.4140 -0.6888  0.3600
   66TCq2    C5 1008   1.812   0.760  15.334 -0.0797  0.2638  0.2180
   66TCq2    C6 1009   1.813   0.823  15.454 -0.0519 -0.2513  0.6129
   66TCq2    C7 1010   1.910   0.794  15.549 -0.5370 -0.2522 -0.2537
   66TCq2    C8 1011   1.746   0.952  15.451  0.0705 -0.6982  0.4952
   66TCq2    O4 1012   1.665   0.963  15.361 -0.0687 -0.6006 -0.4495
   66TCq2    C9 1013   1.915   0.592  15.186  0.0595 -0.2406  0.1383
   66TCq2    O5 1014   1.977   0.484  15.194 -0.0138 -0.2695 -0.4671
   66TCq2    O6 1015   1.868   0.642  15.084  0.2604  0.1747  0.0286
   66TCq2    H2 1016   2.081   0.561  15.377  1.3908  0.2584  0.5519
   66TCq2    H3 1017   1.742   0.777  15.253 -1.5997  0.0614  1.5054
   66TCq2    H4 1018   1.908   0.834  15.650 -2.2332 -0.1377 -0.3325
   67MPD2     C 1019   2.889   4.481  13.886 -0.1367 -0.0138 -0.4117
   67MPD2    C1 1020   2.774   4.551  13.928 -0.2555 -0.4882 -0.3877
   67MPD2    C2 1021   2.651   4.522  13.870 -0.5985  0.2975  0.4612
   67MPD2    C3 1022   2.649   4.437  13.763 -0.1995  0.5242  0.1424
   67MPD2    C4 1023   2.759   4.372  13.718 -0.4555  0.0681 -0.1693
   67MPD2    C5 1024   2.882   4.394  13.780 -0.0468 -0.1478  0.9971
   67MPD2     H 1025   2.566   4.588  13.886  0.4588  1.3858  1.5845
   67MPD2    H1 1026   2.757   4.301  13.636 -0.3042 -1.7762  1.4335
   67MPD2    H2 1027   2.987   4.505  13.925  1.0025 -0.4933 -3.0018
   67MPD2    H3 1028   2.966   4.349  13.729 -1.0436 -3.0621  1.8924
   67MPD2     N 1029   2.537   4.414  13.681  0.1264 -0.4304 -0.8992
   67MPD2    H5 1030   2.543   4.338  13.614 -2.4421 -0.6174 -0.8868
   67MPD2    N1 1031   2.782   4.651  14.033 -0.1159 -0.5457  0.0417
   67MPD2    H7 1032   2.703   4.714  14.047  0.3136 -0.3038  1.3860
   68TCq2    C1 1033   2.885   4.667  14.119 -0.1131 -0.5118 -0.2743
   68TCq2    O2 1034   2.989   4.598  14.134  0.2497 -0.3302 -0.3086
   68TCq2    C2 1035   2.856   0.056  14.206 -0.0558  0.3080 -0.0155
   68TCq2    C3 1036   2.748   0.143  14.194 -0.0622  0.6106  0.0233
   68TCq2    C4 1037   2.722   0.229  14.304  0.2709 -0.9268  0.4567
   68TCq2    C5 1038   2.789   0.221  14.423  0.3068 -0.5608 -0.0971
   68TCq2    C6 1039   2.900   0.138  14.420 -0.3504  0.7322 -0.1104
   68TCq2    C7 1040   2.935   0.063  14.314 -0.4234 -0.0812 -0.4318
   68TCq2    C8 1041   2.969   0.123  14.541 -0.1541 -0.6353  0.0960
   68TCq2    O4 1042   3.079   0.068  14.537  0.2282 -0.6963  0.1365
   68TCq2    C9 1043   2.598   0.298  14.299 -0.3658 -1.2223 -0.2179
   68TCq2    O5 1044   2.528   0.277  14.199  0.8342 -0.3266  0.3252
   68TCq2    O6 1045   2.559   0.360  14.401  0.2026 -0.3067 -0.0037
   68TCq2    H2 1046   2.693   0.157  14.101  0.2875  0.6834 -0.1705
   68TCq2    H3 1047   2.777   0.293  14.502 -0.1330  1.5228 -2.0816
   68TCq2    H4 1048   3.018   4.716  14.321 -2.0786 -2.0715 -0.6792
   69TMC2    C1 1049   0.023   1.084  12.425  0.2336  0.5607 -0.1281
   69TMC2    C2 1050   4.626   1.135  12.392 -0.0480  0.4787  0.3143
   69TMC2    C3 1051   4.604   1.164  12.262  0.2432 -0.3420 -0.1081
   69TMC2    C4 1052   0.121   1.050  12.330  0.2052 -0.4111  0.1377
   69TMC2    C5 1053   0.098   1.087  12.206 -0.1240 -0.2053 -0.0184
   69TMC2    C6 1054   4.699   1.132  12.167  0.4063 -0.2897 -0.0690
   69TMC2     C 1055   0.071   1.094  12.562  0.1144  0.5074 -0.4016
   69TMC2     O 1056   4.701   1.110  12.643  0.1307  0.0212 -0.0594
   69TMC2     H 1057   4.553   1.164  12.467 -0.5112  0.9271 -0.3161
   69TMC2    H1 1058   0.201   0.980  12.349  1.4986  1.2825  0.9509
   69TMC2    H2 1059   4.688   1.169  12.065 -2.3176 -1.5128 -0.2126
   69TMC2    C7 1060   0.189   1.042  12.100  0.7921  0.5273  0.2330
   69TMC2    C8 1061   4.482   1.236  12.224 -0.1829  0.2345  0.6816
   69TMC2    O1 1062   0.311   1.053  12.123 -0.7187  0.0315  0.2593
   69TMC2    O2 1063   4.373   1.225  12.281  0.0823 -0.3344  0.2892
   69TMC2    O5 1064   4.496   1.302  12.115 -0.0887 -0.2684 -0.1899
   69TMC2    H5 1065   4.588   1.321  12.086  0.5795  1.3789  3.1082
   70MPD2     C 1066   0.375   1.216  12.732  0.1378 -0.0770 -0.4353
   70MPD2    C1 1067   0.263   1.136  12.709 -0.1932  0.5636 -0.3882
   70MPD2    C2 1068   0.208   1.066  12.819  0.7366 -0.0815 -0.3177
   70MPD2    C3 1069   0.261   1.090  12.948  0.4408  0.0309  0.2366
   70MPD2    C4 1070   0.358   1.183  12.968  0.3247 -0.4576 -0.2977
   70MPD2    C5 1071   0.429   1.231  12.860  1.0868 -0.1333 -0.4146
   70MPD2     H 1072   0.127   0.996  12.801  0.6630 -0.3084  0.8902
   70MPD2    H1 1073   0.382   1.218  13.068  0.0940 -0.4886 -0.2313
   70MPD2    H2 1074   0.429   1.263  12.651  2.9189 -1.2005  0.7579
   70MPD2    H3 1075   0.515   1.295  12.875  0.3969  0.3941  1.3144
   70MPD2     N 1076   0.190   1.048  13.060  0.0426 -0.1700 -0.2729
   70MPD2    H5 1077   0.203   1.096  13.149 -2.1530  0.4427 -0.2869
   70MPD2    N1 1078   0.210   1.119  12.577 -0.1651 -0.0634 -0.3844
   70MPD2    H7 1079   0.258   1.151  12.494 -2.3023  4.1061 -0.0144
   71TMC2    C1 1080   2.800   1.889   1.850 -0.0488  0.7598  0.1824
   71TMC2    C2 1081   2.931   1.907   1.901  0.0744  0.2623  0.0115
   71TMC2    C3 1082   2.949   1.866   2.031 -0.8671 -0.2196 -0.2540
   71TMC2    C4 1083   2.693   1.826   1.921 -0.1199  0.6673 -0.5049
   71TMC2    C5 1084   2.724   1.790   2.047  0.3759  0.1062 -0.4046
   71TMC2    C6 1085   2.853   1.805   2.105  0.7431  0.2230  0.7990
   71TMC2     C 1086   2.786   1.879   1.703  0.0642  0.1757 -1.3622
   71TMC2     O 1087   2.678   1.859   1.646  0.7538  0.3923  0.2925
   71TMC2     H 1088   3.008   1.971   1.858  0.7551  0.4825  1.5694
   71TMC2    H1 1089   2.601   1.798   1.870 -1.4463  1.0310  1.6460
   71TMC2    H2 1090   2.876   1.766   2.203  0.5772 -1.5563  0.1271
   71TMC2    C7 1091   2.621   1.741   2.133  0.4009  0.3681 -0.0079
   71TMC2    C8 1092   3.067   1.914   2.099 -0.1797  0.2278  0.2656
   71TMC2    O1 1093   2.649   1.718   2.253 -0.3168  0.0802 -0.4746
   71TMC2    O2 1094   3.086   1.953   2.215 -0.2578 -0.0769 -0.2229
   71TMC2    O5 1095   3.169   1.891   2.012 -0.2498 -0.3793 -0.3715
   71TMC2    H5 1096   3.129   1.839   1.939  0.3106  1.4660 -1.9828
   72MPD2     C 1097   3.036   1.909   1.236 -0.2238 -0.4560  0.4389
   72MPD2    C1 1098   2.905   1.951   1.269  0.4519  0.2226 -0.2539
   72MPD2    C2 1099   2.864   1.932   1.401 -0.2581  0.4199 -0.5842
   72MPD2    C3 1100   2.945   1.877   1.505  0.3604  0.1703  0.3855
   72MPD2    C4 1101   3.076   1.856   1.470  0.7699 -0.0423 -0.0606
   72MPD2    C5 1102   3.113   1.859   1.341  0.0982 -0.5448 -0.3784
   72MPD2     H 1103   2.763   1.958   1.430 -0.4020  0.7441 -1.3588
   72MPD2    H1 1104   3.152   1.837   1.545  0.2350 -1.2768  0.1733
   72MPD2    H2 1105   3.084   1.920   1.140 -1.6591 -0.7662 -0.3233
   72MPD2    H3 1106   3.215   1.846   1.307 -0.1178 -2.3081 -0.3293
   72MPD2     N 1107   2.912   1.874   1.647 -0.1529 -0.1229  0.2659
   72MPD2    H5 1108   2.990   1.854   1.710 -0.0434 -2.8417 -0.7403
   72MPD2    N1 1109   2.825   2.019   1.175 -0.5451  0.6278 -0.4978
   72MPD2    H7 1110   2.739   2.056   1.214 -2.2491 -1.5189 -2.1767
   73TMC2    C1 1111   1.352   3.095  13.996 -0.1060 -0.3056  0.3656
   73TMC2    C2 1112   1.347   2.992  14.082  0.4910  0.3967  0.0160
   73TMC2    C3 1113   1.411   2.987  14.199 -0.6416 -0.5178  0.4573
   73TMC2    C4 1114   1.415   3.207  14.037  0.0991  0.5567 -0.1787
   73TMC2    C5 1115   1.482   3.207  14.160 -0.3039  0.4310 -0.5144
   73TMC2    C6 1116   1.481   3.099  14.243 -0.3178 -0.0498  0.1229
   73TMC2     C 1117   1.385   3.066  13.857  0.1091 -0.3042 -0.1653
   73TMC2     O 1118   1.474   3.138  13.814  0.2184 -0.4267 -0.1643
   73TMC2     H 1119   1.284   2.907  14.057 -2.6503  2.5061  0.7545
   73TMC2    H1 1120   1.390   3.296  13.981  0.8328 -0.6240 -2.3917
   73TMC2    H2 1121   1.531   3.094  14.339  0.8410 -0.6434 -0.5192
   73TMC2    C7 1122   1.613   3.271  14.151 -0.0933  0.2848 -0.0500
   73TMC2    C8 1123   1.359   2.897  14.298  0.6880 -0.4629 -0.4354
   73TMC2    O1 1124   1.683   3.277  14.252  0.7528 -0.0607 -0.2920
   73TMC2    O2 1125   1.252   2.842  14.281  0.0605 -0.1016 -0.2249
   73TMC2    O5 1126   1.465   2.856  14.363  0.6345  0.1297  0.3680
   73TMC2    H5 1127   1.545   2.905  14.335 -0.7961  0.7602 -2.5841
   74MPD2     C 1128   1.464   2.741  13.466 -0.1926 -0.8220  0.1608
   74MPD2    C1 1129   1.537   2.844  13.508 -0.6314 -0.6516 -0.3294
   74MPD2    C2 1130   1.495   2.912  13.623 -0.3579 -0.0228 -0.1297
   74MPD2    C3 1131   1.381   2.875  13.695  0.4050  0.2300 -0.5881
   74MPD2    C4 1132   1.310   2.763  13.652  0.1981 -0.1235  0.1988
   74MPD2    C5 1133   1.341   2.708  13.531  0.9269 -0.5440 -0.1752
   74MPD2     H 1134   1.553   2.999  13.652 -1.1632  0.4095  0.1706
   74MPD2    H1 1135   1.218   2.738  13.703 -0.2387  3.2756  1.0326
   74MPD2    H2 1136   1.490   2.685  13.377 -0.5796 -0.5092 -0.1473
   74MPD2    H3 1137   1.285   2.628  13.486  0.9721 -0.1024 -1.0174
   74MPD2     N 1138   1.333   2.943  13.809  0.3320  0.4973 -0.1496
   74MPD2    H5 1139   1.261   2.903  13.868 -0.2092  0.3372 -0.9300
   74MPD2    N1 1140   1.656   2.895  13.448 -0.0264 -0.3462  0.2048
   74MPD2    H7 1141   1.677   2.987  13.486  0.8996 -0.4165 -0.1481
   75TCq2    C1 1142   2.423   4.492  13.681 -0.4492  0.2787  0.1329
   75TCq2    O2 1143   2.400   4.590  13.749  0.0595 -0.1442  0.3489
   75TCq2    C2 1144   2.328   4.453  13.587  1.2113  0.3635  0.8382
   75TCq2    C3 1145   2.338   4.330  13.529 -0.6127 -0.6812 -0.3746
   75TCq2    C4 1146   2.257   4.287  13.424 -0.0724  0.3630 -0.3621
   75TCq2    C5 1147   2.152   4.368  13.385 -0.4534  0.1768 -0.1659
   75TCq2    C6 1148   2.138   4.490  13.450  0.4113 -0.4739  0.3615
   75TCq2    C7 1149   2.227   4.536  13.544  0.5957  0.6098  0.3754
   75TCq2    C8 1150   2.034   4.570  13.386  0.0875  0.0463  0.4385
   75TCq2    O4 1151   1.968   4.520  13.296  0.1353  0.1286 -0.2328
   75TCq2    C9 1152   2.285   4.165  13.358 -0.4111  0.6060 -0.3686
   75TCq2    O5 1153   2.203   4.135  13.271  0.1542 -0.0777 -0.1431
   75TCq2    O6 1154   2.380   4.089  13.400 -0.1440 -0.5992  0.0676
   75TCq2    H2 1155   2.406   4.254  13.567  0.8688  0.9479  0.1855
   75TCq2    H3 1156   2.094   4.323  13.305  0.0582  2.9103 -2.0689
   75TCq2    H4 1157   2.236   4.637  13.580 -1.0982  1.1329 -0.6399
   76MPD2     C 1158   1.322   0.763  11.479  0.0735 -0.3102  0.0561
   76MPD2    C1 1159   1.218   0.704  11.554  0.6971 -0.7901 -0.3715
   76MPD2    C2 1160   1.229   0.577  11.613 -0.6147  0.0772 -0.4647
   76MPD2    C3 1161   1.355   0.522  11.599 -0.3156 -0.5235 -0.1081
   76MPD2    C4 1162   1.459   0.582  11.534 -0.3188 -1.0584  0.4387
   76MPD2    C5 1163   1.447   0.701  11.479 -0.6184  0.5473 -0.0399
   76MPD2     H 1164   1.152   0.530  11.674  0.4222  0.7025  1.3400
   76MPD2    H1 1165   1.549   0.521  11.522  1.4057  1.2620  1.5355
   76MPD2    H2 1166   1.302   0.850  11.416 -0.9021 -1.3507 -1.0682
   76MPD2    H3 1167   1.523   0.750  11.419  0.6090 -2.0882 -0.6405
   76MPD2     N 1168   1.401   0.396  11.646  0.0815 -0.2891  0.5205
   76MPD2    H5 1169   1.494   0.372  11.613  0.3883  1.6845 -0.0888
   76MPD2    N1 1170   1.110   0.790  11.570  0.5179  0.5445  0.5341
   76MPD2    H7 1171   1.129   0.879  11.525 -0.7166  0.5994  0.1330
   77TCq2    C1 1172   1.313   0.299  11.694  0.5305 -0.0402  0.0497
   77TCq2    O2 1173   1.192   0.309  11.711  0.3911  0.5429  0.1155
   77TCq2    C2 1174   1.372   0.168  11.700  0.0332  0.4939  0.2623
   77TCq2    C3 1175   1.290   0.057  11.695 -0.0042 -0.0437 -0.2075
   77TCq2    C4 1176   1.345   4.654  11.705  0.3185 -0.2584  0.0909
   77TCq2    C5 1177   1.481   4.644  11.713 -0.2075 -0.2588 -0.3214
   77TCq2    C6 1178   1.560   0.035  11.714  0.2553  0.8268  0.7791
   77TCq2    C7 1179   1.508   0.159  11.712 -0.9332 -0.2862  0.1402
   77TCq2    C8 1180   1.694   0.024  11.751 -0.0912 -0.4626  0.3765
   77TCq2    O4 1181   1.751   4.643  11.719  0.0258 -0.0819 -0.1647
   77TCq2    C9 1182   1.263   4.540  11.682  0.4637  0.2731  0.5924
   77TCq2    O5 1183   1.145   4.545  11.715 -0.1729 -0.0340  1.1476
   77TCq2    O6 1184   1.334   4.435  11.680  0.1905 -0.4701 -0.1201
   77TCq2    H2 1185   1.183   0.057  11.677 -0.0194  0.6721 -0.1166
   77TCq2    H3 1186   1.527   4.547  11.701  0.8443  0.1998 -0.0703
   77TCq2    H4 1187   1.572   0.245  11.726  0.1293 -1.4901  2.6867
   78MPD1     C 1188   2.562   1.747   0.967  0.4879  0.0294 -0.5146
   78MPD1    C1 1189   2.666   1.682   0.912  0.3614 -0.0326 -0.2479
   78MPD1    C2 1190   2.760   1.621   0.995 -0.1756 -0.7782  0.0676
   78MPD1    C3 1191   2.768   1.664   1.128 -0.2743  1.4316 -0.0236
   78MPD1    C4 1192   2.667   1.734   1.188 -0.1719  0.1490 -0.2571
   78MPD1    C5 1193   2.568   1.779   1.101  0.5495 -0.1460 -0.2971
   78MPD1     H 1194   2.833   1.559   0.944  0.5218 -0.8168  1.1073
   78MPD1    H1 1195   2.680   1.776   1.288 -3.5341 -0.6147  0.4933
   78MPD1    H2 1196   2.483   1.782   0.902 -0.4718 -0.1111  0.5770
   78MPD1    H3 1197   2.492   1.848   1.136  0.5302 -0.1938 -0.2448
   78MPD1     N 1198   2.874   1.615   1.209 -0.1312  0.9608  0.2240
   78MPD1    H5 1199   2.862   1.634   1.308 -0.1418 -2.0361  0.7877
   78MPD1    N1 1200   2.664   1.654   0.776  0.1106 -0.2393 -0.2219
   78MPD1    H6 1201   2.619   1.727   0.722  1.4978  2.8564  2.7984
   78MPD1    H7 1202   2.758   1.651   0.737 -0.4116 -0.1096 -1.4916
   79TCq2    C1 1203   2.996   1.568   1.165 -0.1473  0.2513 -0.2371
   79TCq2    O2 1204   3.051   1.564   1.056  0.4579  0.1591  0.3718
   79TCq2    C2 1205   3.073   1.532   1.276  0.1325  0.1690 -0.0487
   79TCq2    C3 1206   3.014   1.512   1.401 -0.4232  0.1250  0.1671
   79TCq2    C4 1207   3.092   1.502   1.512  0.1956 -0.4027 -0.0642
   79TCq2    C5 1208   3.233   1.515   1.503  0.3250  0.3353 -0.2983
   79TCq2    C6 1209   3.285   1.524   1.375  0.5104 -0.8757  0.7163
   79TCq2    C7 1210   3.208   1.540   1.260 -0.2042 -0.1910 -0.3777
   79TCq2    C8 1211   3.430   1.548   1.365 -0.1560 -0.3946  0.0931
   79TCq2    O4 1212   3.483   1.605   1.462  0.5937 -0.0579  0.3527
   79TCq2    C9 1213   3.021   1.492   1.637 -0.0989 -0.1867  0.7533
   79TCq2    O5 1214   2.901   1.513   1.639  0.3764  0.0534 -0.0553
   79TCq2    O6 1215   3.097   1.482   1.738 -0.4272  0.3288 -0.0299
   79TCq2    H2 1216   2.915   1.470   1.406 -0.0126 -1.0385 -1.4134
   79TCq2    H3 1217   3.288   1.520   1.597  0.5812  1.0639 -0.4838
   79TCq2    H4 1218   3.266   1.539   1.168 -1.1063  0.4852 -0.9515
   80MPD2     C 1219   0.186   0.340  12.403 -0.0832  0.3492 -0.2036
   80MPD2    C1 1220   0.074   0.343  12.321 -0.5855  0.6425 -0.8436
   80MPD2    C2 1221   4.675   0.366  12.377 -0.7598  0.7291 -0.4102
   80MPD2    C3 1222   4.663   0.381  12.516 -0.0129 -0.3625 -0.1737
   80MPD2    C4 1223   0.052   0.375  12.597 -0.4281 -0.1298  0.4055
   80MPD2    C5 1224   0.177   0.365  12.536 -0.3594 -0.2582 -0.0702
   80MPD2     H 1225   4.586   0.382  12.317 -0.7676 -1.0537 -0.8865
   80MPD2    H1 1226   0.040   0.390  12.703  0.1644  0.9189  0.3271
   80MPD2    H2 1227   0.290   0.334  12.372 -0.3249  3.7305 -1.6610
   80MPD2    H3 1228   0.270   0.376  12.591  0.7943  2.3631 -2.5386
   80MPD2     N 1229   4.543   0.418  12.578  0.5631  0.2552  0.3912
   80MPD2    H5 1230   4.544   0.416  12.680 -0.8688  0.4120  0.4180
   80MPD2    N1 1231   0.087   0.344  12.180 -0.0912  0.0672 -0.4313
   80MPD2    H7 1232   0.001   0.347  12.127  0.5203  0.8311 -1.3712
   81TCq2    C1 1233   0.209   0.347  12.113 -0.2405  0.1401 -0.4223
   81TCq2    O2 1234   0.317   0.376  12.159 -0.1548 -0.5482  0.0107
   81TCq2    C2 1235   0.187   0.309  11.970 -0.3159  0.2409  0.6013
   81TCq2    C3 1236   0.297   0.316  11.889  0.0485  0.0984 -0.0590
   81TCq2    C4 1237   0.286   0.271  11.758  0.4394 -0.0768 -0.1627
   81TCq2    C5 1238   0.173   0.218  11.714  0.6094  0.6659 -0.3593
   81TCq2    C6 1239   0.065   0.206  11.799 -0.4389  0.1809  0.5372
   81TCq2    C7 1240   0.069   0.244  11.930 -0.9161  0.2784  0.5692
   81TCq2    C8 1241   4.656   0.141  11.763  0.1851 -0.0338  0.2420
   81TCq2    O4 1242   4.603   0.152  11.653  0.1463  0.1704 -0.0502
   81TCq2    C9 1243   0.402   0.278  11.677  0.7008  0.4735 -0.0789
   81TCq2    O5 1244   0.485   0.365  11.707 -0.1571 -0.2065 -0.7772
   81TCq2    O6 1245   0.416   0.195  11.586  0.0891 -0.0800 -0.3298
   81TCq2    H2 1246   0.388   0.363  11.924  0.7557 -0.2183 -1.4823
   81TCq2    H3 1247   0.160   0.176  11.615  0.3076  0.7118 -0.3398
   81TCq2    H4 1248   4.710   0.223  11.999 -1.3917  0.4017  0.0430
   82MPD2     C 1249   3.640   4.517  10.617 -0.2513  0.0225  0.4935
   82MPD2    C1 1250   3.573   4.421  10.545 -0.1261  0.0544  0.3518
   82MPD2    C2 1251   3.563   4.293  10.599 -0.7657 -0.4189 -0.2592
   82MPD2    C3 1252   3.625   4.273  10.723  0.0973  0.3514  0.7644
   82MPD2    C4 1253   3.710   4.366  10.784 -0.2364 -0.0801 -0.4475
   82MPD2    C5 1254   3.713   4.491  10.724 -0.7854 -0.6533 -0.9082
   82MPD2     H 1255   3.506   4.216  10.549 -0.0307 -1.8262  1.0863
   82MPD2    H1 1256   3.770   4.346  10.873  0.8202  1.3204 -0.8501
   82MPD2    H2 1257   3.643   4.618  10.575  0.2966 -0.4325 -0.5528
   82MPD2    H3 1258   3.770   4.570  10.771  0.7316 -1.0637 -2.0832
   82MPD2     N 1259   3.607   4.151  10.795  0.6291  0.6299  0.0674
   82MPD2    H5 1260   3.647   4.151  10.889  1.6738 -0.4754 -0.3834
   82MPD2    N1 1261   3.516   4.467  10.423  0.7531 -0.1549 -0.1687
   82MPD2    H7 1262   3.543   4.558  10.387  0.7760 -0.2329 -0.3493
   83TCq2    C1 1263   3.503   4.064  10.780  0.2452 -0.6968  0.8830
   83TCq2    O2 1264   3.403   4.076  10.712  0.6631 -0.5751 -0.0164
   83TCq2    C2 1265   3.496   3.959  10.883 -0.7354 -0.0292 -0.0095
   83TCq2    C3 1266   3.610   3.928  10.952  0.4851 -0.0626 -0.2618
   83TCq2    C4 1267   3.597   3.867  11.068  0.3582 -0.1020 -0.4304
   83TCq2    C5 1268   3.472   3.820  11.110  0.3461 -0.8366 -0.3612
   83TCq2    C6 1269   3.363   3.844  11.029  0.7804 -0.1444  0.4991
   83TCq2    C7 1270   3.374   3.915  10.911 -0.0183 -0.3510 -0.0429
   83TCq2    C8 1271   3.238   3.774  11.050 -0.3476  0.8039  0.5451
   83TCq2    O4 1272   3.221   3.734  11.162  0.5802 -0.4422 -0.1732
   83TCq2    C9 1273   3.713   3.858  11.149  0.0684 -0.0249 -0.3564
   83TCq2    O5 1274   3.827   3.872  11.095 -0.0715  0.2820  0.1435
   83TCq2    O6 1275   3.694   3.893  11.265 -0.1005  0.0008  0.0344
   83TCq2    H2 1276   3.706   3.969  10.923  0.2620  0.9559  0.4725
   83TCq2    H3 1277   3.460   3.768  11.205 -1.1999 -0.0600 -0.1315
   83TCq2    H4 1278   3.293   3.932  10.840 -0.2305 -3.9716 -0.7029
   84TCq2    C1 1279   0.136   3.334  10.688  1.2889  0.1963  0.5173
   84TCq2    O2 1280   0.121   3.231  10.623  0.1520  0.7084 -0.0034
   84TCq2    C2 1281   0.068   3.339  10.814  0.1085 -0.4248  0.4953
   84TCq2    C3 1282   0.119   3.421  10.911  0.2227  0.0497  0.0222
   84TCq2    C4 1283   0.048   3.452  11.018 -0.6240 -0.1052 -0.2547
   84TCq2    C5 1284   4.644   3.406  11.037  0.0018 -0.8949  0.1542
   84TCq2    C6 1285   4.591   3.320  10.944  0.1097 -0.4075  0.4284
   84TCq2    C7 1286   4.663   3.284  10.829  0.3761  0.7081 -0.0963
   84TCq2    C8 1287   4.454   3.288  10.946  0.1416 -0.5032 -0.6715
   84TCq2    O4 1288   4.415   3.192  10.883  0.3936 -0.6577  0.3255
   84TCq2    C9 1289   0.095   3.561  11.106 -0.2824 -0.2880 -0.4969
   84TCq2    O5 1290   0.187   3.630  11.060 -0.3669 -0.0557  0.2016
   84TCq2    O6 1291   0.029   3.586  11.209 -0.5756  0.4241 -0.3595
   84TCq2    H2 1292   0.221   3.457  10.899  1.2508 -3.4471 -1.8817
   84TCq2    H3 1293   4.588   3.437  11.125  0.4308 -2.5126  0.9940
   84TCq2    H4 1294   4.622   3.225  10.748  0.0402 -0.9263  1.2719
   85MPD2     C 1295   4.137   1.633  16.275 -0.1878  0.0416  0.5498
   85MPD2    C1 1296   4.235   1.571  16.192  0.1099 -0.1262 -0.3913
   85MPD2    C2 1297   4.340   1.660  16.154 -0.2820  0.0964  0.0313
   85MPD2    C3 1298   4.371   1.780  16.217  0.4696 -0.0439 -0.1534
   85MPD2    C4 1299   4.272   1.837  16.300 -0.2755  0.8027  0.4735
   85MPD2    C5 1300   4.158   1.760  16.323  0.2477  0.6302  0.3570
   85MPD2     H 1301   4.401   1.622  16.073  2.2987  2.4589  0.8739
   85MPD2    H1 1302   4.287   1.937  16.340  2.9012 -0.7591  3.2539
   85MPD2    H2 1303   4.047   1.577  16.296 -0.9186  1.5314  1.3956
   85MPD2    H3 1304   4.079   1.814  16.374  0.3453 -0.7562  1.9680
   85MPD2     N 1305   4.490   1.852  16.176 -0.4370  0.1573  0.0762
   85MPD2    H5 1306   4.544   1.814  16.099  2.1009  2.6691  0.6134
   85MPD2    N1 1307   4.228   1.438  16.133  0.5576  0.5703 -0.2673
   85MPD2    H7 1308   4.284   1.412  16.052 -0.6702 -0.7038 -0.7114
   86TCq2    C1 1309   4.538   1.963  16.246 -0.4969  0.7418  0.4895
   86TCq2    O2 1310   4.495   2.011  16.348 -0.5053 -0.0420  0.1875
   86TCq2    C2 1311   4.656   2.027  16.180 -0.0759  0.6291 -0.2266
   86TCq2    C3 1312   4.677   2.161  16.215 -0.4773  0.2612  0.1034
   86TCq2    C4 1313   0.071   2.224  16.173 -0.4130  0.5021 -0.3501
   86TCq2    C5 1314   0.147   2.163  16.076 -0.5780  1.5401  0.5640
   86TCq2    C6 1315   0.115   2.033  16.034 -0.3053 -0.2999 -0.4095
   86TCq2    C7 1316   0.013   1.959  16.087  0.3832  0.0998  0.0505
   86TCq2    C8 1317   0.214   1.964  15.946 -0.6207 -0.4230 -0.0686
   86TCq2    O4 1318   0.237   1.846  15.974 -0.3481 -0.5017 -0.1567
   86TCq2    C9 1319   0.107   2.349  16.233  0.6376 -0.4063  0.2374
   86TCq2    O5 1320   0.028   2.410  16.315  0.4565 -0.6548 -0.2492
   86TCq2    O6 1321   0.205   2.405  16.179 -0.2034 -0.6975 -0.0077
   86TCq2    H2 1322   4.607   2.207  16.284  0.9837  2.0830  0.3463
   86TCq2    H3 1323   0.229   2.214  16.027 -0.5016  0.0016 -0.9147
   86TCq2    H4 1324   0.008   1.852  16.073 -2.1896  0.3682 -1.0737
   87MPD2     C 1325   2.164   0.965   1.430 -0.7613 -0.3174 -0.1708
   87MPD2    C1 1326   2.122   0.884   1.328 -0.4694 -0.2543  0.8640
   87MPD2    C2 1327   2.023   0.926   1.238 -0.4169 -0.0680 -0.2268
   87MPD2    C3 1328   1.958   1.039   1.272  0.5321  0.1029  0.1027
   87MPD2    C4 1329   2.002   1.113   1.376 -0.5584 -0.2511 -0.3809
   87MPD2    C5 1330   2.106   1.080   1.456 -0.6082 -0.3142  0.1055
   87MPD2     H 1331   1.998   0.857   1.159 -2.5529  0.1609  0.2433
   87MPD2    H1 1332   1.939   1.197   1.405  0.4466  0.2614  0.3142
   87MPD2    H2 1333   2.257   0.946   1.481  0.8309 -0.6878 -3.1940
   87MPD2    H3 1334   2.143   1.130   1.545 -1.4200  0.0596  0.2334
   87MPD2     N 1335   1.846   1.086   1.202 -0.6571 -0.3018 -0.2964
   87MPD2    H5 1336   1.810   1.178   1.228 -0.1599 -0.0503 -0.4856
   87MPD2    N1 1337   2.205   0.770   1.313  0.2391  0.4646  0.5752
   87MPD2    H7 1338   2.266   0.748   1.391  1.3451  1.2410 -0.0555
   88TCq2    C1 1339   2.214   0.691   1.204 -0.1585  0.6069  0.6460
   88TCq2    O2 1340   2.161   0.712   1.094 -0.3141  0.2230  0.2517
   88TCq2    C2 1341   2.280   0.560   1.220  0.6389 -0.2442 -0.7166
   88TCq2    C3 1342   2.311   0.526   1.349 -0.1370  0.2853 -0.7992
   88TCq2    C4 1343   2.408   0.431   1.369 -0.6204  0.4846 -0.5886
   88TCq2    C5 1344   2.487   0.393   1.264  0.0808 -0.6068 -0.0778
   88TCq2    C6 1345   2.459   0.434   1.139  0.7835 -0.4581  0.0892
   88TCq2    C7 1346   2.354   0.520   1.113  0.0352 -0.5960  0.1186
   88TCq2    C8 1347   2.560   0.396   1.039  0.4571  0.1516  0.2755
   88TCq2    O4 1348   2.671   0.362   1.080  0.0939  0.1714 -0.4570
   88TCq2    C9 1349   2.429   0.379   1.500  0.6095  0.4276  1.0926
   88TCq2    O5 1350   2.355   0.429   1.589  0.0472  0.1760 -0.1951
   88TCq2    O6 1351   2.520   0.295   1.517 -0.0295 -0.1245  0.4453
   88TCq2    H2 1352   2.243   0.546   1.431  0.1078 -0.6513 -0.3741
   88TCq2    H3 1353   2.578   0.341   1.294  0.5429  1.5027  2.2046
   88TCq2    H4 1354   2.344   0.561   1.014 -0.1620 -1.4420 -0.2162
   89MPD2     C 1355   3.571   2.683   2.258  0.1522  0.4511 -0.2864
   89MPD2    C1 1356   3.451   2.679   2.191 -0.2415  0.0946  1.0739
   89MPD2    C2 1357   3.445   2.744   2.066 -0.1907  0.2993 -0.5336
   89MPD2    C3 1358   3.552   2.787   2.000 -0.1857  0.8298 -1.3022
   89MPD2    C4 1359   3.668   2.796   2.071 -0.7128 -0.7930  0.3450
   89MPD2    C5 1360   3.677   2.744   2.201  0.2706 -0.3007  0.6117
   89MPD2     H 1361   3.348   2.754   2.020 -0.8468 -1.0725  0.5713
   89MPD2    H1 1362   3.762   2.832   2.032 -0.6504 -0.9983  0.3061
   89MPD2    H2 1363   3.583   2.647   2.359  0.5749  0.4759 -0.3296
   89MPD2    H3 1364   3.767   2.750   2.261 -1.3048 -0.0171  2.9111
   89MPD2     N 1365   3.540   2.813   1.862  0.4469  0.2628  0.1118
   89MPD2    H5 1366   3.448   2.793   1.825  1.1260  1.4149 -2.1680
   89MPD2    N1 1367   3.338   2.612   2.235 -0.1633  0.4767  0.0410
   89MPD2    H7 1368   3.267   2.593   2.165  0.5273  1.0551 -0.8328
   90TCq2    C1 1369   3.641   2.864   1.784  0.2909  0.3544 -0.0717
   90TCq2    O2 1370   3.756   2.901   1.793 -0.0692 -0.4979  0.3996
   90TCq2    C2 1371   3.604   2.860   1.644 -0.0188 -0.2109  0.4314
   90TCq2    C3 1372   3.473   2.850   1.621 -0.3576  0.6413 -0.1735
   90TCq2    C4 1373   3.432   2.802   1.501  0.6901  0.1683 -0.2044
   90TCq2    C5 1374   3.518   2.761   1.403  0.4616 -0.2342  0.1123
   90TCq2    C6 1375   3.654   2.762   1.429  0.5017 -0.4658 -0.0062
   90TCq2    C7 1376   3.696   2.833   1.541 -0.4517  0.1286 -0.9133
   90TCq2    C8 1377   3.726   2.776   1.302  0.0268  0.3440 -0.8928
   90TCq2    O4 1378   3.689   2.702   1.213 -0.1191  1.0328 -0.2313
   90TCq2    C9 1379   3.288   2.783   1.477  0.0551 -0.3408 -0.8160
   90TCq2    O5 1380   3.215   2.803   1.580  0.1262  0.5099  0.1760
   90TCq2    O6 1381   3.238   2.757   1.367  0.4051 -0.1499 -0.0045
   90TCq2    H2 1382   3.396   2.876   1.693 -0.7090  0.1153 -0.3552
   90TCq2    H3 1383   3.479   2.717   1.312 -1.1627  1.3595  0.0400
   90TCq2    H4 1384   3.800   2.858   1.562 -0.8089  0.8063  0.0502
   91TMC2    C1 1385   4.704   2.629  16.901  0.7638 -0.5386  0.1312
   91TMC2    C2 1386   0.032   2.746  16.851  0.3014 -0.2673  0.1520
   91TMC2    C3 1387   4.677   2.807  16.756 -0.7471  0.1591  0.0040
   91TMC2    C4 1388   4.579   2.582  16.860 -0.4708 -0.9408  0.3141
   91TMC2    C5 1389   4.506   2.652  16.765 -0.9009 -0.0989 -0.7897
   91TMC2    C6 1390   4.559   2.765  16.715 -0.6069 -0.2862  0.1144
   91TMC2     C 1391   0.072   2.535  16.967 -0.0587  1.1820 -1.1155
   91TMC2     O 1392   0.021   2.438  17.018  0.3611 -0.5059 -0.4626
   91TMC2     H 1393   0.122   2.794  16.887 -0.1523  1.9695 -1.7394
   91TMC2    H1 1394   4.539   2.492  16.904  0.9202 -0.6857  2.0901
   91TMC2    H2 1395   4.512   2.823  16.636 -1.4798  0.7631  1.4017
   91TMC2    C7 1396   4.372   2.609  16.738 -0.2973 -0.7967  0.7227
   91TMC2    C8 1397   0.019   2.902  16.676  0.8493  0.5776 -0.2453
   91TMC2    O1 1398   4.311   2.580  16.836 -0.1061  0.1672 -0.4727
   91TMC2    O2 1399   0.038   3.015  16.729 -0.1011  0.0667 -0.0420
   91TMC2    O5 1400   0.109   2.837  16.600  0.2273 -0.3527  0.2357
   91TMC2    H5 1401   0.078   2.745  16.587  0.7709 -0.7027  1.3668
   92MPD2     C 1402   0.301   2.350  17.000  0.2264  0.0688  0.1665
   92MPD2    C1 1403   0.313   2.487  16.996  0.1624  0.1725 -0.3857
   92MPD2    C2 1404   0.445   2.540  17.004  0.3819 -0.1208 -0.1205
   92MPD2    C3 1405   0.556   2.460  17.012  0.2904 -0.3131  0.0505
   92MPD2    C4 1406   0.544   2.324  17.010 -0.1220  1.0434  0.1818
   92MPD2    C5 1407   0.415   2.274  17.003 -0.6289 -0.8356 -0.5689
   92MPD2     H 1408   0.447   2.648  17.016  0.8900 -0.2590  1.0782
   92MPD2    H1 1409   0.629   2.256  17.020 -0.2206  0.8970  0.0187
   92MPD2    H2 1410   0.204   2.301  17.003  0.1061  0.3527  0.9822
   92MPD2    H3 1411   0.402   2.169  17.030  1.9068 -0.6641  1.2831
   92MPD2     N 1412   0.678   2.524  17.020 -0.1612  0.4634 -0.2017
   92MPD2    H5 1413   0.675   2.623  17.002  0.8381  0.8359  1.7513
   92MPD2    N1 1414   0.201   2.575  16.970 -0.3089  0.3993  0.3764
   92MPD2    H7 1415   0.221   2.674  16.959  1.3445  0.0941  0.7295
   93MPD2     C 1416   1.662   2.570  13.708 -0.0437 -0.2875 -0.4281
   93MPD2    C1 1417   1.642   2.608  13.836 -0.3057  0.1879 -0.5322
   93MPD2    C2 1418   1.534   2.558  13.907  0.6348 -0.3940 -0.0501
   93MPD2    C3 1419   1.441   2.481  13.845 -0.7423  0.3354 -0.1074
   93MPD2    C4 1420   1.466   2.433  13.719  0.1074 -0.1123 -0.8248
   93MPD2    C5 1421   1.580   2.476  13.652  0.0497 -0.0730 -0.1720
   93MPD2     H 1422   1.524   2.582  14.013  0.3952  1.0456 -0.3964
   93MPD2    H1 1423   1.399   2.366  13.665 -1.7678  0.1798  1.1680
   93MPD2    H2 1424   1.744   2.613  13.652 -0.3850 -0.3839 -0.9975
   93MPD2    H3 1425   1.598   2.443  13.550 -2.3576  1.3055 -1.0426
   93MPD2     N 1426   1.317   2.449  13.902  0.1692  0.1008  0.7093
   93MPD2    H5 1427   1.258   2.386  13.848  2.9173 -0.6109 -1.4984
   93MPD2    N1 1428   1.732   2.684  13.911 -0.7381  0.6158 -0.4876
   93MPD2    H7 1429   1.705   2.703  14.007  1.3826  1.0826  0.0226
   94TCq2    C1 1430   1.842   2.747  13.864 -0.0895  0.0530  0.5540
   94TCq2    O2 1431   1.896   2.741  13.754 -0.6280  0.1898  0.6165
   94TCq2    C2 1432   1.890   2.848  13.957  0.8245 -0.3153  0.3956
   94TCq2    C3 1433   1.817   2.881  14.068 -0.7296  0.1855  0.0772
   94TCq2    C4 1434   1.889   2.929  14.170  0.1785 -0.2082  0.3666
   94TCq2    C5 1435   2.023   2.949  14.167 -0.2298  0.2024  0.2176
   94TCq2    C6 1436   2.093   2.927  14.051 -0.5382 -0.0552 -0.4681
   94TCq2    C7 1437   2.028   2.877  13.947  0.0414 -0.0004  0.6382
   94TCq2    C8 1438   2.241   2.953  14.031 -0.1996  0.0068  0.0772
   94TCq2    O4 1439   2.299   2.988  14.133  0.1098  0.2363  0.9663
   94TCq2    C9 1440   1.824   2.951  14.289 -0.3141  0.1862 -0.0519
   94TCq2    O5 1441   1.704   2.912  14.299 -0.2017  0.1120  0.1254
   94TCq2    O6 1442   1.887   3.004  14.386 -0.7464 -0.8327  0.6963
   94TCq2    H2 1443   1.709   2.881  14.080 -0.5746 -0.0206  1.4565
   94TCq2    H3 1444   2.073   2.986  14.255  0.0762 -0.3066  0.2523
   94TCq2    H4 1445   2.077   2.835  13.860 -0.8788 -0.0601  0.1481
   95TMC2    C1 1446   1.650   4.524  16.730 -0.3570  0.2700  0.5408
   95TMC2    C2 1447   1.529   4.497  16.806 -0.4012 -0.3883  0.0859
   95TMC2    C3 1448   1.484   4.604  16.887  0.2853  0.5036 -0.0792
   95TMC2    C4 1449   1.706   4.649  16.733  0.1415  0.0456  0.2062
   95TMC2    C5 1450   1.647   0.025  16.801 -0.6917  0.8301  0.0382
   95TMC2    C6 1451   1.541   0.010  16.880 -0.2577  0.0413 -0.2585
   95TMC2     C 1452   1.741   4.420  16.689 -0.2450  0.0829 -0.0667
   95TMC2     O 1453   1.728   4.318  16.750 -0.2016 -0.8519 -0.2449
   95TMC2     H 1454   1.476   4.403  16.816 -1.7890  0.3743 -0.0432
   95TMC2    H1 1455   1.801   4.665  16.683  0.8905 -0.1243  1.5571
   95TMC2    H2 1456   1.536   0.071  16.970 -1.7951  0.7994 -0.8640
   95TMC2    C7 1457   1.689   0.158  16.775  0.2791 -0.3414  0.4434
   95TMC2    C8 1458   1.415   4.560  17.009 -0.9867  0.0506  0.1314
   95TMC2    O1 1459   1.804   0.180  16.733 -0.3123 -0.4850 -0.0456
   95TMC2    O2 1460   1.413   4.449  17.055 -0.1412  0.5010  0.2389
   95TMC2    O5 1461   1.343   4.669  17.055 -0.2008 -0.0657 -0.0073
   95TMC2    H5 1462   1.333   0.028  17.000  0.2663 -2.9452 -4.3794
   96MPD2     C 1463   2.074   4.197  16.361 -0.2291  0.0779 -0.2937
   96MPD2    C1 1464   2.025   4.315  16.303 -0.5021 -0.4629  0.7589
   96MPD2    C2 1465   1.926   4.382  16.373 -0.1842  0.4783 -0.2391
   96MPD2    C3 1466   1.885   4.354  16.502  0.5601 -0.2422  0.0113
   96MPD2    C4 1467   1.933   4.234  16.558  0.3638  0.0922 -0.2074
   96MPD2    C5 1468   2.030   4.163  16.483  0.9101  0.5480  0.2044
   96MPD2     H 1469   1.877   4.467  16.327  0.1899  1.5749  1.3804
   96MPD2    H1 1470   1.914   4.206  16.661 -1.9132 -2.8164 -1.4023
   96MPD2    H2 1471   2.153   4.134  16.320  0.9422  1.3194  0.0584
   96MPD2    H3 1472   2.068   4.072  16.527 -0.2226 -0.4066 -0.7986
   96MPD2     N 1473   1.802   4.441  16.568  0.2294 -0.3812  0.2046
   96MPD2    H5 1474   1.776   4.529  16.523 -0.4613 -0.4469  0.4774
   96MPD2    N1 1475   2.091   4.353  16.181  0.4118 -0.9501 -1.3374
   96MPD2    H7 1476   2.170   4.299  16.150  1.6343  0.4049 -0.5746
   97MPD2     C 1477   4.260   3.092   1.029 -0.0263  0.3350  0.2680
   97MPD2    C1 1478   4.253   2.957   1.039  0.3127 -0.8113 -0.3420
   97MPD2    C2 1479   4.239   2.884   0.923 -0.6116  0.3188 -0.3887
   97MPD2    C3 1480   4.254   2.946   0.798 -0.0748 -0.2678  0.0085
   97MPD2    C4 1481   4.282   3.082   0.792 -0.0733 -0.3087  0.0428
   97MPD2    C5 1482   4.281   3.153   0.908  0.2125 -0.3550 -0.7987
   97MPD2     H 1483   4.232   2.776   0.919 -0.8203  0.3011  0.3525
   97MPD2    H1 1484   4.298   3.129   0.695 -0.8534 -1.7947 -0.8062
   97MPD2    H2 1485   4.236   3.142   1.122  2.6982  2.0146  0.0681
   97MPD2    H3 1486   4.294   3.261   0.907  0.1335 -0.3435 -0.6040
   97MPD2     N 1487   4.248   2.871   0.678 -0.0317  0.2638  0.0920
   97MPD2    H5 1488   4.261   2.924   0.592 -1.7548  1.3774  0.5152
   97MPD2    N1 1489   4.246   2.903   1.165 -0.0301  1.0365 -1.0186
   97MPD2    H7 1490   4.264   2.972   1.238 -0.1355  0.2899 -0.2816
   98TCq2    C1 1491   4.211   2.740   0.661 -1.7985 -0.5795 -0.2027
   98TCq2    O2 1492   4.154   2.662   0.739  0.0308  0.2006 -0.0383
   98TCq2    C2 1493   4.201   2.702   0.520  0.2565  0.8805 -0.6402
   98TCq2    C3 1494   4.095   2.626   0.484 -1.3118  0.3020  0.1371
   98TCq2    C4 1495   4.078   2.601   0.348  0.6216  0.0596 -0.1703
   98TCq2    C5 1496   4.164   2.660   0.261 -0.1326 -0.1098 -0.2067
   98TCq2    C6 1497   4.268   2.739   0.302  0.0108 -0.2763  0.8467
   98TCq2    C7 1498   4.298   2.748   0.435  0.0214 -0.6796  0.4655
   98TCq2    C8 1499   4.344   2.813   0.201  0.3988 -0.5532 -0.3753
   98TCq2    O4 1500   4.466   2.824   0.223 -0.3619 -0.5844  0.0141
   98TCq2    C9 1501   3.979   2.505   0.292  1.2722 -0.2257  0.5628
   98TCq2    O5 1502   3.951   2.514   0.171  0.1517  0.2678 -0.7031
   98TCq2    O6 1503   3.907   2.445   0.377 -0.3858 -0.4773 -0.2916
   98TCq2    H2 1504   4.020   2.592   0.556  0.9363 -0.8646  1.9151
   98TCq2    H3 1505   4.159   2.635   0.155 -0.8953  0.5093 -0.3116
   98TCq2    H4 1506   4.374   2.819   0.466  0.3473 -1.1131  0.6530
   99MPD2     C 1507   4.127   4.065   1.262 -0.3050 -0.3310  0.6173
   99MPD2    C1 1508   4.026   4.138   1.320  0.1516  0.3953  0.1292
   99MPD2    C2 1509   3.898   4.102   1.292  0.6061  0.6284  0.0960
   99MPD2    C3 1510   3.861   4.007   1.201 -0.0805 -0.9303 -1.1848
   99MPD2    C4 1511   3.964   3.935   1.151  0.3484  0.1882  0.1236
   99MPD2    C5 1512   4.095   3.959   1.185 -0.5312  0.3243  0.0989
   99MPD2     H 1513   3.819   4.162   1.335  1.4450  1.4618  0.4601
   99MPD2    H1 1514   3.947   3.862   1.072  2.0575 -0.0258 -0.0489
   99MPD2    H2 1515   4.232   4.079   1.284 -0.6018 -1.3125  2.6979
   99MPD2    H3 1516   4.182   3.901   1.157  0.2193  0.2362  2.6270
   99MPD2     N 1517   3.725   3.991   1.172  0.3034  0.3159 -0.4370
   99MPD2    H5 1518   3.654   4.048   1.219  1.9727  1.8418  0.2347
   99MPD2    N1 1519   4.047   4.258   1.399 -0.0964  0.4757 -0.0546
   99MPD2    H7 1520   3.966   4.312   1.428  1.1725  3.4166 -1.9935
  100TCq2    C1 1521   4.170   4.310   1.438 -0.7741 -0.5953 -1.6264
  100TCq2    O2 1522   4.285   4.278   1.407 -0.5783  0.7074  0.0696
  100TCq2    C2 1523   4.158   4.434   1.515 -0.4899  0.2082 -0.4031
  100TCq2    C3 1524   4.279   4.489   1.556 -0.4901  0.1734  0.5368
  100TCq2    C4 1525   4.292   4.620   1.600  0.0728  0.3649 -0.7691
  100TCq2    C5 1526   4.182   4.695   1.613 -0.7189 -0.2454 -0.9457
  100TCq2    C6 1527   4.061   4.638   1.572  0.1698 -0.5004 -1.2225
  100TCq2    C7 1528   4.049   4.517   1.501 -0.4462 -0.0971 -0.2120
  100TCq2    C8 1529   3.939   4.718   1.594 -0.3642 -0.2488 -0.0390
  100TCq2    O4 1530   3.956   0.114   1.630 -0.4265  0.0303 -0.7885
  100TCq2    C9 1531   4.420   4.686   1.610 -0.3827 -0.4956  0.0742
  100TCq2    O5 1532   4.415   0.084   1.647 -0.0728 -0.1974 -0.3671
  100TCq2    O6 1533   4.520   4.612   1.603  0.1548 -0.4140  0.6623
  100TCq2    H2 1534   4.366   4.426   1.564 -0.8657 -0.3453  0.5450
  100TCq2    H3 1535   4.190   0.075   1.649  0.4729 -1.0556  1.0482
  100TCq2    H4 1536   3.958   4.480   1.455 -0.4376 -1.0455  0.5361
  101MPD2     C 1537   3.927   4.562  13.196  0.3930 -0.3378 -0.0670
  101MPD2    C1 1538   3.819   4.620  13.260  0.5710  0.1934  1.0371
  101MPD2    C2 1539   3.698   4.549  13.265  0.0799 -1.4590 -0.2382
  101MPD2    C3 1540   3.682   4.424  13.204  0.0282 -0.5816 -0.0961
  101MPD2    C4 1541   3.795   4.368  13.139 -0.4876  0.2356  0.5650
  101MPD2    C5 1542   3.914   4.431  13.145 -0.1537 -0.0069  0.5561
  101MPD2     H 1543   3.613   4.593  13.316  1.7306  2.9602 -1.3121
  101MPD2    H1 1544   3.790   4.266  13.103  0.8393 -0.1264  1.4201
  101MPD2    H2 1545   4.021   4.617  13.193  1.1577 -1.6069  0.5274
  101MPD2    H3 1546   3.990   4.377  13.088 -1.0391 -2.0318  1.2980
  101MPD2     N 1547   3.559   4.357  13.231 -0.2335 -0.2584 -0.0934
  101MPD2    H5 1548   3.477   4.405  13.265 -1.6940 -0.7867 -2.8194
  101MPD2    N1 1549   3.835   0.024  13.326 -0.0198  0.7913 -0.6054
  101MPD2    H7 1550   3.911   0.082  13.290 -0.1399  0.8795 -0.7194
  102TCq2    C1 1551   3.774   0.478  13.170  0.1428  0.1763 -0.4586
  102TCq2    O2 1552   3.847   0.424  13.091  0.5339 -0.2681  0.4070
  102TCq2    C2 1553   3.769   0.426  13.306 -0.5160  0.2398  0.2770
  102TCq2    C3 1554   3.694   0.491  13.401 -0.1067 -0.3791  0.2442
  102TCq2    C4 1555   3.654   0.419  13.504  0.0996  0.3186 -0.1890
  102TCq2    C5 1556   3.684   0.288  13.520  0.3801  0.3416  0.3134
  102TCq2    C6 1557   3.754   0.225  13.425 -0.2890  0.3047  0.2146
  102TCq2    C7 1558   3.801   0.295  13.317  0.1731  0.4897 -0.5721
  102TCq2    C8 1559   3.746   0.081  13.414  1.1585 -0.0753  0.3073
  102TCq2    O4 1560   3.654   0.035  13.479 -0.2910 -0.0952  0.0345
  102TCq2    C9 1561   3.566   0.491  13.595  0.3817 -0.0176 -0.4442
  102TCq2    O5 1562   3.554   0.437  13.704 -0.6898  0.2430 -0.4695
  102TCq2    O6 1563   3.509   0.596  13.554 -0.3714  0.1433 -0.6060
  102TCq2    H2 1564   3.687   0.599  13.401  1.7559 -0.2629 -1.2821
  102TCq2    H3 1565   3.644   0.235  13.606 -2.6500  1.8587 -0.1513
  102TCq2    H4 1566   3.882   0.260  13.254  1.4965 -0.5013  1.6852
  103TMC2    C1 1567   2.039   0.434  12.337  0.2935  0.8762 -0.6720
  103TMC2    C2 1568   2.170   0.402  12.374  0.5378 -0.0524 -0.2566
  103TMC2    C3 1569   2.201   0.422  12.502  0.4065 -0.6251 -1.2486
  103TMC2    C4 1570   1.950   0.477  12.432 -0.0702 -0.4499 -0.2296
  103TMC2    C5 1571   1.984   0.474  12.563  0.7389 -0.4907  0.3219
  103TMC2    C6 1572   2.111   0.452  12.599  0.4012  0.1212 -0.0863
  103TMC2     C 1573   1.987   0.379  12.216 -0.0025 -0.6821  0.4549
  103TMC2     O 1574   1.866   0.387  12.212  0.2538  0.0115  0.0293
  103TMC2     H 1575   2.249   0.400  12.299 -0.9539 -1.7771 -1.7482
  103TMC2    H1 1576   1.850   0.513  12.412 -0.3906 -2.3983 -2.2120
  103TMC2    H2 1577   2.149   0.455  12.700 -3.4433  1.3110  1.3264
  103TMC2    C7 1578   1.901   0.532  12.668 -0.5128 -0.0323 -0.2908
  103TMC2    C8 1579   2.343   0.402  12.533 -0.1877  0.5329 -0.4408
  103TMC2    O1 1580   1.960   0.558  12.770 -0.1174 -0.3759 -0.2733
  103TMC2    O2 1581   2.414   0.312  12.488 -0.0712 -0.3941  0.4785
  103TMC2    O5 1582   2.383   0.483  12.630  0.2827  0.1950  0.6782
  103TMC2    H5 1583   2.317   0.555  12.633  0.1342  0.0925 -0.2390
  104MPD2     C 1584   2.142   0.172  11.953 -0.4511  0.1558 -0.1801
  104MPD2    C1 1585   2.043   0.244  12.020 -0.6281  0.6346 -0.0186
  104MPD2    C2 1586   1.910   0.218  11.979 -0.2527 -0.2595  0.0131
  104MPD2    C3 1587   1.878   0.135  11.872  0.0652  0.2354  0.1601
  104MPD2    C4 1588   1.985   0.079  11.803  0.3412  0.5593 -0.2970
  104MPD2    C5 1589   2.117   0.093  11.842  0.4136  0.1771 -0.6970
  104MPD2     H 1590   1.830   0.269  12.031 -1.7138 -0.9675 -1.5477
  104MPD2    H1 1591   1.969   0.009  11.721 -0.7901  0.3276  0.1336
  104MPD2    H2 1592   2.245   0.186  11.982 -0.4333 -1.4291  0.5335
  104MPD2    H3 1593   2.187   0.027  11.793 -0.9649 -0.9281 -1.1861
  104MPD2     N 1594   1.742   0.117  11.837  0.6982  0.2144 -0.0401
  104MPD2    H5 1595   1.671   0.165  11.892 -0.2002  0.8548 -1.7515
  104MPD2    N1 1596   2.073   0.316  12.129  0.1463 -0.3253  0.4846
  104MPD2    H7 1597   2.171   0.312  12.155  0.7227 -0.2460 -1.6774
  105MPD2     C 1598   3.531   4.601  17.604 -0.1676 -0.1956 -0.2240
  105MPD2    C1 1599   3.402   4.638  17.616 -0.0781 -0.5687 -0.2180
  105MPD2    C2 1600   3.345   4.681   0.050 -0.3389  1.0861  0.4096
  105MPD2    C3 1601   3.416   4.720   0.159  0.1172  0.1747  0.4153
  105MPD2    C4 1602   3.553   4.695   0.141 -0.1950  0.3349 -0.5044
  105MPD2    C5 1603   3.603   4.635   0.026  0.2065  0.5452  0.7277
  105MPD2     H 1604   3.237   4.684   0.047 -0.3638 -0.9674 -1.1949
  105MPD2    H1 1605   3.616   4.718   0.227  1.3512  0.4068 -1.6634
  105MPD2    H2 1606   3.573   4.558  17.514 -1.6670 -1.2914 -0.3918
  105MPD2    H3 1607   3.710   4.624   0.011  0.0653 -0.7626  0.6403
  105MPD2     N 1608   3.350   0.056   0.276 -1.1982  0.3446  0.8184
  105MPD2    H5 1609   3.251   0.040   0.291 -1.4293  1.4880  0.5073
  105MPD2    N1 1610   3.310   4.626  17.509 -0.0411 -0.0415  0.3432
  105MPD2    H7 1611   3.221   4.668  17.535  0.8323  0.8083  1.9170
  106TCq2    C1 1612   3.412   0.133   0.375 -0.2577 -0.3541 -0.4400
  106TCq2    O2 1613   3.531   0.164   0.380  0.0465 -0.3315 -0.1790
  106TCq2    C2 1614   3.319   0.201   0.465  0.0641 -0.2322 -0.0957
  106TCq2    C3 1615   3.375   0.259   0.575 -0.7012 -0.0307 -0.1145
  106TCq2    C4 1616   3.295   0.321   0.668  0.1701 -0.3341  0.2159
  106TCq2    C5 1617   3.161   0.312   0.662  0.5122 -0.3044 -0.0020
  106TCq2    C6 1618   3.105   0.260   0.551  1.0774 -0.0872  0.2007
  106TCq2    C7 1619   3.183   0.208   0.452  0.1252  0.1957  0.0152
  106TCq2    C8 1620   2.969   0.258   0.532  0.4111  0.3426  0.2057
  106TCq2    O4 1621   2.924   0.204   0.429  0.4224 -0.7538 -0.3458
  106TCq2    C9 1622   3.353   0.381   0.785 -0.0595  0.1846 -0.0972
  106TCq2    O5 1623   3.479   0.364   0.806 -0.1848 -0.1327 -0.5444
  106TCq2    O6 1624   3.277   0.438   0.864  0.4608  0.2283  0.3830
  106TCq2    H2 1625   3.480   0.250   0.599 -0.7784  0.2273  0.3125
  106TCq2    H3 1626   3.105   0.357   0.743  1.1559  1.2767 -0.4368
  106TCq2    H4 1627   3.141   0.177   0.358 -1.3154  2.7080 -0.1910
  107TMC2    C1 1628   3.862   3.765  11.661 -0.5061  0.1623 -0.1754
  107TMC2    C2 1629   3.888   3.889  11.624  0.0352  0.0527 -0.1671
  107TMC2    C3 1630   3.930   3.904  11.500 -0.2696  0.2749  0.0374
  107TMC2    C4 1631   3.875   3.657  11.584  0.0463  0.4918  0.0909
  107TMC2    C5 1632   3.923   3.679  11.456 -0.1308 -0.4822  0.3589
  107TMC2    C6 1633   3.949   3.805  11.405  0.7155  0.1855 -0.4428
  107TMC2     C 1634   3.806   3.738  11.787  0.1986 -0.1438 -0.3990
  107TMC2     O 1635   3.716   3.655  11.791 -0.1172 -0.2310 -0.1884
  107TMC2     H 1636   3.872   3.978  11.685 -0.0397  1.1735 -1.8144
  107TMC2    H1 1637   3.849   3.555  11.608  0.4883 -0.0324 -1.6251
  107TMC2    H2 1638   3.966   3.813  11.298  1.3467  0.9813 -0.2762
  107TMC2    C7 1639   3.919   3.566  11.368 -0.4497  0.2530 -0.8225
  107TMC2    C8 1640   3.936   4.037  11.463 -0.1246  0.3046 -0.0770
  107TMC2    O1 1641   3.846   3.469  11.399 -1.0297  0.3274 -0.2839
  107TMC2    O2 1642   3.994   4.127  11.523  0.7249 -0.4866  0.0919
  107TMC2    O5 1643   3.899   4.047  11.339  0.1796 -0.0444 -0.5294
  107TMC2    H5 1644   3.836   3.975  11.316 -0.2235 -0.5815  2.2587
  108MPD2     C 1645   3.899   3.897  12.108 -0.3303 -0.4181 -0.2276
  108MPD2    C1 1646   3.817   3.817  12.020  0.9122 -0.5131  1.2688
  108MPD2    C2 1647   3.690   3.779  12.066 -0.7671 -0.2081  0.3301
  108MPD2    C3 1648   3.672   3.792  12.204 -0.2821  0.6053 -0.1122
  108MPD2    C4 1649   3.760   3.854  12.292  0.6900  0.0470  0.5044
  108MPD2    C5 1650   3.871   3.905  12.241  0.0031 -0.4125  0.0251
  108MPD2     H 1651   3.617   3.731  12.002 -1.3914 -0.5960  1.3347
  108MPD2    H1 1652   3.741   3.857  12.398 -0.7896 -0.4233  0.2603
  108MPD2    H2 1653   3.997   3.935  12.082 -0.1186  0.1006  1.3087
  108MPD2    H3 1654   3.933   3.973  12.297 -1.6684 -0.4086  1.8774
  108MPD2     N 1655   3.558   3.735  12.262 -0.3383  0.1939 -0.1739
  108MPD2    H5 1656   3.543   3.742  12.362  0.9478 -1.0828  0.1154
  108MPD2    N1 1657   3.862   3.807  11.888  0.1238  1.0463  0.6766
  108MPD2    H7 1658   3.955   3.844  11.870  0.5299  0.7706  2.1983
  109MPD2     C 1659   4.303   1.583   2.242 -0.0927 -0.1042  0.0310
  109MPD2    C1 1660   4.297   1.673   2.136 -0.3648 -0.8389 -0.1500
  109MPD2    C2 1661   4.334   1.812   2.156  0.3029  0.2202  0.1486
  109MPD2    C3 1662   4.389   1.842   2.277 -0.4414 -0.0063  0.2970
  109MPD2    C4 1663   4.384   1.748   2.385  1.0500  0.3651 -0.0401
  109MPD2    C5 1664   4.326   1.627   2.366 -0.3266 -0.0386  0.5837
  109MPD2     H 1665   4.341   1.884   2.075 -1.3499 -0.5908 -0.7164
  109MPD2    H1 1666   4.415   1.774   2.485  0.7433 -1.8800  0.6364
  109MPD2    H2 1667   4.264   1.483   2.233 -2.4257  0.7378  0.6790
  109MPD2    H3 1668   4.317   1.553   2.444 -1.3853  0.8873  1.3471
  109MPD2     N 1669   4.452   1.965   2.289 -0.2129 -0.6858 -0.1396
  109MPD2    H5 1670   4.445   2.031   2.211 -1.3194 -1.6019 -0.8168
  109MPD2    N1 1671   4.243   1.619   2.012 -0.8111  0.0012 -0.5119
  109MPD2    H7 1672   4.243   1.519   1.994 -0.9402 -0.2174  0.7294
  110TCq2    C1 1673   4.548   2.003   2.379  0.4665  0.1323 -0.1533
  110TCq2    O2 1674   4.588   1.933   2.472  0.1288  0.1539 -0.1406
  110TCq2    C2 1675   4.585   2.145   2.383  0.3458  0.4969  0.4692
  110TCq2    C3 1676   4.663   2.192   2.483 -0.8936  0.0635 -0.3622
  110TCq2    C4 1677   4.706   2.325   2.479 -0.4663  0.1761  0.4358
  110TCq2    C5 1678   4.666   2.413   2.374  0.4273 -0.7962  0.1383
  110TCq2    C6 1679   4.586   2.361   2.279  0.0957  0.8591 -0.5749
  110TCq2    C7 1680   4.548   2.228   2.279 -0.1599 -0.3201  0.5861
  110TCq2    C8 1681   4.552   2.438   2.159 -0.7665 -0.1708  0.6703
  110TCq2    O4 1682   4.453   2.410   2.092 -0.4314  0.3337 -0.0486
  110TCq2    C9 1683   0.091   2.364   2.580  0.1475 -0.1188 -0.3854
  110TCq2    O5 1684   0.134   2.480   2.568  0.2903 -0.1000 -0.1280
  110TCq2    O6 1685   0.133   2.280   2.665  0.1287  0.0674 -0.4124
  110TCq2    H2 1686   4.698   2.120   2.556  1.3572  0.7009 -0.7943
  110TCq2    H3 1687   4.709   2.512   2.380 -0.7574 -0.4776  3.5763
  110TCq2    H4 1688   4.498   2.188   2.192  3.4347 -1.1367 -1.1051
  111TMC2    C1 1689   3.479   1.082  11.665  0.1058 -0.0583  0.3400
  111TMC2    C2 1690   3.366   1.133  11.721 -0.1315 -0.8505 -0.6454
  111TMC2    C3 1691   3.375   1.177  11.853  0.7768 -0.4208  0.6520
  111TMC2    C4 1692   3.597   1.072  11.735  0.2336 -0.1313 -0.1402
  111TMC2    C5 1693   3.596   1.101  11.869 -0.3127 -0.4519  0.0565
  111TMC2    C6 1694   3.489   1.153  11.933  0.2994  0.2209  0.3782
  111TMC2     C 1695   3.479   1.072  11.525  0.1008 -0.1733 -0.2149
  111TMC2     O 1696   3.590   1.071  11.469 -0.1842 -0.2054 -0.3228
  111TMC2     H 1697   3.270   1.129  11.672 -0.8206  0.4844  0.6066
  111TMC2    H1 1698   3.682   1.022  11.690 -0.1593 -1.0663  0.1613
  111TMC2    H2 1699   3.508   1.189  12.034 -0.3992 -2.1845  1.3644
  111TMC2    C7 1700   3.703   1.072  11.955 -0.4484 -0.1575  0.5146
  111TMC2    C8 1701   3.247   1.193  11.916  0.0069  0.5873  0.3169
  111TMC2    O1 1702   3.702   1.082  12.076 -0.6883  0.6960 -0.1151
  111TMC2    O2 1703   3.142   1.199  11.854 -0.0186  0.3105  0.0437
  111TMC2    O5 1704   3.263   1.122  12.034  0.4713 -0.6484  0.4576
  111TMC2    H5 1705   3.351   1.101  12.073 -0.4049 -2.0637  1.6422
  112MPD2     C 1706   3.217   1.034  11.091 -0.2798  0.2389  0.1519
  112MPD2    C1 1707   3.342   1.092  11.113 -0.5550 -0.7991 -0.1470
  112MPD2    C2 1708   3.390   1.100  11.243  0.1680 -0.3257  0.5076
  112MPD2    C3 1709   3.316   1.046  11.347 -0.2959 -0.0510 -0.1302
  112MPD2    C4 1710   3.189   1.004  11.323  0.0167  0.2210  0.1616
  112MPD2    C5 1711   3.133   1.013  11.202  0.6832 -0.0260 -0.0228
  112MPD2     H 1712   3.495   1.123  11.257  0.2178  0.1490 -0.5997
  112MPD2    H1 1713   3.125   0.973  11.405  0.8652 -2.2984 -0.1527
  112MPD2    H2 1714   3.168   1.034  10.994  0.1465  0.3840 -0.0643
  112MPD2    H3 1715   3.035   0.976  11.176  0.9070 -1.7299  1.5716
  112MPD2     N 1716   3.352   1.047  11.478 -0.0458 -0.0581 -0.1927
  112MPD2    H5 1717   3.292   1.001  11.547 -0.9602  1.0226 -0.2650
  112MPD2    N1 1718   3.421   1.160  11.015  0.1985  0.2966 -1.0654
  112MPD2    H7 1719   3.499   1.216  11.050  0.1961  0.3353 -1.1227
  113MPD2     C 1720   2.604   4.123   1.506 -0.0498 -0.1178  0.6003
  113MPD2    C1 1721   2.497   4.187   1.443  0.4659  0.7229  0.1773
  113MPD2    C2 1722   2.383   4.112   1.425 -0.3907  0.1557 -0.1836
  113MPD2    C3 1723   2.373   3.982   1.477  0.1952 -0.2715 -0.6225
  113MPD2    C4 1724   2.480   3.930   1.553 -0.2950  0.0774  0.5124
  113MPD2    C5 1725   2.599   3.997   1.562  0.8461  0.4741 -0.0615
  113MPD2     H 1726   2.288   4.152   1.392 -0.9733 -1.8265 -0.8383
  113MPD2    H1 1727   2.483   3.828   1.590 -2.0309  0.1529  0.8670
  113MPD2    H2 1728   2.688   4.190   1.521  0.4403 -0.3028 -1.3498
  113MPD2    H3 1729   2.683   3.956   1.618  1.1938 -0.3948 -1.2114
  113MPD2     N 1730   2.257   3.900   1.451  0.1095 -0.1813  0.2945
  113MPD2    H5 1731   2.245   3.813   1.502  3.8262  0.7111  2.7212
  113MPD2    N1 1732   2.504   4.315   1.399 -0.0846  0.8038 -0.6704
  113MPD2    H7 1733   2.413   4.346   1.364  0.3528  0.1310 -2.4322
  114TCq2    C1 1734   2.144   3.932   1.367 -0.8905 -0.3402  0.3956
  114TCq2    O2 1735   2.119   4.033   1.303  0.0984 -0.3622 -0.3445
  114TCq2    C2 1736   2.042   3.824   1.375 -0.8009  0.9315  0.0595
  114TCq2    C3 1737   1.923   3.853   1.317  0.8013 -0.2623  0.2246
  114TCq2    C4 1738   1.828   3.759   1.299  0.6009  0.2756 -0.5117
  114TCq2    C5 1739   1.848   3.630   1.337 -0.2346 -0.2304  0.5228
  114TCq2    C6 1740   1.974   3.603   1.386  0.6265 -0.1615  0.0910
  114TCq2    C7 1741   2.069   3.695   1.413 -0.6916 -0.2652  0.0352
  114TCq2    C8 1742   2.022   3.466   1.368 -0.0154  0.2976  0.6079
  114TCq2    O4 1743   2.139   3.452   1.346 -0.3787 -0.0641  0.2284
  114TCq2    C9 1744   1.695   3.795   1.250  0.1131 -0.4066 -0.1527
  114TCq2    O5 1745   1.632   3.701   1.204 -0.3558 -0.1549  0.3271
  114TCq2    O6 1746   1.669   3.918   1.246  0.4821  0.9420 -0.0310
  114TCq2    H2 1747   1.907   3.951   1.273  1.6634  0.3723  1.3526
  114TCq2    H3 1748   1.770   3.558   1.317 -0.5882  0.6274 -1.1651
  114TCq2    H4 1749   2.166   3.661   1.446 -0.2351 -1.5155 -2.6556
  115TMC2    C1 1750   2.430   1.967   0.205 -0.1104  0.1383  0.4885
  115TMC2    C2 1751   2.463   1.944   0.336  0.9959  0.7513  0.3785
  115TMC2    C3 1752   2.532   2.041   0.405  0.2576  0.3328  0.6004
  115TMC2    C4 1753   2.452   2.088   0.145  0.7318 -0.0386 -0.0213
  115TMC2    C5 1754   2.508   2.185   0.222  0.2900  0.0113 -1.0595
  115TMC2    C6 1755   2.551   2.164   0.346  0.0798  0.6848 -0.0534
  115TMC2     C 1756   2.358   1.864   0.141 -0.0742  0.7629 -0.7781
  115TMC2     O 1757   2.352   1.864   0.020  0.7591 -0.5946 -0.2561
  115TMC2     H 1758   2.462   1.842   0.374 -1.0692  0.0813 -1.4541
  115TMC2    H1 1759   2.421   2.102   0.042  0.9483 -0.5878 -0.1608
  115TMC2    H2 1760   2.585   2.247   0.407 -0.1323  1.3267 -0.8091
  115TMC2    C7 1761   2.503   2.325   0.186  0.2950  0.0459  0.1290
  115TMC2    C8 1762   2.537   2.034   0.547 -1.0394  0.4199 -0.1544
  115TMC2    O1 1763   2.508   2.403   0.279  0.2170 -0.1889  0.2842
  115TMC2    O2 1764   2.541   2.124   0.624  0.3214 -0.3717 -0.4979
  115TMC2    O5 1765   2.596   1.912   0.586  0.0215 -0.1628  0.2550
  115TMC2    H5 1766   2.631   1.855   0.514 -0.2694  0.9443 -0.7702
  116MPD2     C 1767   1.977   1.529   0.148  0.0346 -0.7510  0.1344
  116MPD2    C1 1768   2.071   1.552   0.051  0.5044 -0.2408 -0.2798
  116MPD2    C2 1769   2.165   1.656   0.064 -0.0616  0.9062 -0.6361
  116MPD2    C3 1770   2.154   1.741   0.173 -0.1917  0.1348  0.2141
  116MPD2    C4 1771   2.059   1.718   0.270  0.9346  0.2024 -0.0193
  116MPD2    C5 1772   1.965   1.621   0.250 -0.3927 -0.1219 -0.7406
  116MPD2     H 1773   2.257   1.659   0.006 -0.8333  2.6909 -1.7444
  116MPD2    H1 1774   2.050   1.774   0.363 -0.5167 -0.9981  0.5520
  116MPD2    H2 1775   1.926   1.434   0.144 -0.2336 -0.6329  0.6667
  116MPD2    H3 1776   1.894   1.596   0.327  0.5518  3.9496  1.4442
  116MPD2     N 1777   2.256   1.820   0.217 -0.0558 -0.2697  0.1169
  116MPD2    H5 1778   2.241   1.874   0.302  0.3381 -0.0895  0.0770
  116MPD2    N1 1779   2.078   1.456  17.639  0.1620  0.0693  0.2633
  116MPD2    H7 1780   2.008   1.382  17.638 -1.9311  2.0062  1.3433
  117TMC2    C1 1781   0.772   2.906  14.264 -0.1315 -0.2252 -0.1807
  117TMC2    C2 1782   0.793   2.824  14.373  0.8761  0.7085  0.5643
  117TMC2    C3 1783   0.895   2.849  14.462 -0.2769  0.4881 -0.7311
  117TMC2    C4 1784   0.855   3.015  14.245  0.0590  0.5444 -0.7341
  117TMC2    C5 1785   0.958   3.029  14.336 -0.2263 -0.6075 -0.3689
  117TMC2    C6 1786   0.979   2.951  14.444  0.1304 -0.1157  0.0800
  117TMC2     C 1787   0.631   2.915  14.232 -0.2317 -0.7144  0.3178
  117TMC2     O 1788   0.567   2.820  14.261 -0.6220 -0.5257  0.0836
  117TMC2     H 1789   0.718   2.750  14.402 -1.2103  3.5813  2.5279
  117TMC2    H1 1790   0.852   3.074  14.154 -1.6625  1.4835 -0.0658
  117TMC2    H2 1791   1.040   2.983  14.527 -2.2615 -0.3495  1.9367
  117TMC2    C7 1792   1.046   3.151  14.307 -0.3078  0.2017  0.5530
  117TMC2    C8 1793   0.877   2.788  14.589 -0.0091  0.0719 -0.6165
  117TMC2    O1 1794   1.029   3.205  14.204 -0.7028 -0.0350 -0.7013
  117TMC2    O2 1795   0.826   2.845  14.681  0.0731  0.2201 -0.1448
  117TMC2    O5 1796   0.866   2.657  14.566 -0.5497 -0.6727 -0.0358
  117TMC2    H5 1797   0.895   2.630  14.476  0.7079 -2.2990  0.8601
  118MPD2     C 1798   1.324   3.300  14.522  0.0861  0.0961 -0.3455
  118MPD2    C1 1799   1.226   3.295  14.419 -0.3938 -0.5141 -0.2898
  118MPD2    C2 1800   1.252   3.385  14.316 -0.8333 -0.7501 -0.1912
  118MPD2    C3 1801   1.365   3.466  14.309  0.1303 -0.2265  0.5316
  118MPD2    C4 1802   1.459   3.457  14.409  0.2619 -0.4057 -0.5414
  118MPD2    C5 1803   1.434   3.377  14.512 -0.1976 -0.2051 -0.9191
  118MPD2     H 1804   1.183   3.392  14.233 -0.2538 -0.7997 -0.6756
  118MPD2    H1 1805   1.552   3.512  14.401 -0.8180  1.6773  1.1420
  118MPD2    H2 1806   1.302   3.242  14.611  1.6562 -1.8756 -1.2344
  118MPD2    H3 1807   1.515   3.368  14.583 -0.5746 -3.4842 -0.9162
  118MPD2     N 1808   1.395   3.550  14.197  0.9468  0.1733  0.1058
  118MPD2    H5 1809   1.492   3.577  14.182  0.8707 -1.4023 -3.1794
  118MPD2    N1 1810   1.137   3.186  14.410 -0.1842  0.2937  0.4404
  118MPD2    H7 1811   1.139   3.120  14.488 -0.7963  1.3110  1.3204
  119MPD2     C 1812   4.461   4.541  13.845 -0.4032 -0.4294  0.6338
  119MPD2    C1 1813   4.329   4.547  13.857  0.6019 -0.8501  0.0913
  119MPD2    C2 1814   4.249   4.494  13.765 -0.1113  0.3072 -0.0817
  119MPD2    C3 1815   4.303   4.440  13.646 -0.2240 -0.3960  0.2831
  119MPD2    C4 1816   4.440   4.433  13.638  0.1136 -0.3039 -0.2043
  119MPD2    C5 1817   4.518   4.480  13.744  0.5750  0.6043 -0.0154
  119MPD2     H 1818   4.144   4.480  13.790 -0.0230 -2.2342 -1.1002
  119MPD2    H1 1819   4.474   4.383  13.548 -1.5293 -0.0294 -0.9835
  119MPD2    H2 1820   4.520   4.559  13.934 -0.0822 -1.8165  0.7129
  119MPD2    H3 1821   4.626   4.476  13.736  0.4768 -0.1181 -1.0727
  119MPD2     N 1822   4.229   4.389  13.539  0.3447  0.0117  0.2484
  119MPD2    H5 1823   4.274   4.322  13.478 -1.8219  0.0723 -1.4089
  119MPD2    N1 1824   4.283   4.580  13.986  0.5520  0.6578  0.1519
  119MPD2    H7 1825   4.349   4.577  14.063  2.2423 -2.0979 -1.4021
  120TCq2    C1 1826   4.090   4.380  13.535  0.0959 -0.1917 -0.4040
  120TCq2    O2 1827   4.013   4.416  13.623 -0.2276  0.1478 -0.1370
  120TCq2    C2 1828   4.034   4.300  13.428 -0.5453 -0.4981 -0.3250
  120TCq2    C3 1829   4.115   4.255  13.331  0.5724  0.3345  0.2793
  120TCq2    C4 1830   4.075   4.135  13.273 -0.1569  0.4149 -0.2254
  120TCq2    C5 1831   3.965   4.059  13.308 -0.4019  0.0703  0.2415
  120TCq2    C6 1832   3.887   4.110  13.410  0.0810  0.1097 -0.3852
  120TCq2    C7 1833   3.927   4.228  13.470  0.2789  0.6279 -0.3793
  120TCq2    C8 1834   3.759   4.056  13.436  0.1981 -0.5568  0.4911
  120TCq2    O4 1835   3.733   3.972  13.352  0.4126 -0.6757 -0.5323
  120TCq2    C9 1836   4.140   4.091  13.154 -0.1613 -0.1707 -0.0722
  120TCq2    O5 1837   4.240   4.158  13.119 -0.0485 -0.1322  0.3081
  120TCq2    O6 1838   4.088   3.995  13.091 -0.0643 -0.7298 -0.0179
  120TCq2    H2 1839   4.186   4.321  13.282 -1.2686  1.9303 -0.2584
  120TCq2    H3 1840   3.937   3.972  13.249 -0.1057  0.0232  0.1691
  120TCq2    H4 1841   3.860   4.274  13.541  0.6345 -0.9203  0.9583
  121TMC2    C1 1842   1.079   1.775  13.691 -0.1984 -0.2481  0.2933
  121TMC2    C2 1843   1.176   1.869  13.679  0.2762 -0.6740 -0.0483
  121TMC2    C3 1844   1.149   1.985  13.744  0.3650  0.3670  0.1833
  121TMC2    C4 1845   0.965   1.781  13.771  0.6509 -0.8149 -0.4288
  121TMC2    C5 1846   0.955   1.903  13.836 -0.3288 -0.6630 -0.3182
  121TMC2    C6 1847   1.045   2.002  13.829  0.0266 -0.1817  0.5735
  121TMC2     C 1848   1.092   1.643  13.640  0.1175 -0.0772 -0.5410
  121TMC2     O 1849   1.067   1.539  13.701  0.3496 -0.5348 -0.4157
  121TMC2     H 1850   1.254   1.865  13.604 -0.0710 -0.4418 -0.4244
  121TMC2    H1 1851   0.899   1.695  13.777  1.4219 -1.3011  1.1406
  121TMC2    H2 1852   1.023   2.083  13.898  1.9236  0.1224  0.8401
  121TMC2    C7 1853   0.842   1.925  13.924  0.2961 -0.0412 -0.1628
  121TMC2    C8 1854   1.239   2.094  13.719  0.1024  0.7866  0.4511
  121TMC2    O1 1855   0.851   1.980  14.032 -0.1690  0.1759  0.8709
  121TMC2    O2 1856   1.358   2.082  13.705 -0.2322 -0.4691  0.0108
  121TMC2    O5 1857   1.180   2.207  13.761 -0.6026 -0.2412 -0.1494
  121TMC2    H5 1858   1.082   2.201  13.753 -0.6002  0.6890 -0.8162
  122MPD2     C 1859   1.107   1.430  13.443 -0.3696 -0.3698 -0.0018
  122MPD2    C1 1860   1.120   1.562  13.413 -0.3808  0.3433 -0.4073
  122MPD2    C2 1861   1.129   1.603  13.282  0.4156  0.2744  0.3782
  122MPD2    C3 1862   1.137   1.508  13.182 -0.1949  0.3783 -0.5262
  122MPD2    C4 1863   1.124   1.375  13.206  0.4427 -0.5814  0.0200
  122MPD2    C5 1864   1.111   1.336  13.339  0.3761  0.2114 -0.6826
  122MPD2     H 1865   1.147   1.709  13.267 -1.2007  0.4468 -0.3332
  122MPD2    H1 1866   1.141   1.311  13.120 -2.2160  0.8442 -1.5664
  122MPD2    H2 1867   1.103   1.385  13.542  2.4566 -1.3757 -0.3351
  122MPD2    H3 1868   1.121   1.233  13.371 -1.4165  0.0871 -0.5589
  122MPD2     N 1869   1.157   1.539  13.046 -0.0135 -0.4740 -0.1421
  122MPD2    H5 1870   1.181   1.465  12.981  2.0839  1.8867 -2.0280
  122MPD2    N1 1871   1.121   1.661  13.510 -0.1247  0.2651 -0.3229
  122MPD2    H7 1872   1.108   1.759  13.484 -1.0503  0.8048  2.1298
  123MPD2     C 1873   4.203   4.232   8.461  0.0161 -0.1215  0.2420
  123MPD2    C1 1874   4.293   4.187   8.548  0.0727 -0.6136 -0.1743
  123MPD2    C2 1875   4.359   4.068   8.532 -0.2388  0.0864 -0.7403
  123MPD2    C3 1876   4.335   3.991   8.417 -0.0142  0.4312  0.3829
  123MPD2    C4 1877   4.243   4.040   8.331 -0.0418  0.0337 -0.1427
  123MPD2    C5 1878   4.183   4.165   8.349  0.3655 -0.0591  0.2773
  123MPD2     H 1879   4.423   4.030   8.610 -1.0968  0.7501  0.2827
  123MPD2    H1 1880   4.216   3.979   8.246 -0.2785  2.5365 -1.8709
  123MPD2    H2 1881   4.145   4.319   8.490  0.6516  0.3745  0.0180
  123MPD2    H3 1882   4.099   4.203   8.293  0.6184  0.7604  0.4548
  123MPD2     N 1883   4.412   3.868   8.402 -0.2974 -0.1325 -0.0061
  123MPD2    H5 1884   4.484   3.838   8.467 -0.3800  1.1148  0.6691
  123MPD2    N1 1885   4.308   4.269   8.660  0.3845  0.4138  0.4512
  123MPD2    H7 1886   4.252   4.353   8.654  1.2699  1.0222  0.7758
  124TCq2    C1 1887   4.402   3.787   8.298  0.1215  0.0685 -0.4241
  124TCq2    O2 1888   4.339   3.808   8.196 -0.2801  0.2800 -0.2479
  124TCq2    C2 1889   4.480   3.667   8.324 -0.0185  0.0593  0.1371
  124TCq2    C3 1890   4.506   3.591   8.218 -0.3409 -0.4955  0.4557
  124TCq2    C4 1891   4.565   3.476   8.230 -0.9549  0.3678 -0.2814
  124TCq2    C5 1892   4.607   3.433   8.351  0.0437  0.2344 -0.1555
  124TCq2    C6 1893   4.592   3.516   8.458 -0.3540  0.4334  0.5683
  124TCq2    C7 1894   4.526   3.632   8.450  0.0770  0.7975  0.2143
  124TCq2    C8 1895   4.646   3.468   8.586 -0.3416  0.4203 -0.7412
  124TCq2    O4 1896   4.688   3.354   8.598  0.4066  0.0295 -1.0126
  124TCq2    C9 1897   4.588   3.387   8.111 -0.5530  0.0730  0.0462
  124TCq2    O5 1898   4.572   3.446   7.999  0.4971  0.1717 -0.6580
  124TCq2    O6 1899   4.625   3.267   8.131 -0.1481 -0.0014 -0.3068
  124TCq2    H2 1900   4.489   3.630   8.118  0.5106 -0.3848  0.3522
  124TCq2    H3 1901   4.654   3.335   8.356 -1.6084 -0.6804 -2.3343
  124TCq2    H4 1902   4.502   3.689   8.539 -0.5425  0.7663  0.0678
  125TMC2    C1 1903   1.271   2.651   8.787  0.5859  1.0426 -0.5963
  125TMC2    C2 1904   1.264   2.650   8.922 -0.4874  0.4615 -0.2689
  125TMC2    C3 1905   1.353   2.566   8.984  0.1776  0.4076  0.1279
  125TMC2    C4 1906   1.339   2.548   8.713 -0.5483  0.1236  0.4181
  125TMC2    C5 1907   1.418   2.465   8.790  0.0045 -0.1741  0.6337
  125TMC2    C6 1908   1.429   2.474   8.923  0.8809 -0.1245 -0.5937
  125TMC2     C 1909   1.167   2.727   8.709  0.1030 -0.0430 -0.4731
  125TMC2     O 1910   1.182   2.743   8.587  0.3458  0.8494 -0.2091
  125TMC2     H 1911   1.203   2.720   8.979 -0.1904  0.4991 -0.0017
  125TMC2    H1 1912   1.327   2.547   8.606 -0.7162 -0.8687  0.4413
  125TMC2    H2 1913   1.503   2.424   8.984 -1.4709 -3.0359 -0.1108
  125TMC2    C7 1914   1.514   2.388   8.721  0.5142  0.3434 -0.3434
  125TMC2    C8 1915   1.381   2.590   9.115  0.5953  0.1596  0.2311
  125TMC2    O1 1916   1.547   2.429   8.609 -0.5360 -0.3249  0.7422
  125TMC2    O2 1917   1.423   2.704   9.141 -0.0313 -0.0268  0.2434
  125TMC2    O5 1918   1.284   2.524   9.180  0.9799 -0.3927  0.5173
  125TMC2    H5 1919   1.248   2.448   9.129 -0.5014 -0.3689  1.5173
  126MPD1     C 1920   0.716   2.977   8.663  0.2712 -0.0041  0.0752
  126MPD1    C1 1921   0.717   2.908   8.782  0.1707  0.0558  0.4888
  126MPD1    C2 1922   0.834   2.837   8.813 -0.0371  0.6751  0.1253
  126MPD1    C3 1923   0.940   2.831   8.735  0.5706 -0.2580 -0.9059
  126MPD1    C4 1924   0.937   2.903   8.618 -0.3144  0.1696 -0.1915
  126MPD1    C5 1925   0.821   2.966   8.574  0.3975  0.5983 -0.5232
  126MPD1     H 1926   0.841   2.785   8.908 -0.0256  1.2065  0.4154
  126MPD1    H1 1927   1.022   2.918   8.553 -1.0949  3.9660 -0.3259
  126MPD1    H2 1928   0.640   3.048   8.634 -1.4503 -1.5965  0.7041
  126MPD1    H3 1929   0.813   3.023   8.483  0.9536 -1.0874 -1.6265
  126MPD1     N 1930   1.059   2.765   8.781  0.1888 -0.0316  0.0704
  126MPD1    H5 1931   1.061   2.733   8.877 -0.1890  0.0273  0.0977
  126MPD1    N1 1932   0.612   2.913   8.880 -0.4264  0.1688 -0.2055
  126MPD1    H6 1933   0.610   2.822   8.926  1.3232 -0.8684 -2.1914
  126MPD1    H7 1934   0.522   2.935   8.840 -0.8082  1.1384  1.1674
  127MPD2     C 1935   2.357   0.303   9.132  0.0270  0.4633 -0.3574
  127MPD2    C1 1936   2.294   0.235   9.228 -0.8089 -0.2345  0.7027
  127MPD2    C2 1937   2.266   0.299   9.344  0.5062 -0.3738  0.1943
  127MPD2    C3 1938   2.287   0.435   9.364 -0.6256 -0.1721 -0.3785
  127MPD2    C4 1939   2.357   0.502   9.262 -0.6066 -0.1400 -0.1697
  127MPD2    C5 1940   2.386   0.438   9.144 -0.6693  0.3028  0.8177
  127MPD2     H 1941   2.212   0.248   9.423 -1.1907 -0.4654 -1.0250
  127MPD2    H1 1942   2.383   0.607   9.253 -1.7805  0.1142 -0.6845
  127MPD2    H2 1943   2.374   0.250   9.039  0.5351 -0.1468  0.0900
  127MPD2    H3 1944   2.422   0.499   9.062 -0.7348  0.5581  0.9787
  127MPD2     N 1945   2.229   0.507   9.478 -0.3183 -0.7444  0.0054
  127MPD2    H5 1946   2.200   0.457   9.562 -2.5265  0.9758  0.2368
  127MPD2    N1 1947   2.278   0.092   9.206  0.3992  1.0879  0.5209
  127MPD2    H7 1948   2.286   0.062   9.109 -0.1176 -1.5543  1.3045
  128TCq2    C1 1949   2.247   4.721   9.299  0.6058 -0.1262  0.5438
  128TCq2    O2 1950   2.269   0.011   9.420 -0.3866 -0.2146  0.2958
  128TCq2    C2 1951   2.224   4.592   9.247 -0.1302 -0.0003  0.2606
  128TCq2    C3 1952   2.267   4.497   9.326  0.6989 -0.3291  0.1271
  128TCq2    C4 1953   2.274   4.367   9.288 -0.3817  0.0815  0.1193
  128TCq2    C5 1954   2.251   4.336   9.156 -0.1178  0.4872 -0.8774
  128TCq2    C6 1955   2.193   4.429   9.075  0.4455 -0.5261  0.4304
  128TCq2    C7 1956   2.183   4.562   9.119  0.5554 -0.1913 -0.6068
  128TCq2    C8 1957   2.129   4.385   8.952 -0.2557  0.4264 -0.1768
  128TCq2    O4 1958   2.087   4.471   8.875  0.0894 -0.3485  0.4462
  128TCq2    C9 1959   2.319   4.264   9.379 -0.1632 -0.3803 -0.3167
  128TCq2    O5 1960   2.354   4.296   9.498 -0.0728  0.2715  0.5812
  128TCq2    O6 1961   2.347   4.154   9.329  0.0495  0.3360 -0.8735
  128TCq2    H2 1962   2.309   4.514   9.425 -0.9961 -0.9646  0.9479
  128TCq2    H3 1963   2.275   4.237   9.120  0.1858 -0.0993  0.9300
  128TCq2    H4 1964   2.136   4.628   9.047 -1.8259  0.2971  1.3743
  129MPD2     C 1965   4.630   0.653   1.963 -0.7507  0.4634  0.3828
  129MPD2    C1 1966   4.579   0.782   1.973  0.7879  0.0073  0.0535
  129MPD2    C2 1967   4.602   0.869   1.867  0.1546  0.1986  0.0019
  129MPD2    C3 1968   4.683   0.832   1.762  0.6535 -0.1096 -0.1905
  129MPD2    C4 1969   0.014   0.704   1.764  0.0692 -0.3373  0.3666
  129MPD2    C5 1970   4.711   0.616   1.866 -0.3487  0.0232 -0.0672
  129MPD2     H 1971   4.565   0.971   1.869  1.3414  0.6324 -0.1729
  129MPD2    H1 1972   0.079   0.655   1.692  0.4194  1.5686 -0.5967
  129MPD2    H2 1973   4.614   0.587   2.048  1.3026  0.2257  0.5873
  129MPD2    H3 1974   0.043   0.522   1.873  1.3695  1.1896  2.2312
  129MPD2     N 1975   4.714   0.925   1.661  0.0226  0.2707  0.3545
  129MPD2    H5 1976   4.677   1.018   1.673  0.9278  0.9646 -2.2014
  129MPD2    N1 1977   4.495   0.825   2.083  0.0803  0.0788  0.7038
  129MPD2    H7 1978   4.452   0.917   2.081  0.3232  0.1515 -1.3220
  130TCq2    C1 1979   4.468   0.756   2.203  0.0273  0.0162  0.0192
  130TCq2    O2 1980   4.511   0.648   2.247 -0.2979 -0.6104 -0.8168
  130TCq2    C2 1981   4.367   0.824   2.271  0.3100  0.6870  0.4423
  130TCq2    C3 1982   4.352   0.792   2.398  0.3905 -0.2092  0.5410
  130TCq2    C4 1983   4.249   0.836   2.464  0.4237 -0.0991 -0.1017
  130TCq2    C5 1984   4.157   0.923   2.407  0.3563  0.5070  0.0970
  130TCq2    C6 1985   4.164   0.935   2.275 -1.0443  0.2387  0.0284
  130TCq2    C7 1986   4.267   0.886   2.203  0.1505  0.7229  0.3782
  130TCq2    C8 1987   4.057   0.994   2.187 -0.2481 -0.1330  0.3360
  130TCq2    O4 1988   4.060   0.989   2.068 -0.1815 -0.6548  0.3081
  130TCq2    C9 1989   4.224   0.783   2.591 -0.0856  0.0698 -0.3815
  130TCq2    O5 1990   4.306   0.701   2.641 -0.0269 -0.4900 -0.3659
  130TCq2    O6 1991   4.121   0.822   2.652  0.2399 -0.4485  0.1652
  130TCq2    H2 1992   4.428   0.724   2.435  1.0756  0.4302  0.3184
  130TCq2    H3 1993   4.071   0.954   2.465  0.2416  1.3697 -0.5417
  130TCq2    H4 1994   4.272   0.911   2.098 -4.2572  1.5635  0.3697
  131MPD2     C 1995   4.582   4.391   9.728  0.1385 -1.0252  0.3535
  131MPD2    C1 1996   4.555   4.518   9.682 -1.5289  0.5724 -0.5727
  131MPD2    C2 1997   4.543   4.528   9.551  0.4092 -0.4158 -0.1525
  131MPD2    C3 1998   4.528   4.421   9.458  0.8194  0.0148  0.0234
  131MPD2    C4 1999   4.533   4.294   9.510  0.3880 -0.3597  0.2628
  131MPD2    C5 2000   4.579   4.281   9.640  0.1578  0.1374 -0.0471
  131MPD2     H 2001   4.538   4.627   9.507 -0.0028 -0.2449  0.2696
  131MPD2    H1 2002   4.523   4.203   9.453  1.4670  0.7058 -1.6017
  131MPD2    H2 2003   4.585   4.368   9.834 -2.9932  1.4320  0.9621
  131MPD2    H3 2004   4.591   4.180   9.677 -3.7802  0.3182  1.6784
  131MPD2     N 2005   4.495   4.450   9.323 -0.6460  0.0292 -0.0500
  131MPD2    H5 2006   4.483   4.544   9.287  1.1219  0.1148 -0.4530
  131MPD2    N1 2007   4.554   4.629   9.770 -0.6089 -0.0337  0.2563
  131MPD2    H7 2008   4.591   4.605   9.861 -0.5495 -1.4779 -0.1421
  132TCq2    C1 2009   0.160   0.250   9.947  0.4701  0.1547  0.1283
  132TCq2    O2 2010   0.225   0.154   9.907  0.0365  0.4046 -0.0638
  132TCq2    C2 2011   0.013   0.248   9.945  0.4885  0.3096  0.8305
  132TCq2    C3 2012   4.664   0.364   9.941  0.4388 -0.3215  0.4650
  132TCq2    C4 2013   4.535   0.357   9.894 -0.3090 -0.0185 -0.1110
  132TCq2    C5 2014   4.482   0.245   9.844 -0.0886 -0.3806 -0.0980
  132TCq2    C6 2015   4.549   0.130   9.854 -0.4161  0.8265 -0.4695
  132TCq2    C7 2016   4.672   0.130   9.912 -0.1856 -0.8675  0.6738
  132TCq2    C8 2017   4.507   0.032   9.742  0.5825  0.0044 -0.4466
  132TCq2    O4 2018   4.436   0.067   9.646 -0.1594  0.7934 -0.0510
  132TCq2    C9 2019   4.457   0.475   9.884  0.4516 -0.0853 -0.2101
  132TCq2    O5 2020   4.384   0.478   9.781  0.1633  0.1861 -0.1896
  132TCq2    O6 2021   4.501   0.574   9.952 -0.3256  0.4575 -0.0150
  132TCq2    H2 2022   4.693   0.463   9.974 -3.8671  0.7333  1.1351
  132TCq2    H3 2023   4.384   0.244   9.798  0.7785  1.1784 -1.9587
  132TCq2    H4 2024   0.012   0.041   9.903  0.9801  0.1076 -1.0359
  133MPD2     C 2025   4.175   4.082   9.232 -0.7294 -0.0727 -0.3475
  133MPD2    C1 2026   4.110   4.134   9.129 -0.1354 -0.2873  0.1740
  133MPD2    C2 2027   4.044   4.253   9.151  0.6184  0.3278 -0.1676
  133MPD2    C3 2028   4.048   4.322   9.272 -0.7382  0.1695  0.2905
  133MPD2    C4 2029   4.133   4.274   9.368  0.8021  0.4816  0.6570
  133MPD2    C5 2030   4.184   4.149   9.350  0.4111  0.6938 -0.0800
  133MPD2     H 2031   3.984   4.293   9.071  1.0441 -0.2130 -0.7571
  133MPD2    H1 2032   4.150   4.324   9.463  1.8622 -1.7216  1.6168
  133MPD2    H2 2033   4.231   3.991   9.212  0.6623  0.6583  0.2384
  133MPD2    H3 2034   4.243   4.102   9.428  0.1809  0.1917 -0.2076
  133MPD2     N 2035   3.986   4.444   9.298  0.2839 -0.0083  0.1031
  133MPD2    H5 2036   4.015   4.491   9.383  0.8257  0.3410 -0.2759
  133MPD2    N1 2037   4.096   4.053   9.014 -0.2121 -0.2425 -0.2562
  133MPD2    H7 2038   4.142   3.962   9.014  0.4356  0.0750  2.8625
  134TCq2    C1 2039   4.009   4.072   8.916 -0.1819 -0.8938 -0.4230
  134TCq2    O2 2040   3.934   4.167   8.898 -0.5730  1.0198  0.4625
  134TCq2    C2 2041   4.014   3.980   8.805 -0.0934 -0.7095 -0.9441
  134TCq2    C3 2042   3.894   3.959   8.739  0.0167 -0.3718  0.3739
  134TCq2    C4 2043   3.878   3.852   8.658 -0.2930 -0.2952  0.4432
  134TCq2    C5 2044   3.976   3.766   8.620  0.4898 -0.5193  0.3110
  134TCq2    C6 2045   4.093   3.782   8.694 -0.0346 -0.1691  0.1389
  134TCq2    C7 2046   4.110   3.881   8.789 -0.5889  0.8342 -0.3350
  134TCq2    C8 2047   4.195   3.680   8.691 -0.2435  0.2696  0.2395
  134TCq2    O4 2048   4.271   3.679   8.785 -0.7862 -0.2023  0.0256
  134TCq2    C9 2049   3.746   3.837   8.586  0.2276  0.1316  0.4848
  134TCq2    O5 2050   3.742   3.744   8.499 -0.4454 -0.7746 -0.3809
  134TCq2    O6 2051   3.670   3.939   8.588  0.2132 -0.1173  0.1523
  134TCq2    H2 2052   3.807   4.023   8.743  0.4511  0.3811 -2.3938
  134TCq2    H3 2053   3.952   3.686   8.551  0.7278  0.5266 -0.9799
  134TCq2    H4 2054   4.196   3.879   8.854 -0.8251 -0.6442 -0.0750
  135MPD2     C 2055   1.454   1.956   9.642 -0.0948 -0.3866  0.4413
  135MPD2    C1 2056   1.462   2.039   9.524  0.8397  0.1254 -1.1414
  135MPD2    C2 2057   1.579   2.023   9.446  0.3518  0.3086 -0.4283
  135MPD2    C3 2058   1.679   1.943   9.483 -0.0677 -0.7706 -0.1717
  135MPD2    C4 2059   1.667   1.864   9.600  0.2588 -0.1134  0.0287
  135MPD2    C5 2060   1.556   1.876   9.676 -0.4898  0.0890  0.4324
  135MPD2     H 2061   1.583   2.081   9.355  2.4710  1.5630  0.4642
  135MPD2    H1 2062   1.751   1.812   9.643  0.0448  0.6179  1.3515
  135MPD2    H2 2063   1.373   1.944   9.713  0.7709 -0.2510  1.4576
  135MPD2    H3 2064   1.550   1.827   9.773 -0.8340 -0.1675  0.2812
  135MPD2     N 2065   1.803   1.923   9.414 -0.3063  0.6214  0.0212
  135MPD2    H5 2066   1.860   1.849   9.454 -0.9132  0.0572 -0.1663
  135MPD2    N1 2067   1.363   2.129   9.477 -0.1123  0.2171  0.2221
  135MPD2    H7 2068   1.374   2.177   9.388 -0.1163  1.5897  0.9538
  136TCq2    C1 2069   1.238   2.143   9.547  0.4136  0.2335 -0.7044
  136TCq2    O2 2070   1.200   2.120   9.660  0.2198  0.6040  0.3700
  136TCq2    C2 2071   1.132   2.194   9.462  0.3609 -0.2502  0.3461
  136TCq2    C3 2072   1.160   2.227   9.330 -0.2154  0.5832 -0.0965
  136TCq2    C4 2073   1.058   2.230   9.240  0.3993  0.1696  0.4398
  136TCq2    C5 2074   0.932   2.202   9.272  0.5030 -0.2180  0.4941
  136TCq2    C6 2075   0.902   2.162   9.401  0.0865  0.5755 -0.4795
  136TCq2    C7 2076   1.004   2.161   9.498  0.1814  1.2662  0.0454
  136TCq2    C8 2077   0.803   2.056   9.417 -0.3325 -0.2183  0.1242
  136TCq2    O4 2078   0.765   1.995   9.318  0.1228  0.7308 -0.7558
  136TCq2    C9 2079   1.095   2.252   9.102  0.4894 -0.3739  0.5940
  136TCq2    O5 2080   1.021   2.196   9.012  0.1932  0.1512 -0.1794
  136TCq2    O6 2081   1.204   2.309   9.079  0.2389  0.6487 -0.4100
  136TCq2    H2 2082   1.260   2.235   9.289  0.8152 -0.2837  2.2520
  136TCq2    H3 2083   0.855   2.201   9.196 -0.5655  1.6777  1.5462
  136TCq2    H4 2084   0.989   2.116   9.596 -3.3343  2.3321  0.0018
  137MPD2     C 2085   1.579   0.874  10.251  0.0435  1.4928 -0.0443
  137MPD2    C1 2086   1.495   0.968  10.189  0.3799  0.2009 -0.3286
  137MPD2    C2 2087   1.372   1.001  10.248  0.0886  0.2105  0.1453
  137MPD2    C3 2088   1.334   0.940  10.365 -0.2745 -0.3509 -0.4045
  137MPD2    C4 2089   1.414   0.844  10.425 -0.3427  0.1398  0.0628
  137MPD2    C5 2090   1.541   0.812  10.370 -0.5944  0.5640 -0.2618
  137MPD2     H 2091   1.292   1.060  10.205  0.4557  0.7194  0.1755
  137MPD2    H1 2092   1.384   0.804  10.521  1.8075 -0.8319  0.3419
  137MPD2    H2 2093   1.673   0.831  10.217 -1.4699 -0.5141 -1.6951
  137MPD2    H3 2094   1.601   0.734  10.414 -0.9788  1.9285  2.7514
  137MPD2     N 2095   1.222   0.996  10.422  0.7018  0.6266  0.0301
  137MPD2    H5 2096   1.194   1.082  10.376  0.5125  1.5619  1.9203
  137MPD2    N1 2097   1.523   1.008  10.055  0.2364 -0.1525  0.6733
  137MPD2    H7 2098   1.605   0.978  10.003 -1.0634  0.2655 -1.6221
  138TCq2    C1 2099   1.442   1.089   9.973 -0.0370  0.3268  0.5386
  138TCq2    O2 2100   1.329   1.132   9.999 -0.4674  0.9396 -0.2469
  138TCq2    C2 2101   1.487   1.095   9.839  0.7593  0.0727  0.1046
  138TCq2    C3 2102   1.574   0.999   9.792 -0.0799  0.0072 -0.1338
  138TCq2    C4 2103   1.612   1.006   9.664 -0.0213  0.0506 -0.2390
  138TCq2    C5 2104   1.557   1.102   9.585  0.3263  0.1042 -0.6540
  138TCq2    C6 2105   1.465   1.194   9.634  0.5066 -0.1470 -0.0669
  138TCq2    C7 2106   1.430   1.188   9.761 -0.4409 -1.2876  0.2928
  138TCq2    C8 2107   1.385   1.279   9.546 -0.3099  0.3560 -0.3596
  138TCq2    O4 2108   1.425   1.313   9.433  0.2530 -0.4357  0.5188
  138TCq2    C9 2109   1.717   0.921   9.612  0.0531 -0.6513  0.2049
  138TCq2    O5 2110   1.730   0.911   9.485 -0.7747  0.4594  0.2852
  138TCq2    O6 2111   1.745   0.821   9.688  0.3351  0.2326 -0.6915
  138TCq2    H2 2112   1.625   0.919   9.846 -0.8875 -0.1022  0.4715
  138TCq2    H3 2113   1.588   1.108   9.481 -1.1956  0.6527 -1.0756
  138TCq2    H4 2114   1.359   1.257   9.805  1.1578 -0.4289  1.5383
  139TMC2    C1 2115   0.426   4.309  13.444  0.4566 -0.9373  0.2843
  139TMC2    C2 2116   0.366   4.276  13.326  0.5788  0.6844  0.0881
  139TMC2    C3 2117   0.234   4.305  13.289 -0.1354  0.5238 -0.2936
  139TMC2    C4 2118   0.352   4.380  13.536 -0.7019  0.0332  0.1622
  139TMC2    C5 2119   0.228   4.420  13.498 -0.5942  0.3166  0.2046
  139TMC2    C6 2120   0.157   4.369  13.389  0.1101 -0.7933  0.5655
  139TMC2     C 2121   0.532   4.220  13.498  0.0480 -0.5597  0.1619
  139TMC2     O 2122   0.557   4.117  13.433 -0.0025 -0.2250  0.6618
  139TMC2     H 2123   0.417   4.218  13.249  0.8828 -1.4464  1.8982
  139TMC2    H1 2124   0.398   4.413  13.628  1.0116  0.1987 -0.7521
  139TMC2    H2 2125   0.060   4.414  13.367 -0.5717 -2.2267  0.6715
  139TMC2    C7 2126   0.171   4.523  13.585 -0.0869  1.1366  0.0674
  139TMC2    C8 2127   0.173   4.239  13.184  0.4369  0.6188  0.0948
  139TMC2    O1 2128   0.085   4.593  13.541  0.3135 -0.0742 -0.0572
  139TMC2    O2 2129   0.230   4.155  13.117 -0.3268 -0.0161  0.0613
  139TMC2    O5 2130   0.064   4.212  13.253 -0.1468  0.2290 -0.6133
  139TMC2    H5 2131   4.710   4.266  13.223 -1.2336 -0.2165  1.3262
  140MPD2     C 2132   0.689   4.254  13.821  0.1999  0.4148 -0.1541
  140MPD2    C1 2133   0.673   4.198  13.696  0.1640  0.2330  0.2222
  140MPD2    C2 2134   0.742   4.080  13.656  0.3816  0.1991 -0.1949
  140MPD2    C3 2135   0.821   4.012  13.751 -0.3489  0.0415 -0.2487
  140MPD2    C4 2136   0.849   4.080  13.866  0.1982  0.7833  0.4005
  140MPD2    C5 2137   0.782   4.198  13.900 -0.0015 -0.0332 -0.0887
  140MPD2     H 2138   0.733   4.038  13.556  1.6209 -0.4156 -0.0383
  140MPD2    H1 2139   0.921   4.040  13.936  1.7669  1.4823 -0.8197
  140MPD2    H2 2140   0.623   4.333  13.855  0.1124  0.2819 -0.0115
  140MPD2    H3 2141   0.813   4.242  13.994  0.1806 -0.1610 -0.0880
  140MPD2     N 2142   0.868   3.881  13.722  0.1247  0.3328  0.0705
  140MPD2    H5 2143   0.858   3.848  13.627 -0.2227  0.1393  0.1759
  140MPD2    N1 2144   0.579   4.267  13.616  0.4957 -0.1061  0.5020
  140MPD2    H7 2145   0.547   4.357  13.651 -3.3750 -1.1899 -0.2974
  141TCq2    C1 2146   1.262   0.946  14.156 -0.3670 -0.6799  1.0816
  141TCq2    O2 2147   1.312   0.832  14.143 -0.1187  0.4605 -0.0920
  141TCq2    C2 2148   1.218   0.989  14.284 -0.3833  0.1610 -0.2032
  141TCq2    C3 2149   1.209   0.898  14.385 -0.6721 -0.7869 -0.6340
  141TCq2    C4 2150   1.161   0.935  14.504  0.4430 -0.2637 -0.0430
  141TCq2    C5 2151   1.158   1.068  14.538  0.9734 -0.2353 -0.1293
  141TCq2    C6 2152   1.196   1.155  14.442 -0.1600 -0.1341 -0.1613
  141TCq2    C7 2153   1.214   1.119  14.313 -0.1232  0.6544  0.4305
  141TCq2    C8 2154   1.220   1.297  14.495  0.3789 -0.2792  0.2694
  141TCq2    O4 2155   1.198   1.324  14.611 -0.0239 -0.1661  0.0385
  141TCq2    C9 2156   1.130   0.838  14.600 -0.2132 -0.0782  0.2781
  141TCq2    O5 2157   1.154   0.718  14.576 -0.1198 -0.4549 -0.0301
  141TCq2    O6 2158   1.049   0.870  14.695 -0.1781 -0.1994 -0.3914
  141TCq2    H2 2159   1.199   0.795  14.353 -1.2837 -0.2490 -2.1795
  141TCq2    H3 2160   1.131   1.102  14.638 -1.4592  0.0667 -0.8904
  141TCq2    H4 2161   1.242   1.196  14.241  2.1111  0.0573  0.6759
  142MPD2     C 2162   0.196   2.284   9.311 -0.6828  1.3991  0.5396
  142MPD2    C1 2163   0.140   2.385   9.379  0.1216  0.4901  0.4394
  142MPD2    C2 2164   0.191   2.514   9.355 -0.1744 -0.3340 -0.0434
  142MPD2    C3 2165   0.300   2.540   9.265  0.6684 -0.4816  0.4553
  142MPD2    C4 2166   0.363   2.430   9.215 -0.3541 -0.2595 -0.6028
  142MPD2    C5 2167   0.307   2.308   9.237 -0.3696 -0.4649 -0.8088
  142MPD2     H 2168   0.156   2.599   9.413  1.4106  1.7246 -2.0749
  142MPD2    H1 2169   0.433   2.450   9.134  0.8636 -2.3645 -0.0747
  142MPD2    H2 2170   0.153   2.184   9.320  2.1566  0.1724  0.6136
  142MPD2    H3 2171   0.348   2.220   9.189 -0.8986 -2.0912  1.7005
  142MPD2     N 2172   0.330   2.669   9.220  0.0932  0.3940 -0.2871
  142MPD2    H5 2173   0.415   2.672   9.165 -0.1660 -3.2333 -0.8534
  142MPD2    N1 2174   0.034   2.350   9.467 -0.4421  0.3626 -0.0566
  142MPD2    H7 2175   0.007   2.252   9.475 -1.8578  0.6736 -0.9630
  143TCq2    C1 2176   0.251   2.784   9.226  0.0297 -0.2836 -0.1108
  143TCq2    O2 2177   0.139   2.790   9.268  0.1452  0.1295 -0.4016
  143TCq2    C2 2178   0.317   2.888   9.160 -0.0212 -0.3575 -0.3536
  143TCq2    C3 2179   0.446   2.926   9.189 -0.0968 -0.1735 -0.1453
  143TCq2    C4 2180   0.482   3.056   9.168 -0.2845 -0.7329  0.0586
  143TCq2    C5 2181   0.403   3.147   9.105 -0.2298 -0.0923  0.3550
  143TCq2    C6 2182   0.279   3.113   9.083 -0.7202 -0.0423 -0.2141
  143TCq2    C7 2183   0.229   2.984   9.111 -0.3904 -0.1139  0.6447
  143TCq2    C8 2184   0.193   3.204   9.006  1.0248 -0.5092 -0.1418
  143TCq2    O4 2185   0.091   3.161   8.951  0.0602  0.2057 -0.1119
  143TCq2    C9 2186   0.611   3.105   9.218  0.0945 -0.0971 -0.6565
  143TCq2    O5 2187   0.656   3.209   9.169 -0.7407 -0.5245  0.1124
  143TCq2    O6 2188   0.648   3.051   9.324  0.8413 -0.1027 -0.1312
  143TCq2    H2 2189   0.515   2.856   9.236  4.2701  3.1692 -1.5547
  143TCq2    H3 2190   0.440   3.248   9.089  0.8354 -0.6939 -0.9824
  143TCq2    H4 2191   0.122   2.964   9.106 -0.3681 -0.7372  2.4963
  144MPD2     C 2192   2.296   3.716   1.083  0.0859  0.0884  0.4498
  144MPD2    C1 2193   2.281   3.576   1.090  0.8693 -0.5065  0.4057
  144MPD2    C2 2194   2.385   3.506   1.148 -0.3702  0.0668  0.2436
  144MPD2    C3 2195   2.498   3.569   1.189 -0.1461  0.5103  0.1436
  144MPD2    C4 2196   2.510   3.706   1.178 -0.2942  0.2133  0.5697
  144MPD2    C5 2197   2.414   3.777   1.126  0.1922 -0.0179  0.0383
  144MPD2     H 2198   2.369   3.401   1.169  3.8654 -0.4607  0.8165
  144MPD2    H1 2199   2.598   3.759   1.214  0.2022 -0.8236  0.8875
  144MPD2    H2 2200   2.222   3.782   1.039 -0.7650 -1.0557  0.1785
  144MPD2    H3 2201   2.429   3.885   1.123  0.4339  0.0027  1.6200
  144MPD2     N 2202   2.608   3.500   1.244 -0.8809 -0.1430 -0.0812
  144MPD2    H5 2203   2.687   3.562   1.260 -2.7177  2.1467  0.0927
  144MPD2    N1 2204   2.167   3.504   1.055  0.3840 -0.1325  0.5431
  144MPD2    H7 2205   2.175   3.403   1.056  2.1937  0.0048 -1.0213
  145TCq2    C1 2206   2.612   3.372   1.289 -0.1298  0.1012  0.2405
  145TCq2    O2 2207   2.517   3.298   1.317 -0.3066  0.6609 -0.5166
  145TCq2    C2 2208   2.738   3.319   1.343 -0.2977 -0.5096 -0.1494
  145TCq2    C3 2209   2.739   3.205   1.414 -0.0344 -0.4262  0.1228
  145TCq2    C4 2210   2.863   3.154   1.450  0.3321 -0.1944  0.5450
  145TCq2    C5 2211   2.978   3.195   1.398 -0.5582 -0.1027 -0.0955
  145TCq2    C6 2212   2.976   3.316   1.324 -0.4184  0.2249  0.4842
  145TCq2    C7 2213   2.857   3.379   1.307 -0.3796 -0.1042  0.5269
  145TCq2    C8 2214   3.101   3.381   1.284  0.0571  0.1995  0.0983
  145TCq2    O4 2215   3.190   3.301   1.259  0.0487  0.3400  0.0212
  145TCq2    C9 2216   2.860   3.047   1.545  1.6504  0.0456 -0.6534
  145TCq2    O5 2217   2.965   2.975   1.556  0.1357  0.1423  0.0101
  145TCq2    O6 2218   2.745   3.008   1.589 -0.6366 -0.4691 -0.0950
  145TCq2    H2 2219   2.645   3.166   1.449 -0.6978 -0.3808 -1.5948
  145TCq2    H3 2220   3.075   3.160   1.433 -0.1446 -0.7407 -1.8638
  145TCq2    H4 2221   2.855   3.465   1.242 -4.4277  1.2248  2.4305
  146TMC2    C1 2222   3.007   1.801  12.091 -0.2044 -0.6440  0.3375
  146TMC2    C2 2223   2.884   1.753  12.091  0.1262 -0.3571 -0.0399
  146TMC2    C3 2224   2.848   1.654  12.000  0.9254  0.1214 -0.6114
  146TMC2    C4 2225   3.097   1.746  12.011  0.6147  0.0703 -0.2244
  146TMC2    C5 2226   3.054   1.655  11.917  0.0593  0.2314  0.2856
  146TMC2    C6 2227   2.928   1.602  11.904  0.0855 -0.2324  0.1465
  146TMC2     C 2228   3.034   1.893  12.199  0.4139 -0.6620  0.4653
  146TMC2     O 2229   2.956   1.985  12.219  0.1879 -0.1719 -0.2430
  146TMC2     H 2230   2.809   1.790  12.160 -0.6244 -0.0169 -1.0241
  146TMC2    H1 2231   3.195   1.791  12.004 -0.2514  2.4002  2.5534
  146TMC2    H2 2232   2.890   1.539  11.824  1.8723  0.0244 -0.9033
  146TMC2    C7 2233   3.147   1.607  11.818  1.3490  0.4685  0.3262
  146TMC2    C8 2234   2.706   1.619  12.010 -0.2242  0.7003 -0.3216
  146TMC2    O1 2235   3.102   1.560  11.717 -0.1582 -0.5189 -0.7588
  146TMC2    O2 2236   2.615   1.681  12.063 -0.3864  0.5210 -0.3855
  146TMC2    O5 2237   2.719   1.486  12.010 -0.4484  0.0365  0.5588
  146TMC2    H5 2238   2.810   1.450  11.999 -0.2859  0.9158 -0.9765
  147MPD2     C 2239   3.620   1.438  11.704 -0.6820 -0.3914 -0.7475
  147MPD2    C1 2240   3.618   1.468  11.839 -0.9499 -0.5916  0.0334
  147MPD2    C2 2241   3.505   1.535  11.892 -0.7292 -0.3345  0.7396
  147MPD2    C3 2242   3.392   1.555  11.804  0.2830  0.0924 -0.5286
  147MPD2    C4 2243   3.405   1.533  11.669 -0.5404  0.0272  0.2930
  147MPD2    C5 2244   3.532   1.494  11.615 -0.1076  0.2303  0.4025
  147MPD2     H 2245   3.491   1.552  11.998 -0.7054 -1.2635  0.8974
  147MPD2    H1 2246   3.334   1.558  11.591 -1.6973 -0.3623  1.2378
  147MPD2    H2 2247   3.701   1.384  11.658  0.7912  2.3563 -1.3455
  147MPD2    H3 2248   3.541   1.471  11.509  2.2392  3.7538 -0.1434
  147MPD2     N 2249   3.276   1.597  11.873 -0.8150 -0.1640 -0.0743
  147MPD2    H5 2250   3.283   1.618  11.972 -2.8031  1.1077 -0.2041
  147MPD2    N1 2251   3.735   1.420  11.910  0.0053 -0.6754  0.5197
  147MPD2    H7 2252   3.808   1.383  11.850  0.5467  1.9107 -0.4171
  148MPD2     C 2253   3.805   0.588  10.239 -0.2952 -0.2285 -0.1983
  148MPD2    C1 2254   3.842   0.466  10.297  0.0203 -0.1960 -0.3647
  148MPD2    C2 2255   3.827   0.344  10.231 -0.1411 -0.7298  0.5716
  148MPD2    C3 2256   3.764   0.337  10.106 -0.5035 -0.6240 -0.4082
  148MPD2    C4 2257   3.712   0.452  10.050 -0.2523 -0.2172 -0.7250
  148MPD2    C5 2258   3.740   0.574  10.114  0.5902 -0.2049  1.0106
  148MPD2     H 2259   3.852   0.253  10.284  1.5953  0.0230  1.0393
  148MPD2    H1 2260   3.663   0.452   9.953  0.5871  1.8699 -1.1587
  148MPD2    H2 2261   3.824   0.681  10.290 -1.4606  0.9040 -1.8142
  148MPD2    H3 2262   3.702   0.665  10.068 -1.5700 -1.4039  0.3917
  148MPD2     N 2263   3.738   0.214  10.045 -0.4806  0.5545 -0.5363
  148MPD2    H5 2264   3.656   0.200   9.986 -0.5573 -0.9780 -0.0532
  148MPD2    N1 2265   3.877   0.452  10.432  0.0682  0.4642 -0.0984
  148MPD2    H7 2266   3.903   0.358  10.459  0.6279 -0.0471 -2.4398
  149TCq2    C1 2267   3.868   0.535  10.546  0.3934  0.5118  0.3379
  149TCq2    O2 2268   3.832   0.651  10.530  0.4132 -0.1190  0.0230
  149TCq2    C2 2269   3.910   0.481  10.679 -0.3210 -0.5156  0.4195
  149TCq2    C3 2270   3.893   0.561  10.788 -0.4880  0.0084  0.1998
  149TCq2    C4 2271   3.910   0.497  10.911 -0.4301 -0.2578 -0.8581
  149TCq2    C5 2272   3.964   0.373  10.923  0.2031 -0.4811  0.1868
  149TCq2    C6 2273   3.977   0.300  10.808  0.2336 -0.2648 -0.8345
  149TCq2    C7 2274   3.963   0.357  10.687 -0.6949  0.1055  0.3955
  149TCq2    C8 2275   3.996   0.154  10.829  0.5989 -0.4159 -0.1486
  149TCq2    O4 2276   4.054   0.107  10.736  0.4161  0.2358  0.2962
  149TCq2    C9 2277   3.918   0.577  11.027  0.0143 -0.1355  0.0645
  149TCq2    O5 2278   3.840   0.672  11.025 -0.4839  0.2537 -0.0836
  149TCq2    O6 2279   4.019   0.556  11.097 -0.2783 -0.0719  0.1603
  149TCq2    H2 2280   3.869   0.666  10.780 -3.0072 -0.3231  3.0687
  149TCq2    H3 2281   3.997   0.332  11.017  0.7499 -2.2986 -0.7903
  149TCq2    H4 2282   3.974   0.297  10.598  0.1979 -0.7550  1.0754
  150MPD2     C 2283   0.344   4.690  12.320 -0.0598  0.1958 -0.4414
  150MPD2    C1 2284   0.342   4.679  12.183 -0.4840  0.0165 -1.0427
  150MPD2    C2 2285   0.428   0.042  12.104 -0.0388 -0.7501  0.1096
  150MPD2    C3 2286   0.519   0.124  12.176 -0.7222  0.1406  0.0961
  150MPD2    C4 2287   0.516   0.130  12.313  0.3252  0.1443 -0.3871
  150MPD2    C5 2288   0.429   0.051  12.385 -0.6872  0.2263 -0.5466
  150MPD2     H 2289   0.425   0.059  11.997 -2.2284 -0.0944  0.2761
  150MPD2    H1 2290   0.569   0.203  12.374  1.4657 -2.9699  2.3057
  150MPD2    H2 2291   0.280   4.636  12.389  0.9332  0.8970  1.0202
  150MPD2    H3 2292   0.437   0.067  12.492  0.8337 -0.5636 -0.5424
  150MPD2     N 2293   0.591   0.211  12.086  0.3415  0.7867  0.7363
  150MPD2    H5 2294   0.581   0.208  11.985  0.5679 -1.3651  0.7799
  150MPD2    N1 2295   0.246   4.585  12.139 -0.2855 -0.5089 -0.3135
  150MPD2    H7 2296   0.183   4.549  12.209 -2.2613  0.0822 -1.8022
  151TCq2    C1 2297   0.685   0.300  12.128 -0.1192 -0.3815 -0.1867
  151TCq2    O2 2298   0.743   0.313  12.234  0.2347 -0.3952 -0.5221
  151TCq2    C2 2299   0.766   0.335  12.016 -0.8024 -0.5081  0.2164
  151TCq2    C3 2300   0.744   0.270  11.893  0.0289 -0.0804 -0.0652
  151TCq2    C4 2301   0.839   0.199  11.829  0.9701 -0.1485 -0.4256
  151TCq2    C5 2302   0.966   0.205  11.874 -0.2033  0.4387 -0.2580
  151TCq2    C6 2303   0.991   0.271  11.994  0.2567 -1.0804  0.3739
  151TCq2    C7 2304   0.896   0.346  12.058 -0.2980  0.1406  0.8531
  151TCq2    C8 2305   1.121   0.275  12.050 -0.4293  0.2002  0.2662
  151TCq2    O4 2306   1.152   0.373  12.117  0.0789  0.2244  0.3552
  151TCq2    C9 2307   0.806   0.134  11.709  0.5890  0.7435 -0.4937
  151TCq2    O5 2308   0.690   0.139  11.666  0.3554  0.3637  0.0801
  151TCq2    O6 2309   0.900   0.073  11.655 -0.0196 -0.5267  0.5261
  151TCq2    H2 2310   0.644   0.274  11.851 -0.1951 -1.0818  0.3764
  151TCq2    H3 2311   1.033   0.133  11.828 -1.2449 -0.0579 -1.0015
  151TCq2    H4 2312   0.927   0.399  12.147 -0.2950  1.2613  0.1979
  152MPD2     C 2313   0.103   4.060  12.839 -0.7191  0.3086 -0.3400
  152MPD2    C1 2314   0.130   4.176  12.766 -0.2068 -0.6111  0.3844
  152MPD2    C2 2315   0.028   4.231  12.690  0.5383  0.3097 -0.1684
  152MPD2    C3 2316   4.626   4.168  12.688  0.6180 -0.0569 -0.3487
  152MPD2    C4 2317   4.605   4.050  12.760  0.7423 -0.5980 -0.2030
  152MPD2    C5 2318   4.703   3.996  12.833 -0.4294 -0.7957  0.6851
  152MPD2     H 2319   0.028   4.327  12.640 -2.1445  0.0662 -0.6518
  152MPD2    H1 2320   4.519   3.985  12.751 -0.5636  1.2578 -1.2045
  152MPD2    H2 2321   0.186   4.018  12.896 -0.4799  0.8602 -0.2753
  152MPD2    H3 2322   4.688   3.904  12.889 -2.0389 -1.4039 -0.7343
  152MPD2     N 2323   4.527   4.219  12.602 -0.8337 -0.1403 -0.4276
  152MPD2    H5 2324   4.559   4.305  12.559 -2.4521  0.6279 -0.1152
  152MPD2    N1 2325   0.251   4.245  12.784 -0.4961  0.3594  0.6670
  152MPD2    H7 2326   0.317   4.201  12.847  0.3444 -1.8151 -1.7131
  153TCq2    C1 2327   0.287   4.353  12.703  0.2299 -0.0237 -0.4368
  153TCq2    O2 2328   0.233   4.411  12.606 -0.2795  0.4568 -0.2237
  153TCq2    C2 2329   0.414   4.410  12.742 -0.2323  0.2730  0.0184
  153TCq2    C3 2330   0.476   4.359  12.853 -0.0229  0.5523  0.7321
  153TCq2    C4 2331   0.609   4.363  12.863  0.5541 -0.6936  0.2634
  153TCq2    C5 2332   0.689   4.426  12.765 -0.8636 -0.2266  0.1185
  153TCq2    C6 2333   0.623   4.472  12.650  0.2694 -0.9320  0.5426
  153TCq2    C7 2334   0.483   4.463  12.634 -0.1755  0.1403 -0.0286
  153TCq2    C8 2335   0.690   4.572  12.563 -0.2915  1.0704 -0.4551
  153TCq2    O4 2336   0.648   4.566  12.448  0.5950  0.2123 -0.0198
  153TCq2    C9 2337   0.687   4.307  12.968 -0.2830 -0.0306  0.5609
  153TCq2    O5 2338   0.630   4.242  13.056  0.0507 -0.5324 -0.4590
  153TCq2    O6 2339   0.806   4.350  12.980 -0.0142  0.4113  0.2377
  153TCq2    H2 2340   0.429   4.298  12.931  0.1433 -0.6952 -0.1431
  153TCq2    H3 2341   0.795   4.403  12.761 -0.9452 -0.5522 -0.2217
  153TCq2    H4 2342   0.447   4.485  12.534 -0.2068 -0.6598 -0.1972
  154MPD2     C 2343   2.547   4.530   0.059 -0.2907 -0.0961  0.2825
  154MPD2    C1 2344   2.449   4.459   0.117 -0.7596 -0.5715  0.3062
  154MPD2    C2 2345   2.324   4.524   0.140 -0.1959 -0.1325 -0.6721
  154MPD2    C3 2346   2.296   4.653   0.099  0.1147  0.6002  0.3909
  154MPD2    C4 2347   2.396   0.001   0.029 -0.0853  0.2169  0.8360
  154MPD2    C5 2348   2.512   4.654   0.003  0.0217 -0.1804 -0.2763
  154MPD2     H 2349   2.250   4.483   0.207 -0.0522  1.4620  0.4418
  154MPD2    H1 2350   2.385   0.099  17.675 -3.6535 -1.2693 -1.5233
  154MPD2    H2 2351   2.649   4.501   0.034 -1.0416 -0.3866 -2.4349
  154MPD2    H3 2352   2.582   4.710  17.632  1.3496 -0.4443  1.0085
  154MPD2     N 2353   2.183   4.721   0.154  0.2018  0.4965 -0.0736
  154MPD2    H5 2354   2.131   4.670   0.225  1.5063 -1.0897 -0.2448
  154MPD2    N1 2355   2.466   4.328   0.175 -0.8224 -0.0670 -0.3774
  154MPD2    H7 2356   2.556   4.284   0.159  0.5543  1.9490  1.9332
  155TCq2    C1 2357   2.356   4.249   0.219 -1.0133 -0.0036  0.4819
  155TCq2    O2 2358   2.237   4.272   0.225 -0.0580  0.1983  0.1282
  155TCq2    C2 2359   2.415   4.128   0.277  0.7542  0.5834  1.2781
  155TCq2    C3 2360   2.530   4.127   0.355  0.7563 -0.3029 -0.7914
  155TCq2    C4 2361   2.559   4.013   0.436 -0.2312 -0.7886 -0.8395
  155TCq2    C5 2362   2.485   3.899   0.424 -0.2932 -0.3651  0.1581
  155TCq2    C6 2363   2.367   3.904   0.349 -1.0159 -0.5278  0.0045
  155TCq2    C7 2364   2.332   4.017   0.277  0.2916  0.0948  0.2145
  155TCq2    C8 2365   2.279   3.784   0.339  0.5454  0.3513  0.1293
  155TCq2    O4 2366   2.165   3.806   0.302 -0.2496 -0.3006 -0.2263
  155TCq2    C9 2367   2.677   4.023   0.520  0.0582 -0.3835 -0.1161
  155TCq2    O5 2368   2.732   4.136   0.509  0.4039  0.3335 -0.1930
  155TCq2    O6 2369   2.730   3.921   0.566  0.3428  0.8594 -0.5313
  155TCq2    H2 2370   2.580   4.222   0.367  0.9343 -0.3520 -1.1375
  155TCq2    H3 2371   2.513   3.819   0.492  0.7929 -0.8720 -0.8841
  155TCq2    H4 2372   2.239   4.014   0.220  0.5537  0.1991 -0.2208
  156MPD2     C 2373   0.079   2.054  11.321 -0.1559  0.3099  0.3883
  156MPD2    C1 2374   0.215   2.026  11.337 -0.5013 -0.2909  0.0380
  156MPD2    C2 2375   0.247   1.933  11.432 -0.3744 -0.6711  0.0131
  156MPD2    C3 2376   0.150   1.897  11.524  0.5273 -0.1721 -0.5228
  156MPD2    C4 2377   0.022   1.939  11.515 -0.4095  0.4102  0.3278
  156MPD2    C5 2378   4.700   2.020  11.415  0.2436  0.1149 -0.5649
  156MPD2     H 2379   0.346   1.894  11.452 -0.4950 -0.8621  0.2417
  156MPD2    H1 2380   4.660   1.904  11.574 -0.1729 -2.0467 -0.8089
  156MPD2    H2 2381   0.046   2.111  11.234  0.1719 -1.4845 -0.9056
  156MPD2    H3 2382   4.599   2.058  11.405  0.3305  0.5976  0.4227
  156MPD2     N 2383   0.191   1.819  11.631 -0.5922  0.0731 -0.3734
  156MPD2    H5 2384   0.280   1.774  11.611  0.7376  1.7763  1.6134
  156MPD2    N1 2385   0.318   2.072  11.257  0.5720 -0.0178 -0.5396
  156MPD2    H7 2386   0.410   2.033  11.277  0.8809  0.2343 -1.4816
  157TCq2    C1 2387   0.299   2.175  11.164  0.4133  0.2591  0.1211
  157TCq2    O2 2388   0.199   2.239  11.121 -0.1869 -0.2074 -0.3734
  157TCq2    C2 2389   0.424   2.230  11.122  0.8365 -0.4465  0.2787
  157TCq2    C3 2390   0.538   2.144  11.126 -0.1105 -0.0814  0.0689
  157TCq2    C4 2391   0.663   2.203  11.139  0.6567 -0.5163  0.2107
  157TCq2    C5 2392   0.676   2.333  11.146 -0.2562 -0.1666 -0.4434
  157TCq2    C6 2393   0.559   2.409  11.144  0.4329 -0.3502  0.3449
  157TCq2    C7 2394   0.432   2.365  11.120  0.0671 -0.0068 -0.1855
  157TCq2    C8 2395   0.580   2.551  11.171 -0.2115 -0.0066 -0.8457
  157TCq2    O4 2396   0.690   2.595  11.128 -0.3218 -0.0940  0.3146
  157TCq2    C9 2397   0.780   2.122  11.147  0.4521  0.8029  0.1491
  157TCq2    O5 2398   0.769   1.999  11.125  0.0732  0.7300  0.2487
  157TCq2    O6 2399   0.890   2.188  11.134  0.1869  0.0976 -0.3663
  157TCq2    H2 2400   0.533   2.036  11.130 -3.3490 -0.0133 -2.3236
  157TCq2    H3 2401   0.766   2.389  11.168 -1.0808  0.8806  0.3094
  157TCq2    H4 2402   0.347   2.425  11.150 -0.9994 -1.1894 -0.8497
  158TMC2    C1 2403   0.837   0.236  13.132 -0.2494  0.4990 -0.6565
  158TMC2    C2 2404   0.900   0.225  13.006 -0.5682 -0.1567  0.2821
  158TMC2    C3 2405   0.894   0.325  12.914  0.5256  0.0293 -0.2338
  158TMC2    C4 2406   0.772   0.353  13.165 -0.1057 -0.7215 -0.3989
  158TMC2    C5 2407   0.764   0.451  13.066 -0.3124  0.4950 -0.1207
  158TMC2    C6 2408   0.831   0.441  12.942  0.6223  0.2060  0.5568
  158TMC2     C 2409   0.854   0.130  13.227 -0.0390  0.2420  0.3443
  158TMC2     O 2410   0.881   0.019  13.176  0.2058 -0.4512  0.3780
  158TMC2     H 2411   0.965   0.141  12.980 -0.5244  0.1801 -0.7242
  158TMC2    H1 2412   0.724   0.361  13.262 -1.2146 -0.8218 -0.9441
  158TMC2    H2 2413   0.827   0.522  12.870  0.6651 -1.2942 -1.1051
  158TMC2    C7 2414   0.679   0.571  13.091  0.2513 -0.0447 -0.2132
  158TMC2    C8 2415   1.002   0.341  12.820  0.1335  0.7796 -0.0996
  158TMC2    O1 2416   0.676   0.667  13.013 -0.4729 -0.0617 -0.2278
  158TMC2    O2 2417   0.976   0.389  12.714  0.5415  0.2202  0.5805
  158TMC2    O5 2418   1.105   0.380  12.902 -0.1544  0.0682 -0.1352
  158TMC2    H5 2419   1.087   0.345  12.992  0.8028 -0.0783 -0.0027
  159MPD2     C 2420   0.934   4.640  13.688 -0.1325 -0.0086 -0.0091
  159MPD2    C1 2421   0.899   0.048  13.716 -0.3329 -0.3226  0.2893
  159MPD2    C2 2422   0.873   0.136  13.604  0.8380  0.0340 -0.3490
  159MPD2    C3 2423   0.885   0.082  13.473 -0.3945 -0.3160 -0.2218
  159MPD2    C4 2424   0.909   4.666  13.456  0.2560 -0.6134 -0.0875
  159MPD2    C5 2425   0.946   4.594  13.562 -0.6479 -0.4753  0.6587
  159MPD2     H 2426   0.845   0.240  13.610  1.8766  0.1837  1.7765
  159MPD2    H1 2427   0.901   4.620  13.358  1.5255 -1.1922  0.0816
  159MPD2    H2 2428   0.936   4.576  13.775  1.8931  2.4655  1.7755
  159MPD2    H3 2429   0.966   4.490  13.541 -0.5925 -0.4933  0.8049
  159MPD2     N 2430   0.857   0.169  13.360  0.1878 -0.2127  0.9723
  159MPD2    H5 2431   0.831   0.266  13.373 -0.0894 -0.6905  3.9214
  159MPD2    N1 2432   0.877   0.078  13.852  0.0807 -0.4072 -0.2808
  159MPD2    H7 2433   0.872   0.004  13.921  1.9572 -0.4419 -0.1900
  160TMC2    C1 2434   0.852   4.592   1.371 -0.0126  0.6187 -0.3212
  160TMC2    C2 2435   0.894   4.545   1.251  0.1319  0.3649  0.3603
  160TMC2    C3 2436   1.024   4.539   1.235  0.1917 -0.0428 -0.2542
  160TMC2    C4 2437   0.931   4.605   1.479 -0.7192  0.3396 -0.3043
  160TMC2    C5 2438   1.062   4.581   1.466 -0.0383  0.0418 -0.0354
  160TMC2    C6 2439   1.117   4.552   1.341 -0.1366  0.1463  0.5461
  160TMC2     C 2440   0.710   4.573   1.401  0.5151  1.0486 -0.9203
  160TMC2     O 2441   0.660   4.616   1.504  0.5627  0.4435 -0.2557
  160TMC2     H 2442   0.831   4.551   1.163  0.2758  0.9017  0.2925
  160TMC2    H1 2443   0.884   4.628   1.573  0.7614  0.0418  0.5041
  160TMC2    H2 2444   1.225   4.558   1.333  0.2131 -0.1101  5.5022
  160TMC2    C7 2445   1.141   4.599   1.587  0.0301 -0.1296  0.4420
  160TMC2    C8 2446   1.071   4.485   1.108 -0.6075 -0.0191 -0.2283
  160TMC2    O1 2447   1.075   4.630   1.684  0.0976 -0.5203 -0.1892
  160TMC2    O2 2448   1.162   4.401   1.091 -0.0128  1.1321 -0.9090
  160TMC2    O5 2449   1.019   4.561   1.009  0.3127  0.2627  0.0765
  160TMC2    H5 2450   0.960   4.635   1.034  0.8315  0.8690 -0.4822
  161MPD2     C 2451   0.426   4.484   1.394 -0.1621 -0.1313  0.0850
  161MPD2    C1 2452   0.524   4.437   1.309  0.3393  0.4106  0.7753
  161MPD2    C2 2453   0.486   4.339   1.208 -0.1731 -0.1714 -0.0731
  161MPD2    C3 2454   0.358   4.293   1.205 -0.8691  0.0855 -0.0397
  161MPD2    C4 2455   0.271   4.343   1.294 -0.3958  0.3614  0.3131
  161MPD2    C5 2456   0.296   4.446   1.377  0.3997 -0.2256 -0.0730
  161MPD2     H 2457   0.552   4.321   1.124  0.5949 -0.5045  0.6044
  161MPD2    H1 2458   0.171   4.300   1.298 -1.5281  3.0685  1.0500
  161MPD2    H2 2459   0.440   4.564   1.465  0.6483  0.2243 -0.4773
  161MPD2    H3 2460   0.223   4.476   1.451  2.0749 -0.8614  1.8357
  161MPD2     N 2461   0.312   4.194   1.118  0.4516  1.0634 -0.3047
  161MPD2    H5 2462   0.224   4.152   1.146  1.5579 -0.7647  0.3656
  161MPD2    N1 2463   0.654   4.488   1.309 -0.2133  0.8412  0.5366
  161MPD2    H7 2464   0.722   4.446   1.246 -2.2506  1.2578 -1.9027
  162TMC2    C1 2465   3.051   1.399   0.661 -0.0181  0.3972 -0.7005
  162TMC2    C2 2466   2.950   1.381   0.574 -0.0502 -0.3461  0.0812
  162TMC2    C3 2467   2.824   1.355   0.621 -0.2461 -0.0323 -0.2136
  162TMC2    C4 2468   3.025   1.385   0.792  0.2539 -0.1034 -0.6693
  162TMC2    C5 2469   2.901   1.352   0.837 -0.8595  0.2487  0.3844
  162TMC2    C6 2470   2.795   1.345   0.754  0.0162  0.6094  0.2112
  162TMC2     C 2471   3.183   1.350   0.619  0.2817 -0.5144 -0.6996
  162TMC2     O 2472   3.196   1.273   0.528  0.2199 -0.3247 -0.4336
  162TMC2     H 2473   2.976   1.382   0.468 -1.4947 -2.3520 -0.2892
  162TMC2    H1 2474   3.104   1.393   0.866 -1.0086 -0.3626  0.6991
  162TMC2    H2 2475   2.694   1.329   0.789 -0.5130 -0.4483 -1.7973
  162TMC2    C7 2476   2.882   1.294   0.975  0.4719  0.2372 -0.2758
  162TMC2    C8 2477   2.718   1.363   0.520 -1.6296 -0.9619  0.0135
  162TMC2    O1 2478   2.763   1.291   1.003 -0.0507  0.1046  0.4360
  162TMC2    O2 2479   2.732   1.446   0.429  0.2115 -0.0320 -0.2761
  162TMC2    O5 2480   2.640   1.256   0.510  0.2790  0.1012  0.0762
  162TMC2    H5 2481   2.637   1.209   0.596 -1.0000 -0.1902 -0.1202
  163MPD2     C 2482   3.688   1.324   0.724 -0.0590 -0.1577 -0.4147
  163MPD2    C1 2483   3.616   1.244   0.641 -0.2083 -0.5373  0.3881
  163MPD2    C2 2484   3.473   1.262   0.636 -0.4821 -0.9432 -0.2731
  163MPD2    C3 2485   3.413   1.366   0.703  0.5430 -0.3406 -0.3897
  163MPD2    C4 2486   3.491   1.461   0.762  0.0130  0.0176  0.5121
  163MPD2    C5 2487   3.625   1.435   0.778 -0.0002  0.4524 -0.4295
  163MPD2     H 2488   3.411   1.194   0.580 -0.3710 -1.5082  0.2908
  163MPD2    H1 2489   3.459   1.554   0.809  2.2745  1.0432  0.0319
  163MPD2    H2 2490   3.795   1.313   0.741  0.1202 -0.7383 -1.9639
  163MPD2    H3 2491   3.683   1.505   0.838  0.4526 -0.3856  0.1138
  163MPD2     N 2492   3.277   1.401   0.701  0.0101  0.3165 -0.4497
  163MPD2    H5 2493   3.246   1.485   0.748 -2.1522  0.4751 -2.1687
  163MPD2    N1 2494   3.685   1.137   0.573  0.1914 -0.1939 -0.0530
  163MPD2    H7 2495   3.783   1.130   0.596  0.6851  2.2001 -1.5504
  164TCq2    C1 2496   4.409   0.842  11.661 -0.1689 -0.0574  0.2493
  164TCq2    O2 2497   4.491   0.880  11.740 -0.1057  0.2568 -0.5482
  164TCq2    C2 2498   4.324   0.743  11.711 -0.5409 -0.0985 -0.8324
  164TCq2    C3 2499   4.349   0.698  11.839  0.8088  0.3697 -0.2587
  164TCq2    C4 2500   4.250   0.640  11.909  0.7505  0.7006 -0.7298
  164TCq2    C5 2501   4.125   0.614  11.848 -0.2331  0.1104 -0.9975
  164TCq2    C6 2502   4.111   0.644  11.715  0.8072 -0.0575  0.0967
  164TCq2    C7 2503   4.205   0.714  11.650  0.2044  0.4434 -0.4338
  164TCq2    C8 2504   3.975   0.676  11.673 -0.3646  0.1549  0.4599
  164TCq2    O4 2505   3.955   0.683  11.553 -0.4080 -0.1860  0.7880
  164TCq2    C9 2506   4.277   0.580  12.036  0.3971 -0.2224  0.1077
  164TCq2    O5 2507   4.395   0.579  12.074  0.6074  0.1319 -0.5455
  164TCq2    O6 2508   4.185   0.514  12.096  0.6957  0.1838 -0.7629
  164TCq2    H2 2509   4.447   0.716  11.883 -0.6171  2.9734  1.8930
  164TCq2    H3 2510   4.047   0.568  11.907 -0.8875  2.8670  0.2636
  164TCq2    H4 2511   4.166   0.774  11.568  1.9583 -0.9437 -2.2770
  165MPD2     C 2512   0.130   2.196   2.119  0.0300 -0.0531 -0.4659
  165MPD2    C1 2513   0.189   2.113   2.205 -0.6246 -0.5711 -0.0404
  165MPD2    C2 2514   0.297   2.162   2.277  0.0920  0.0356 -0.2405
  165MPD2    C3 2515   0.360   2.287   2.255  0.0906  0.6939  0.1620
  165MPD2    C4 2516   0.294   2.362   2.157 -0.9620 -0.0847 -0.2297
  165MPD2    C5 2517   0.183   2.319   2.095 -0.1136  0.0899 -0.5153
  165MPD2     H 2518   0.328   2.102   2.362 -0.3969 -0.6425 -0.5523
  165MPD2    H1 2519   0.336   2.460   2.140  1.5434 -1.2562 -0.6749
  165MPD2    H2 2520   0.044   2.158   2.064 -0.5067 -0.3086  0.5413
  165MPD2    H3 2521   0.128   2.374   2.019 -2.2896  0.9345  1.6874
  165MPD2     N 2522   0.484   2.325   2.304 -0.1837 -0.2661 -0.2870
  165MPD2    H5 2523   0.519   2.409   2.259 -0.0129 -0.6991 -0.9497
  165MPD2    N1 2524   0.140   1.980   2.219  0.3451 -0.0023 -0.3374
  165MPD2    H7 2525   0.061   1.969   2.156 -0.2443  0.9841  0.2341
  166TCq2    C1 2526   0.561   2.259   2.399 -0.0774  0.1771  0.2671
  166TCq2    O2 2527   0.523   2.179   2.486 -0.7182 -0.3006  0.0706
  166TCq2    C2 2528   0.700   2.288   2.374 -0.5414 -0.0261  0.0469
  166TCq2    C3 2529   0.782   2.255   2.478  0.6769  0.3747  0.0033
  166TCq2    C4 2530   0.910   2.314   2.489 -0.1876  0.7791 -0.6361
  166TCq2    C5 2531   0.957   2.402   2.395 -0.2191 -0.3862 -0.4723
  166TCq2    C6 2532   0.871   2.432   2.291 -0.5913 -0.2852 -0.3997
  166TCq2    C7 2533   0.745   2.373   2.276  0.1719  0.0907  0.2670
  166TCq2    C8 2534   0.916   2.532   2.195  0.2171 -0.0473 -0.0790
  166TCq2    O4 2535   1.035   2.568   2.201 -0.0575  0.0037  0.4193
  166TCq2    C9 2536   1.005   2.268   2.587 -1.1440  0.1859  0.5620
  166TCq2    O5 2537   0.950   2.213   2.687  0.5139 -0.3086 -0.2521
  166TCq2    O6 2538   1.123   2.313   2.577  0.6050  0.4337 -0.3380
  166TCq2    H2 2539   0.739   2.185   2.549 -0.8513  0.6769 -0.6166
  166TCq2    H3 2540   1.058   2.441   2.398 -0.8843  1.2944 -0.3159
  166TCq2    H4 2541   0.687   2.395   2.187  0.8554  1.1262  0.0785
  167TMC2    C1 2542   3.363   0.278  13.202  0.6516  0.5513 -0.5599
  167TMC2    C2 2543   3.350   0.281  13.339  0.0116  0.6466 -0.2001
  167TMC2    C3 2544   3.356   0.162  13.403 -0.8634 -0.8004 -0.1662
  167TMC2    C4 2545   3.390   0.164  13.139 -0.2486  0.1773  0.6412
  167TMC2    C5 2546   3.384   0.044  13.206  0.2029  0.3149 -0.0427
  167TMC2    C6 2547   3.368   0.041  13.338  0.0990 -0.4717  0.1471
  167TMC2     C 2548   3.331   0.395  13.122  0.1560 -0.2996  0.3692
  167TMC2     O 2549   3.267   0.489  13.178 -0.0009 -0.2755 -0.1031
  167TMC2     H 2550   3.333   0.374  13.392  1.1154  0.8584 -0.2195
  167TMC2    H1 2551   3.371   0.154  13.033  0.0857 -0.5575  0.6520
  167TMC2    H2 2552   3.372   4.670  13.395  3.0969 -1.4388 -1.6363
  167TMC2    C7 2553   3.381   4.643  13.140  0.2791 -0.2068 -0.6196
  167TMC2    C8 2554   3.315   0.161  13.540 -0.1271  0.7616  0.3581
  167TMC2    O1 2555   3.348   4.548  13.211  0.4264 -0.0298  0.2864
  167TMC2    O2 2556   3.260   0.255  13.590  0.9200  0.3903 -0.1610
  167TMC2    O5 2557   3.418   0.098  13.595  0.0581  0.4086 -0.7410
  167TMC2    H5 2558   3.471   0.056  13.525 -1.5412 -2.1501 -0.3980
  168MPD2     C 2559   3.242   0.586  12.912 -0.1517  1.0131  0.6341
  168MPD2    C1 2560   3.331   0.478  12.895  0.2837 -0.6646  0.4768
  168MPD2    C2 2561   3.379   0.452  12.770 -0.7428  0.3791 -0.1111
  168MPD2    C3 2562   3.336   0.524  12.656 -0.3828  0.1853 -0.4977
  168MPD2    C4 2563   3.258   0.640  12.675  0.5674 -0.1666  0.0334
  168MPD2    C5 2564   3.205   0.666  12.803  0.5387  0.0022  0.3478
  168MPD2     H 2565   3.446   0.367  12.760 -0.4924  0.3503  1.6913
  168MPD2    H1 2566   3.236   0.707  12.592 -0.8124 -1.2176 -0.4565
  168MPD2    H2 2567   3.192   0.614  13.003  0.1313 -1.1043  1.4403
  168MPD2    H3 2568   3.150   0.758  12.815  1.1244  0.2884  0.9015
  168MPD2     N 2569   3.371   0.461  12.535  0.5094 -0.6140  0.0482
  168MPD2    H5 2570   3.436   0.384  12.546  0.6237 -0.6283 -0.7409
  168MPD2    N1 2571   3.381   0.392  12.997  0.0235  0.2802 -0.0266
  168MPD2    H7 2572   3.453   0.323  12.974 -1.4195 -1.2082 -0.0802
  169MPD1     C 2573   2.816   3.683   9.378  0.0178  0.4905 -0.5454
  169MPD1    C1 2574   2.757   3.809   9.372  0.0302 -0.3770 -0.1258
  169MPD1    C2 2575   2.661   3.837   9.274  0.3170 -0.3130  0.0083
  169MPD1    C3 2576   2.613   3.732   9.198 -0.1101  0.5632 -0.1412
  169MPD1    C4 2577   2.663   3.605   9.213  0.3894  0.3616  0.3759
  169MPD1    C5 2578   2.774   3.587   9.297 -0.6052 -0.2184  0.3783
  169MPD1     H 2579   2.608   3.932   9.282 -0.3782 -0.8302  1.5639
  169MPD1    H1 2580   2.616   3.520   9.164 -2.9485  2.3598  0.1337
  169MPD1    H2 2581   2.898   3.678   9.448  0.7911  1.6040 -1.3726
  169MPD1    H3 2582   2.822   3.490   9.304  1.3924  0.7288 -0.2433
  169MPD1     N 2583   2.502   3.763   9.113  0.3962  0.4519 -0.0106
  169MPD1    H5 2584   2.496   3.863   9.093 -2.8087  0.2680  0.0542
  169MPD1    N1 2585   2.799   3.923   9.458 -0.5949 -0.2010  0.8802
  169MPD1    H6 2586   2.734   4.001   9.455  0.4457  0.6012 -0.9247
  169MPD1    H7 2587   2.797   3.899   9.557  1.3599  2.4832  1.5780
  170MPD1     C 2588   4.476   2.317  12.754 -0.2285 -0.1647  0.2561
  170MPD1    C1 2589   4.474   2.450  12.787  0.3044 -0.2950  1.1245
  170MPD1    C2 2590   4.445   2.484  12.918  0.3322  0.1171 -0.4546
  170MPD1    C3 2591   4.399   2.391  13.007  0.1981 -0.2068  0.0985
  170MPD1    C4 2592   4.400   2.259  12.973 -0.3453 -0.2765  0.0668
  170MPD1    C5 2593   4.436   2.225  12.849 -0.4127 -0.7351 -0.3871
  170MPD1     H 2594   4.435   2.588  12.945 -0.3858  0.2393 -1.2000
  170MPD1    H1 2595   4.363   2.176  13.032 -2.6252  0.1404 -0.7661
  170MPD1    H2 2596   4.502   2.280  12.655 -0.2978  1.4295 -0.3509
  170MPD1    H3 2597   4.429   2.120  12.819  4.2893 -1.5634  1.4544
  170MPD1     N 2598   4.352   2.438  13.130 -0.1891  0.0128 -0.0201
  170MPD1    H5 2599   4.332   2.538  13.138  1.9257  0.5590 -1.5223
  170MPD1    N1 2600   4.504   2.550  12.691 -0.9376 -0.2032  0.9448
  170MPD1    H6 2601   4.454   2.532  12.604 -0.9561 -0.5149  1.0200
  170MPD1    H7 2602   4.483   2.645  12.720 -1.9118 -0.4361  0.9890
  171MPD1     C 2603   2.431   3.196  15.772  0.5166 -0.1928 -0.1208
  171MPD1    C1 2604   2.462   3.068  15.722  0.1854  0.5695  0.6312
  171MPD1    C2 2605   2.574   3.005  15.771 -0.3215 -0.3502  0.3564
  171MPD1    C3 2606   2.626   3.040  15.896  0.1251 -0.3356 -0.7246
  171MPD1    C4 2607   2.582   3.163  15.945 -0.8664  0.2829 -0.3067
  171MPD1    C5 2608   2.490   3.240  15.882  0.3467 -0.4659 -0.3869
  171MPD1     H 2609   2.607   2.921  15.711 -0.6407  1.4223 -2.3291
  171MPD1    H1 2610   2.629   3.199  16.036  1.3738 -2.2344 -0.4613
  171MPD1    H2 2611   2.339   3.242  15.741  0.5966 -0.1969 -0.3654
  171MPD1    H3 2612   2.459   3.336  15.922  3.1295  0.0776  0.4251
  171MPD1     N 2613   2.730   2.972  15.966  0.2693  0.0954 -0.3284
  171MPD1    H5 2614   2.765   3.009  16.053 -1.8975 -2.8930  1.7945
  171MPD1    N1 2615   2.405   3.021  15.604 -0.0188  0.3496 -0.9863
  171MPD1    H6 2616   2.311   3.060  15.604  0.7893  2.2387  2.0485
  171MPD1    H7 2617   2.408   2.919  15.600 -1.0281  0.3561 -1.8018
  172MPD1     C 2618   2.476   2.837   1.185  0.3347  0.6425 -0.5778
  172MPD1    C1 2619   2.433   2.967   1.207 -0.3945 -0.1129  0.3949
  172MPD1    C2 2620   2.421   3.048   1.100  1.0084 -0.3228 -0.2697
  172MPD1    C3 2621   2.456   3.006   0.977  0.2409 -0.4595  0.4998
  172MPD1    C4 2622   2.501   2.876   0.955 -0.2158  0.2613  0.1068
  172MPD1    C5 2623   2.510   2.789   1.064  1.4208 -0.4592  0.1262
  172MPD1     H 2624   2.401   3.154   1.116  0.6730 -0.2765 -0.9919
  172MPD1    H1 2625   2.541   2.842   0.861 -0.8618  2.1985 -0.8619
  172MPD1    H2 2626   2.499   2.773   1.269 -0.9757  0.4730 -0.3537
  172MPD1    H3 2627   2.559   2.693   1.050  0.5765 -0.8052 -0.4853
  172MPD1     N 2628   2.460   3.091   0.864 -0.0288 -0.3413 -0.2199
  172MPD1    H5 2629   2.506   3.058   0.780 -0.9701 -0.7812 -0.5634
  172MPD1    N1 2630   2.378   3.012   1.329 -0.1248  0.0381 -0.3888
  172MPD1    H6 2631   2.393   3.112   1.338 -1.1917  0.2607 -1.0228
  172MPD1    H7 2632   2.420   2.985   1.417  0.7101 -0.7462 -1.0207
  173MPD1     C 2633   3.410   2.505  13.876  0.3471 -0.3656 -0.0581
  173MPD1    C1 2634   3.478   2.392  13.909 -0.4615 -0.3688 -0.5368
  173MPD1    C2 2635   3.499   2.375  14.049  0.3418 -0.0022 -0.4663
  173MPD1    C3 2636   3.433   2.449  14.142 -0.3069 -0.9208 -0.0279
  173MPD1    C4 2637   3.358   2.555  14.098  0.5963 -0.8575 -0.0128
  173MPD1    C5 2638   3.347   2.582  13.969  0.0625  0.2159 -0.1865
  173MPD1     H 2639   3.560   2.296  14.091  0.8886  0.8802  0.4050
  173MPD1    H1 2640   3.301   2.611  14.171  0.6681 -1.8295  0.7836
  173MPD1    H2 2641   3.402   2.543  13.774  0.5451  2.1930  0.8642
  173MPD1    H3 2642   3.285   2.662  13.930  1.3914  0.9694 -0.7554
  173MPD1     N 2643   3.462   2.419  14.277  0.1295 -0.3593 -0.1964
  173MPD1    H5 2644   3.519   2.338  14.297  0.0083 -0.8705 -1.8750
  173MPD1    N1 2645   3.556   2.319  13.817 -0.0994 -0.4459  0.4580
  173MPD1    H6 2646   3.572   2.229  13.863 -0.7414 -1.7560 -1.9045
  173MPD1    H7 2647   3.515   2.319  13.724  1.2690  1.0548 -0.1297
  174MPD1     C 2648   4.109   2.027  14.613  0.1521 -0.1186 -0.2766
  174MPD1    C1 2649   4.013   2.015  14.714  0.6344 -0.3189  0.5339
  174MPD1    C2 2650   3.884   2.045  14.683  0.0484 -0.2000 -0.1491
  174MPD1    C3 2651   3.844   2.090  14.564 -0.0259 -0.5308  0.3089
  174MPD1    C4 2652   3.933   2.107  14.465  0.1464  0.2010 -0.6253
  174MPD1    C5 2653   4.067   2.077  14.489 -0.1029 -0.2094 -0.3602
  174MPD1     H 2654   3.817   2.026  14.766  0.1415 -1.7061 -0.4045
  174MPD1    H1 2655   3.890   2.141  14.372 -0.5561 -1.4869 -0.9169
  174MPD1    H2 2656   4.211   1.999  14.637  1.0348  1.3859 -2.2875
  174MPD1    H3 2657   4.139   2.100  14.411 -2.3406 -3.1610 -3.3131
  174MPD1     N 2658   3.711   2.122  14.544  0.1290 -0.1908  0.1313
  174MPD1    H5 2659   3.687   2.142  14.447 -0.4970  1.5270  0.6424
  174MPD1    N1 2660   4.051   1.991  14.843 -0.3372 -0.0107 -0.1965
  174MPD1    H6 2661   4.143   1.947  14.850  0.4230  1.9235  1.8198
  174MPD1    H7 2662   3.981   1.950  14.904  0.0532 -0.6152 -0.1539
  175MPD1     C 2663   1.900   4.084  15.932 -0.3416 -0.0589 -0.2148
  175MPD1    C1 2664   1.772   4.083  15.968  0.5938  0.9601  0.2837
  175MPD1    C2 2665   1.738   4.042  16.095 -0.0825  0.0906 -0.7064
  175MPD1    C3 2666   1.828   3.986  16.183 -0.0777 -0.6397 -0.0502
  175MPD1    C4 2667   1.951   3.958  16.126 -0.4235 -0.6026  0.2275
  175MPD1    C5 2668   1.990   4.017  16.009  0.5820  0.1049  0.1471
  175MPD1     H 2669   1.638   4.066  16.128  0.6840  0.2169  1.5233
  175MPD1    H1 2670   2.031   3.906  16.178  1.5703  0.0562 -2.1739
  175MPD1    H2 2671   1.930   4.110  15.831  1.7113  1.6894  0.8383
  175MPD1    H3 2672   2.094   4.005  15.979  0.4744 -1.0159  0.2182
  175MPD1     N 2673   1.805   3.946  16.314 -0.0373 -0.1485  0.1706
  175MPD1    H5 2674   1.890   3.907  16.355 -0.1401  0.1434  0.6718
  175MPD1    N1 2675   1.686   4.154  15.891 -0.0937 -0.2336  0.7035
  175MPD1    H6 2676   1.593   4.118  15.910 -0.7818  0.1423 -1.9983
  175MPD1    H7 2677   1.696   4.136  15.791 -1.5204  0.7239  0.3935
  176MPD1     C 2678   3.410   0.269  17.511 -0.3640 -0.6822 -0.3361
  176MPD1    C1 2679   3.434   0.370  17.600 -0.3491  0.6795 -0.5714
  176MPD1    C2 2680   3.394   0.494  17.554 -0.1694 -0.3458 -0.0598
  176MPD1    C3 2681   3.360   0.524  17.421  0.5643  0.8943 -0.3775
  176MPD1    C4 2682   3.365   0.421  17.326  0.0292  0.4037 -0.4913
  176MPD1    C5 2683   3.385   0.294  17.374  0.0883  0.4725  0.5754
  176MPD1     H 2684   3.386   0.568  17.633  0.2985 -0.3104 -0.0425
  176MPD1    H1 2685   3.349   0.436  17.219 -1.5412 -3.3981 -0.7819
  176MPD1    H2 2686   3.415   0.166  17.544  1.1724 -0.7253 -0.6811
  176MPD1    H3 2687   3.359   0.216  17.303  0.6223  0.3609  0.4952
  176MPD1     N 2688   3.346   0.665  17.396  0.4735  0.4198  0.2215
  176MPD1    H5 2689   3.339   0.727  17.476  1.6155 -0.3782  0.9361
  176MPD1    N1 2690   3.451   0.346   0.051  0.3182  0.2905  0.0416
  176MPD1    H6 2691   3.509   0.421   0.090  3.0419 -0.6592 -2.2077
  176MPD1    H7 2692   3.501   0.260   0.073  1.4146  1.0186  0.4054
  177MPD1     C 2693   2.217   0.108  10.215 -0.1459 -0.0332  0.2906
  177MPD1    C1 2694   2.156   0.083  10.096  0.3754  0.5305 -0.0354
  177MPD1    C2 2695   2.141   0.180  10.001 -0.0483  0.0660 -0.7465
  177MPD1    C3 2696   2.168   0.312  10.032 -0.7996 -0.4169 -0.4536
  177MPD1    C4 2697   2.231   0.340  10.157  0.3089 -0.3845 -0.2380
  177MPD1    C5 2698   2.258   0.235  10.240  0.3911 -0.0766  0.8134
  177MPD1     H 2699   2.095   0.144   9.910 -0.8231 -1.2309  0.1495
  177MPD1    H1 2700   2.279   0.432  10.187  2.0314 -1.0622 -0.9361
  177MPD1    H2 2701   2.257   0.034  10.283  1.8653  0.0008 -0.8558
  177MPD1    H3 2702   2.324   0.260  10.323  1.3581  1.4220 -0.3987
  177MPD1     N 2703   2.140   0.411   9.939  1.0936  0.0136  0.5161
  177MPD1    H5 2704   2.105   0.376   9.851  1.0308 -0.5551  0.7662
  177MPD1    N1 2705   2.151   4.665  10.060 -0.0890  0.1078  0.3691
  177MPD1    H6 2706   2.143   4.597  10.136 -1.3392 -1.3516 -1.0742
  177MPD1    H7 2707   2.092   4.644   9.981 -0.3095  0.0288  0.5555
  178MPD1     C 2708   3.316   1.991  17.552 -0.1492 -0.0689 -0.4996
  178MPD1    C1 2709   3.453   1.988  17.585 -0.4464 -0.6733 -0.0584
  178MPD1    C2 2710   3.539   1.914  17.500  0.1277  0.3557 -0.2777
  178MPD1    C3 2711   3.501   1.847  17.388 -0.5803 -0.9936 -0.3924
  178MPD1    C4 2712   3.366   1.846  17.355 -0.0563  0.6105  0.2116
  178MPD1    C5 2713   3.280   1.917  17.441  0.2423 -0.4390  0.2115
  178MPD1     H 2714   3.643   1.912  17.532  0.0342  0.6277  0.0438
  178MPD1    H1 2715   3.326   1.787  17.274 -0.9746 -1.8915  2.4885
  178MPD1    H2 2716   3.240   2.040  17.613  0.3296  0.5595 -0.4125
  178MPD1    H3 2717   3.175   1.921  17.415  0.2167  0.4512  0.4339
  178MPD1     N 2718   3.593   1.784  17.301 -0.1221  0.6777  0.0879
  178MPD1    H5 2719   3.561   1.724  17.226  1.1367  0.8664 -0.6090
  178MPD1    N1 2720   3.491   2.021   0.030 -0.2997 -0.1740  0.1587
  178MPD1    H6 2721   3.447   2.108   0.060  0.9657  1.0192 -1.4463
  178MPD1    H7 2722   3.592   2.028   0.044  0.0735 -1.2576 -2.0379
  179MPD1     C 2723   3.391   0.319  15.565  0.4229  1.1395 -0.6253
  179MPD1    C1 2724   3.404   0.314  15.697  0.7577 -0.3630  0.1198
  179MPD1    C2 2725   3.470   0.204  15.751 -0.2756  0.3979 -0.5131
  179MPD1    C3 2726   3.509   0.094  15.674 -0.3440  0.6335 -0.3872
  179MPD1    C4 2727   3.499   0.114  15.542 -0.4699 -0.0315 -0.6534
  179MPD1    C5 2728   3.450   0.230  15.485 -0.0635  0.6203  0.1623
  179MPD1     H 2729   3.473   0.189  15.858 -1.1072 -0.4415 -0.6025
  179MPD1    H1 2730   3.535   0.031  15.481 -0.8056  0.0915 -1.0178
  179MPD1    H2 2731   3.329   0.394  15.518 -2.0328  0.3650  1.3866
  179MPD1    H3 2732   3.436   0.237  15.377  1.0799 -1.0625 -0.1065
  179MPD1     N 2733   3.558   4.694  15.719 -0.2216 -0.1689 -0.3684
  179MPD1    H5 2734   3.581   4.621  15.652 -1.2256 -1.2011  0.4091
  179MPD1    N1 2735   3.313   0.390  15.773 -0.2207  0.8252 -0.1811
  179MPD1    H6 2736   3.298   0.484  15.737  1.4393  0.4674 -1.7969
  179MPD1    H7 2737   3.338   0.402  15.871 -2.5767  1.4959  0.3298
  180MPD1     C 2738   3.885   0.741  14.868  0.0778 -0.4846 -0.0880
  180MPD1    C1 2739   3.993   0.774  14.789 -0.4751 -0.4448 -0.2822
  180MPD1    C2 2740   3.963   0.828  14.662 -0.0235 -0.4317  0.3221
  180MPD1    C3 2741   3.826   0.861  14.634 -0.1246 -0.0202 -0.6633
  180MPD1    C4 2742   3.719   0.834  14.718 -0.3319 -0.1179 -0.2986
  180MPD1    C5 2743   3.753   0.773  14.836 -0.8158  0.0855  0.1441
  180MPD1     H 2744   4.045   0.841  14.592 -1.0332 -0.3487 -0.8574
  180MPD1    H1 2745   3.619   0.872  14.702 -0.3334  0.3075  0.7318
  180MPD1    H2 2746   3.899   0.694  14.964  1.3027  1.3131  0.6025
  180MPD1    H3 2747   3.668   0.754  14.900  0.1400 -2.3929  0.7168
  180MPD1     N 2748   3.805   0.923  14.510 -0.4544 -0.4620  0.2257
  180MPD1    H5 2749   3.874   0.918  14.435 -0.0577  0.1550  0.5492
  180MPD1    N1 2750   4.130   0.738  14.811 -0.4237 -0.0805 -0.3424
  180MPD1    H6 2751   4.200   0.802  14.774  1.5652 -1.2368  1.4723
  180MPD1    H7 2752   4.146   0.714  14.909  1.2475 -3.6027 -1.4891
  181MPD1     C 2753   1.140   2.498   9.639  0.8659 -0.1474  0.7186
  181MPD1    C1 2754   1.181   2.556   9.520  1.1066 -0.0238  0.5288
  181MPD1    C2 2755   1.261   2.669   9.520  0.4218 -0.2200 -0.4000
  181MPD1    C3 2756   1.329   2.704   9.633 -0.8351  0.2318  0.2464
  181MPD1    C4 2757   1.306   2.638   9.749 -0.3827 -0.7018  0.2939
  181MPD1    C5 2758   1.206   2.545   9.750  0.5522 -0.2321  0.0964
  181MPD1     H 2759   1.270   2.728   9.429 -3.1857 -0.4856 -0.9109
  181MPD1    H1 2760   1.356   2.666   9.841 -1.1978 -2.4312  1.2513
  181MPD1    H2 2761   1.064   2.422   9.646 -0.0369  0.7636  0.8165
  181MPD1    H3 2762   1.164   2.505   9.841 -1.5727 -2.6154 -1.8973
  181MPD1     N 2763   1.420   2.814   9.651  0.1781 -0.8143  0.6782
  181MPD1    H5 2764   1.456   2.838   9.742 -1.6872 -0.3222  1.2833
  181MPD1    N1 2765   1.103   2.532   9.404  0.0337  0.5285 -0.0527
  181MPD1    H6 2766   1.068   2.436   9.403 -1.8208  1.1781  2.2539
  181MPD1    H7 2767   1.153   2.552   9.318  1.6531 -1.3856  0.4492
  182MPD1     C 2768   2.157   2.080   2.313 -0.1729 -1.0422 -0.9769
  182MPD1    C1 2769   2.192   2.061   2.186  0.1408 -0.2759 -0.4998
  182MPD1    C2 2770   2.105   2.089   2.079 -0.9478 -0.1162  0.1876
  182MPD1    C3 2771   1.968   2.116   2.107 -0.0551 -0.1633 -0.2499
  182MPD1    C4 2772   1.933   2.116   2.242  0.6888 -0.4913 -0.4299
  182MPD1    C5 2773   2.027   2.097   2.341  0.3247  0.3855  0.5104
  182MPD1     H 2774   2.138   2.097   1.976  1.4305  0.7736  1.0216
  182MPD1    H1 2775   1.831   2.136   2.271  1.1537  0.6472  0.3951
  182MPD1    H2 2776   2.216   2.060   2.402 -1.1871 -1.2266 -0.3468
  182MPD1    H3 2777   2.000   2.112   2.445 -0.9748  1.8632 -0.0378
  182MPD1     N 2778   1.862   2.123   2.007  0.3153 -0.4957  0.0884
  182MPD1    H5 2779   1.766   2.129   2.041  1.0230 -2.7137  2.5284
  182MPD1    N1 2780   2.331   2.043   2.154  0.0678 -0.2850 -0.2267
  182MPD1    H6 2781   2.366   1.981   2.226 -0.1405  0.2040  0.2933
  182MPD1    H7 2782   2.340   1.999   2.062 -2.8451 -1.6036  0.1159
  183MPD1     C 2783   3.847   3.108   9.448 -0.8583 -0.1047 -0.0711
  183MPD1    C1 2784   3.793   3.112   9.571 -0.3203  0.6570  0.0712
  183MPD1    C2 2785   3.703   3.014   9.600  0.0369  0.3084 -0.3243
  183MPD1    C3 2786   3.653   2.921   9.513  0.4614  0.2954 -0.5000
  183MPD1    C4 2787   3.708   2.918   9.385 -0.3667  0.6257  0.5955
  183MPD1    C5 2788   3.796   3.020   9.357  0.6386 -0.3133 -0.5370
  183MPD1     H 2789   3.671   3.002   9.703  0.4450 -1.2485 -0.3865
  183MPD1    H1 2790   3.676   2.857   9.302  1.9703 -0.8981  0.8120
  183MPD1    H2 2791   3.924   3.178   9.419 -3.5266  2.9289  0.2397
  183MPD1    H3 2792   3.844   3.012   9.260  0.0934 -0.1574 -0.8166
  183MPD1     N 2793   3.555   2.832   9.554 -0.1455  0.1180 -0.7802
  183MPD1    H5 2794   3.521   2.832   9.650 -0.8680 -0.3385 -1.0352
  183MPD1    N1 2795   3.846   3.191   9.678 -0.1448 -0.0581 -0.4653
  183MPD1    H6 2796   3.898   3.267   9.634  1.1579  0.1069  1.3528
  183MPD1    H7 2797   3.780   3.231   9.745  1.2126  0.0271  0.8159
  184MPD1     C 2798   0.206   0.166  10.283 -0.4370 -0.3634 -0.5168
  184MPD1    C1 2799   0.185   0.295  10.315  0.2978 -0.3937  0.1018
  184MPD1    C2 2800   0.300   0.382  10.324  0.1441 -0.2670  0.2424
  184MPD1    C3 2801   0.428   0.328  10.299  0.0500 -0.3295  0.4830
  184MPD1    C4 2802   0.440   0.193  10.272 -0.1200 -0.0911  0.7712
  184MPD1    C5 2803   0.331   0.115  10.266 -0.3608  0.1101  0.4109
  184MPD1     H 2804   0.281   0.487  10.342 -1.3697 -0.7374  1.4920
  184MPD1    H1 2805   0.532   0.140  10.250 -0.0650  0.4064 -0.1840
  184MPD1    H2 2806   0.123   0.098  10.271  0.0271 -1.1970  0.8849
  184MPD1    H3 2807   0.336   0.008  10.251  0.9835  0.4268 -1.3914
  184MPD1     N 2808   0.551   0.399  10.305 -0.0883  0.1304 -0.3080
  184MPD1    H5 2809   0.639   0.349  10.298 -0.0010  0.0916  0.9475
  184MPD1    N1 2810   0.058   0.338  10.357 -0.5680 -0.2820 -0.2835
  184MPD1    H6 2811   0.046   0.437  10.336 -0.8374 -0.4534 -0.9483
  184MPD1    H7 2812   4.705   0.273  10.332  0.8227 -2.0330  0.0783
  185MPD1     C 2813   0.829   1.341  10.049 -0.0168  0.5813 -0.2413
  185MPD1    C1 2814   0.940   1.259  10.060  0.1232 -0.2913 -0.8418
  185MPD1    C2 2815   0.925   1.125  10.097  0.0560  0.0790 -0.6272
  185MPD1    C3 2816   0.805   1.079  10.146 -0.0789  0.3298  0.2853
  185MPD1    C4 2817   0.694   1.161  10.127 -0.7249  0.2231 -0.0786
  185MPD1    C5 2818   0.703   1.287  10.074 -0.6991 -0.4309  0.7347
  185MPD1     H 2819   1.014   1.063  10.105  0.1324  0.3799  0.7487
  185MPD1    H1 2820   0.591   1.130  10.145 -0.7481  0.0496 -0.4941
  185MPD1    H2 2821   0.835   1.439  10.003  3.2657  1.2669  1.6475
  185MPD1    H3 2822   0.616   1.349  10.057 -0.3294  0.1190  0.8413
  185MPD1     N 2823   0.790   0.954  10.202 -0.0141  0.3617  0.5248
  185MPD1    H5 2824   0.694   0.933  10.227 -0.3735 -1.6784 -2.5026
  185MPD1    N1 2825   1.066   1.302  10.004 -0.7364  0.0268  0.4344
  185MPD1    H6 2826   1.152   1.258  10.034 -0.7843  0.7885  1.6714
  185MPD1    H7 2827   1.082   1.402  10.001 -1.1112  0.0426 -1.0954
  186MPD1     C 2828   4.667   4.198  16.092 -0.2426  0.2790 -0.1941
  186MPD1    C1 2829   4.701   4.288  15.991  0.4769  0.8155  0.0442
  186MPD1    C2 2830   4.627   4.407  15.979 -0.3143  0.6570 -0.1625
  186MPD1    C3 2831   4.527   4.446  16.074 -0.4934  0.4298 -0.0399
  186MPD1    C4 2832   4.494   4.351  16.173  0.2753  0.3273 -0.3410
  186MPD1    C5 2833   4.561   4.229  16.183  0.0516 -0.2115  0.2178
  186MPD1     H 2834   4.663   4.482  15.908  1.1394  1.1889  1.1386
  186MPD1    H1 2835   4.419   4.385  16.242 -0.3761  1.6604 -1.7013
  186MPD1    H2 2836   0.002   4.108  16.112  1.9756  1.6385 -0.3530
  186MPD1    H3 2837   4.554   4.164  16.270 -1.2937  0.6522  0.7535
  186MPD1     N 2838   4.476   4.577  16.088 -0.6555  0.3449  0.1448
  186MPD1    H5 2839   4.426   4.595  16.175  0.6628 -0.3630  1.0495
  186MPD1    N1 2840   0.092   4.265  15.911  0.2793  0.3137  0.0463
  186MPD1    H6 2841   0.103   4.309  15.820  0.0554  0.8449  0.2743
  186MPD1    H7 2842   0.101   4.163  15.907 -0.3708  0.2195  0.9680
  187MPD1     C 2843   4.079   1.790  16.961  0.5609  0.4764  0.0309
  187MPD1    C1 2844   3.980   1.713  16.903 -0.1238  0.0281 -0.2254
  187MPD1    C2 2845   3.855   1.767  16.898  0.6004 -0.5284 -0.1626
  187MPD1    C3 2846   3.825   1.887  16.960  0.1988 -0.7027  0.5635
  187MPD1    C4 2847   3.922   1.963  17.018 -0.0991  0.3487 -0.4682
  187MPD1    C5 2848   4.051   1.914  17.015 -0.2999  0.6488  0.3236
  187MPD1     H 2849   3.782   1.720  16.833  0.1150 -0.6207  0.4528
  187MPD1    H1 2850   3.907   2.062  17.059  0.5050 -0.4523  1.7012
  187MPD1    H2 2851   4.178   1.746  16.971 -0.9852 -3.5526 -2.1615
  187MPD1    H3 2852   4.127   1.973  17.065  0.6222  0.3675 -0.7488
  187MPD1     N 2853   3.696   1.939  16.981  0.3099 -0.2937  0.4429
  187MPD1    H5 2854   3.694   2.031  17.023 -0.4755 -0.2502  0.3073
  187MPD1    N1 2855   4.009   1.584  16.855 -0.0286 -0.7497 -0.6681
  187MPD1    H6 2856   3.954   1.544  16.779  0.1320 -1.0634 -0.6183
  187MPD1    H7 2857   4.110   1.586  16.850 -0.0058 -0.0907  0.0603
  188MPD1     C 2858   3.620   1.812   9.928 -0.3352 -0.2296  0.3383
  188MPD1    C1 2859   3.676   1.779  10.050 -0.0373 -0.2022 -1.1905
  188MPD1    C2 2860   3.719   1.651  10.075 -0.4997 -0.1726 -0.2472
  188MPD1    C3 2861   3.689   1.548   9.991  0.0475 -0.5633 -0.0384
  188MPD1    C4 2862   3.601   1.574   9.887 -0.4829  0.0638 -0.5337
  188MPD1    C5 2863   3.571   1.709   9.854  0.5691 -0.5075  0.3374
  188MPD1     H 2864   3.780   1.638  10.164 -0.8419  1.9327  0.3055
  188MPD1    H1 2865   3.577   1.494   9.819 -3.3467  1.2068 -0.8522
  188MPD1    H2 2866   3.572   1.908   9.915 -1.0883 -0.6175  0.2838
  188MPD1    H3 2867   3.506   1.734   9.771  0.9720 -2.9603 -0.7198
  188MPD1     N 2868   3.731   1.416   9.999 -0.2638  0.3332  0.2952
  188MPD1    H5 2869   3.696   1.348   9.933  0.8908  0.7089 -0.7101
  188MPD1    N1 2870   3.730   1.886  10.122 -0.6437 -0.0728  0.1164
  188MPD1    H6 2871   3.782   1.856  10.204  0.9855 -0.1147 -0.9174
  188MPD1    H7 2872   3.660   1.958  10.138  0.7334  1.4098 -0.5203
  189MPD1     C 2873   0.697   2.508   0.073 -0.3112  0.1369  0.2549
  189MPD1    C1 2874   0.594   2.487  17.678  0.4953  0.2106  0.1080
  189MPD1    C2 2875   0.506   2.593  17.653 -0.4646 -0.3188  0.5650
  189MPD1    C3 2876   0.538   2.723  17.680  0.6293 -0.4266  0.0342
  189MPD1    C4 2877   0.650   2.738   0.061 -0.0772  0.8482 -0.4140
  189MPD1    C5 2878   0.721   2.634   0.115  0.4792  0.6698  0.1518
  189MPD1     H 2879   0.421   2.567  17.591 -0.4898  0.6608  0.1902
  189MPD1    H1 2880   0.684   2.835   0.095  2.1158 -0.1407  0.2252
  189MPD1    H2 2881   0.753   2.428   0.120  2.0384 -0.0780 -2.9306
  189MPD1    H3 2882   0.804   2.646   0.183 -0.4776 -0.9418  1.6071
  189MPD1     N 2883   0.443   2.824  17.637  0.3080 -0.0442 -0.5428
  189MPD1    H5 2884   0.361   2.780  17.596 -0.9038  0.2992  1.5047
  189MPD1    N1 2885   0.563   2.354  17.649 -0.0742 -0.5381  0.3281
  189MPD1    H6 2886   0.511   2.336  17.563  1.8575  0.9112 -1.1667
  189MPD1    H7 2887   0.630   2.283  17.679 -0.7990 -1.8436 -1.1392
  190MPD1     C 2888   3.008   0.872  15.149 -0.0842  0.0577  0.1239
  190MPD1    C1 2889   3.116   0.873  15.061 -0.5129  0.5344  0.9849
  190MPD1    C2 2890   3.231   0.911  15.126 -0.2351 -0.2002  0.1905
  190MPD1    C3 2891   3.237   0.930  15.262  0.3334  0.2170 -0.0624
  190MPD1    C4 2892   3.126   0.926  15.343  0.1600  0.6813  0.8717
  190MPD1    C5 2893   3.007   0.895  15.285  0.0712 -0.3623 -0.5283
  190MPD1     H 2894   3.317   0.935  15.064 -0.9760 -1.6946 -1.4064
  190MPD1    H1 2895   3.121   0.973  15.441  0.6934 -0.0906  1.2689
  190MPD1    H2 2896   2.912   0.851  15.101 -0.3764  0.0753  0.7056
  190MPD1    H3 2897   2.920   0.912  15.347  0.5381  0.3680 -0.0650
  190MPD1     N 2898   3.368   0.974  15.312 -0.5708  0.4951 -0.0725
  190MPD1    H5 2899   3.453   0.982  15.257 -0.1425  2.0256  0.8287
  190MPD1    N1 2900   3.104   0.871  14.920 -0.0974 -0.4162  0.1332
  190MPD1    H6 2901   3.189   0.848  14.869 -0.5857 -0.8621 -0.4724
  190MPD1    H7 2902   3.032   0.804  14.893 -1.8835  1.6795 -0.3062
  191MPD1     C 2903   4.325   2.026  12.035  0.4396 -0.0465 -0.0484
  191MPD1    C1 2904   4.189   2.005  12.055  0.1455 -0.0981  0.0251
  191MPD1    C2 2905   4.099   2.107  12.014 -0.1588  0.1403  0.5235
  191MPD1    C3 2906   4.152   2.224  11.963  0.0688  0.0735  0.1581
  191MPD1    C4 2907   4.287   2.234  11.943 -0.2418 -0.4754  0.0867
  191MPD1    C5 2908   4.376   2.136  11.975  0.3446 -0.0068  0.7410
  191MPD1     H 2909   3.993   2.094  12.029 -0.4180  0.8736 -0.6868
  191MPD1    H1 2910   4.328   2.328  11.910 -1.2957  0.2363  0.7980
  191MPD1    H2 2911   4.396   1.945  12.047  0.7059  0.1781 -0.1130
  191MPD1    H3 2912   4.484   2.146  11.965  0.3248  1.6187  2.0136
  191MPD1     N 2913   4.056   2.322  11.925 -0.1094  0.6562 -0.4221
  191MPD1    H5 2914   3.958   2.310  11.949  0.4298 -1.4022  0.7462
  191MPD1    N1 2915   4.144   1.903  12.137  0.3751  0.5619 -0.4941
  191MPD1    H6 2916   4.207   1.823  12.138 -0.0380  0.2549  2.3352
  191MPD1    H7 2917   4.059   1.859  12.102  0.1923  0.4903  0.0351
  192MPD1     C 2918   3.476   2.722  12.510  0.6758  0.4729  0.0716
  192MPD1    C1 2919   3.483   2.605  12.434  0.0824 -0.1715 -0.1115
  192MPD1    C2 2920   3.545   2.618  12.309  0.2526  0.0644 -0.3112
  192MPD1    C3 2921   3.605   2.736  12.264 -0.5112 -0.2306  0.0526
  192MPD1    C4 2922   3.605   2.840  12.351  0.7981  0.0151  0.4331
  192MPD1    C5 2923   3.544   2.831  12.470  0.4354 -0.7387 -0.0232
  192MPD1     H 2924   3.547   2.533  12.242 -0.4021  1.2780 -1.8880
  192MPD1    H1 2925   3.649   2.935  12.322  0.1090 -0.0342 -0.7693
  192MPD1    H2 2926   3.423   2.733  12.603  0.0734  0.1210 -0.2301
  192MPD1    H3 2927   3.532   2.919  12.533 -2.9022 -2.3539  1.6257
  192MPD1     N 2928   3.695   2.743  12.151 -0.2009 -0.5556 -0.7875
  192MPD1    H5 2929   3.761   2.820  12.150 -1.6572  0.7301  1.2158
  192MPD1    N1 2930   3.395   2.506  12.477  0.2782 -0.2459  0.2145
  192MPD1    H6 2931   3.439   2.424  12.435  1.3257 -0.6852  2.1525
  192MPD1    H7 2932   3.401   2.495  12.578 -0.6873 -0.3765  0.2554
  193MPD1     C 2933   2.886   2.981  17.187 -0.0743 -1.0409 -0.1941
  193MPD1    C1 2934   2.843   3.098  17.233  0.4949 -0.5330 -0.3491
  193MPD1    C2 2935   2.925   3.210  17.217 -0.8947 -0.4271 -0.7335
  193MPD1    C3 2936   3.053   3.204  17.162  0.6397  0.8577 -0.3983
  193MPD1    C4 2937   3.098   3.084  17.133  0.1418  0.6950  0.4351
  193MPD1    C5 2938   3.012   2.973  17.142 -0.0053  0.2295  0.6932
  193MPD1     H 2939   2.878   3.304  17.243  0.1101 -0.0467 -0.2943
  193MPD1    H1 2940   3.196   3.069  17.087 -0.8272  2.2167 -2.1182
  193MPD1    H2 2941   2.844   2.881  17.188 -0.2214 -1.0209 -3.0180
  193MPD1    H3 2942   3.044   2.874  17.111 -0.9471  0.4085 -0.8349
  193MPD1     N 2943   3.131   3.311  17.123  0.3006 -0.4003 -0.1098
  193MPD1    H5 2944   3.228   3.298  17.093 -0.2772 -2.4498 -1.0783
  193MPD1    N1 2945   2.714   3.109  17.279 -0.2718  0.1202  0.0501
  193MPD1    H6 2946   2.708   3.184  17.347  0.7431  1.3904 -1.2416
  193MPD1    H7 2947   2.678   3.024  17.321  1.3030 -0.7308 -0.2829
  194MPD1     C 2948   0.183   1.167   0.287 -0.1717  0.3636  0.2544
  194MPD1    C1 2949   0.160   1.036   0.256  0.3628  0.0985  0.1952
  194MPD1    C2 2950   0.271   0.956   0.237 -0.1080 -0.4525 -0.0889
  194MPD1    C3 2951   0.401   1.001   0.251  0.3436 -0.0824  0.0346
  194MPD1    C4 2952   0.418   1.128   0.296 -0.2638 -0.2827 -0.6639
  194MPD1    C5 2953   0.309   1.210   0.304  0.6551  0.4914 -0.2719
  194MPD1     H 2954   0.267   0.849   0.216 -0.1479 -0.8116  1.7288
  194MPD1    H1 2955   0.514   1.171   0.322  0.8373 -1.6743 -2.3918
  194MPD1    H2 2956   0.100   1.236   0.298 -0.0332  0.7901 -1.3111
  194MPD1    H3 2957   0.328   1.309   0.343 -0.3145  0.5467  0.0594
  194MPD1     N 2958   0.511   0.926   0.240  0.1700 -1.1638  0.1990
  194MPD1    H5 2959   0.594   0.970   0.277 -0.3559 -1.9932  2.3544
  194MPD1    N1 2960   0.034   0.980   0.248 -0.9183  0.2616  0.0992
  194MPD1    H6 2961   0.035   0.900   0.185  1.0197 -0.3254  0.8810
  194MPD1    H7 2962   4.686   1.043   0.210 -0.4197  2.0646  2.1724
  195MPD1     C 2963   3.472   2.088   1.106 -0.1802  0.3770  0.1276
  195MPD1    C1 2964   3.577   2.084   1.019  0.6352  0.5658 -0.0002
  195MPD1    C2 2965   3.582   1.992   0.918 -0.0472  0.0561 -0.1514
  195MPD1    C3 2966   3.470   1.912   0.893  0.4727  0.1071  0.2968
  195MPD1    C4 2967   3.367   1.922   0.975  0.4831  0.2276  0.2932
  195MPD1    C5 2968   3.365   2.009   1.077 -0.0181  0.5343  0.1787
  195MPD1     H 2969   3.661   2.000   0.844 -0.0133  1.3036  0.0246
  195MPD1    H1 2970   3.278   1.861   0.964  0.6871 -0.1442  0.6978
  195MPD1    H2 2971   3.464   2.155   1.191 -1.2773  2.1924 -1.4077
  195MPD1    H3 2972   3.281   2.020   1.144  1.1235  0.8262  1.5706
  195MPD1     N 2973   3.449   1.831   0.775 -0.1908 -0.1719  0.1578
  195MPD1    H5 2974   3.363   1.778   0.771  0.4651 -1.1315 -1.2193
  195MPD1    N1 2975   3.666   2.188   1.016  0.0927  0.0328  0.0664
  195MPD1    H6 2976   3.658   2.246   1.100  0.0342 -1.1338  0.8576
  195MPD1    H7 2977   3.762   2.158   1.026  0.8457  2.7141  0.8306
  196MPD1     C 2978   3.089   2.701   0.419  1.0266  0.0996 -0.4750
  196MPD1    C1 2979   3.083   2.564   0.407 -0.4594 -0.9720  0.7594
  196MPD1    C2 2980   2.986   2.490   0.475  0.3435 -0.0985  0.3906
  196MPD1    C3 2981   2.909   2.557   0.574 -0.0467  0.3835  1.1060
  196MPD1    C4 2982   2.922   2.691   0.592 -0.3976  0.6617 -0.3773
  196MPD1    C5 2983   3.001   2.760   0.505  0.0706 -0.1559  0.5210
  196MPD1     H 2984   2.967   2.386   0.452  0.9534  0.2532 -1.6756
  196MPD1    H1 2985   2.859   2.742   0.664 -0.8253 -0.8530  0.3075
  196MPD1    H2 2986   3.153   2.763   0.358 -0.5351  0.1777 -2.0256
  196MPD1    H3 2987   3.007   2.868   0.511  2.6943 -0.1372 -2.6081
  196MPD1     N 2988   2.824   2.481   0.662 -0.1915  0.1990 -0.0632
  196MPD1    H5 2989   2.775   2.538   0.731 -1.7762 -0.7621 -0.3966
  196MPD1    N1 2990   3.163   2.495   0.310 -0.0370 -0.8508 -0.3412
  196MPD1    H6 2991   3.253   2.539   0.294 -0.6029  0.0233 -1.1045
  196MPD1    H7 2992   3.174   2.395   0.327 -0.9795 -1.0129 -0.6727
  197MPD1     C 2993   1.481   4.050   0.220  0.1320  0.0612 -0.4693
  197MPD1    C1 2994   1.413   4.138   0.141 -0.7631 -0.4865  0.1482
  197MPD1    C2 2995   1.481   4.188   0.031  0.1033 -0.1064  0.5698
  197MPD1    C3 2996   1.607   4.144  17.682 -0.6846  0.6673 -0.6940
  197MPD1    C4 2997   1.674   4.052   0.071  0.6319  0.3541 -0.7576
  197MPD1    C5 2998   1.609   4.006   0.180 -0.6182 -0.3050 -0.2557
  197MPD1     H 2999   1.426   4.263  17.665 -0.9036 -1.4109 -0.1937
  197MPD1    H1 3000   1.779   4.032   0.057  0.8757  1.9861 -1.1971
  197MPD1    H2 3001   1.440   4.000   0.307  1.9908 -1.2914 -0.3550
  197MPD1    H3 3002   1.658   3.926   0.236 -1.2425  0.4520  1.3736
  197MPD1     N 3003   1.667   4.193  17.558 -0.4332  0.0325  0.2500
  197MPD1    H5 3004   1.614   4.255  17.497  0.9278  0.7657 -0.1788
  197MPD1    N1 3005   1.284   4.171   0.173 -0.0740  0.3417 -0.2256
  197MPD1    H6 3006   1.231   4.090   0.205  0.5915 -0.8258 -2.1600
  197MPD1    H7 3007   1.224   4.214   0.103  0.4808  0.8871 -0.3644
  198MPD1     C 3008   3.375   2.053  15.640 -0.5369  0.5998 -0.4075
  198MPD1    C1 3009   3.357   2.122  15.762 -0.2049  0.6011  0.4879
  198MPD1    C2 3010   3.459   2.199  15.806 -0.2239  0.4176 -0.4993
  198MPD1    C3 3011   3.583   2.193  15.749 -0.9652  0.4874 -0.9984
  198MPD1    C4 3012   3.602   2.113  15.641 -0.0619  0.0458  0.0349
  198MPD1    C5 3013   3.496   2.048  15.584 -0.1637  0.1151 -0.2839
  198MPD1     H 3014   3.435   2.276  15.878 -1.8435  0.2179 -0.8168
  198MPD1    H1 3015   3.691   2.115  15.579  0.5653  2.0022  1.0006
  198MPD1    H2 3016   3.289   2.005  15.597 -2.2082  3.0557  0.1710
  198MPD1    H3 3017   3.507   1.995  15.490  0.2193  2.6096 -1.6292
  198MPD1     N 3018   3.679   2.289  15.799 -0.0522 -0.7311 -0.0386
  198MPD1    H5 3019   3.660   2.336  15.887  0.9612  1.5703 -1.0350
  198MPD1    N1 3020   3.230   2.126  15.827  0.7004  0.0454 -0.1814
  198MPD1    H6 3021   3.193   2.034  15.851  0.9302  0.7902  3.1274
  198MPD1    H7 3022   3.248   2.171  15.917  0.2618 -0.0945 -0.0226
  199MPD1     C 3023   1.705   2.436   9.591 -0.0385  0.6657 -0.1696
  199MPD1    C1 3024   1.817   2.493   9.539  0.1559  0.1374 -0.3189
  199MPD1    C2 3025   1.814   2.586   9.433  0.8316  0.2595 -0.3559
  199MPD1    C3 3026   1.689   2.620   9.374  0.3643 -0.5099  0.4485
  199MPD1    C4 3027   1.577   2.560   9.426 -0.2520  0.2440 -0.1812
  199MPD1    C5 3028   1.585   2.474   9.534 -0.3155  0.1525  0.0846
  199MPD1     H 3029   1.906   2.640   9.410  2.1811 -1.5489  0.7729
  199MPD1    H1 3030   1.479   2.590   9.391 -0.0712  1.4149  0.3008
  199MPD1    H2 3031   1.708   2.371   9.678 -0.8035  2.6958  1.3627
  199MPD1    H3 3032   1.490   2.444   9.577 -0.1642  0.2917  0.5127
  199MPD1     N 3033   1.676   2.716   9.279 -0.1132 -0.4073  1.1921
  199MPD1    H5 3034   1.583   2.741   9.247  0.0681  1.4021  2.0787
  199MPD1    N1 3035   1.952   2.459   9.577  0.0596  0.1946 -0.3966
  199MPD1    H6 3036   2.009   2.542   9.565 -0.5477  0.6354 -0.2709
  199MPD1    H7 3037   1.965   2.435   9.675 -2.6958  0.1108 -0.0402
  200MPD1     C 3038   4.261   3.379  15.264 -0.5587  0.4814  0.7655
  200MPD1    C1 3039   4.266   3.281  15.164 -0.4176  0.4705 -0.0096
  200MPD1    C2 3040   4.385   3.273  15.094 -0.3180  0.5369 -0.6458
  200MPD1    C3 3041   4.486   3.361  15.110  0.3845 -0.3751  0.0444
  200MPD1    C4 3042   4.474   3.451  15.207 -0.3011  0.2368  0.4473
  200MPD1    C5 3043   4.363   3.467  15.284  0.0242  0.1773  0.8111
  200MPD1     H 3044   4.393   3.191  15.023  1.5402  0.2851 -0.1315
  200MPD1    H1 3045   4.549   3.523  15.238  0.0917  0.1449 -0.3018
  200MPD1    H2 3046   4.161   3.392  15.303 -1.1736  1.0495 -0.9824
  200MPD1    H3 3047   4.363   3.547  15.357 -1.5989 -0.0110  1.0108
  200MPD1     N 3048   4.611   3.332  15.052 -0.2602 -0.1798 -0.0686
  200MPD1    H5 3049   4.612   3.267  14.975  2.1512 -1.8509  1.3774
  200MPD1    N1 3050   4.164   3.182  15.153 -0.3227  0.2215  0.1893
  200MPD1    H6 3051   4.157   3.131  15.065  1.2236 -0.3913  0.4118
  200MPD1    H7 3052   4.070   3.211  15.178 -1.2003 -0.7837 -1.8996
  201MPD1     C 3053   3.163   2.393  13.190 -0.1877 -0.1599  0.4412
  201MPD1    C1 3054   3.135   2.442  13.318  0.1615 -0.5612  0.2571
  201MPD1    C2 3055   3.093   2.361  13.419 -0.1606  0.2685  0.5751
  201MPD1    C3 3056   3.078   2.222  13.399  0.4187  0.6911  0.3794
  201MPD1    C4 3057   3.096   2.166  13.275  0.0800 -0.1883 -0.4261
  201MPD1    C5 3058   3.141   2.250  13.175 -0.0402  1.2099 -0.0774
  201MPD1     H 3059   3.076   2.403  13.517  1.8311  0.2757  0.9186
  201MPD1    H1 3060   3.079   2.062  13.252  2.7803 -1.0114  1.1736
  201MPD1    H2 3061   3.191   2.452  13.103 -2.1540  1.2814  0.7820
  201MPD1    H3 3062   3.150   2.209  13.075  3.2485  0.0066  0.7346
  201MPD1     N 3063   3.039   2.152  13.521  0.0085  0.4441 -0.3907
  201MPD1    H5 3064   3.032   2.210  13.604 -0.7290  1.6610 -1.3172
  201MPD1    N1 3065   3.116   2.578  13.338 -0.0432 -0.8501  0.6570
  201MPD1    H6 3066   3.170   2.635  13.275 -1.9502  1.5613  1.2060
  201MPD1    H7 3067   3.149   2.598  13.432 -2.7329  1.8160  1.0333
  202MPD1     C 3068   2.750   1.626   9.423 -0.1011  0.3972  0.3532
  202MPD1    C1 3069   2.706   1.699   9.531  0.1127  0.0718 -0.2494
  202MPD1    C2 3070   2.774   1.649   9.644  0.4623 -0.2587  0.0017
  202MPD1    C3 3071   2.908   1.604   9.635 -0.3585  1.1668  1.0520
  202MPD1    C4 3072   2.953   1.553   9.513  0.5761  0.1488  0.0272
  202MPD1    C5 3073   2.867   1.564   9.407  0.1133 -0.3259  0.0633
  202MPD1     H 3074   2.730   1.684   9.736 -2.2741  0.3776 -1.5603
  202MPD1    H1 3075   3.048   1.503   9.498 -0.1566 -1.7904  1.8319
  202MPD1    H2 3076   2.689   1.611   9.334 -0.4621 -0.0309  0.6724
  202MPD1    H3 3077   2.889   1.508   9.317  0.3356 -0.8253  0.4297
  202MPD1     N 3078   2.997   1.587   9.744 -0.5459  0.0997  0.3437
  202MPD1    H5 3079   3.091   1.554   9.727 -0.1761  2.0061 -1.2969
  202MPD1    N1 3080   2.567   1.719   9.548  0.2770 -0.2725  0.6207
  202MPD1    H6 3081   2.547   1.770   9.634 -1.6754 -0.3784  0.2200
  202MPD1    H7 3082   2.531   1.762   9.464  1.5016  1.5609  1.0189
  203MPD1     C 3083   0.893   3.102  11.864 -0.6352 -0.2645 -0.2957
  203MPD1    C1 3084   1.031   3.117  11.856 -0.3056 -0.4482  0.4201
  203MPD1    C2 3085   1.109   3.025  11.937  0.0294  0.1551  0.2490
  203MPD1    C3 3086   1.041   2.939  12.025 -0.6278 -0.2208  0.0185
  203MPD1    C4 3087   0.908   2.919  12.017 -0.1762  0.6260  0.0153
  203MPD1    C5 3088   0.833   3.001  11.938  0.5014 -0.0408 -0.1827
  203MPD1     H 3089   1.215   3.047  11.944  0.3088 -0.9086 -0.5881
  203MPD1    H1 3090   0.851   2.853  12.081 -0.4482 -0.1947 -1.0704
  203MPD1    H2 3091   0.831   3.164  11.800 -2.8938 -2.3979 -0.1817
  203MPD1    H3 3092   0.725   2.988  11.938  0.4133  0.6441 -0.9644
  203MPD1     N 3093   1.123   2.855  12.103  0.5519  0.3491  0.9027
  203MPD1    H5 3094   1.223   2.857  12.087  0.0155  0.9490 -2.3308
  203MPD1    N1 3095   1.098   3.218  11.788 -0.0293  0.0882 -0.0817
  203MPD1    H6 3096   1.032   3.262  11.724  0.3170 -0.2599 -0.6851
  203MPD1    H7 3097   1.172   3.175  11.733 -0.7555 -4.0008  2.2220
  204MPD1     C 3098   1.235   3.869   0.415  0.3465 -0.1956 -0.2843
  204MPD1    C1 3099   1.311   3.777   0.346 -0.0835 -0.9360 -0.4402
  204MPD1    C2 3100   1.252   3.733   0.225 -0.3366  0.5510 -0.1587
  204MPD1    C3 3101   1.139   3.783   0.171  0.4246 -0.3366  0.4072
  204MPD1    C4 3102   1.072   3.886   0.233 -0.2538  0.1959 -0.2030
  204MPD1    C5 3103   1.118   3.917   0.364 -0.0818  1.1579  0.3639
  204MPD1     H 3104   1.297   3.654   0.167 -0.5171 -0.2052  0.7497
  204MPD1    H1 3105   0.990   3.938   0.184  0.6538  1.4808 -0.3535
  204MPD1    H2 3106   1.260   3.890   0.519  2.2425  2.1861 -1.2414
  204MPD1    H3 3107   1.064   3.996   0.415  1.5149  1.4638  1.5525
  204MPD1     N 3108   1.097   3.726   0.047 -0.5983 -0.1449  0.5935
  204MPD1    H5 3109   1.162   3.674  17.680 -1.8195 -0.9206 -0.0815
  204MPD1    N1 3110   1.421   3.715   0.411 -0.5888 -0.3572  1.1596
  204MPD1    H6 3111   1.471   3.776   0.476 -0.8062  1.4158 -0.3417
  204MPD1    H7 3112   1.481   3.676   0.339  2.3618  2.4374  2.1230
  205MPD1     C 3113   0.633   1.913  17.327  0.2497 -0.0471  0.0768
  205MPD1    C1 3114   0.718   1.915  17.438  0.1139  0.5531  0.1942
  205MPD1    C2 3115   0.771   2.040  17.472 -1.0656  1.4657 -0.0738
  205MPD1    C3 3116   0.739   2.159  17.399  0.9412 -0.5983 -0.1672
  205MPD1    C4 3117   0.638   2.148  17.307  0.6495  0.0417 -0.2823
  205MPD1    C5 3118   0.591   2.023  17.264 -0.7886  0.5005 -0.4761
  205MPD1     H 3119   0.856   2.036  17.539  0.5943  0.4343 -2.2629
  205MPD1    H1 3120   0.594   2.239  17.268 -1.5842  0.1011  2.2996
  205MPD1    H2 3121   0.600   1.814  17.298  3.9671 -0.8045 -1.6147
  205MPD1    H3 3122   0.524   2.005  17.181  0.2524 -1.3567 -0.8927
  205MPD1     N 3123   0.794   2.291  17.424  0.5828 -1.0436  1.3334
  205MPD1    H5 3124   0.776   2.365  17.357 -1.3166 -1.6424  1.1776
  205MPD1    N1 3125   0.771   1.791  17.488  0.3527 -0.6753  0.2066
  205MPD1    H6 3126   0.711   1.709  17.483 -0.7851  0.2035 -0.7601
  205MPD1    H7 3127   0.799   1.808  17.584  0.6424 -0.5925  0.1080
  206MPD1     C 3128   0.748   4.721  16.787 -0.1323  0.6667 -0.0105
  206MPD1    C1 3129   0.718   0.133  16.801  0.4469  0.0545 -0.6410
  206MPD1    C2 3130   0.690   0.202  16.688  0.5311  0.2830  0.6113
  206MPD1    C3 3131   0.707   0.145  16.564  0.2713  0.5593  0.1210
  206MPD1    C4 3132   0.728   0.014  16.550  0.1467 -0.0571  0.5748
  206MPD1    C5 3133   0.745   4.662  16.661  0.8939 -0.0332  0.1892
  206MPD1     H 3134   0.674   0.309  16.701 -0.7478 -0.0246  1.5618
  206MPD1    H1 3135   0.726   4.678  16.459 -0.0855  2.1507 -0.8131
  206MPD1    H2 3136   0.782   4.657  16.868  4.3000  3.2668  0.1399
  206MPD1    H3 3137   0.753   4.555  16.648  0.5112 -0.1601  0.9846
  206MPD1     N 3138   0.682   0.206  16.442 -0.4839  0.4046  0.2834
  206MPD1    H5 3139   0.695   0.144  16.363 -1.4779  2.1062 -1.2188
  206MPD1    N1 3140   0.763   0.199  16.922 -0.2267  0.1250  0.3971
  206MPD1    H6 3141   0.719   0.288  16.944  0.2340  0.4085  0.1760
  206MPD1    H7 3142   0.756   0.137  17.002  2.0430 -1.7649 -0.8721
  207MPD1     C 3143   4.316   1.552   9.799 -0.5203  0.1559  0.1715
  207MPD1    C1 3144   4.418   1.618   9.859  0.4045 -0.8592 -0.0228
  207MPD1    C2 3145   4.446   1.748   9.822  0.4280 -0.8553  0.7584
  207MPD1    C3 3146   4.359   1.819   9.737 -0.4944  0.1916 -0.3846
  207MPD1    C4 3147   4.270   1.746   9.667 -0.5355  0.2067 -0.2091
  207MPD1    C5 3148   4.248   1.621   9.706  0.3759  0.1217 -0.6083
  207MPD1     H 3149   4.525   1.800   9.875  0.9217  1.4591 -2.3156
  207MPD1    H1 3150   4.199   1.788   9.596 -1.0080 -1.5200 -0.7577
  207MPD1    H2 3151   4.296   1.447   9.815 -2.2933  0.9097  2.9644
  207MPD1    H3 3152   4.168   1.565   9.659 -0.5093  1.5592 -0.8198
  207MPD1     N 3153   4.376   1.956   9.704 -0.1975 -0.0823  0.6256
  207MPD1    H5 3154   4.310   2.005   9.644  0.2323  0.9205  0.9768
  207MPD1    N1 3155   4.510   1.545   9.938  0.3007  0.5699  0.4416
  207MPD1    H6 3156   4.467   1.461   9.977  0.8074 -0.5908 -1.4656
  207MPD1    H7 3157   4.550   1.604  10.011 -0.5942  0.3403  1.1089
  208MPD1     C 3158   1.099   1.600   0.256  0.2838  0.3316  0.5531
  208MPD1    C1 3159   1.142   1.708   0.180 -0.2540 -0.2919  0.5015
  208MPD1    C2 3160   1.205   1.813   0.245  0.1471  0.4531 -0.1802
  208MPD1    C3 3161   1.237   1.801   0.384 -0.4419 -0.1113 -1.2378
  208MPD1    C4 3162   1.180   1.701   0.454  0.1618 -0.4741 -0.0593
  208MPD1    C5 3163   1.112   1.609   0.388 -0.0592  0.5530 -0.4285
  208MPD1     H 3164   1.227   1.902   0.187 -1.4942  0.0391 -1.4516
  208MPD1    H1 3165   1.192   1.692   0.561 -1.1238 -1.7808 -0.0290
  208MPD1    H2 3166   1.042   1.514   0.221  2.2501  0.5322 -3.1564
  208MPD1    H3 3167   1.055   1.539   0.446  3.2497  0.7429  3.0555
  208MPD1     N 3168   1.294   1.916   0.450 -0.2684 -0.2732  0.7374
  208MPD1    H5 3169   1.321   1.995   0.392  0.4102 -0.2913  1.0248
  208MPD1    N1 3170   1.094   1.726   0.046  0.2489  0.7711 -0.0592
  208MPD1    H6 3171   1.161   1.784  17.685 -0.4968  0.5069 -1.3360
  208MPD1    H7 3172   1.084   1.639  17.686  2.7780  1.5805 -1.9657
  209MPD1     C 3173   3.847   2.331  10.972 -0.5451  0.5983 -0.0993
  209MPD1    C1 3174   3.859   2.285  10.846  0.3620  0.1854  0.1147
  209MPD1    C2 3175   3.906   2.371  10.747  0.2423  0.3576  0.2386
  209MPD1    C3 3176   3.913   2.511  10.757  1.1387 -1.1025 -0.3037
  209MPD1    C4 3177   3.879   2.563  10.877  0.1454  0.2909 -0.3000
  209MPD1    C5 3178   3.846   2.470  10.984  0.3143 -0.2249  0.5203
  209MPD1     H 3179   3.907   2.325  10.649  3.5084 -0.1547  0.5337
  209MPD1    H1 3180   3.895   2.667  10.903  0.6077  0.3254 -0.7263
  209MPD1    H2 3181   3.818   2.263  11.052  0.7839 -0.3240 -0.4013
  209MPD1    H3 3182   3.830   2.514  11.082  0.5669 -2.1464  1.4354
  209MPD1     N 3183   3.949   2.585  10.643 -0.1347 -0.0113  0.6331
  209MPD1    H5 3184   3.974   2.537  10.557  3.0808  2.9170 -0.0416
  209MPD1    N1 3185   3.873   2.143  10.829 -0.2961  0.2491 -0.3131
  209MPD1    H6 3186   3.819   2.071  10.876  0.7446 -0.2338  0.1422
  209MPD1    H7 3187   3.851   2.127  10.731  0.6484  0.7715 -0.6150
  210MPD1     C 3188   4.086   3.611  10.608 -0.0982 -0.7000 -0.8236
  210MPD1    C1 3189   4.058   3.573  10.474  0.6065 -0.3453 -0.6131
  210MPD1    C2 3190   4.051   3.436  10.451  0.0984 -0.5105 -0.0242
  210MPD1    C3 3191   4.077   3.342  10.549 -0.0102  0.1386  0.0978
  210MPD1    C4 3192   4.105   3.382  10.678  0.2674 -0.2761  0.6540
  210MPD1    C5 3193   4.107   3.515  10.708  0.1965 -0.5267  0.8422
  210MPD1     H 3194   4.015   3.406  10.353 -3.4976 -1.5837  1.6528
  210MPD1    H1 3195   4.138   3.315  10.756 -0.7589 -0.2554  1.1162
  210MPD1    H2 3196   4.095   3.717  10.629 -1.4838 -0.4289 -1.5568
  210MPD1    H3 3197   4.149   3.552  10.801  1.2852 -0.5320  0.3564
  210MPD1     N 3198   4.076   3.200  10.529  0.0993 -0.0870  0.4784
  210MPD1    H5 3199   4.109   3.141  10.604  3.4565  2.2983  0.8880
  210MPD1    N1 3200   4.021   3.666  10.386  0.0838 -0.1216 -0.2435
  210MPD1    H6 3201   4.022   3.626  10.293 -1.5249  1.8418 -1.1025
  210MPD1    H7 3202   4.080   3.748  10.393  1.1126 -0.9219  0.5041
  211MPD1     C 3203   1.430   2.271  17.615 -0.1206  0.0520  0.1114
  211MPD1    C1 3204   1.311   2.212  17.576  0.1151  0.0525 -0.4388
  211MPD1    C2 3205   1.241   2.278  17.483  0.1972  0.2041 -0.4689
  211MPD1    C3 3206   1.291   2.379  17.409 -0.1419 -0.5510 -0.2736
  211MPD1    C4 3207   1.402   2.450  17.458 -0.3219  0.1592  0.8539
  211MPD1    C5 3208   1.466   2.392  17.562  0.9295  0.0480  0.2018
  211MPD1     H 3209   1.154   2.231  17.437 -0.4841 -0.1465  1.1798
  211MPD1    H1 3210   1.428   2.547  17.417  1.9327 -0.7932  0.0095
  211MPD1    H2 3211   1.495   2.227  17.689 -0.9605 -1.1003  0.1461
  211MPD1    H3 3212   1.550   2.440  17.610  0.5663  0.1303  0.7574
  211MPD1     N 3213   1.216   2.417  17.296 -0.1530 -0.4911 -0.5350
  211MPD1    H5 3214   1.136   2.359  17.272  0.0483  0.1652 -2.7880
  211MPD1    N1 3215   1.246   2.115  17.645  0.4751  0.0640 -0.1754
  211MPD1    H6 3216   1.313   2.044  17.675  1.1181 -0.6162 -3.2713
  211MPD1    H7 3217   1.185   2.063  17.583  0.3807 -0.5755  0.4528
  212MPD1     C 3218   0.527   1.182  16.336  0.6655 -0.2541 -0.2892
  212MPD1    C1 3219   0.411   1.198  16.400 -0.5173 -0.5637  0.3082
  212MPD1    C2 3220   0.343   1.085  16.438  1.1377  0.5548 -0.2156
  212MPD1    C3 3221   0.396   0.960  16.416  0.0004 -0.3405  0.1937
  212MPD1    C4 3222   0.519   0.952  16.348 -0.2609 -1.0452  0.2029
  212MPD1    C5 3223   0.578   1.061  16.311 -0.6465 -0.0316  0.8244
  212MPD1     H 3224   0.241   1.102  16.472  0.6165  1.0799 -2.0548
  212MPD1    H1 3225   0.563   0.859  16.315 -0.3755 -1.3264  0.8411
  212MPD1    H2 3226   0.583   1.270  16.303 -1.0543  0.4158 -1.4125
  212MPD1    H3 3227   0.658   1.050  16.238 -1.4819 -2.3267  0.2520
  212MPD1     N 3228   0.328   0.842  16.460 -0.0398  0.5275 -0.3762
  212MPD1    H5 3229   0.363   0.752  16.428  0.2416  0.4504  0.1472
  212MPD1    N1 3230   0.368   1.329  16.447 -0.0692 -0.0422  0.7089
  212MPD1    H6 3231   0.385   1.401  16.376  1.1246  0.1885  1.2335
  212MPD1    H7 3232   0.268   1.329  16.468 -0.5331  0.5082 -1.4835
  213MPD1     C 3233   3.051   1.343  15.914  0.8534 -0.4940 -0.1090
  213MPD1    C1 3234   3.110   1.385  15.801  0.4191  0.3026  0.5011
  213MPD1    C2 3235   3.032   1.394  15.687 -0.0173  0.0207  0.0231
  213MPD1    C3 3236   2.895   1.394  15.687  0.0266  0.2008  0.0367
  213MPD1    C4 3237   2.838   1.372  15.810  0.2306 -0.5075  0.5416
  213MPD1    C5 3238   2.913   1.335  15.920 -0.2187 -0.7633  0.0909
  213MPD1     H 3239   3.078   1.425  15.594  1.5293  2.1853  1.5122
  213MPD1    H1 3240   2.731   1.382  15.825  0.0813  1.6949 -1.9384
  213MPD1    H2 3241   3.111   1.305  15.997  1.5782 -0.4309 -0.6050
  213MPD1    H3 3242   2.864   1.305  16.012  0.6810 -1.4820  0.3445
  213MPD1     N 3243   2.828   1.402  15.571  0.0119  0.2897 -0.6914
  213MPD1    H5 3244   2.880   1.389  15.485 -1.7939 -0.5880 -1.6590
  213MPD1    N1 3245   3.247   1.363  15.795  0.4367 -0.2918 -0.1059
  213MPD1    H6 3246   3.290   1.423  15.725  2.0874 -2.0425 -0.5900
  213MPD1    H7 3247   3.296   1.385  15.881 -1.5473  1.5623  0.5432
  214MPD1     C 3248   1.930   1.115  15.173  0.5630 -0.7670 -0.5759
  214MPD1    C1 3249   1.961   1.240  15.135 -0.6052 -0.2190  0.8741
  214MPD1    C2 3250   2.090   1.281  15.147 -0.0302 -0.4046 -0.2823
  214MPD1    C3 3251   2.185   1.212  15.219  0.8713 -0.6621  0.5329
  214MPD1    C4 3252   2.152   1.080  15.261 -0.5876  0.3013 -0.2572
  214MPD1    C5 3253   2.024   1.039  15.236 -1.0342  0.2962  0.1693
  214MPD1     H 3254   2.107   1.378  15.101 -0.1500 -0.0299  0.4629
  214MPD1    H1 3255   2.227   1.016  15.307 -2.4814 -1.1851  0.7340
  214MPD1    H2 3256   1.835   1.074  15.139 -0.7276  0.7331  1.2376
  214MPD1    H3 3257   2.006   0.942  15.280 -1.5233  0.4578  0.3284
  214MPD1     N 3258   2.308   1.263  15.252  0.5751 -0.1539 -0.5102
  214MPD1    H5 3259   2.372   1.204  15.304  0.2728 -0.0443 -0.0082
  214MPD1    N1 3260   1.869   1.299  15.042 -0.6106  0.0089 -0.0007
  214MPD1    H6 3261   1.885   1.400  15.046 -0.4828 -0.0111 -0.0183
  214MPD1    H7 3262   1.772   1.286  15.071 -1.0740  1.0142 -1.0994
  215MPD1     C 3263   3.663   2.054  10.428  0.0570 -0.5322 -0.5500
  215MPD1    C1 3264   3.574   2.099  10.522 -1.0256  0.8219  0.3614
  215MPD1    C2 3265   3.564   2.232  10.549  0.4848  0.6283  1.0199
  215MPD1    C3 3266   3.647   2.326  10.486 -0.5708 -0.1028  0.2812
  215MPD1    C4 3267   3.740   2.278  10.386 -0.3444  0.0330 -0.2896
  215MPD1    C5 3268   3.745   2.142  10.366 -0.0337 -0.5551 -0.7694
  215MPD1     H 3269   3.489   2.264  10.620 -0.1808  2.4851 -0.5189
  215MPD1    H1 3270   3.796   2.344  10.322  0.7541  0.2245  0.8715
  215MPD1    H2 3271   3.655   1.954  10.386 -3.3659 -0.6810  0.5170
  215MPD1    H3 3272   3.801   2.111  10.278 -2.1231 -0.6815 -2.0595
  215MPD1     N 3273   3.636   2.462  10.518 -0.0785 -0.4259 -0.3539
  215MPD1    H5 3274   3.567   2.484  10.589 -1.4202  0.5816 -1.9745
  215MPD1    N1 3275   3.475   2.014  10.570 -0.2732  0.5296  0.3807
  215MPD1    H6 3276   3.454   2.035  10.668  1.6603 -0.9076  1.0942
  215MPD1    H7 3277   3.509   1.920  10.555 -0.3117  0.3938  1.1715
  216MPD1     C 3278   0.530   0.559   0.503 -0.6020  0.0143  0.3435
  216MPD1    C1 3279   0.643   0.506   0.553  0.0064  0.6907  0.4915
  216MPD1    C2 3280   0.710   0.425   0.460 -0.2326 -0.6235 -0.6504
  216MPD1    C3 3281   0.647   0.369   0.344  0.0715  0.1963  0.3624
  216MPD1    C4 3282   0.523   0.420   0.307 -0.5235  0.0834 -0.5313
  216MPD1    C5 3283   0.471   0.516   0.388 -0.5400 -0.8668 -0.2573
  216MPD1     H 3284   0.807   0.387   0.488 -0.6520 -0.6258  0.8027
  216MPD1    H1 3285   0.474   0.400   0.212 -3.0162 -0.5264  0.8744
  216MPD1    H2 3286   0.488   0.644   0.556  1.3177  0.2340  1.4826
  216MPD1    H3 3287   0.380   0.564   0.354 -0.2027  0.2185  0.3828
  216MPD1     N 3288   0.721   0.274   0.272 -0.3634 -0.6144 -0.1486
  216MPD1    H5 3289   0.806   0.244   0.320  1.6798  0.3834 -3.1272
  216MPD1    N1 3290   0.707   0.572   0.659  0.1386 -0.1341  0.1844
  216MPD1    H6 3291   0.639   0.587   0.733 -0.0361  3.2984 -0.7020
  216MPD1    H7 3292   0.777   0.513   0.705  1.4431 -0.1982 -1.8613
  217MPD1     C 3293   2.292   2.472   8.676  0.1883 -0.6172 -0.2531
  217MPD1    C1 3294   2.383   2.416   8.766  0.4891 -0.2614  0.0202
  217MPD1    C2 3295   2.337   2.320   8.849  0.0760  0.7305 -0.6092
  217MPD1    C3 3296   2.204   2.292   8.871  0.1928 -0.1248  0.0426
  217MPD1    C4 3297   2.116   2.368   8.795  0.3590 -0.1908 -0.6189
  217MPD1    C5 3298   2.159   2.457   8.700 -0.5516  0.3496  0.1269
  217MPD1     H 3299   2.407   2.270   8.915 -0.9672  1.6491  1.1771
  217MPD1    H1 3300   2.010   2.357   8.813  0.6617  0.2874  1.4937
  217MPD1    H2 3301   2.329   2.542   8.602 -1.8448  1.8968  1.1255
  217MPD1    H3 3302   2.095   2.520   8.638  0.7747  0.6091 -0.9978
  217MPD1     N 3303   2.154   2.189   8.951  0.8963 -0.2411 -0.1668
  217MPD1    H5 3304   2.055   2.180   8.970  1.1394 -0.8135  0.8052
  217MPD1    N1 3305   2.524   2.436   8.747 -0.2505  0.5024 -0.5473
  217MPD1    H6 3306   2.545   2.535   8.732 -0.5750  0.9955  2.2367
  217MPD1    H7 3307   2.581   2.397   8.821 -1.5061 -1.3490 -0.5606
  218MPD1     C 3308   2.563   3.528  12.671  1.0156  0.0713 -0.0807
  218MPD1    C1 3309   2.646   3.549  12.560 -0.1470 -0.4381 -0.2089
  218MPD1    C2 3310   2.733   3.448  12.531  0.7726  0.0073 -0.0779
  218MPD1    C3 3311   2.759   3.336  12.615  0.9997 -0.9729 -0.2341
  218MPD1    C4 3312   2.682   3.323  12.727  0.0103  0.6031  0.0241
  218MPD1    C5 3313   2.580   3.416  12.748 -0.3135 -0.5094 -0.3073
  218MPD1     H 3314   2.791   3.452  12.440 -0.6486  0.4745 -0.9753
  218MPD1    H1 3315   2.689   3.237  12.793 -0.4113  0.3262 -0.2946
  218MPD1    H2 3316   2.476   3.589  12.694  0.5293 -0.4391 -0.5501
  218MPD1    H3 3317   2.526   3.416  12.842 -0.0500  0.0709 -0.1580
  218MPD1     N 3318   2.863   3.241  12.576 -0.4517 -0.2170  0.1439
  218MPD1    H5 3319   2.914   3.257  12.490 -0.5432  1.2356  0.3520
  218MPD1    N1 3320   2.627   3.655  12.473 -0.2665  0.4954 -0.2316
  218MPD1    H6 3321   2.610   3.743  12.521 -0.1736  0.4007 -0.0228
  218MPD1    H7 3322   2.711   3.683  12.421 -0.3172 -0.0694 -0.6131
  219MPD1     C 3323   3.841   3.343  12.531  0.8080 -0.6101 -0.8622
  219MPD1    C1 3324   3.739   3.385  12.453  0.0727  0.5668 -0.2605
  219MPD1    C2 3325   3.619   3.336  12.482 -0.1389  0.4422  0.6689
  219MPD1    C3 3326   3.602   3.240  12.581 -0.3029 -0.1826  0.3077
  219MPD1    C4 3327   3.703   3.216  12.669 -0.9386  0.1051  0.3784
  219MPD1    C5 3328   3.823   3.264  12.638 -0.2992  0.7572 -0.1868
  219MPD1     H 3329   3.535   3.366  12.420  0.7339  3.9089  1.1689
  219MPD1    H1 3330   3.684   3.156  12.757  1.8448 -0.8388  0.3340
  219MPD1    H2 3331   3.939   3.385  12.511  1.4911 -1.5070  0.5640
  219MPD1    H3 3332   3.907   3.242  12.702  0.0827  2.0598 -0.2507
  219MPD1     N 3333   3.477   3.176  12.613 -0.0931  0.8714 -0.3727
  219MPD1    H5 3334   3.474   3.116  12.695  0.6957  1.0343 -0.2327
  219MPD1    N1 3335   3.743   3.494  12.364  0.0191  0.4368 -0.0817
  219MPD1    H6 3336   3.840   3.500  12.333 -0.0126 -0.0624 -0.2886
  219MPD1    H7 3337   3.682   3.478  12.284 -2.3518 -1.3003  2.1039
  220MPD1     C 3338   3.518   3.227   8.763  0.5955  0.2945  0.2287
  220MPD1    C1 3339   3.461   3.106   8.798 -0.5561  0.3900  0.5442
  220MPD1    C2 3340   3.416   3.089   8.930 -0.4204 -0.4240  0.4835
  220MPD1    C3 3341   3.458   3.177   9.029  0.2554  0.4567  0.6623
  220MPD1    C4 3342   3.518   3.292   8.992  0.0855  0.8571 -0.1703
  220MPD1    C5 3343   3.555   3.314   8.860  0.1185 -0.6361 -0.2139
  220MPD1     H 3344   3.359   3.000   8.954  1.1902 -1.8092 -0.8891
  220MPD1    H1 3345   3.536   3.375   9.060 -0.3766  0.7110  0.1268
  220MPD1    H2 3346   3.549   3.240   8.660 -0.2111 -2.2292 -0.3453
  220MPD1    H3 3347   3.608   3.402   8.826 -1.8485  0.6576  0.0876
  220MPD1     N 3348   3.416   3.155   9.161  0.1154 -0.2336  0.3656
  220MPD1    H5 3349   3.377   3.063   9.182 -1.5985 -0.0629 -2.0891
  220MPD1    N1 3350   3.424   3.007   8.701  0.0625 -0.5463  0.1176
  220MPD1    H6 3351   3.438   2.914   8.738 -2.3724 -2.1032 -2.8401
  220MPD1    H7 3352   3.488   3.004   8.622  1.1242 -0.0199  0.9611
  221MPD1     C 3353   4.595   2.254  16.750 -0.1804 -0.2930  0.1131
  221MPD1    C1 3354   4.664   2.302  16.638  0.0602 -0.5290  1.2611
  221MPD1    C2 3355   0.072   2.266  16.622 -0.1480 -0.1276 -0.3928
  221MPD1    C3 3356   0.135   2.187  16.715  1.1416 -0.4111  0.4016
  221MPD1    C4 3357   0.068   2.146  16.827 -0.1155  0.8698 -1.0488
  221MPD1    C5 3358   4.660   2.179  16.844  0.4084  0.0317  0.2896
  221MPD1     H 3359   0.120   2.297  16.530 -1.6385  2.7337 -0.2040
  221MPD1    H1 3360   0.113   2.084  16.904 -0.6182  1.5360 -0.2197
  221MPD1    H2 3361   4.493   2.273  16.782 -0.2860 -0.9406  0.1633
  221MPD1    H3 3362   4.605   2.166  16.937  0.4373  0.5288  0.3762
  221MPD1     N 3363   0.270   2.148  16.693  0.3377  0.4948  0.3315
  221MPD1    H5 3364   0.296   2.073  16.756 -0.9216  0.3432  0.6669
  221MPD1    N1 3365   4.602   2.391  16.558 -0.2388 -0.3711 -0.4117
  221MPD1    H6 3366   4.504   2.368  16.545  0.1944 -1.8196 -1.1787
  221MPD1    H7 3367   4.642   2.397  16.464 -1.5215  1.4751 -0.8419
  222MPD1     C 3368   4.267   1.500  16.575 -0.5472 -0.6546 -0.0236
  222MPD1    C1 3369   4.404   1.512  16.584 -0.7779 -0.2759 -0.1004
  222MPD1    C2 3370   4.475   1.428  16.661  0.4917 -0.2416  0.1249
  222MPD1    C3 3371   4.412   1.336  16.741 -0.2771 -0.2321  0.3780
  222MPD1    C4 3372   4.278   1.318  16.726 -0.1438 -0.4590  0.4540
  222MPD1    C5 3373   4.203   1.403  16.650  0.6274  0.2780  0.7365
  222MPD1     H 3374   4.583   1.440  16.660  0.5831 -1.1203 -0.1496
  222MPD1    H1 3375   4.226   1.243  16.784  1.3900 -0.6753  1.5633
  222MPD1    H2 3376   4.204   1.562  16.513 -0.3672 -1.5471 -1.1078
  222MPD1    H3 3377   4.097   1.379  16.638  0.4383  0.3936  2.2662
  222MPD1     N 3378   4.475   1.258  16.840 -0.3139  0.3530  0.0655
  222MPD1    H5 3379   4.411   1.217  16.907  0.5410 -0.0608  0.6226
  222MPD1    N1 3380   4.465   1.582  16.477  0.2160 -0.5941  0.2210
  222MPD1    H6 3381   4.425   1.666  16.436  1.3383 -0.4598 -0.5772
  222MPD1    H7 3382   4.560   1.616  16.494  0.2391 -1.1041  1.1029
  223MPD1     C 3383   0.475   0.557  16.783 -0.2248 -0.4284 -0.1933
  223MPD1    C1 3384   0.491   0.695  16.747 -0.2454 -0.0500  0.6848
  223MPD1    C2 3385   0.407   0.794  16.805  1.0851 -0.1005  0.5284
  223MPD1    C3 3386   0.322   0.759  16.909  0.1528 -0.1877 -0.0860
  223MPD1    C4 3387   0.317   0.625  16.952 -0.4805 -0.1998  0.5023
  223MPD1    C5 3388   0.395   0.520  16.888  0.0251  0.3491 -0.4469
  223MPD1     H 3389   0.411   0.896  16.768 -1.3375  0.1246  0.8844
  223MPD1    H1 3390   0.248   0.584  17.025 -1.4608 -1.7916 -1.3356
  223MPD1    H2 3391   0.521   0.470  16.738  1.4846 -0.7106  2.0950
  223MPD1    H3 3392   0.390   0.414  16.911  0.0082  0.0876 -1.6429
  223MPD1     N 3393   0.239   0.861  16.955 -0.8739  0.1342 -0.6509
  223MPD1    H5 3394   0.260   0.949  16.908 -0.6880  1.5134  2.0147
  223MPD1    N1 3395   0.572   0.716  16.633  0.8216 -0.3162  0.4990
  223MPD1    H6 3396   0.621   0.805  16.627 -0.9637  0.5938 -0.4346
  223MPD1    H7 3397   0.648   0.647  16.631  1.2187  0.1568 -0.9222
  224MPD1     C 3398   3.043   1.977   9.279 -0.2031 -0.5793  0.4061
  224MPD1    C1 3399   2.958   2.082   9.248 -0.1223 -0.5790 -0.3108
  224MPD1    C2 3400   2.865   2.119   9.347 -0.4575  0.1783 -0.8074
  224MPD1    C3 3401   2.869   2.065   9.472  0.0555  0.0614 -0.1392
  224MPD1    C4 3402   2.947   1.958   9.503  0.2547  0.6822 -0.6363
  224MPD1    C5 3403   3.039   1.920   9.405 -0.1176  0.4592 -0.0740
  224MPD1     H 3404   2.793   2.197   9.327 -1.3388 -0.2702  0.5931
  224MPD1    H1 3405   2.927   1.910   9.598  0.2072  1.2734 -0.3468
  224MPD1    H2 3406   3.126   1.939   9.220  0.2154 -0.3870  0.8698
  224MPD1    H3 3407   3.108   1.838   9.423  1.4822  1.8902  0.3098
  224MPD1     N 3408   2.779   2.090   9.577 -0.5667  0.3651 -0.3116
  224MPD1    H5 3409   2.808   2.055   9.667 -0.1334 -1.1788 -1.0504
  224MPD1    N1 3410   2.940   2.129   9.116  0.3393 -0.6852 -1.0462
  224MPD1    H6 3411   2.909   2.227   9.117 -1.2082 -1.1615 -1.5979
  224MPD1    H7 3412   3.026   2.129   9.061 -0.1828  0.1699 -1.8692
  225MPD1     C 3413   3.332   4.018  12.356  0.2818 -0.6831 -0.1905
  225MPD1    C1 3414   3.236   3.958  12.439  0.4503 -0.0292 -0.4077
  225MPD1    C2 3415   3.110   3.909  12.380  0.3169  0.1987 -0.4243
  225MPD1    C3 3416   3.096   3.914  12.244  0.6669 -0.3527  0.0692
  225MPD1    C4 3417   3.196   3.974  12.167  0.2864 -0.3475 -0.4786
  225MPD1    C5 3418   3.313   4.020  12.226  0.0703 -0.4812  0.0887
  225MPD1     H 3419   3.028   3.876  12.442  2.2489 -0.9472  1.4945
  225MPD1    H1 3420   3.176   3.989  12.062 -0.9239  0.5071 -0.1308
  225MPD1    H2 3421   3.423   4.046  12.406  1.4084 -2.7881 -1.0585
  225MPD1    H3 3422   3.395   4.071  12.178 -1.3806  0.5343 -1.3208
  225MPD1     N 3423   2.974   3.876  12.181 -0.6227 -0.3232  0.7302
  225MPD1    H5 3424   2.965   3.913  12.087 -0.2548 -1.6743  0.1569
  225MPD1    N1 3425   3.245   3.971  12.584  0.2163 -0.6361  0.2811
  225MPD1    H6 3426   3.175   3.918  12.635 -0.1847 -1.1966 -0.8402
  225MPD1    H7 3427   3.336   3.984  12.629 -0.2416  1.2653  0.6350
  226MPD1     C 3428   1.996   1.923   9.782 -0.2440  0.3770  0.1740
  226MPD1    C1 3429   1.930   2.042   9.779 -0.0715 -0.2631  0.0009
  226MPD1    C2 3430   1.972   2.149   9.694 -0.2516 -0.3306  0.2602
  226MPD1    C3 3431   2.077   2.124   9.612 -0.3969 -0.1497 -0.3268
  226MPD1    C4 3432   2.136   1.997   9.617  0.5780  0.6253  0.3126
  226MPD1    C5 3433   2.088   1.892   9.692 -0.0392  0.8976  0.2933
  226MPD1     H 3434   1.929   2.248   9.698 -1.4016 -0.7922 -0.6466
  226MPD1    H1 3435   2.195   1.967   9.532  0.7136 -0.7682  0.9040
  226MPD1    H2 3436   1.975   1.850   9.859  1.5118  0.4342  0.7275
  226MPD1    H3 3437   2.137   1.797   9.672  2.6506  2.2603  0.3950
  226MPD1     N 3438   2.122   2.221   9.514 -0.2848  0.2149  0.0027
  226MPD1    H5 3439   2.077   2.312   9.508 -1.1440 -0.2238 -0.1918
  226MPD1    N1 3440   1.842   2.075   9.886 -0.2071 -0.0445  0.5052
  226MPD1    H6 3441   1.801   1.994   9.932 -0.4579 -0.2220 -0.0386
  226MPD1    H7 3442   1.763   2.135   9.867 -0.0829  0.4403  1.5250
  227MPD1     C 3443   1.772   2.733   8.739  0.2605  0.2218  0.8732
  227MPD1    C1 3444   1.896   2.784   8.738  0.6572  0.4138 -0.0369
  227MPD1    C2 3445   1.986   2.737   8.835  0.1849  0.6192 -0.5088
  227MPD1    C3 3446   1.951   2.652   8.937  0.0172  0.4431  0.1108
  227MPD1    C4 3447   1.820   2.611   8.948 -0.6675  0.7585 -0.0563
  227MPD1    C5 3448   1.734   2.660   8.850 -0.3814  0.0632 -0.0777
  227MPD1     H 3449   2.091   2.763   8.837  0.8639 -1.7608 -4.7856
  227MPD1    H1 3450   1.793   2.552   9.035  1.3109  0.2972  0.2368
  227MPD1    H2 3451   1.697   2.756   8.664  0.1750 -0.4444  0.7537
  227MPD1    H3 3452   1.628   2.645   8.869 -0.3366  0.5955  0.5818
  227MPD1     N 3453   2.046   2.595   9.024 -0.3780 -0.0512 -0.3477
  227MPD1    H5 3454   2.142   2.624   9.015 -0.3717  0.1367  0.3742
  227MPD1    N1 3455   1.953   2.848   8.628  0.0436  0.7171  0.1608
  227MPD1    H6 3456   1.878   2.905   8.589  1.4437  2.4054 -0.0368
  227MPD1    H7 3457   2.018   2.914   8.670  0.3118  0.0646  0.7934
  228MPD1     C 3458   4.389   1.785  11.602  0.1256  0.6314  0.1496
  228MPD1    C1 3459   4.339   1.669  11.560 -0.4137 -0.3294  0.0020
  228MPD1    C2 3460   4.280   1.588  11.657  0.4706 -0.4805  0.1186
  228MPD1    C3 3461   4.280   1.619  11.791 -0.2058 -0.5397 -0.4256
  228MPD1    C4 3462   4.343   1.734  11.836  0.2393  0.2299  0.1661
  228MPD1    C5 3463   4.400   1.814  11.739 -0.4238  0.2766  0.0020
  228MPD1     H 3464   4.209   1.510  11.632  2.5201 -2.1379 -0.5287
  228MPD1    H1 3465   4.356   1.771  11.937  1.3937 -1.4318  0.6336
  228MPD1    H2 3466   4.422   1.866  11.538  1.7326 -1.3531 -1.5447
  228MPD1    H3 3467   4.454   1.901  11.773 -0.8996  0.4815  0.2264
  228MPD1     N 3468   4.213   1.528  11.873 -0.2160 -1.4966 -0.0186
  228MPD1    H5 3469   4.159   1.455  11.828 -2.8033  0.7488 -0.5604
  228MPD1    N1 3470   4.318   1.642  11.421 -0.2909  0.1264  0.1597
  228MPD1    H6 3471   4.384   1.683  11.355 -2.6661  1.5800 -1.3349
  228MPD1    H7 3472   4.296   1.546  11.397 -1.6052  0.7811 -1.2788
  229MPD1     C 3473   3.374   0.701  14.697  0.7315 -0.1815  0.7101
  229MPD1    C1 3474   3.369   0.604  14.602  0.2069  0.0689 -0.5813
  229MPD1    C2 3475   3.405   0.468  14.643 -0.1100  0.5470  0.3655
  229MPD1    C3 3476   3.435   0.442  14.776 -0.6762  0.1946  0.8996
  229MPD1    C4 3477   3.446   0.555  14.863  0.4471  0.4975  0.5014
  229MPD1    C5 3478   3.418   0.680  14.826  1.1092 -0.8321  0.1312
  229MPD1     H 3479   3.394   0.393  14.566 -0.7429  0.5685  0.4396
  229MPD1    H1 3480   3.479   0.548  14.966 -0.7113  1.2235  0.9243
  229MPD1    H2 3481   3.345   0.799  14.662  1.5592  0.0668  0.7153
  229MPD1    H3 3482   3.415   0.763  14.896 -1.0029 -0.8039 -0.0142
  229MPD1     N 3483   3.465   0.311  14.824  0.0799  0.2581  0.1339
  229MPD1    H5 3484   3.492   0.310  14.921  3.1294  0.1058 -0.7055
  229MPD1    N1 3485   3.343   0.647  14.470 -0.4687  0.0515  0.3259
  229MPD1    H6 3486   3.291   0.734  14.464  0.4678  0.5993  0.0584
  229MPD1    H7 3487   3.297   0.570  14.422  1.3140 -2.0902  2.0578
  230MPD1     C 3488   3.972   4.704  15.574 -0.0514 -0.6540 -0.5826
  230MPD1    C1 3489   3.959   4.584  15.502 -0.7963 -0.6370  0.0671
  230MPD1    C2 3490   3.880   4.575  15.391  0.0699  0.0713  0.3397
  230MPD1    C3 3491   3.819   4.686  15.342 -0.5630  0.0172  0.3024
  230MPD1    C4 3492   3.826   0.083  15.417 -0.5591 -0.1577 -0.6673
  230MPD1    C5 3493   3.897   0.089  15.533 -0.3030 -0.7758 -0.7786
  230MPD1     H 3494   3.879   4.480  15.338  1.7949 -0.3115  0.9993
  230MPD1    H1 3495   3.781   0.177  15.391  2.5028  1.9977  1.8171
  230MPD1    H2 3496   4.032   4.704  15.665 -1.0331  0.2679  0.0675
  230MPD1    H3 3497   3.906   0.180  15.591  1.9092 -0.7255 -1.2141
  230MPD1     N 3498   3.742   4.674  15.218 -0.1579  0.4371  0.3137
  230MPD1    H5 3499   3.739   4.581  15.177  0.2346  1.0746 -1.1444
  230MPD1    N1 3500   4.023   4.466  15.550 -0.4693  0.5919  0.3226
  230MPD1    H6 3501   4.049   4.401  15.477  0.9323  0.3590  1.0390
  230MPD1    H7 3502   4.109   4.499  15.594 -0.1937  1.4870 -0.8882
  231MPD1     C 3503   1.851   1.873  15.414  0.5646  0.4677 -0.0802
  231MPD1    C1 3504   1.840   1.876  15.276  0.3530  0.2634 -0.0368
  231MPD1    C2 3505   1.962   1.872  15.206 -0.1333 -0.2144 -0.0757
  231MPD1    C3 3506   2.079   1.821  15.266 -0.3713 -0.3406 -0.7336
  231MPD1    C4 3507   2.071   1.808  15.401 -0.0095 -0.4231  0.0452
  231MPD1    C5 3508   1.967   1.835  15.470 -1.1763  0.0921 -0.3337
  231MPD1     H 3509   1.956   1.895  15.100 -0.3745 -0.5553 -0.1379
  231MPD1    H1 3510   2.156   1.768  15.455  0.4133 -0.1206 -0.3983
  231MPD1    H2 3511   1.768   1.885  15.483 -0.4252  2.3131 -1.5759
  231MPD1    H3 3512   1.976   1.806  15.574 -0.6345  0.0453 -0.3987
  231MPD1     N 3513   2.200   1.804  15.190  0.8345  0.5477  0.1286
  231MPD1    H5 3514   2.210   1.836  15.094 -0.2244 -0.9029 -0.4597
  231MPD1    N1 3515   1.726   1.914  15.213  0.2711  0.0984  0.1731
  231MPD1    H6 3516   1.720   1.869  15.122  0.3301  0.7914 -0.1766
  231MPD1    H7 3517   1.647   1.877  15.267 -0.7694  0.3441 -1.1778
  232MPD1     C 3518   0.717   3.081   0.425  0.1312  0.1662  0.5276
  232MPD1    C1 3519   0.699   3.177   0.521  0.1994  0.2059  0.3099
  232MPD1    C2 3520   0.580   3.244   0.529 -0.0190  0.6348  0.4717
  232MPD1    C3 3521   0.489   3.237   0.421  0.1106  0.3896  1.1066
  232MPD1    C4 3522   0.508   3.148   0.325 -0.5102 -0.6302  0.1882
  232MPD1    C5 3523   0.619   3.067   0.328  0.2801  0.4038 -0.9589
  232MPD1     H 3524   0.558   3.313   0.609  3.1066  1.4660  0.5867
  232MPD1    H1 3525   0.443   3.125   0.242  2.2698  1.0690 -2.4885
  232MPD1    H2 3526   0.808   3.022   0.417 -0.3501 -0.7407  1.6605
  232MPD1    H3 3527   0.633   2.991   0.252 -0.4702  0.3251 -1.0205
  232MPD1     N 3528   0.379   3.325   0.431 -0.4072  0.0607 -0.2000
  232MPD1    H5 3529   0.375   3.397   0.502 -0.2170  1.2753 -1.4207
  232MPD1    N1 3530   0.791   3.167   0.627 -0.0688  0.0931  0.5059
  232MPD1    H6 3531   0.784   3.256   0.677 -3.3632  0.2525 -0.2245
  232MPD1    H7 3532   0.887   3.155   0.595 -0.5003  0.6537 -0.9788
  233MPD1     C 3533   0.222   1.443   2.128 -0.3258  0.1900 -0.9471
  233MPD1    C1 3534   0.259   1.540   2.034 -0.0936 -0.0532 -0.6520
  233MPD1    C2 3535   0.366   1.612   2.066 -0.2578  0.2092  0.2882
  233MPD1    C3 3536   0.436   1.610   2.183 -0.0479  0.3367  0.5029
  233MPD1    C4 3537   0.401   1.515   2.275 -0.4408  0.8892 -0.5752
  233MPD1    C5 3538   0.293   1.432   2.246  0.0836 -0.7060 -0.0628
  233MPD1     H 3539   0.413   1.663   1.983 -2.1085  0.4121 -0.6274
  233MPD1    H1 3540   0.440   1.515   2.376 -1.9864 -0.4756  0.0125
  233MPD1    H2 3541   0.132   1.384   2.114 -0.1682 -0.4935  1.0147
  233MPD1    H3 3542   0.259   1.367   2.326 -0.4267 -0.8201 -0.3737
  233MPD1     N 3543   0.532   1.709   2.221 -0.1177 -0.2328  0.3701
  233MPD1    H5 3544   0.574   1.695   2.312 -0.6252 -0.5434  0.5542
  233MPD1    N1 3545   0.204   1.536   1.907  0.1176 -0.4222  0.2756
  233MPD1    H6 3546   0.109   1.501   1.915  0.3081 -1.3675 -1.8337
  233MPD1    H7 3547   0.226   1.621   1.855  1.5849  0.4216  2.2862
  234MPD1     C 3548   2.492   0.505  10.320  0.5561 -0.7586  0.0281
  234MPD1    C1 3549   2.451   0.629  10.368  0.2172 -0.1043  0.3259
  234MPD1    C2 3550   2.424   0.728  10.278 -0.0472  0.9482  0.3310
  234MPD1    C3 3551   2.456   0.718  10.147  0.6669 -0.4648  0.2702
  234MPD1    C4 3552   2.503   0.593  10.096 -0.6333  0.3961 -0.7450
  234MPD1    C5 3553   2.530   0.500  10.186  0.2418  0.2876  0.3846
  234MPD1     H 3554   2.386   0.819  10.323  0.7210  1.9511 -1.0320
  234MPD1    H1 3555   2.521   0.577   9.991 -0.5751 -0.8348 -0.5372
  234MPD1    H2 3556   2.524   0.427  10.389  1.6131  0.7538  1.2568
  234MPD1    H3 3557   2.562   0.400  10.160  1.9552  0.6034  1.2362
  234MPD1     N 3558   2.429   0.831  10.071 -0.4826 -0.3608 -0.1924
  234MPD1    H5 3559   2.402   0.916  10.119  0.6600  1.2071 -2.3082
  234MPD1    N1 3560   2.424   0.642  10.507 -0.4171  0.2180 -0.2195
  234MPD1    H6 3561   2.440   0.560  10.566 -1.7273 -1.7155 -2.5441
  234MPD1    H7 3562   2.439   0.730  10.556 -3.5802  0.0935  0.9767
  235MPD1     C 3563   4.067   0.383   9.060  0.1802  1.0019  0.5665
  235MPD1    C1 3564   4.196   0.358   9.102  0.1409 -0.2632  0.0933
  235MPD1    C2 3565   4.244   0.226   9.098 -0.2438 -0.1761  0.4717
  235MPD1    C3 3566   4.163   0.122   9.081  0.6939 -0.9904 -0.0579
  235MPD1    C4 3567   4.032   0.145   9.041  0.0987  0.2513 -0.0646
  235MPD1    C5 3568   3.987   0.276   9.038 -0.3007 -0.6069  0.7205
  235MPD1     H 3569   4.349   0.205   9.112 -0.2305 -0.3354  0.1135
  235MPD1    H1 3570   3.961   0.064   9.027  1.0791 -0.1725 -2.7280
  235MPD1    H2 3571   4.023   0.480   9.044  0.3694  0.9946  0.0143
  235MPD1    H3 3572   3.890   0.281   8.989 -0.0068  0.8271  0.2937
  235MPD1     N 3573   4.209   4.714   9.086  0.3757  0.0789 -0.2613
  235MPD1    H5 3574   4.304   4.698   9.117 -0.9902 -3.6347  1.9700
  235MPD1    N1 3575   4.283   0.463   9.110  0.7865  0.4275 -0.4371
  235MPD1    H6 3576   4.243   0.549   9.148 -1.1255 -0.6986  0.0836
  235MPD1    H7 3577   4.351   0.434   9.180 -1.7232  0.2278  1.8804
  236MPD1     C 3578   3.470   4.312   9.279  0.0743  0.6854  0.3732
  236MPD1    C1 3579   3.388   4.369   9.373 -0.2674 -0.4275 -0.3770
  236MPD1    C2 3580   3.432   4.431   9.491  0.1610 -0.0654 -0.2068
  236MPD1    C3 3581   3.567   4.417   9.524 -0.1653  0.9091 -0.4634
  236MPD1    C4 3582   3.641   4.343   9.439  0.7014 -0.4422  0.2886
  236MPD1    C5 3583   3.601   4.299   9.322 -0.3260 -0.3723 -0.0445
  236MPD1     H 3584   3.359   4.486   9.550  1.5425  2.3758 -0.7671
  236MPD1    H1 3585   3.747   4.332   9.460  0.9410  2.4727  0.5520
  236MPD1    H2 3586   3.439   4.272   9.183  0.2675  3.2762 -0.7544
  236MPD1    H3 3587   3.668   4.263   9.244 -1.3342  1.5945 -1.8103
  236MPD1     N 3588   3.633   4.485   9.621 -0.0767  0.3451  0.8110
  236MPD1    H5 3589   3.732   4.466   9.636  0.1204  1.6680  1.1365
  236MPD1    N1 3590   3.260   4.393   9.330  0.7015  0.0966  0.3064
  236MPD1    H6 3591   3.193   4.396   9.407 -0.1449  0.6518 -0.4496
  236MPD1    H7 3592   3.233   4.319   9.266 -2.7060  0.6189  1.1597
  237MPD1     C 3593   2.721   2.326  15.584 -0.5313 -0.2344 -0.5300
  237MPD1    C1 3594   2.703   2.458  15.628 -0.1177 -0.0781 -0.4018
  237MPD1    C2 3595   2.608   2.538  15.568  0.3262  0.4763 -0.5788
  237MPD1    C3 3596   2.537   2.496  15.455 -0.0392 -0.1388 -0.0109
  237MPD1    C4 3597   2.566   2.370  15.406  0.5423  0.3558  0.4962
  237MPD1    C5 3598   2.653   2.286  15.471  0.5380 -0.1569 -0.1628
  237MPD1     H 3599   2.590   2.635  15.612  0.0612 -0.6394  1.7977
  237MPD1    H1 3600   2.518   2.334  15.315 -1.6957 -0.3481  1.9518
  237MPD1    H2 3601   2.796   2.258  15.623 -2.0047 -2.6292 -1.8565
  237MPD1    H3 3602   2.677   2.187  15.435 -2.9916 -0.3678 -1.8990
  237MPD1     N 3603   2.446   2.579  15.387 -0.0978  0.0613  0.0528
  237MPD1    H5 3604   2.419   2.546  15.295  0.3039  1.6515 -0.6289
  237MPD1    N1 3605   2.756   2.497  15.751 -0.2753  0.1103 -0.1200
  237MPD1    H6 3606   2.759   2.597  15.771  3.6613 -0.4840  2.2838
  237MPD1    H7 3607   2.845   2.455  15.778 -0.9298 -0.9090  0.4562
  238MPD1     C 3608   4.555   1.642  14.862  0.1030 -0.3994 -0.5521
  238MPD1    C1 3609   4.506   1.552  14.949 -0.6320 -0.6969 -0.6237
  238MPD1    C2 3610   4.379   1.507  14.939 -0.4146  0.1178  0.6077
  238MPD1    C3 3611   4.298   1.556  14.841  0.0667  0.0553  0.5027
  238MPD1    C4 3612   4.338   1.658  14.757  0.0673  0.0048  0.1111
  238MPD1    C5 3613   4.470   1.704  14.771  0.7291  0.1073  0.1369
  238MPD1     H 3614   4.343   1.433  15.010 -2.0474 -0.0748 -0.4236
  238MPD1    H1 3615   4.271   1.702  14.684  0.1902 -0.4230 -0.2601
  238MPD1    H2 3616   4.661   1.662  14.865 -0.9150  4.5456  2.3393
  238MPD1    H3 3617   4.503   1.778  14.699 -0.1150  0.3278 -0.0131
  238MPD1     N 3618   4.165   1.514  14.826 -0.1626  0.7657  0.1891
  238MPD1    H5 3619   4.117   1.554  14.746  3.6637 -0.1423 -2.5941
  238MPD1    N1 3620   4.585   1.505  15.052 -0.5722  0.6621  0.3767
  238MPD1    H6 3621   4.539   1.425  15.093  1.5854 -0.8939 -0.2466
  238MPD1    H7 3622   4.677   1.482  15.014 -1.2948  0.5975 -1.3564
  239MPD1     C 3623   4.319   1.981  15.185  0.1893  0.4135  0.4091
  239MPD1    C1 3624   4.391   1.947  15.076 -0.7308  0.2691  0.3351
  239MPD1    C2 3625   4.404   2.049  14.980  0.2158  0.0411  0.2891
  239MPD1    C3 3626   4.324   2.160  14.969 -0.0948  0.1880  0.1428
  239MPD1    C4 3627   4.250   2.183  15.081 -0.1590 -0.4381  0.1701
  239MPD1    C5 3628   4.246   2.095  15.183  0.1665  0.1586  0.3551
  239MPD1     H 3629   4.483   2.039  14.906 -0.3501  0.5993 -0.3935
  239MPD1    H1 3630   4.177   2.264  15.078  0.1128 -0.3140 -3.3185
  239MPD1    H2 3631   4.330   1.919  15.274 -0.5166 -0.1146  0.1203
  239MPD1    H3 3632   4.189   2.116  15.272 -0.0729  2.1131 -0.2587
  239MPD1     N 3633   4.318   2.249  14.860  0.5345 -0.5121 -0.1638
  239MPD1    H5 3634   4.258   2.330  14.876  2.5934  1.0695 -0.4402
  239MPD1    N1 3635   4.479   1.841  15.093  0.3496 -0.2240  0.4738
  239MPD1    H6 3636   4.517   1.789  15.014 -0.3824  0.1540 -0.1329
  239MPD1    H7 3637   4.436   1.772  15.154 -0.1570  0.4006  0.8230
  240MPD1     C 3638   4.256   1.924  13.853 -0.0758  0.1025  0.0655
  240MPD1    C1 3639   4.307   1.846  13.952 -0.4474  0.0678 -0.4272
  240MPD1    C2 3640   4.227   1.811  14.061 -0.4571  0.3036 -0.7735
  240MPD1    C3 3641   4.092   1.857  14.075  0.1867  0.5452  0.0741
  240MPD1    C4 3642   4.046   1.934  13.971 -0.0952  0.4634 -0.3134
  240MPD1    C5 3643   4.122   1.962  13.866  0.7913 -0.3076 -0.5625
  240MPD1     H 3644   4.266   1.748  14.141  1.5008 -0.9521 -2.7106
  240MPD1    H1 3645   3.952   1.987  13.981  0.0261  0.7370 -0.6310
  240MPD1    H2 3646   4.301   1.964  13.763  1.6057 -2.1298 -0.0866
  240MPD1    H3 3647   4.082   2.035  13.798 -0.6564 -0.7528 -0.1872
  240MPD1     N 3648   4.008   1.821  14.186 -0.5160  0.2311  0.4683
  240MPD1    H5 3649   4.053   1.775  14.264 -1.2887 -1.8164 -0.2628
  240MPD1    N1 3650   4.431   1.787  13.922 -0.4236  0.8151  0.1954
  240MPD1    H6 3651   4.482   1.742  13.997  0.3693  0.7590 -0.3713
  240MPD1    H7 3652   4.501   1.839  13.869 -0.4535  2.5080  1.8349
  241MPD1     C 3653   3.851   1.646  15.158  0.5778 -0.0394 -0.1021
  241MPD1    C1 3654   3.946   1.708  15.077  0.5109  0.0520  0.4079
  241MPD1    C2 3655   3.926   1.717  14.941  0.1324 -0.6163 -0.3311
  241MPD1    C3 3656   3.793   1.707  14.893  0.2373 -0.7510 -0.7209
  241MPD1    C4 3657   3.697   1.660  14.976  0.2330  0.0126  0.2301
  241MPD1    C5 3658   3.730   1.624  15.107  0.4476 -0.3335 -0.2440
  241MPD1     H 3659   4.005   1.749  14.875 -2.4025  0.5439 -2.8252
  241MPD1    H1 3660   3.596   1.641  14.942 -0.7303  0.3432  2.8731
  241MPD1    H2 3661   3.869   1.626  15.263  0.8577  1.6383  0.1812
  241MPD1    H3 3662   3.652   1.592  15.175  0.8498 -1.3866 -0.2767
  241MPD1     N 3663   3.756   1.713  14.759  0.3461 -0.3355 -0.4902
  241MPD1    H5 3664   3.658   1.729  14.737  0.7614 -0.8196 -2.7477
  241MPD1    N1 3665   4.070   1.740  15.130  0.1211  0.5212  0.2910
  241MPD1    H6 3666   4.079   1.772  15.227 -0.1138  0.6370  0.2738
  241MPD1    H7 3667   4.137   1.785  15.068  0.1314  1.6612  1.1328
  242MPD1     C 3668   2.668   0.478  15.798  0.2588 -0.0320 -0.5634
  242MPD1    C1 3669   2.627   0.575  15.710 -0.3106 -1.0300 -0.0996
  242MPD1    C2 3670   2.722   0.591  15.608 -0.0808 -0.0056  0.1038
  242MPD1    C3 3671   2.834   0.512  15.584 -0.7489  0.1675 -0.6904
  242MPD1    C4 3672   2.866   0.413  15.678  0.1001 -0.3334  0.5812
  242MPD1    C5 3673   2.776   0.395  15.779 -1.0894  0.8424 -0.3795
  242MPD1     H 3674   2.703   0.665  15.531  0.5778 -0.0572 -0.1099
  242MPD1    H1 3675   2.950   0.346  15.664  0.9367  1.1363 -1.5657
  242MPD1    H2 3676   2.616   0.474  15.893  3.8314  1.1199  1.4544
  242MPD1    H3 3677   2.794   0.315  15.850 -0.6159 -0.9627 -2.5176
  242MPD1     N 3678   2.915   0.527  15.473 -0.3462 -0.1442 -0.0452
  242MPD1    H5 3679   3.007   0.483  15.473 -0.7644 -1.0171 -1.9224
  242MPD1    N1 3680   2.541   0.671  15.748 -0.4086  0.3028  0.5190
  242MPD1    H6 3681   2.466   0.633  15.806 -1.2124  1.0167 -0.0482
  242MPD1    H7 3682   2.503   0.739  15.683  0.3331  0.0892 -0.1238
  243MPD1     C 3683   1.483   3.900  17.406  0.6958  0.2662 -0.7310
  243MPD1    C1 3684   1.451   3.945  17.282 -0.0830 -0.0749  0.0917
  243MPD1    C2 3685   1.314   3.982  17.269  0.6423 -0.4132  0.0016
  243MPD1    C3 3686   1.233   3.995  17.380 -0.5133  0.3414  0.2613
  243MPD1    C4 3687   1.282   3.985  17.506 -0.2195 -0.1778  0.3969
  243MPD1    C5 3688   1.406   3.938  17.519  0.2202 -0.7816 -0.4475
  243MPD1     H 3689   1.257   3.997  17.178  0.2094 -1.4912  0.0948
  243MPD1    H1 3690   1.234   4.001  17.602 -0.1967  2.2128  0.0117
  243MPD1    H2 3691   1.577   3.851  17.426 -0.3280 -0.0438  3.3378
  243MPD1    H3 3692   1.451   3.918  17.616 -1.6345  1.7744  0.9394
  243MPD1     N 3693   1.098   4.034  17.354 -0.1357  0.0233  0.6710
  243MPD1    H5 3694   1.063   4.036  17.259  0.3944  2.1210  0.5218
  243MPD1    N1 3695   1.530   3.913  17.169 -0.1084 -0.2588 -0.6108
  243MPD1    H6 3696   1.511   3.982  17.096  0.8758  2.0000  1.2712
  243MPD1    H7 3697   1.631   3.910  17.185 -0.0761  0.2653 -0.7208
  244MPD1     C 3698   0.065   3.919   0.004  0.0401  0.3079 -0.2245
  244MPD1    C1 3699   0.063   3.946  17.558 -0.0019 -0.0533  1.3494
  244MPD1    C2 3700   0.179   3.961  17.489 -0.0703  0.0183  0.1581
  244MPD1    C3 3701   0.295   3.978  17.559 -0.3042 -0.0532  0.0296
  244MPD1    C4 3702   0.291   3.973   0.005  0.1591 -0.4398 -0.1608
  244MPD1    C5 3703   0.183   3.931   0.069 -0.3941  0.2381 -0.2469
  244MPD1     H 3704   0.180   3.965  17.381  0.3136  1.1286  0.2007
  244MPD1    H1 3705   0.376   3.988   0.071 -0.8151 -3.1158  1.6917
  244MPD1    H2 3706   4.706   3.879   0.064 -0.1084  1.0218  0.0512
  244MPD1    H3 3707   0.185   3.901   0.173  2.1067 -1.3008 -0.7407
  244MPD1     N 3708   0.412   4.003  17.482  0.1900  0.5938 -0.2458
  244MPD1    H5 3709   0.404   4.003  17.380 -0.1820  1.4386 -0.2100
  244MPD1    N1 3710   4.670   3.912  17.484  0.6897 -0.0733  0.3544
  244MPD1    H6 3711   4.585   3.941  17.534  0.2237 -3.2746  1.3909
  244MPD1    H7 3712   4.659   3.961  17.395 -0.9202  1.3709  1.3357
  245MPD1     C 3713   2.481   4.204  12.821  0.4372  0.2063  0.0280
  245MPD1    C1 3714   2.578   4.247  12.919  0.5934 -0.3053 -0.3588
  245MPD1    C2 3715   2.542   4.359  13.001  0.4248  0.0730 -0.3712
  245MPD1    C3 3716   2.429   4.436  12.975  0.3652  0.4311  0.9471
  245MPD1    C4 3717   2.339   4.389  12.877 -0.3911  0.0659 -0.3256
  245MPD1    C5 3718   2.374   4.282  12.796 -0.3924  0.4131  0.8022
  245MPD1     H 3719   2.612   4.377  13.081  0.3506  0.2478 -0.3456
  245MPD1    H1 3720   2.242   4.436  12.870 -0.8412 -0.7248  0.5702
  245MPD1    H2 3721   2.491   4.122  12.750  0.5068 -0.7686  1.1584
  245MPD1    H3 3722   2.308   4.254  12.715  0.4591  0.0804  0.2236
  245MPD1     N 3723   2.406   4.540  13.062 -0.0449 -0.0822  0.1367
  245MPD1    H5 3724   2.475   4.550  13.135  2.4837 -0.4153 -2.2057
  245MPD1    N1 3725   2.681   4.157  12.961 -0.5323 -0.4798  0.0595
  245MPD1    H6 3726   2.710   4.104  12.879  0.1159 -0.0458  0.0101
  245MPD1    H7 3727   2.762   4.207  12.995 -0.7187 -0.2647  0.1848
  246MPD1     C 3728   4.331   3.222   8.521 -0.9288  0.5827 -0.1102
  246MPD1    C1 3729   4.278   3.297   8.422  0.4840 -0.9153 -0.3242
  246MPD1    C2 3730   4.241   3.426   8.453  0.0342  0.2257  0.0574
  246MPD1    C3 3731   4.246   3.477   8.579 -0.4067 -0.2252  0.0908
  246MPD1    C4 3732   4.298   3.401   8.682 -0.4693 -0.6117  0.1590
  246MPD1    C5 3733   4.343   3.273   8.647 -0.2696 -0.0418 -0.2623
  246MPD1     H 3734   4.198   3.485   8.373 -0.1252 -1.1279 -0.8567
  246MPD1    H1 3735   4.283   3.422   8.787 -0.2677  0.7236 -0.0842
  246MPD1    H2 3736   4.376   3.124   8.505 -1.8220  0.3579 -1.2870
  246MPD1    H3 3737   4.366   3.208   8.731  1.6993  0.5835 -0.3215
  246MPD1     N 3738   4.187   3.599   8.587 -0.1913  0.2213 -0.0050
  246MPD1    H5 3739   4.144   3.638   8.504 -1.8658 -2.2532 -0.2969
  246MPD1    N1 3740   4.250   3.236   8.296  0.3867  0.3140  0.4253
  246MPD1    H6 3741   4.245   3.301   8.218  0.2936  1.4928  1.4241
  246MPD1    H7 3742   4.315   3.160   8.276  1.7905  2.1621 -2.0503
  247MPD1     C 3743   1.558   0.655  16.704  0.1781 -0.2803 -0.8156
  247MPD1    C1 3744   1.683   0.591  16.693  0.0893 -0.3442 -0.1566
  247MPD1    C2 3745   1.690   0.458  16.733 -0.3675 -0.4284  0.2973
  247MPD1    C3 3746   1.583   0.382  16.761 -0.2731 -0.2018 -0.9535
  247MPD1    C4 3747   1.463   0.441  16.772  0.2123 -0.2845  0.3164
  247MPD1    C5 3748   1.451   0.581  16.756 -0.4870  0.5030 -0.3708
  247MPD1     H 3749   1.790   0.417  16.733  0.7694  2.3633 -0.5348
  247MPD1    H1 3750   1.377   0.379  16.790  1.2810 -1.4330  1.4777
  247MPD1    H2 3751   1.544   0.761  16.684 -0.1096 -0.1717 -0.0348
  247MPD1    H3 3752   1.357   0.634  16.759 -1.6125 -1.4505 -1.1627
  247MPD1     N 3753   1.582   0.243  16.792  0.6266 -0.1147  0.0920
  247MPD1    H5 3754   1.492   0.202  16.817  0.4178 -1.2417 -2.5573
  247MPD1    N1 3755   1.798   0.657  16.676  0.1044  0.0718  0.5445
  247MPD1    H6 3756   1.788   0.751  16.638  1.5156 -0.6193 -1.5728
  247MPD1    H7 3757   1.866   0.605  16.620 -0.0453  1.0853 -0.5713
  248MPD1     C 3758   2.170   3.309   0.466  0.1734  0.1278 -0.6256
  248MPD1    C1 3759   2.302   3.310   0.446 -0.8131 -0.2674  0.2852
  248MPD1    C2 3760   2.355   3.433   0.422  0.4158  0.1202  0.3202
  248MPD1    C3 3761   2.269   3.545   0.398  0.4005  0.1644  0.0378
  248MPD1    C4 3762   2.132   3.532   0.407 -0.4357 -0.1808 -0.7838
  248MPD1    C5 3763   2.082   3.405   0.433 -0.0985 -0.0833  0.8103
  248MPD1     H 3764   2.462   3.443   0.415  0.1919  2.2630  0.0292
  248MPD1    H1 3765   2.060   3.613   0.400 -1.6882 -1.3042 -1.0802
  248MPD1    H2 3766   2.127   3.211   0.485 -1.4655  0.5497 -2.2262
  248MPD1    H3 3767   1.974   3.392   0.442 -0.4525  2.6055  0.5135
  248MPD1     N 3768   2.339   3.672   0.375 -0.3308 -0.0133  0.1843
  248MPD1    H5 3769   2.440   3.669   0.375 -0.3842 -2.2724  0.9905
  248MPD1    N1 3770   2.389   3.200   0.476 -0.1299 -0.4630 -0.4128
  248MPD1    H6 3771   2.459   3.193   0.402  0.9240  1.2612  0.4124
  248MPD1    H7 3772   2.341   3.111   0.486  0.2546 -0.7383 -1.0321
  249MPD1     C 3773   0.399   2.336  10.172 -0.3895 -0.2561 -0.7383
  249MPD1    C1 3774   0.515   2.357  10.102  0.8505 -0.1867  0.0194
  249MPD1    C2 3775   0.546   2.488  10.061  0.4035 -0.3596 -0.1296
  249MPD1    C3 3776   0.460   2.593  10.082  0.2287 -0.5704  0.6214
  249MPD1    C4 3777   0.339   2.569  10.140  0.5842 -0.3587  0.1910
  249MPD1    C5 3778   0.308   2.439  10.183  0.6536 -0.3800 -0.0933
  249MPD1     H 3779   0.644   2.505  10.018 -0.5605  1.2532 -1.6979
  249MPD1    H1 3780   0.274   2.654  10.155 -0.7850 -1.0840 -1.6673
  249MPD1    H2 3781   0.371   2.237  10.207 -1.2596  0.1581 -0.2506
  249MPD1    H3 3782   0.211   2.419  10.227 -1.2801 -0.4907 -4.4790
  249MPD1     N 3783   0.502   2.723  10.037 -0.5996 -0.2339  0.3747
  249MPD1    H5 3784   0.594   2.729   9.995 -1.0962  0.3664 -0.6351
  249MPD1    N1 3785   0.601   2.249  10.087 -0.1900  0.1516 -0.4659
  249MPD1    H6 3786   0.608   2.200  10.176 -1.3524  1.1321  0.1597
  249MPD1    H7 3787   0.697   2.281  10.078 -0.1747  0.3828  0.5805
  250MPD2     C 3788   0.245   2.887  12.995 -0.3489 -0.1033 -0.2297
  250MPD2    C1 3789   0.334   2.943  12.901  0.2119 -0.6231 -0.9701
  250MPD2    C2 3790   0.306   2.943  12.765 -0.7437 -0.1224  0.2407
  250MPD2    C3 3791   0.202   2.852  12.721 -0.2719 -0.3610 -0.0248
  250MPD2    C4 3792   0.116   2.792  12.816 -0.1950  0.4118 -0.2081
  250MPD2    C5 3793   0.138   2.814  12.951  0.4831 -0.3542 -0.0468
  250MPD2     H 3794   0.378   2.983  12.693 -0.6462  1.0391  0.9859
  250MPD2    H1 3795   0.036   2.725  12.786 -0.8462  0.8091  0.6420
  250MPD2    H2 3796   0.265   2.881  13.101  1.1111  0.0076 -0.4907
  250MPD2    H3 3797   0.063   2.780  13.021 -0.4872  2.0155  0.0876
  250MPD2     N 3798   0.189   2.810  12.583 -0.0574 -0.2092  0.6769
  250MPD2    H5 3799   0.131   2.729  12.562  0.8456 -0.8175  0.5093
  250MPD2    N1 3800   0.441   3.006  12.965 -0.4967  0.3911  0.6354
  250MPD2    H7 3801   0.431   3.037  13.061 -0.3341  1.7965  0.1974
  251TMC3    C1 3802   0.604   3.167  12.982 -0.8328  0.1640  0.3561
  251TMC3    C2 3803   0.512   3.268  12.987 -0.0398  0.2705  0.6659
  251TMC3    C3 3804   0.561   3.401  12.967  0.3456 -0.0954 -0.8269
  251TMC3    C4 3805   0.738   3.199  12.957  0.3198 -0.2723  0.0552
  251TMC3    C5 3806   0.779   3.333  12.967  0.8379  0.3684 -0.4707
  251TMC3    C6 3807   0.693   3.433  12.959 -0.2417 -0.5582  0.3073
  251TMC3     C 3808   0.551   3.055  12.903  0.0673  0.2608  0.1608
  251TMC3     O 3809   0.595   3.036  12.790 -0.3480 -0.2924  0.3210
  251TMC3     H 3810   0.406   3.243  12.986 -0.3521  1.5952  0.4128
  251TMC3    H1 3811   0.821   3.129  12.960  1.7483  1.3179 -2.3679
  251TMC3    H2 3812   0.731   3.535  12.951  2.6751 -1.4130  3.1748
  251TMC3    C7 3813   0.870   3.359  13.072  0.8300 -0.2681  1.1744
  251TMC3    C8 3814   0.478   3.515  13.002 -1.0278  0.3178 -0.1578
  251TMC3    O1 3815   0.831   3.442  13.158  0.6378 -0.2771 -0.3094
  251TMC3    O2 3816   0.535   3.619  13.034  0.3130 -0.1781  0.2862
  252TMC3    C1 3817   2.350   3.760   8.945  0.1579 -0.2525  0.3351
  252TMC3    C2 3818   2.410   3.874   8.896  0.2373 -0.3934  0.6983
  252TMC3    C3 3819   2.363   3.916   8.776 -0.6983 -0.1192 -0.6249
  252TMC3    C4 3820   2.260   3.685   8.871 -0.4595  0.9099 -0.5761
  252TMC3    C5 3821   2.224   3.733   8.752 -0.3201 -0.1905  0.5604
  252TMC3    C6 3822   2.270   3.850   8.698  0.0660 -0.2469  0.0585
  252TMC3     C 3823   2.423   3.676   9.043 -0.8365  0.5262  0.1100
  252TMC3     O 3824   2.413   3.552   9.038 -0.2535  0.4048 -0.3337
  252TMC3     H 3825   2.508   3.904   8.931  0.2251 -0.5782  0.8874
  252TMC3    H1 3826   2.226   3.592   8.915 -1.1698  0.5743 -1.8494
  252TMC3    H2 3827   2.248   3.889   8.599 -1.1510 -1.2467 -0.0679
  252TMC3    C7 3828   2.123   3.661   8.674  0.6801  0.9812 -0.2456
  252TMC3    C8 3829   2.387   4.049   8.737 -0.0012  0.8820 -0.3817
  252TMC3    O1 3830   2.081   3.730   8.582  0.1182  0.3735  0.3583
  252TMC3    O2 3831   2.368   4.074   8.616  0.0934  0.0518  0.4107
  253MPD2     C 3832   1.746   3.613  16.155 -0.8760 -0.4231  0.1204
  253MPD2    C1 3833   1.693   3.508  16.085  0.4391  0.2166  0.1272
  253MPD2    C2 3834   1.749   3.383  16.100  0.3717  0.4570 -1.0301
  253MPD2    C3 3835   1.854   3.360  16.186  0.0630  0.3425  0.8608
  253MPD2    C4 3836   1.899   3.466  16.264  0.4238 -0.3643  0.4271
  253MPD2    C5 3837   1.846   3.592  16.242  0.0884 -0.2411 -0.8335
  253MPD2     H 3838   1.720   3.299  16.038 -0.5848  0.0880 -0.0968
  253MPD2    H1 3839   1.984   3.452  16.331 -1.3052  0.2199  2.7167
  253MPD2    H2 3840   1.705   3.713  16.146  0.5077 -0.1242 -3.1034
  253MPD2    H3 3841   1.892   3.680  16.285  1.4146 -1.0944 -0.5048
  253MPD2     N 3842   1.910   3.227  16.190  0.4856  0.4804 -0.1530
  253MPD2    H5 3843   1.870   3.151  16.137  0.7576 -0.2021  0.6241
  253MPD2    N1 3844   1.591   3.532  15.990 -0.4311 -0.3057 -0.6836
  253MPD2    H7 3845   1.548   3.462  15.930 -1.9753  0.9413 -1.0221
  254TMC3    C1 3846   2.049   3.046  16.263 -0.0325  0.5818 -0.2443
  254TMC3    C2 3847   1.961   2.951  16.215 -0.5927  0.0580 -0.2497
  254TMC3    C3 3848   1.970   2.824  16.255 -0.0580 -0.4684 -0.3803
  254TMC3    C4 3849   2.153   3.008  16.338 -0.3728 -0.2607  0.1064
  254TMC3    C5 3850   2.168   2.884  16.376  0.1904 -0.4403 -0.4194
  254TMC3    C6 3851   2.078   2.792  16.332  0.4907  0.5615 -0.4794
  254TMC3     C 3852   2.016   3.185  16.268 -0.1762 -0.2472 -0.4089
  254TMC3     O 3853   2.088   3.249  16.343 -0.0812  0.2812  0.4734
  254TMC3     H 3854   1.886   2.978  16.141 -1.4088 -2.8552 -0.4902
  254TMC3    H1 3855   2.220   3.084  16.378 -0.4052 -0.0541 -0.2274
  254TMC3    H2 3856   2.096   2.690  16.363  0.1568  0.7024  0.1685
  254TMC3    C7 3857   2.219   2.875  16.508  0.0878  0.9009  0.0492
  254TMC3    C8 3858   1.848   2.753  16.286  0.2184 -1.2877 -0.7482
  254TMC3    O1 3859   2.180   2.959  16.584  0.0197  0.0089  0.5323
  254TMC3    O2 3860   1.857   2.657  16.365 -0.2946  0.0085 -0.1264
  255MPD2     C 3861   0.286   1.122  10.314  1.1354 -0.1223  1.0128
  255MPD2    C1 3862   0.381   1.227  10.339 -0.6370 -0.5628 -0.2134
  255MPD2    C2 3863   0.488   1.197  10.421  0.0569  0.4395 -0.5617
  255MPD2    C3 3864   0.510   1.067  10.469  0.1604 -0.6149 -0.1368
  255MPD2    C4 3865   0.429   0.966  10.433  0.0449  0.1593 -0.4759
  255MPD2    C5 3866   0.317   0.995  10.355  0.0339 -0.8662  0.3451
  255MPD2     H 3867   0.561   1.272  10.448  0.2036 -0.0133  0.3276
  255MPD2    H1 3868   0.443   0.863  10.465  1.1889 -0.5003 -3.1096
  255MPD2    H2 3869   0.202   1.145  10.250  0.7368 -0.3430  1.4583
  255MPD2    H3 3870   0.243   0.922  10.324  0.0385 -0.2299 -1.2032
  255MPD2     N 3871   0.610   1.059  10.569  0.2287  0.8872 -0.7297
  255MPD2    H5 3872   0.644   1.147  10.605  0.8600  0.8975 -1.3466
  255MPD2    N1 3873   0.349   1.357  10.293  0.3379  0.3366  0.1698
  255MPD2    H7 3874   0.279   1.363  10.220  2.3041 -0.9533 -1.7921
  256TMC3    C1 3875   0.377   1.586  10.270 -0.5975  0.3318 -0.1497
  256TMC3    C2 3876   0.475   1.639  10.198 -0.0211 -0.1564  0.2203
  256TMC3    C3 3877   0.450   1.729  10.093 -0.2548  0.1179 -0.2229
  256TMC3    C4 3878   0.243   1.610  10.250 -0.6795 -0.9821 -0.0743
  256TMC3    C5 3879   0.213   1.689  10.140  0.0081  0.6274  0.1015
  256TMC3    C6 3880   0.317   1.754  10.072  0.0856  0.3140 -0.3115
  256TMC3     C 3881   0.406   1.471  10.347  0.4371  0.2016 -0.0992
  256TMC3     O 3882   0.492   1.483  10.434 -0.2448  0.1736 -0.5392
  256TMC3     H 3883   0.577   1.609  10.218 -0.6489 -2.0247  0.5940
  256TMC3    H1 3884   0.162   1.565  10.305 -1.6971  1.4259  0.3920
  256TMC3    H2 3885   0.303   1.815   9.984  0.6788 -0.2293 -0.7903
  256TMC3    C7 3886   0.073   1.697  10.096  1.0488  1.4905 -0.0544
  256TMC3    C8 3887   0.521   1.692   9.975  0.1663  0.2610  0.1411
  256TMC3    O1 3888   4.712   1.716  10.182  0.4168 -0.0838  0.5506
  256TMC3    O2 3889   0.575   1.581   9.977  0.1276 -0.1758  0.2386
  257MPD2     C 3890   4.202   3.211  13.189  0.9770 -0.6706 -0.1705
  257MPD2    C1 3891   4.206   3.125  13.080  0.4829 -0.1766 -0.5511
  257MPD2    C2 3892   4.174   2.991  13.101  0.3305  0.0723 -0.3181
  257MPD2    C3 3893   4.130   2.953  13.230  0.7745 -0.4385 -0.4841
  257MPD2    C4 3894   4.122   3.048  13.334  0.2533 -0.1727 -0.9610
  257MPD2    C5 3895   4.163   3.175  13.311 -0.0489 -0.0828 -0.4043
  257MPD2     H 3896   4.175   2.923  13.016 -0.9192 -0.8314  0.3905
  257MPD2    H1 3897   4.104   3.019  13.437  0.6136  1.1916 -0.5093
  257MPD2    H2 3898   4.230   3.315  13.179 -0.7126 -0.2881 -0.9270
  257MPD2    H3 3899   4.158   3.251  13.389  1.4766  1.2330 -1.5918
  257MPD2     N 3900   4.099   2.815  13.255 -0.3605  0.2908  0.2424
  257MPD2    H5 3901   4.105   2.758  13.172  0.2099 -0.7730  1.0178
  257MPD2    N1 3902   4.230   3.182  12.953  0.6835  0.3634 -0.6163
  257MPD2    H7 3903   4.251   3.281  12.948  1.2444  0.1630 -2.1117
  258TMC3    C1 3904   4.074   2.610  13.392  0.0599  0.3559 -0.7394
  258TMC3    C2 3905   4.162   2.553  13.303  0.3117 -0.7720 -0.1646
  258TMC3    C3 3906   4.242   2.445  13.337 -0.2084 -0.1076 -0.1896
  258TMC3    C4 3907   4.065   2.560  13.517 -0.4968  0.7324 -0.2969
  258TMC3    C5 3908   4.137   2.446  13.543 -0.3923  0.0509  0.4484
  258TMC3    C6 3909   4.234   2.393  13.458  0.4460 -0.6488  0.0171
  258TMC3     C 3910   4.058   2.756  13.376 -0.3965 -0.2238 -0.3453
  258TMC3     O 3911   4.039   2.818  13.479  0.4834  0.2502 -0.1011
  258TMC3     H 3912   4.170   2.592  13.202  1.1611 -1.2671 -0.2863
  258TMC3    H1 3913   4.000   2.606  13.591 -0.1211 -0.2822  0.6643
  258TMC3    H2 3914   4.290   2.306  13.490  0.9948 -0.0720  0.6492
  258TMC3    C7 3915   4.096   2.387  13.672  0.5084 -0.6011  0.5420
  258TMC3    C8 3916   4.314   2.360  13.230 -0.1660  0.0653  0.0025
  258TMC3    O1 3917   3.992   2.421  13.716 -0.0670  0.1039 -0.0374
  258TMC3    O2 3918   4.344   2.247  13.264 -0.3251  0.2047  0.0849
  259MPD2     C 3919   4.206   0.141   1.294 -0.1222 -0.0895 -0.0936
  259MPD2    C1 3920   4.097   0.067   1.257 -0.4846  0.2452  0.7534
  259MPD2    C2 3921   4.120   4.665   1.193  0.2965  0.0414  0.3100
  259MPD2    C3 3922   4.248   4.608   1.188  0.0655  0.3874  0.6093
  259MPD2    C4 3923   4.358   4.682   1.234 -0.0432  0.0285  0.3605
  259MPD2    C5 3924   4.335   0.086   1.288  0.6902 -0.6873  0.1052
  259MPD2     H 3925   4.046   4.589   1.170 -0.5323  0.0279  2.9997
  259MPD2    H1 3926   4.461   4.648   1.228  0.2460  0.7811  1.0218
  259MPD2    H2 3927   4.192   0.242   1.331  2.5364 -0.2117  1.1866
  259MPD2    H3 3928   4.412   0.152   1.325 -0.5809  1.5748 -1.2730
  259MPD2     N 3929   4.260   4.474   1.141 -0.1029  0.1945  0.0822
  259MPD2    H5 3930   4.175   4.428   1.114 -0.5458  1.1875 -0.2143
  259MPD2    N1 3931   3.970   0.129   1.273 -0.0613  0.4132  0.0432
  259MPD2    H7 3932   3.964   0.224   1.308  1.0112  0.3744  0.3329
  260TMC3    C1 3933   4.356   4.271   1.073  0.4536 -1.2200  0.1130
  260TMC3    C2 3934   4.435   4.172   1.123 -0.1434 -0.4585 -0.5304
  260TMC3    C3 3935   4.438   4.052   1.060 -0.1343  0.0363 -0.8906
  260TMC3    C4 3936   4.263   4.263   0.974 -0.1698  0.4542  0.7670
  260TMC3    C5 3937   4.271   4.142   0.913  0.6752  0.3920 -0.0391
  260TMC3    C6 3938   4.349   4.032   0.951 -0.3097  0.0282 -0.3601
  260TMC3     C 3939   4.382   4.403   1.129  0.3495 -0.6703  0.4065
  260TMC3     O 3940   4.494   4.435   1.162 -1.0006 -0.2884 -0.3981
  260TMC3     H 3941   4.507   4.201   1.198  0.3701 -3.7572  0.2553
  260TMC3    H1 3942   4.194   4.335   0.931 -1.3553 -0.8528  0.4476
  260TMC3    H2 3943   4.346   3.937   0.898  2.0083 -0.5956  0.6312
  260TMC3    C7 3944   4.164   4.107   0.830 -0.3803 -0.4765 -1.3694
  260TMC3    C8 3945   4.525   3.953   1.112  0.0509  1.0149  0.5276
  260TMC3    O1 3946   4.195   4.021   0.747 -0.0070 -0.2663 -0.1852
  260TMC3    O2 3947   4.580   3.971   1.218 -0.2415  0.2071  0.2583
  261MPD2     C 3948   0.498   3.063  11.835  0.5541 -0.9964  0.1211
  261MPD2    C1 3949   0.503   3.070  11.971 -0.1263 -0.2092  0.5751
  261MPD2    C2 3950   0.533   3.190  12.035  0.0167 -0.2375  0.0559
  261MPD2    C3 3951   0.568   3.299  11.955  0.3405 -0.1611  0.6356
  261MPD2    C4 3952   0.560   3.292  11.815  0.5557  0.1547  0.1937
  261MPD2    C5 3953   0.526   3.174  11.762  0.7894 -0.7024  0.4762
  261MPD2     H 3954   0.530   3.193  12.144 -0.2936  0.9477  0.0175
  261MPD2    H1 3955   0.594   3.368  11.747  0.4022 -0.1652 -0.2424
  261MPD2    H2 3956   0.482   2.977  11.770  0.9106  0.9785 -2.5889
  261MPD2    H3 3957   0.534   3.172  11.653  0.8205  1.1603  0.4435
  261MPD2     N 3958   0.624   3.414  12.016  0.0757  0.1290 -0.0919
  261MPD2    H5 3959   0.618   3.427  12.116 -0.1212  2.9626 -0.4679
  261MPD2    N1 3960   0.466   2.962  12.057  0.8732  0.5404  0.1236
  261MPD2    H7 3961   0.489   2.968  12.155  0.0876  2.3218  0.1991
  262TMC3    C1 3962   0.711   3.635  12.029  0.0759  0.1239  0.1091
  262TMC3    C2 3963   0.626   3.670  12.132 -0.5418  0.1144 -0.6113
  262TMC3    C3 3964   0.637   3.792  12.193  0.0654  0.4838  0.3843
  262TMC3    C4 3965   0.796   3.724  11.977  0.0028 -0.0169  0.7840
  262TMC3    C5 3966   0.813   3.852  12.032  0.5552 -0.0182  0.4855
  262TMC3    C6 3967   0.738   3.878  12.149 -0.8581  0.3915 -1.1608
  262TMC3     C 3968   0.709   3.500  11.967 -0.1310 -0.4668  0.1936
  262TMC3     O 3969   0.773   3.487  11.863 -0.2499 -0.0233  0.1042
  262TMC3     H 3970   0.562   3.596  12.178  0.6606 -0.1756  0.5855
  262TMC3    H1 3971   0.861   3.702  11.893  1.7133  0.8054  1.8702
  262TMC3    H2 3972   0.740   3.980  12.186 -0.2176  0.8111 -2.3440
  262TMC3    C7 3973   0.857   3.966  11.951 -0.5983 -0.2343  0.1450
  262TMC3    C8 3974   0.523   3.849  12.257  0.3838 -0.6480  0.3013
  262TMC3    O1 3975   0.890   4.065  12.014 -0.0577 -0.2270  0.0679
  262TMC3    O2 3976   0.523   3.971  12.268 -0.8364  0.6333  0.3031
  263MPD2     C 3977   1.312   2.467  10.971  0.7301  0.7116  0.0977
  263MPD2    C1 3978   1.452   2.484  10.974  0.7351 -0.4486 -0.2859
  263MPD2    C2 3979   1.511   2.570  10.881  0.4658 -0.4724  0.0653
  263MPD2    C3 3980   1.439   2.654  10.796  0.2388  0.0180  0.0761
  263MPD2    C4 3981   1.301   2.646  10.810  0.2984 -0.1236 -0.0046
  263MPD2    C5 3982   1.243   2.545  10.888  0.5495  0.0733 -0.3039
  263MPD2     H 3983   1.616   2.592  10.890  0.4915 -0.0529 -1.2551
  263MPD2    H1 3984   1.229   2.707  10.756 -0.4622 -1.6015 -0.6512
  263MPD2    H2 3985   1.262   2.405  11.044 -0.2568  1.9274  0.4571
  263MPD2    H3 3986   1.134   2.552  10.891  0.4558 -2.3420  1.1697
  263MPD2     N 3987   1.511   2.740  10.707  0.5088 -0.9564 -0.0299
  263MPD2    H5 3988   1.609   2.720  10.692  0.4473 -2.0073  0.9365
  263MPD2    N1 3989   1.547   2.415  11.061  0.1233 -0.4552  0.1052
  263MPD2    H7 3990   1.644   2.445  11.053  0.1832 -1.2204 -1.9761
  264TMC3    C1 3991   1.531   2.950  10.594 -0.7262 -0.3591 -0.0987
  264TMC3    C2 3992   1.516   3.086  10.620 -0.3262  0.0119  0.0496
  264TMC3    C3 3993   1.564   3.163  10.520 -0.1610 -0.7011  0.8839
  264TMC3    C4 3994   1.607   2.888  10.495 -0.4473 -0.0321  0.0469
  264TMC3    C5 3995   1.641   2.978  10.399 -1.1814 -0.1527  0.4010
  264TMC3    C6 3996   1.632   3.114  10.413  0.1023  0.0384 -0.2358
  264TMC3     C 3997   1.449   2.858  10.669  0.4198 -0.4818  0.6027
  264TMC3     O 3998   1.348   2.903  10.716  0.0211 -0.0473 -0.2198
  264TMC3     H 3999   1.449   3.131  10.692  0.4466  0.2228  0.6257
  264TMC3    H1 4000   1.589   2.785  10.466 -0.9086  0.1683 -0.3706
  264TMC3    H2 4001   1.665   3.184  10.338 -1.1926 -0.3361 -1.1696
  264TMC3    C7 4002   1.734   2.928  10.301 -0.2128  0.2677 -0.7946
  264TMC3    C8 4003   1.562   3.309  10.538  1.0934  0.5861  0.3331
  264TMC3    O1 4004   1.830   2.858  10.342 -0.1547  0.0483  0.4790
  264TMC3    O2 4005   1.618   3.373  10.448  0.4878  0.4735 -0.1820
  265MPD2     C 4006   3.423   2.604  15.858  0.1397 -0.2901  0.1819
  265MPD2    C1 4007   3.306   2.540  15.828  0.4254  0.1361  0.1204
  265MPD2    C2 4008   3.297   2.471  15.703  0.3792 -0.4606  0.8111
  265MPD2    C3 4009   3.400   2.480  15.604  0.6600  0.5208 -0.0872
  265MPD2    C4 4010   3.512   2.553  15.637  0.3692  0.0943  0.0071
  265MPD2    C5 4011   3.522   2.607  15.763 -0.0250 -0.0364  0.0964
  265MPD2     H 4012   3.201   2.423  15.687  0.0119  1.5721 -3.2462
  265MPD2    H1 4013   3.597   2.563  15.570  0.3467  2.0786  0.2762
  265MPD2    H2 4014   3.437   2.664  15.948  0.3957 -0.2647  0.1261
  265MPD2    H3 4015   3.611   2.666  15.785  0.9757  0.0942 -4.3523
  265MPD2     N 4016   3.396   2.417  15.471 -0.3089 -0.4441 -0.3840
  265MPD2    H5 4017   3.479   2.412  15.413 -0.1172  0.4581 -0.1893
  265MPD2    N1 4018   3.195   2.539  15.911 -0.1761 -0.0849 -0.1147
  265MPD2    H7 4019   3.114   2.487  15.878 -1.0702  2.1528 -1.4123
  266TMC3    C1 4020   3.049   2.639  16.069  0.5837  0.2333 -0.8036
  266TMC3    C2 4021   3.056   2.685  16.193  0.0158  0.2908  0.5801
  266TMC3    C3 4022   2.967   2.775  16.234  0.0772 -0.5915 -1.0956
  266TMC3    C4 4023   2.960   2.693  15.983  0.1380 -0.3319 -0.4597
  266TMC3    C5 4024   2.875   2.794  16.020  0.4689  0.0856 -0.1307
  266TMC3    C6 4025   2.875   2.832  16.151  0.5406  0.9759 -0.6019
  266TMC3     C 4026   3.186   2.613  16.026 -0.2997  0.3170  0.0333
  266TMC3     O 4027   3.267   2.681  16.090 -0.2322 -0.1855 -0.3697
  266TMC3     H 4028   3.123   2.637  16.264  0.2707 -1.3980 -0.7938
  266TMC3    H1 4029   2.964   2.662  15.879  1.1821 -2.8747  0.3540
  266TMC3    H2 4030   2.808   2.911  16.182  0.9054  0.9335  0.3053
  266TMC3    C7 4031   2.777   2.845  15.932  0.0575 -0.1168 -0.1236
  266TMC3    C8 4032   2.965   2.796  16.375 -0.0721  0.5584 -0.1709
  266TMC3    O1 4033   2.750   2.771  15.839  0.2482  0.1579  1.2405
  266TMC3    O2 4034   2.978   2.697  16.447 -0.4456 -0.0516  0.2532
  267MPD2     C 4035   1.514   4.526   0.387 -0.7912  0.0699  0.2405
  267MPD2    C1 4036   1.481   4.660   0.400  0.0042 -1.4279  0.3002
  267MPD2    C2 4037   1.382   4.714   0.316  0.0260  0.1940  0.0331
  267MPD2    C3 4038   1.327   4.639   0.214 -0.7573  0.1938 -1.0267
  267MPD2    C4 4039   1.361   4.505   0.205  0.9094  0.0819  0.8543
  267MPD2    C5 4040   1.450   4.450   0.289  0.5107  0.5073  0.4121
  267MPD2     H 4041   1.359   0.098   0.312  0.7061  0.3159 -0.6497
  267MPD2    H1 4042   1.317   4.437   0.133  1.4088  0.2161  0.4247
  267MPD2    H2 4043   1.584   4.475   0.452 -2.4290 -0.6387  1.4272
  267MPD2    H3 4044   1.465   4.343   0.292  1.2930  0.5530 -1.9576
  267MPD2     N 4045   1.210   4.681   0.148 -0.1051 -0.8972  0.3710
  267MPD2    H5 4046   1.181   4.620   0.072  2.3784 -2.4766  0.6648
  267MPD2    N1 4047   1.549   0.018   0.497 -0.4138  0.2006 -0.5250
  267MPD2    H7 4048   1.611   4.686   0.556 -0.7407 -0.1829 -0.5344
  268TMC3    C1 4049   1.601   0.204   0.627  0.6667  0.2307 -0.3600
  268TMC3    C2 4050   1.585   0.339   0.640 -0.4351  0.6753  0.3526
  268TMC3    C3 4051   1.601   0.388   0.769  0.0926 -0.3463  0.4668
  268TMC3    C4 4052   1.669   0.128   0.720 -0.1645 -0.2246  0.4337
  268TMC3    C5 4053   1.707   0.186   0.836 -0.2703 -0.2198  0.2113
  268TMC3    C6 4054   1.676   0.317   0.864  0.6328 -0.1625  0.1092
  268TMC3     C 4055   1.536   0.153   0.508  0.3139 -0.6780 -0.2800
  268TMC3     O 4056   1.498   0.226   0.420  0.0175  0.1055 -0.0150
  268TMC3     H 4057   1.561   0.406   0.557  2.8785  0.4200 -0.7892
  268TMC3    H1 4058   1.670   0.020   0.711  1.3601 -0.1732 -0.0233
  268TMC3    H2 4059   1.681   0.352   0.967  2.1455 -0.0241 -0.0177
  268TMC3    C7 4060   1.765   0.103   0.944  0.7726  1.3136 -0.1253
  268TMC3    C8 4061   1.514   0.507   0.796  0.7906 -0.6422 -0.2572
  268TMC3    O1 4062   1.745   0.144   1.054 -0.0255 -0.0340 -0.2740
  268TMC3    O2 4063   1.530   0.573   0.895  0.4999 -0.7548 -0.0968
  269MPD2     C 4064   0.753   3.445  16.036  0.2682  0.1206  0.0506
  269MPD2    C1 4065   0.631   3.409  15.984  0.2418 -0.4470  0.5881
  269MPD2    C2 4066   0.578   3.495  15.887 -0.5708  0.1603 -0.0192
  269MPD2    C3 4067   0.636   3.615  15.853  0.5812 -0.3438  0.3639
  269MPD2    C4 4068   0.749   3.655  15.921  0.0682 -0.1942  0.3154
  269MPD2    C5 4069   0.809   3.571  16.010  0.3082 -0.2590 -0.0109
  269MPD2     H 4070   0.481   3.468  15.847  0.4732 -2.5951 -0.7078
  269MPD2    H1 4071   0.799   3.747  15.892  1.5134 -0.7227  1.1388
  269MPD2    H2 4072   0.796   3.376  16.106  1.3757  1.7821  1.0037
  269MPD2    H3 4073   0.910   3.590  16.045  0.7301  1.8813 -2.4063
  269MPD2     N 4074   0.577   3.691  15.745 -0.0240 -0.2176  0.0750
  269MPD2    H5 4075   0.484   3.667  15.713  1.1502 -1.2544 -2.5561
  269MPD2    N1 4076   0.573   3.279  16.015  0.8760  0.0185  0.6988
  269MPD2    H7 4077   0.621   3.229  16.089  0.8480  0.3119  0.9151
  270TMC3    C1 4078   0.450   3.078  15.987  0.3939  0.0589 -0.7933
  270TMC3    C2 4079   0.325   3.032  15.957  0.2067  0.1855 -0.1031
  270TMC3    C3 4080   0.305   2.897  15.927 -0.0906 -0.4987 -0.2621
  270TMC3    C4 4081   0.562   3.000  15.990 -0.6524 -0.0899  0.0091
  270TMC3    C5 4082   0.540   2.872  15.958 -0.5827 -0.2542 -0.1107
  270TMC3    C6 4083   0.418   2.817  15.921 -0.4179 -0.1931 -0.8215
  270TMC3     C 4084   0.469   3.216  15.951 -0.2394 -0.3629  0.4003
  270TMC3     O 4085   0.378   3.263  15.880  0.3397  0.6373 -0.2608
  270TMC3     H 4086   0.248   3.109  15.961  0.1779 -0.0171  2.6246
  270TMC3    H1 4087   0.657   3.048  16.010 -2.2219  3.6976 -1.4779
  270TMC3    H2 4088   0.410   2.710  15.905  0.3276 -0.2790 -0.5773
  270TMC3    C7 4089   0.654   2.782  15.975 -0.4004  0.1039 -0.8191
  270TMC3    C8 4090   0.206   2.873  15.824  0.9091 -0.0296  1.1676
  270TMC3    O1 4091   0.766   2.828  15.951  0.2258 -0.5057 -0.2093
  270TMC3    O2 4092   0.103   2.938  15.839  0.1676 -0.3302  0.7298
  271MPD2     C 4093   4.705   2.755  14.018  0.2082  0.2432  0.2954
  271MPD2    C1 4094   4.631   2.798  14.128 -0.2781 -0.4973  0.1647
  271MPD2    C2 4095   4.532   2.900  14.108 -0.8436 -0.1172 -0.5007
  271MPD2    C3 4096   4.515   2.960  13.985  0.0907 -0.0353  1.0227
  271MPD2    C4 4097   4.596   2.921  13.883 -0.7659  0.0559 -0.0059
  271MPD2    C5 4098   4.684   2.825  13.903 -0.0754  0.3668 -0.3036
  271MPD2     H 4099   4.472   2.928  14.194 -1.6802  0.4963 -1.2886
  271MPD2    H1 4100   4.593   2.967  13.785 -0.2051  0.5498  0.2123
  271MPD2    H2 4101   0.063   2.684  14.033 -0.1366 -0.4330 -1.0716
  271MPD2    H3 4102   0.021   2.799  13.817 -0.3131 -1.3969  0.0796
  271MPD2     N 4103   4.424   3.067  13.965  0.0785 -0.3911 -0.2384
  271MPD2    H5 4104   4.440   3.108  13.873 -1.2372 -0.2603 -0.3987
  271MPD2    N1 4105   4.651   2.741  14.260  0.3123 -0.8367 -0.2522
  271MPD2    H7 4106   4.585   2.765  14.334  0.8586 -2.4388  0.7572
  272TMC3    C1 4107   0.052   2.632  14.438 -0.5778 -0.0541 -0.1223
  272TMC3    C2 4108   0.178   2.576  14.464 -0.3210 -0.7125 -0.2642
  272TMC3    C3 4109   0.210   2.550  14.591 -0.5495 -0.1345  0.4113
  272TMC3    C4 4110   4.697   2.683  14.540 -0.2251 -0.1411  0.6129
  272TMC3    C5 4111   0.020   2.664  14.668  0.2403 -0.6996  0.7327
  272TMC3    C6 4112   0.139   2.602  14.696  0.0782  0.2531  0.4489
  272TMC3     C 4113   0.033   2.663  14.300  1.0749  0.7106  0.5716
  272TMC3     O 4114   0.114   2.612  14.230 -0.2355  0.4527  0.1485
  272TMC3     H 4115   0.237   2.531  14.385 -0.1435  0.0667 -0.5733
  272TMC3    H1 4116   4.605   2.738  14.527  1.1043  2.0479  0.4627
  272TMC3    H2 4117   0.164   2.581  14.799  0.5623 -2.1100 -0.1510
  272TMC3    C7 4118   4.660   2.709  14.780 -0.4918 -0.1684  0.2847
  272TMC3    C8 4119   0.350   2.519  14.606  0.1751 -0.3344  0.5917
  272TMC3    O1 4120   4.537   2.698  14.765 -0.2816 -0.3601 -0.0245
  272TMC3    O2 4121   0.424   2.536  14.516  0.0899 -0.1413 -0.1117
  273MPD2     C 4122   1.651   1.882  11.646  0.1345  0.0026  0.0442
  273MPD2    C1 4123   1.787   1.914  11.640  0.0554 -0.1881  0.3482
  273MPD2    C2 4124   1.844   1.874  11.522 -0.2966 -0.2871  0.6973
  273MPD2    C3 4125   1.773   1.798  11.428 -0.1517 -0.2944  0.6775
  273MPD2    C4 4126   1.636   1.775  11.433 -0.1565  0.4172 -0.2692
  273MPD2    C5 4127   1.578   1.829  11.550  0.2507 -0.0094  0.0641
  273MPD2     H 4128   1.946   1.900  11.498  0.4689 -1.7008  2.4924
  273MPD2    H1 4129   1.585   1.709  11.365 -1.5494 -0.2081  1.3644
  273MPD2    H2 4130   1.603   1.907  11.740 -1.6039  0.2247 -0.9071
  273MPD2    H3 4131   1.472   1.809  11.561 -0.0261  1.2629 -0.2763
  273MPD2     N 4132   1.843   1.747  11.312  0.3563 -0.2764  0.1211
  273MPD2    H5 4133   1.796   1.687  11.245  1.8625 -1.4584  0.1120
  273MPD2    N1 4134   1.864   1.976  11.742 -0.4672  0.0132 -0.1903
  273MPD2    H7 4135   1.826   1.989  11.835  1.2636 -3.1529  0.9538
  274TMC3    C1 4136   2.014   1.676  11.171  0.1431  0.5136 -0.0939
  274TMC3    C2 4137   1.910   1.649  11.077  0.0986  0.1471  0.1408
  274TMC3    C3 4138   1.929   1.673  10.949  0.3349 -0.8870 -0.0881
  274TMC3    C4 4139   2.133   1.719  11.125  0.2725 -0.2253  0.1976
  274TMC3    C5 4140   2.136   1.757  10.992 -0.2698  0.4740  0.7929
  274TMC3    C6 4141   2.044   1.729  10.901 -0.7069  0.4580  0.2692
  274TMC3     C 4142   1.981   1.737  11.299  0.3231 -0.1865 -0.4544
  274TMC3     O 4143   2.071   1.773  11.375 -0.6140 -0.2329  0.2849
  274TMC3     H 4144   1.816   1.614  11.116 -1.0458  3.3691  0.2627
  274TMC3    H1 4145   2.211   1.738  11.198 -0.1917 -2.9117  1.4259
  274TMC3    H2 4146   2.079   1.701  10.803 -0.5053  0.0201  0.4644
  274TMC3    C7 4147   2.270   1.796  10.945 -0.0914 -0.3335  0.1889
  274TMC3    C8 4148   1.811   1.656  10.855 -0.5585 -0.3576 -0.0593
  274TMC3    O1 4149   2.305   1.728  10.850 -0.6025  0.2402  0.1656
  274TMC3    O2 4150   1.709   1.620  10.915  0.3194 -0.0352  0.5367
  275MPD2     C 4151   1.458   3.905  14.565  0.4385 -0.4524  0.0217
  275MPD2    C1 4152   1.392   3.892  14.678 -0.0687  0.1883  0.5385
  275MPD2    C2 4153   1.271   3.820  14.677 -0.1298  0.0225 -0.9237
  275MPD2    C3 4154   1.220   3.770  14.561  0.3822 -0.4330 -0.0589
  275MPD2    C4 4155   1.285   3.802  14.444 -0.0524  0.7929  0.1200
  275MPD2    C5 4156   1.405   3.865  14.448  0.1752  0.4209  0.3599
  275MPD2     H 4157   1.228   3.794  14.773 -1.0231 -3.3219 -2.2052
  275MPD2    H1 4158   1.249   3.764  14.349 -1.4512 -2.0140  1.7623
  275MPD2    H2 4159   1.557   3.949  14.558 -0.3225  1.4987  1.4984
  275MPD2    H3 4160   1.468   3.864  14.359  1.0752 -1.6598  0.9998
  275MPD2     N 4161   1.104   3.686  14.564  0.0477 -0.3520 -0.5300
  275MPD2    H5 4162   1.060   3.662  14.476  1.9676 -0.4865 -1.4532
  275MPD2    N1 4163   1.442   3.951  14.796 -0.1515  0.0756  0.2125
  275MPD2    H7 4164   1.388   3.940  14.881 -1.7026  1.0854 -0.6447
  276TMC3    C1 4165   1.543   4.104  14.927 -0.8051 -0.1778  0.1891
  276TMC3    C2 4166   1.419   4.163  14.966 -0.5263 -0.0936 -0.4915
  276TMC3    C3 4167   1.427   4.269  15.057 -0.2770 -0.0388 -0.1457
  276TMC3    C4 4168   1.659   4.148  14.983  0.3091 -0.8971  0.1351
  276TMC3    C5 4169   1.656   4.251  15.073 -0.3333  0.3723  0.7516
  276TMC3    C6 4170   1.544   4.317  15.107  0.0927 -0.4573  0.3687
  276TMC3     C 4171   1.552   4.033  14.808  0.8987 -0.2449 -0.0871
  276TMC3     O 4172   1.651   4.045  14.738 -0.2021 -0.2581  0.3705
  276TMC3     H 4173   1.323   4.142  14.920 -0.7845 -2.3147  1.0781
  276TMC3    H1 4174   1.748   4.098  14.947  0.4974  0.4591 -1.2932
  276TMC3    H2 4175   1.546   4.385  15.192  0.8334 -1.9860  1.5860
  276TMC3    C7 4176   1.762   4.256  15.172  0.1927 -0.3980  0.1293
  276TMC3    C8 4177   1.309   4.277  15.140 -0.1883  0.1054  0.0464
  276TMC3    O1 4178   1.777   4.354  15.244  0.1075 -0.3105 -0.0028
  276TMC3    O2 4179   1.269   4.386  15.176  0.2647 -0.1064  0.8049
  277MPD2     C 4180   3.447   2.859  13.529 -0.0996 -0.9527 -0.2597
  277MPD2    C1 4181   3.310   2.894  13.531  0.3572  0.1872 -0.4868
  277MPD2    C2 4182   3.245   2.926  13.650 -0.3356  0.2608 -0.3510
  277MPD2    C3 4183   3.319   2.932  13.765  0.4625  0.5143 -0.8616
  277MPD2    C4 4184   3.450   2.901  13.769 -0.0914  0.6650  0.0796
  277MPD2    C5 4185   3.511   2.860  13.653 -0.1709  0.4127 -0.3297
  277MPD2     H 4186   3.138   2.944  13.650 -0.5357 -0.8942 -0.5075
  277MPD2    H1 4187   3.516   2.918  13.853 -1.5464  2.1301  0.9416
  277MPD2    H2 4188   3.504   2.835  13.440 -0.0075  0.7660 -0.6511
  277MPD2    H3 4189   3.616   2.834  13.647 -0.1880 -0.1562  1.6946
  277MPD2     N 4190   3.249   2.962  13.889 -0.3644  0.2512  0.6373
  277MPD2    H5 4191   3.150   2.983  13.896 -0.2030  1.0728  0.4362
  277MPD2    N1 4192   3.251   2.902  13.406 -0.1125 -0.3455  0.1633
  277MPD2    H7 4193   3.298   2.875  13.320  0.9147 -2.0656  1.2796
  278TMC3    C1 4194   3.192   2.969  14.108 -0.8592 -0.2053 -0.1750
  278TMC3    C2 4195   3.171   2.868  14.192 -0.3026 -0.5600  0.3822
  278TMC3    C3 4196   3.043   2.850  14.232  0.4145  0.1416 -0.2334
  278TMC3    C4 4197   3.101   3.067  14.078 -0.1940 -0.7448  0.1319
  278TMC3    C5 4198   2.971   3.048  14.124 -0.9777 -0.6966 -0.4842
  278TMC3    C6 4199   2.942   2.941  14.209 -0.9511 -0.6563  0.1082
  278TMC3     C 4200   3.303   2.952  14.016 -0.5524 -0.3152  0.3678
  278TMC3     O 4201   3.404   2.894  14.060  0.2166  0.3440  0.2196
  278TMC3     H 4202   3.242   2.786  14.189  0.8905  0.4994 -0.2207
  278TMC3    H1 4203   3.118   3.140  13.999  0.2469  0.4426  1.3256
  278TMC3    H2 4204   2.847   2.916  14.254 -0.8049 -1.3967  0.0049
  278TMC3    C7 4205   2.887   3.046  14.005 -0.0702 -0.2737  0.1686
  278TMC3    C8 4206   3.014   2.724  14.287 -1.1863 -0.7189 -0.5109
  278TMC3    O1 4207   2.950   2.991  13.916 -0.5170  0.2509 -0.1349
  278TMC3    O2 4208   2.974   2.726  14.400  0.0415  0.8597  0.7836
  279MPD2     C 4209   2.775   2.989   0.367 -0.5321  0.1664 -0.0549
  279MPD2    C1 4210   2.803   3.122   0.383 -0.4655 -0.1726 -0.8486
  279MPD2    C2 4211   2.868   3.197   0.290 -0.0453 -0.0872  0.2288
  279MPD2    C3 4212   2.916   3.137   0.176  0.2315  0.5215  1.1448
  279MPD2    C4 4213   2.903   2.998   0.165 -0.5110 -0.1609 -0.3755
  279MPD2    C5 4214   2.830   2.927   0.260  0.3300 -0.0281  0.3429
  279MPD2     H 4215   2.876   3.305   0.299 -2.3501  0.0192  0.9976
  279MPD2    H1 4216   2.952   2.948   0.083 -0.5053  0.1567 -0.5669
  279MPD2    H2 4217   2.735   2.943   0.457  0.1604 -0.7465 -0.2161
  279MPD2    H3 4218   2.809   2.821   0.245 -2.7411  0.8557 -1.5727
  279MPD2     N 4219   2.978   3.211   0.071 -0.0255 -0.2266 -0.0979
  279MPD2    H5 4220   3.005   3.165  17.675  3.3640  0.4675  0.6002
  279MPD2    N1 4221   2.744   3.179   0.494  0.3236  0.1866 -0.0510
  279MPD2    H7 4222   2.680   3.118   0.543  3.0621 -2.0260  0.7608
  280TMC3    C1 4223   2.658   3.353   0.633 -0.0134  0.0747  0.9523
  280TMC3    C2 4224   2.588   3.258   0.703  0.1151 -0.3747  0.2850
  280TMC3    C3 4225   2.477   3.303   0.779 -0.2185  0.2875  0.0250
  280TMC3    C4 4226   2.641   3.488   0.643  0.0808 -0.1376 -0.3605
  280TMC3    C5 4227   2.542   3.525   0.730  0.0344 -0.7168 -0.4915
  280TMC3    C6 4228   2.446   3.441   0.794  0.1163 -0.5061  0.3728
  280TMC3     C 4229   2.753   3.312   0.534 -0.0061 -0.7001 -0.1733
  280TMC3     O 4230   2.833   3.398   0.500 -0.5600  0.0810 -0.1134
  280TMC3     H 4231   2.619   3.154   0.706  2.8984  0.5022  1.7582
  280TMC3    H1 4232   2.707   3.556   0.591 -1.7563  1.8543 -0.0951
  280TMC3    H2 4233   2.371   3.480   0.862  0.0078  0.4990 -0.3364
  280TMC3    C7 4234   2.547   3.662   0.774  0.3022 -0.3466  0.2924
  280TMC3    C8 4235   2.402   3.219   0.859  0.3503 -0.0704  0.0799
  280TMC3    O1 4236   2.652   3.718   0.780 -0.5476  0.1721  0.7724
  280TMC3    O2 4237   2.295   3.260   0.911  0.3646 -0.2333  0.4765
  281TMC3    C1 4238   0.986   3.677  13.772 -0.5990 -0.0020 -0.3318
  281TMC3    C2 4239   1.048   3.696  13.652  0.0440 -0.3684 -0.6255
  281TMC3    C3 4240   1.132   3.594  13.616 -0.3481 -0.0102 -0.3961
  281TMC3    C4 4241   1.007   3.574  13.855 -0.2716  0.0243  0.0964
  281TMC3    C5 4242   1.103   3.482  13.819  0.7358  0.1096 -0.0643
  281TMC3    C6 4243   1.167   3.490  13.701  0.3661 -0.4988 -0.1017
  281TMC3     C 4244   0.918   3.796  13.824  0.0641  0.6822 -1.0457
  281TMC3     O 4245   0.922   3.810  13.945 -0.3471  0.0966  0.5798
  281TMC3     H 4246   1.036   3.782  13.587 -1.4525  0.1852  0.3866
  281TMC3    H1 4247   0.963   3.575  13.954 -1.3572  0.8493 -0.3889
  281TMC3    H2 4248   1.222   3.406  13.661  0.5855 -0.0792 -0.6755
  281TMC3    C7 4249   1.061   3.349  13.842 -0.4836  0.2011 -0.0633
  281TMC3    C8 4250   1.124   3.567  13.469  0.0795  0.3780  0.3313
  281TMC3    O1 4251   1.138   3.256  13.839 -0.1204 -0.3836  0.0317
  281TMC3    O2 4252   1.023   3.614  13.413 -0.0502  0.6117 -0.0190
  282MPD2     C 4253   3.044   0.157  15.045  0.0218  0.7338 -0.7732
  282MPD2    C1 4254   2.909   0.154  15.025  0.0440 -0.9844  0.3534
  282MPD2    C2 4255   2.866   0.152  14.894  0.0709 -0.2993  0.2665
  282MPD2    C3 4256   2.953   0.142  14.785  0.0589  0.6046 -0.0967
  282MPD2    C4 4257   3.088   0.143  14.817 -0.1587 -0.0186  0.8149
  282MPD2    C5 4258   3.133   0.160  14.943  0.2070  0.2594 -0.0918
  282MPD2     H 4259   2.760   0.146  14.873 -0.0099 -1.0843  0.9355
  282MPD2    H1 4260   3.168   0.126  14.746 -1.8641  0.1495 -1.1308
  282MPD2    H2 4261   3.081   0.156  15.147  0.1355 -0.0635 -0.8202
  282MPD2    H3 4262   3.236   0.162  14.974  0.4651  1.3687 -1.0041
  282MPD2     N 4263   2.897   0.141  14.657  1.0616  0.1719  0.1151
  282MPD2    H5 4264   2.797   0.157  14.651  0.7850 -2.3261 -2.0598
  282MPD2    N1 4265   2.812   0.158  15.123 -0.0105  0.0173 -0.3753
  282MPD2    H7 4266   2.716   0.166  15.093  0.2048 -1.7372 -1.5773
  283TMC3    C1 4267   2.727   0.191  15.344 -0.0217  0.0218 -0.3667
  283TMC3    C2 4268   2.636   0.282  15.304 -0.8542  0.4927  0.1219
  283TMC3    C3 4269   2.546   0.328  15.400 -0.4184  0.4942  0.3949
  283TMC3    C4 4270   2.734   0.142  15.470  0.0284 -1.4786 -0.2553
  283TMC3    C5 4271   2.644   0.193  15.558 -0.0915  0.4567 -0.9000
  283TMC3    C6 4272   2.536   0.281  15.530 -0.1630 -0.2710  0.2715
  283TMC3     C 4273   2.840   0.155  15.262 -0.4657  0.3779  0.1650
  283TMC3     O 4274   2.951   0.134  15.316  0.3972  0.4250  0.3031
  283TMC3     H 4275   2.649   0.330  15.208 -2.4917 -0.9914 -0.8417
  283TMC3    H1 4276   2.803   0.063  15.498  1.0578  0.9021  3.9125
  283TMC3    H2 4277   2.456   0.315  15.593  0.2392 -0.1762  0.7289
  283TMC3    C7 4278   2.606   0.103  15.663 -0.3311  0.8798  0.5017
  283TMC3    C8 4279   2.444   0.415  15.350 -0.0599 -0.0177  0.1766
  283TMC3    O1 4280   2.552   0.160  15.755 -0.1883 -0.0158 -0.2028
  283TMC3    O2 4281   2.329   0.395  15.381 -0.2176  0.4167  0.2217
  284MPD2     C 4282   1.735   3.937  11.608 -0.2561 -0.5723 -0.4327
  284MPD2    C1 4283   1.736   3.953  11.467 -0.9247  0.7143 -0.2653
  284MPD2    C2 4284   1.704   3.850  11.383 -0.2237  0.2101 -0.1450
  284MPD2    C3 4285   1.667   3.730  11.438  0.6749 -0.3867 -0.5342
  284MPD2    C4 4286   1.661   3.712  11.575 -0.0984 -0.2953 -0.3277
  284MPD2    C5 4287   1.695   3.816  11.658 -0.1147  0.1047  0.1792
  284MPD2     H 4288   1.721   3.861  11.276 -2.0655  0.0251 -0.4487
  284MPD2    H1 4289   1.641   3.613  11.613 -1.0604  0.0872  0.1708
  284MPD2    H2 4290   1.743   4.021  11.677 -0.9724 -0.2092 -0.7848
  284MPD2    H3 4291   1.693   3.802  11.765  0.2954 -1.3980 -0.0195
  284MPD2     N 4292   1.641   3.614  11.359  0.1980 -0.6196  0.7771
  284MPD2    H5 4293   1.628   3.526  11.407 -0.6855 -0.4483  0.8432
  284MPD2    N1 4294   1.769   4.078  11.403 -0.2847  0.5040 -0.5859
  284MPD2    H7 4295   1.766   4.078  11.301 -0.7330 -2.5580 -0.5707
  285TMC3    C1 4296   1.847   4.298  11.389  0.4773 -0.3223  0.2167
  285TMC3    C2 4297   1.937   4.250  11.294 -0.1842 -0.6000 -0.3922
  285TMC3    C3 4298   1.986   4.343  11.211  0.3840 -0.4007 -0.5545
  285TMC3    C4 4299   1.814   4.430  11.406 -0.1786  0.7361  0.0335
  285TMC3    C5 4300   1.881   4.519  11.322 -0.2732 -0.9401  0.1371
  285TMC3    C6 4301   1.974   4.472  11.236  0.0400  0.5914  0.2585
  285TMC3     C 4302   1.789   4.191  11.475 -0.9382 -0.0262  0.1874
  285TMC3     O 4303   1.733   4.226  11.577 -0.1720 -0.3222 -0.0723
  285TMC3     H 4304   1.952   4.146  11.270  0.6891 -0.9099  1.5178
  285TMC3    H1 4305   1.748   4.452  11.488 -0.0762  1.3858 -0.0601
  285TMC3    H2 4306   2.012   4.540  11.160 -0.4750  0.4598 -0.1149
  285TMC3    C7 4307   1.821   4.650  11.313 -0.3017  0.0663 -0.2282
  285TMC3    C8 4308   2.013   4.292  11.077 -0.0148 -0.3484  0.9687
  285TMC3    O1 4309   1.912   0.001  11.283 -0.0499 -0.0026  1.0893
  285TMC3    O2 4310   1.986   4.178  11.039  0.3646  0.1357 -0.2627
  286MPD2     C 4311   1.806   2.526   1.955  0.1391  0.7641 -0.2950
  286MPD2    C1 4312   1.806   2.517   1.815 -0.1159  0.3830 -0.3633
  286MPD2    C2 4313   1.918   2.480   1.749 -0.2098 -0.0978  0.3759
  286MPD2    C3 4314   2.026   2.429   1.819  0.8480 -0.3204  0.2809
  286MPD2    C4 4315   2.017   2.426   1.953 -0.2628 -0.9847  0.3409
  286MPD2    C5 4316   1.916   2.479   2.016  0.2591 -0.1562  0.2306
  286MPD2     H 4317   1.917   2.482   1.641 -0.0231 -0.1934  0.3736
  286MPD2    H1 4318   2.095   2.377   2.010  1.5314 -0.5341 -1.7201
  286MPD2    H2 4319   1.733   2.569   2.023  0.6484  0.2111  0.6055
  286MPD2    H3 4320   1.918   2.478   2.125 -0.8688  0.0526  0.2603
  286MPD2     N 4321   2.145   2.373   1.763 -0.6503  0.2089 -0.3385
  286MPD2    H5 4322   2.217   2.341   1.827 -1.3196  1.8579  1.2557
  286MPD2    N1 4323   1.696   2.572   1.735 -0.3030  0.2347 -0.0106
  286MPD2    H7 4324   1.713   2.555   1.637 -0.1070 -1.3962  0.2982
  287TMC3    C1 4325   2.280   2.274   1.601 -0.0215 -0.1118 -0.3277
  287TMC3    C2 4326   2.294   2.222   1.474 -0.3261  0.4825 -0.1191
  287TMC3    C3 4327   2.412   2.168   1.437 -0.1064 -1.0293 -0.5753
  287TMC3    C4 4328   2.392   2.296   1.681  0.0794 -0.0517 -0.1256
  287TMC3    C5 4329   2.506   2.242   1.640 -0.4732 -0.0752 -1.4442
  287TMC3    C6 4330   2.519   2.176   1.523 -0.5888 -0.0167  0.3486
  287TMC3     C 4331   2.151   2.331   1.635  0.0930  0.5113 -0.2237
  287TMC3     O 4332   2.070   2.348   1.548 -0.2885 -0.3057  0.5827
  287TMC3     H 4333   2.217   2.236   1.400 -0.5230  1.2372  0.2211
  287TMC3    H1 4334   2.386   2.335   1.782  1.0416  1.2723 -0.5804
  287TMC3    H2 4335   2.612   2.122   1.512 -0.8835 -0.4360 -0.0898
  287TMC3    C7 4336   2.622   2.248   1.728 -0.0285 -1.1186  0.5591
  287TMC3    C8 4337   2.429   2.093   1.312 -0.0742  0.3090 -0.2938
  287TMC3    O1 4338   2.609   2.273   1.847 -0.3083 -0.0717 -0.2871
  287TMC3    O2 4339   2.545   2.072   1.281 -0.1647  0.1500 -0.0827
  288TMC3    C1 4340   3.494   2.198  14.585  0.6327  0.4574  0.2524
  288TMC3    C2 4341   3.392   2.211  14.683  0.0188 -1.1060  0.0155
  288TMC3    C3 4342   3.329   2.333  14.695 -0.3138 -0.2237  0.5148
  288TMC3    C4 4343   3.509   2.296  14.493  0.0436 -0.5778 -0.5127
  288TMC3    C5 4344   3.432   2.409  14.503  0.0116  0.2947  0.6650
  288TMC3    C6 4345   3.345   2.430  14.603  0.2906  0.0241  0.0273
  288TMC3     C 4346   3.612   2.140  14.641  0.1411  0.1891 -0.1988
  288TMC3     O 4347   3.615   2.105  14.756  0.2138  0.3580  0.4067
  288TMC3     H 4348   3.394   2.138  14.763 -0.4458 -0.9343  0.1844
  288TMC3    H1 4349   3.605   2.300  14.443 -0.0982 -0.8079 -0.8030
  288TMC3    H2 4350   3.281   2.517  14.617  0.0445 -0.1304 -0.1550
  288TMC3    C7 4351   3.411   2.485  14.386 -0.0531 -0.0080 -0.2294
  288TMC3    C8 4352   3.240   2.350  14.811 -0.4637  0.3233 -0.1098
  288TMC3    O1 4353   3.343   2.586  14.389 -0.2908 -0.1168  0.4695
  288TMC3    O2 4354   3.233   2.467  14.858  0.3447 -0.7259  0.1746
  289MPD2     C 4355   3.210   1.744  14.654  0.2333 -0.2056  0.2399
  289MPD2    C1 4356   3.247   1.749  14.522 -1.1183  0.2179 -0.1944
  289MPD2    C2 4357   3.148   1.771  14.429  0.1347 -0.7872  0.0613
  289MPD2    C3 4358   3.014   1.803  14.470  0.7429 -0.3148  0.4039
  289MPD2    C4 4359   2.986   1.800  14.602 -0.5000 -0.2750 -0.3088
  289MPD2    C5 4360   3.083   1.779  14.690 -0.4792 -0.3347  0.3016
  289MPD2     H 4361   3.158   1.767  14.321  1.0690  0.5664  0.0937
  289MPD2    H1 4362   2.887   1.821  14.640 -0.0261  2.5212 -0.6812
  289MPD2    H2 4363   3.275   1.709  14.732 -0.9466 -1.1959  0.7833
  289MPD2    H3 4364   3.061   1.765  14.795 -0.9508 -0.2217  0.2187
  289MPD2     N 4365   2.923   1.842  14.369 -0.1314 -0.7662 -0.1163
  289MPD2    H5 4366   2.946   1.828  14.271  2.8222  0.7760  0.3539
  289MPD2    N1 4367   3.381   1.720  14.500  0.5431 -0.6571 -0.5259
  289MPD2    H7 4368   3.441   1.697  14.579  0.1223  1.1414  0.3224
  290TMC3    C1 4369   2.762   1.970  14.263  0.2004 -0.3373 -0.0482
  290TMC3    C2 4370   2.745   2.101  14.253 -0.6341 -0.6951 -0.2595
  290TMC3    C3 4371   2.724   2.153  14.124 -0.7084  0.5271 -0.3475
  290TMC3    C4 4372   2.762   1.885  14.157  0.2359 -0.1396  0.2730
  290TMC3    C5 4373   2.738   1.936  14.031  0.0911 -0.2206  0.3597
  290TMC3    C6 4374   2.714   2.068  14.016 -0.4552 -0.0583 -0.0842
  290TMC3     C 4375   2.816   1.926  14.392  0.8139  0.1369  0.5382
  290TMC3     O 4376   2.798   1.995  14.488  0.0167 -0.6883 -0.0392
  290TMC3     H 4377   2.744   2.166  14.340 -0.5949  1.8448 -2.1464
  290TMC3    H1 4378   2.788   1.780  14.170 -1.8019 -0.8599 -1.3055
  290TMC3    H2 4379   2.708   2.106  13.914 -0.2546 -1.3142 -0.5608
  290TMC3    C7 4380   2.695   1.853  13.922 -0.2787 -0.2629 -0.2954
  290TMC3    C8 4381   2.699   2.289  14.093 -0.0315 -0.2151 -0.2577
  290TMC3    O1 4382   2.663   1.908  13.817  0.5458 -0.2198 -0.2388
  290TMC3    O2 4383   2.652   2.310  13.983 -0.2407 -0.1521  0.0614
  291MPD2     C 4384   2.860   1.650  17.663 -0.6083 -0.2917  0.7808
  291MPD2    C1 4385   2.844   1.612   0.099  0.2782 -0.6359  0.2549
  291MPD2    C2 4386   2.952   1.627   0.188 -0.1950 -0.0263  0.5349
  291MPD2    C3 4387   3.068   1.688   0.149 -0.3949 -0.0642  0.1305
  291MPD2    C4 4388   3.083   1.717   0.014 -0.0228 -0.1493 -0.4064
  291MPD2    C5 4389   2.977   1.704  17.623  0.8475  1.0914  0.0710
  291MPD2     H 4390   2.938   1.591   0.289 -0.0494 -1.1332  0.1625
  291MPD2    H1 4391   3.176   1.764  17.674 -1.1801  3.1138  1.1341
  291MPD2    H2 4392   2.782   1.646  17.588  0.7940  0.9423 -0.7312
  291MPD2    H3 4393   2.992   1.732  17.519  1.7619  2.1215  0.4793
  291MPD2     N 4394   3.186   1.684   0.229 -0.5165  0.1377  0.3790
  291MPD2    H5 4395   3.279   1.694   0.190 -0.3362 -2.9861  0.0645
  291MPD2    N1 4396   2.720   1.565   0.147 -0.0250  0.2670 -0.7953
  291MPD2    H7 4397   2.707   1.552   0.247  1.8548  0.4665 -0.5202
  292TMC3    C1 4398   2.506   1.490   0.168 -0.2721  0.0928 -0.0637
  292TMC3    C2 4399   2.486   1.545   0.290 -0.1159  0.5235  0.3080
  292TMC3    C3 4400   2.393   1.481   0.365 -0.1243  0.1089 -0.1006
  292TMC3    C4 4401   2.453   1.373   0.127  0.1321  0.3678  0.4359
  292TMC3    C5 4402   2.366   1.311   0.209  0.4466  0.1738 -0.0137
  292TMC3    C6 4403   2.325   1.363   0.327  0.0381  0.0841  0.0118
  292TMC3     C 4404   2.610   1.536   0.078 -0.7993  0.2035  0.2274
  292TMC3     O 4405   2.596   1.524  17.648 -0.7645  0.6143  0.3657
  292TMC3     H 4406   2.541   1.634   0.320 -0.2296  0.7265 -0.0968
  292TMC3    H1 4407   2.469   1.330   0.029 -1.0725 -1.2989  0.9817
  292TMC3    H2 4408   2.262   1.304   0.392 -0.4290  2.4900  1.7150
  292TMC3    C7 4409   2.317   1.185   0.160  0.0380 -0.1294 -0.0236
  292TMC3    C8 4410   2.371   1.540   0.498  0.2417  0.2665 -0.1415
  292TMC3    O1 4411   2.379   1.134   0.069  0.7285 -0.7167 -0.7342
  292TMC3    O2 4412   2.449   1.622   0.538 -0.0609  0.0754  0.1934
  293MPD2     C 4413   4.563   2.989  12.681 -0.7697 -0.0734 -0.1016
  293MPD2    C1 4414   4.473   2.896  12.729  0.7276 -0.2795  0.1306
  293MPD2    C2 4415   4.458   2.874  12.864  0.0140  0.1905  0.3526
  293MPD2    C3 4416   4.530   2.951  12.950 -0.2142  0.5226  0.3960
  293MPD2    C4 4417   4.621   3.038  12.900 -0.0989  0.5932 -0.1056
  293MPD2    C5 4418   4.635   3.058  12.770 -0.5076  0.2417  0.6777
  293MPD2     H 4419   4.392   2.794  12.897 -0.5755  0.0632 -1.1460
  293MPD2    H1 4420   4.682   3.094  12.970  0.0231  0.0123  0.2516
  293MPD2    H2 4421   4.572   3.017  12.577  1.6203 -2.9443 -0.6506
  293MPD2    H3 4422   4.704   3.137  12.742  0.5624 -0.0778  2.3912
  293MPD2     N 4423   4.528   2.918  13.090  0.1328  0.5233  0.1968
  293MPD2    H5 4424   4.586   2.982  13.143  0.3260 -1.2422  2.0863
  293MPD2    N1 4425   4.383   2.850  12.629 -0.5167 -0.2387 -0.3286
  293MPD2    H7 4426   4.387   2.874  12.530 -1.5647  1.9773  0.1826
  294TMC3    C1 4427   4.178   2.758  12.555 -0.0708  0.4534  0.1035
  294TMC3    C2 4428   4.063   2.684  12.573 -0.9758 -0.8730 -0.5147
  294TMC3    C3 4429   3.992   2.644  12.466  0.2380  0.2545  0.1574
  294TMC3    C4 4430   4.201   2.804  12.426  0.0576  0.6134  0.4559
  294TMC3    C5 4431   4.121   2.764  12.319  0.4375 -0.2895 -0.5081
  294TMC3    C6 4432   4.013   2.688  12.342  0.2111 -0.5572  0.3314
  294TMC3     C 4433   4.270   2.785  12.663 -0.8052  0.0070 -0.7014
  294TMC3     O 4434   4.225   2.732  12.764 -0.1941 -0.2147  0.1366
  294TMC3     H 4435   4.027   2.668  12.674 -1.7495 -0.1850 -0.6821
  294TMC3    H1 4436   4.296   2.848  12.398 -0.1936  1.5878  1.1726
  294TMC3    H2 4437   3.959   2.646  12.258  1.4608 -0.3128 -0.5877
  294TMC3    C7 4438   4.184   2.740  12.198 -0.3295 -0.0341  1.1343
  294TMC3    C8 4439   3.895   2.548  12.501 -0.5188 -0.3534 -0.5110
  294TMC3    O1 4440   4.149   2.639  12.141 -0.3963  0.5234 -0.0581
  294TMC3    O2 4441   3.864   2.538  12.619  0.7774 -0.6702 -0.4877
  295MPD2     C 4442   0.118   0.838   0.611  0.2237 -0.0350  0.3116
  295MPD2    C1 4443   0.041   0.947   0.644 -0.2260 -0.4793 -0.5029
  295MPD2    C2 4444   0.028   0.976   0.780 -0.1927  0.1526 -0.5983
  295MPD2    C3 4445   0.097   0.917   0.886  0.2339 -0.1000 -0.0669
  295MPD2    C4 4446   0.184   0.820   0.844 -0.0865 -0.3666 -0.7033
  295MPD2    C5 4447   0.199   0.789   0.709  0.1774 -0.4419  0.7508
  295MPD2     H 4448   4.675   1.048   0.811 -0.1622 -0.6009  1.1960
  295MPD2    H1 4449   0.242   0.761   0.913  2.4453  3.1380  0.1467
  295MPD2    H2 4450   0.133   0.806   0.509 -2.5490 -1.4344  0.3526
  295MPD2    H3 4451   0.261   0.706   0.678 -2.2392 -1.0860 -2.3782
  295MPD2     N 4452   0.090   0.947   1.024  0.1924  0.5008 -0.4645
  295MPD2    H5 4453   0.148   0.895   1.089 -0.9384  0.1095  0.2356
  295MPD2    N1 4454   4.701   1.023   0.541  0.1194  0.3929  0.0945
  295MPD2    H7 4455   4.712   0.999   0.443  0.0805 -2.6195  0.8431
  296TMC3    C1 4456   0.030   1.075   1.218  0.6087  0.5430 -0.7100
  296TMC3    C2 4457   4.689   1.191   1.260 -0.4518 -0.4656  0.8971
  296TMC3    C3 4458   4.665   1.214   1.394 -0.1171  0.6207 -0.3753
  296TMC3    C4 4459   0.065   0.975   1.305 -0.5758 -0.2275  0.0610
  296TMC3    C5 4460   0.054   1.014   1.441 -0.1682  0.1605  0.1687
  296TMC3    C6 4461   0.009   1.140   1.484 -0.5996  0.3657 -0.2881
  296TMC3     C 4462   0.011   1.051   1.075 -0.3143 -0.2192  0.4101
  296TMC3     O 4463   4.682   1.147   1.014  0.0075 -0.5506  0.0813
  296TMC3     H 4464   4.644   1.261   1.190  1.6138 -0.5029 -0.4526
  296TMC3    H1 4465   0.099   0.881   1.262 -0.1912 -0.6887  1.3693
  296TMC3    H2 4466   0.034   1.168   1.585  0.1768  2.8811 -1.1653
  296TMC3    C7 4467   0.057   0.904   1.542  0.2746 -0.1409  0.0450
  296TMC3    C8 4468   4.629   1.352   1.421  0.4551 -0.2720 -0.3178
  296TMC3    O1 4469   0.107   0.797   1.507 -0.3442  0.2244 -0.0124
  296TMC3    O2 4470   4.608   1.424   1.322  0.0400 -0.1051  0.5446
  297MPD2     C 4471   2.198   3.721  16.863 -0.0801  0.4876 -0.4185
  297MPD2    C1 4472   2.179   3.800  16.753  0.5669  0.0082  0.5802
  297MPD2    C2 4473   2.291   3.832  16.681 -0.0453  0.0413 -0.3616
  297MPD2    C3 4474   2.416   3.796  16.717  0.0339 -0.9284  0.0439
  297MPD2    C4 4475   2.434   3.713  16.827  0.0046 -0.3278 -0.2850
  297MPD2    C5 4476   2.323   3.671  16.898  0.4427  0.6799  0.3637
  297MPD2     H 4477   2.276   3.892  16.592 -0.2261  0.3097 -0.1500
  297MPD2    H1 4478   2.532   3.695  16.870  0.7848 -2.2442 -2.8773
  297MPD2    H2 4479   2.117   3.686  16.926  0.5304  0.3089  0.2612
  297MPD2    H3 4480   2.346   3.606  16.982  0.6069 -1.0305 -1.0090
  297MPD2     N 4481   2.526   3.852  16.647 -0.0327 -0.1379 -0.0282
  297MPD2    H5 4482   2.504   3.925  16.580  1.6260 -1.5358 -2.0877
  297MPD2    N1 4483   2.055   3.844  16.703 -0.1333  0.6174 -0.0658
  297MPD2    H7 4484   2.059   3.894  16.615 -1.9126  0.9310  0.0325
  298TMC3    C1 4485   1.836   3.905  16.711  0.9217  0.2806  0.6734
  298TMC3    C2 4486   1.819   3.892  16.576 -0.0532 -0.0776  0.1245
  298TMC3    C3 4487   1.697   3.927  16.523 -0.2767 -0.3859 -0.4351
  298TMC3    C4 4488   1.738   3.946  16.798  0.3800  0.3011 -0.1762
  298TMC3    C5 4489   1.615   3.966  16.742 -0.6497 -0.9994 -0.2603
  298TMC3    C6 4490   1.592   3.962  16.606  0.5473 -0.9655  0.6744
  298TMC3     C 4491   1.943   3.830  16.773  0.9326 -0.3488 -0.4825
  298TMC3     O 4492   1.914   3.779  16.881 -0.4059 -0.7015 -0.7730
  298TMC3     H 4493   1.892   3.833  16.523  0.5253 -0.6977  1.6435
  298TMC3    H1 4494   1.745   3.947  16.906 -0.9908 -1.4541 -0.0774
  298TMC3    H2 4495   1.494   3.989  16.570  0.0640 -2.6689  0.7232
  298TMC3    C7 4496   1.518   4.038  16.821 -0.1637 -0.3460 -0.1342
  298TMC3    C8 4497   1.688   3.965  16.384  0.0583 -0.4146 -0.1483
  298TMC3    O1 4498   1.560   4.080  16.928 -0.0082 -0.2360 -0.2502
  298TMC3    O2 4499   1.577   3.991  16.350  0.0142 -0.4012 -1.0047
  299MPD2     C 4500   2.605   3.312  10.680 -0.2024 -0.0141 -0.0207
  299MPD2    C1 4501   2.701   3.301  10.585 -0.1847  0.1344  0.4819
  299MPD2    C2 4502   2.675   3.242  10.467  0.7601 -0.3621 -0.2240
  299MPD2    C3 4503   2.542   3.218  10.435 -0.6370 -0.6833  0.3619
  299MPD2    C4 4504   2.444   3.243  10.533 -0.3709 -0.2608  0.0011
  299MPD2    C5 4505   2.476   3.285  10.658 -0.1801 -0.3518 -0.4094
  299MPD2     H 4506   2.752   3.213  10.395  1.2644 -1.9001  0.9388
  299MPD2    H1 4507   2.342   3.207  10.518 -0.3290 -1.6272  2.9124
  299MPD2    H2 4508   2.621   3.370  10.769 -0.0208  0.1387 -0.1539
  299MPD2    H3 4509   2.398   3.305  10.731 -1.1842 -0.7555 -1.3769
  299MPD2     N 4510   2.494   3.182  10.309  0.6377  0.7990 -0.3807
  299MPD2    H5 4511   2.393   3.184  10.299  0.3826  2.1670  2.5565
  299MPD2    N1 4512   2.835   3.353  10.609 -0.5695  0.2657 -0.7888
  299MPD2    H7 4513   2.862   3.375  10.704 -0.0151 -0.1554 -0.8501
  300TMC3    C1 4514   2.492   3.127  10.072 -0.0870 -0.0547 -0.0035
  300TMC3    C2 4515   2.560   3.059   9.973 -0.0174  0.7468 -0.7152
  300TMC3    C3 4516   2.559   3.103   9.842  0.6935  0.6067  0.3029
  300TMC3    C4 4517   2.412   3.235  10.039 -0.6374 -0.6364 -0.3813
  300TMC3    C5 4518   2.408   3.278   9.907 -0.3862 -0.3666 -0.0578
  300TMC3    C6 4519   2.488   3.217   9.813  0.1128 -0.2020  0.1101
  300TMC3     C 4520   2.567   3.145  10.192 -0.1253  0.8764 -0.2338
  300TMC3     O 4521   2.685   3.120  10.184 -0.0599 -0.1106  0.7315
  300TMC3     H 4522   2.642   2.996  10.006 -1.3681 -0.8343 -0.3667
  300TMC3    H1 4523   2.374   3.293  10.122  2.4180  0.3839  0.2896
  300TMC3    H2 4524   2.493   3.252   9.711  0.8202 -2.2280 -0.5517
  300TMC3    C7 4525   2.409   3.423   9.900  0.3153  0.2791 -0.0737
  300TMC3    C8 4526   2.700   3.115   9.788  0.6060 -0.7912  0.3707
  300TMC3    O1 4527   2.482   3.479   9.819 -0.0454 -0.1099 -0.1829
  300TMC3    O2 4528   2.789   3.099   9.865 -0.0653  0.1620  0.2996
  301MPD2     C 4529   0.584   4.326   0.331  0.7103  0.0020  0.2549
  301MPD2    C1 4530   0.574   4.367   0.462 -0.6221 -0.3601 -0.3639
  301MPD2    C2 4531   0.528   4.273   0.559  0.0465  0.0351  0.0090
  301MPD2    C3 4532   0.470   4.151   0.520  0.2508 -0.2174  0.2414
  301MPD2    C4 4533   0.462   4.126   0.382 -0.5893 -0.4830  0.4116
  301MPD2    C5 4534   0.530   4.206   0.295 -0.3906  0.1376 -0.0829
  301MPD2     H 4535   0.539   4.301   0.663  1.0235 -1.1193  0.2166
  301MPD2    H1 4536   0.421   4.037   0.336  1.4763 -1.4896  0.4933
  301MPD2    H2 4537   0.625   4.387   0.252  0.3788  1.5845  1.3011
  301MPD2    H3 4538   0.560   4.176   0.196  0.6163 -2.5278  1.0407
  301MPD2     N 4539   0.418   4.065   0.620  0.1286  1.4652 -0.8063
  301MPD2    H5 4540   0.436   4.102   0.713 -0.9869 -2.1549  0.8620
  301MPD2    N1 4541   0.610   4.498   0.518 -0.1207 -0.1487  0.2602
  301MPD2    H7 4542   0.630   4.493   0.618  0.2222  0.9781  0.2514
  302TMC3    C1 4543   0.278   3.929   0.727 -0.4304 -0.9136 -0.3044
  302TMC3    C2 4544   0.349   3.986   0.828 -0.3910  0.6925  0.8605
  302TMC3    C3 4545   0.289   4.048   0.935 -0.2972 -0.3651  0.2912
  302TMC3    C4 4546   0.143   3.944   0.725  0.0004  0.2872 -0.0118
  302TMC3    C5 4547   0.084   4.024   0.816 -0.1219  0.5782 -0.0114
  302TMC3    C6 4548   0.153   4.079   0.922 -0.1896  0.4074  0.9796
  302TMC3     C 4549   0.345   3.952   0.603  0.5588 -0.1093  0.0450
  302TMC3     O 4550   0.285   3.911   0.507 -0.1587  0.0448  0.4819
  302TMC3     H 4551   0.456   3.968   0.833 -0.5836  0.0509  2.4875
  302TMC3    H1 4552   0.089   3.922   0.633 -1.4510 -0.7599  1.0946
  302TMC3    H2 4553   0.095   4.126   1.001 -2.5963 -0.9187 -0.0228
  302TMC3    C7 4554   4.682   4.089   0.772  0.0265  0.0646 -0.1874
  302TMC3    C8 4555   0.374   4.145   1.004  0.0843  0.0128 -0.3818
  302TMC3    O1 4556   4.590   4.016   0.724  0.0654 -0.2886  0.2586
  302TMC3    O2 4557   0.477   4.177   0.942  0.2621 -0.3018 -0.0968
  303MPD2     C 4558   0.988   2.998  10.142 -0.4663 -0.4575  0.1294
  303MPD2    C1 4559   0.902   2.896  10.142  0.4796  0.2113 -0.0838
  303MPD2    C2 4560   0.879   2.817  10.031 -0.7097 -0.3227 -0.1107
  303MPD2    C3 4561   0.958   2.831   9.914 -0.5807  0.1476  0.2434
  303MPD2    C4 4562   1.059   2.929   9.923  0.2708 -0.3315 -0.0623
  303MPD2    C5 4563   1.072   3.010  10.030 -0.1756  0.2008 -0.4822
  303MPD2     H 4564   0.792   2.752  10.031 -1.1768  0.3159 -0.5285
  303MPD2    H1 4565   1.104   2.958   9.828  1.4419 -2.9948 -0.3255
  303MPD2    H2 4566   0.996   3.071  10.221  1.1444  1.7416 -2.0386
  303MPD2    H3 4567   1.138   3.096  10.021 -0.6617  0.4471 -1.8140
  303MPD2     N 4568   0.924   2.769   9.788 -0.1388  0.1896  0.1880
  303MPD2    H5 4569   0.979   2.795   9.707 -0.6806  1.1418  0.1392
  303MPD2    N1 4570   0.820   2.877  10.256 -0.0710 -0.4718  0.1266
  303MPD2    H7 4571   0.806   2.966  10.302  0.9631 -0.0517 -0.3706
  304TMC3    C1 4572   0.666   2.760  10.398  0.4402  0.0503 -0.1166
  304TMC3    C2 4573   0.607   2.882  10.436 -0.2130 -0.6953  0.4660
  304TMC3    C3 4574   0.530   2.889  10.544 -0.1844 -0.2993  0.5802
  304TMC3    C4 4575   0.634   2.644  10.467 -0.1247  0.1168  0.3272
  304TMC3    C5 4576   0.555   2.653  10.579 -0.1454 -0.1252 -0.6215
  304TMC3    C6 4577   0.500   2.777  10.619 -0.2917  0.3021 -0.4454
  304TMC3     C 4578   0.752   2.762  10.283  0.1138  0.4488 -0.0389
  304TMC3     O 4579   0.783   2.656  10.233 -0.6662  0.3131 -0.3743
  304TMC3     H 4580   0.603   2.962  10.363  1.2815 -0.8828  0.1718
  304TMC3    H1 4581   0.652   2.551  10.413 -0.2007 -0.5593  1.4618
  304TMC3    H2 4582   0.431   2.786  10.702  2.7022  1.6115  1.8987
  304TMC3    C7 4583   0.460   2.547  10.597  0.0583  0.1617  0.0581
  304TMC3    C8 4584   0.406   2.959  10.515  0.2452  0.1346 -0.4178
  304TMC3    O1 4585   0.341   2.575  10.606 -0.4013  0.0208 -0.3105
  304TMC3    O2 4586   0.416   3.073  10.466 -0.2473 -0.2596 -0.3681
  305MPD2     C 4587   2.977   0.068  13.675 -0.7347  0.4977  0.2827
  305MPD2    C1 4588   3.074   4.706  13.723 -0.1093 -0.2892 -0.0792
  305MPD2    C2 4589   3.127   4.609  13.642 -0.4474 -0.4898  0.0214
  305MPD2    C3 4590   3.077   4.584  13.512  0.4810 -0.1574 -0.2914
  305MPD2    C4 4591   2.970   4.661  13.470 -0.6440 -0.3816  0.1393
  305MPD2    C5 4592   2.925   0.043  13.548  0.5896  0.6047 -0.6824
  305MPD2     H 4593   3.216   4.554  13.670 -1.0580 -0.5216  1.8946
  305MPD2    H1 4594   2.943   4.653  13.366 -1.3327 -0.8894  0.3559
  305MPD2    H2 4595   2.929   0.139  13.742 -1.6283  1.7547 -1.7006
  305MPD2    H3 4596   2.845   0.105  13.509 -1.5434 -3.6517 -3.0084
  305MPD2     N 4597   3.129   4.487  13.428  0.0500 -0.0322 -0.5851
  305MPD2    H5 4598   3.104   4.475  13.330 -2.0279 -1.4928  0.0994
  305MPD2    N1 4599   3.127   0.014  13.855 -0.3420  0.4493 -0.2359
  305MPD2    H7 4600   3.064   0.069  13.912  0.1956  0.1740  0.6235
  306TMC3    C1 4601   3.267   0.006  14.046 -0.5168 -0.1875 -0.4145
  306TMC3    C2 4602   3.319   4.642  14.136  0.8017 -0.8316 -0.1549
  306TMC3    C3 4603   3.336   4.683  14.262  0.3536 -0.9996 -0.0800
  306TMC3    C4 4604   3.233   0.133  14.074  0.1493 -0.4532 -0.3553
  306TMC3    C5 4605   3.249   0.171  14.203 -0.0691 -0.0908  0.2181
  306TMC3    C6 4606   3.299   0.091  14.301  0.7694  0.5068 -0.0247
  306TMC3     C 4607   3.236   4.677  13.916  0.3174 -0.5987  0.3407
  306TMC3     O 4608   3.312   4.589  13.878  0.1004 -0.2446  0.3154
  306TMC3     H 4609   3.334   4.537  14.115  0.8308 -0.3040 -2.7491
  306TMC3    H1 4610   3.193   0.204  14.002  0.6563 -1.0976 -1.2648
  306TMC3    H2 4611   3.311   0.127  14.403  1.4269 -0.3180  0.1950
  306TMC3    C7 4612   3.185   0.297  14.246 -0.6557  0.1403  0.2332
  306TMC3    C8 4613   3.366   4.579  14.360  1.1109 -0.2691 -0.2543
  306TMC3    O1 4614   3.120   0.349  14.159 -0.2987 -0.2120 -0.0932
  306TMC3    O2 4615   3.431   4.485  14.318  0.0767  0.3829  0.0061
  307MPD2     C 4616   1.531   2.436   1.057  0.6602  0.2280  0.0391
  307MPD2    C1 4617   1.481   2.503   0.947  0.6926  0.1237 -0.0549
  307MPD2    C2 4618   1.343   2.511   0.921 -0.9504  0.1678  0.4005
  307MPD2    C3 4619   1.250   2.454   1.004  0.2381 -0.0258  0.6002
  307MPD2    C4 4620   1.302   2.381   1.111 -0.3008 -0.1298  0.0119
  307MPD2    C5 4621   1.442   2.366   1.136 -0.2781  0.1328  0.1016
  307MPD2     H 4622   1.303   2.561   0.834 -0.6667  0.9491  0.7216
  307MPD2    H1 4623   1.235   2.319   1.169 -1.3937 -1.1283 -2.3539
  307MPD2    H2 4624   1.636   2.423   1.083  0.5231  0.5176  0.7486
  307MPD2    H3 4625   1.469   2.304   1.221 -0.7951  0.0006  0.1681
  307MPD2     N 4626   1.115   2.479   0.974  0.5543 -0.2395 -0.1875
  307MPD2    H5 4627   1.101   2.521   0.883  0.9534  0.2336 -0.0328
  307MPD2    N1 4628   1.564   2.574   0.852  0.1348  0.7261  0.2204
  307MPD2    H7 4629   1.519   2.621   0.774 -0.1521 -1.3905 -0.9183
  308TMC3    C1 4630   0.857   2.628   0.787  0.4545  0.2170 -0.3132
  308TMC3    C2 4631   0.827   2.737   0.860 -0.2447 -0.4101  0.6507
  308TMC3    C3 4632   0.826   2.724   0.996  0.4543  0.0779  0.7383
  308TMC3    C4 4633   0.910   2.520   0.845 -0.6745 -0.4687 -0.0330
  308TMC3    C5 4634   0.896   2.501   0.977  0.0321  0.1344  0.5642
  308TMC3    C6 4635   0.861   2.602   1.059 -0.5730  0.4733 -0.3101
  308TMC3     C 4636   0.805   2.603   0.654  0.2759  0.2370 -0.5471
  308TMC3     O 4637   0.814   2.490   0.610  0.5219 -0.0826 -0.0758
  308TMC3     H 4638   0.789   2.829   0.816 -1.9582 -0.2341  2.5105
  308TMC3    H1 4639   0.931   2.428   0.792 -1.7563 -1.2872  0.9621
  308TMC3    H2 4640   0.888   2.600   1.164 -0.3437 -1.2335 -0.3994
  308TMC3    C7 4641   1.004   2.429   1.037 -0.2167 -0.0321  0.0220
  308TMC3    C8 4642   0.851   2.841   1.075  0.2058  0.3452  0.2162
  308TMC3    O1 4643   0.998   2.384   1.152 -0.5153 -0.2630 -0.1511
  308TMC3    O2 4644   0.833   2.852   1.192 -0.0141 -0.4445 -0.0577
  309MPD2     C 4645   0.447   3.640  17.256  1.0607  0.4076  0.3781
  309MPD2    C1 4646   0.373   3.637  17.141  0.1550  0.4592 -0.6331
  309MPD2    C2 4647   0.233   3.648  17.146  0.4076  0.3940 -0.8534
  309MPD2    C3 4648   0.166   3.684  17.261  0.0776 -0.3898  0.4862
  309MPD2    C4 4649   0.243   3.681  17.376  0.2628  0.3099  0.2667
  309MPD2    C5 4650   0.381   3.650  17.375 -0.0481  0.1802 -0.3365
  309MPD2     H 4651   0.169   3.634  17.059 -0.7372  0.3285 -0.0020
  309MPD2    H1 4652   0.200   3.699  17.473 -1.6285 -1.6104 -0.2325
  309MPD2    H2 4653   0.552   3.615  17.256  0.3131 -2.7446 -1.1960
  309MPD2    H3 4654   0.433   3.643  17.469 -1.2384 -1.1764  0.2240
  309MPD2     N 4655   0.029   3.714  17.274  0.0083 -0.1955 -0.1006
  309MPD2    H5 4656   0.006   3.734  17.371 -0.2285  1.8877 -0.6035
  309MPD2    N1 4657   0.427   3.617  17.015  0.7345 -0.1512 -0.4612
  309MPD2    H7 4658   0.355   3.628  16.945 -0.9119 -0.2661  1.2158
  310TMC3    C1 4659   0.572   3.573  16.841  0.0268  0.4060 -0.3934
  310TMC3    C2 4660   0.465   3.622  16.764  0.2122  0.3512 -0.2389
  310TMC3    C3 4661   0.463   3.582  16.632  0.4072 -0.3069  0.5638
  310TMC3    C4 4662   0.661   3.485  16.794  0.0616  0.5949  0.0596
  310TMC3    C5 4663   0.646   3.435  16.668  0.0978 -0.3098 -0.3195
  310TMC3    C6 4664   0.545   3.483  16.584  0.6226 -0.2426 -0.4716
  310TMC3     C 4665   0.553   3.580  16.986 -0.0887  0.2091 -0.1573
  310TMC3     O 4666   0.639   3.548  17.064  0.0584  0.0384 -0.3436
  310TMC3     H 4667   0.405   3.709  16.786 -0.3899  0.0668 -0.7534
  310TMC3    H1 4668   0.731   3.440  16.864  1.0779  2.6777  0.3727
  310TMC3    H2 4669   0.536   3.452  16.480  0.3209  0.1224 -0.5536
  310TMC3    C7 4670   0.710   3.319  16.613 -0.3791  0.5620  0.0122
  310TMC3    C8 4671   0.382   3.666  16.545 -0.0892  0.2770 -0.0076
  310TMC3    O1 4672   0.708   3.312  16.490 -0.4236  0.2125  0.0193
  310TMC3    O2 4673   0.274   3.708  16.587  0.1994 -0.3593  0.5301
  311MPD2     C 4674   2.182   0.018  12.472 -0.4781  0.0487 -0.2416
  311MPD2    C1 4675   2.186   0.022  12.611  0.1458  0.1338 -0.4409
  311MPD2    C2 4676   2.068   0.055  12.681  0.2470  0.6478  0.8383
  311MPD2    C3 4677   1.948   0.078  12.610  0.6429 -0.0225 -0.1697
  311MPD2    C4 4678   1.946   0.071  12.471  0.1808 -0.0024 -0.4124
  311MPD2    C5 4679   2.064   0.055  12.399 -0.0651  0.1292 -0.3759
  311MPD2     H 4680   2.074   0.060  12.789  0.5080  0.9725  0.8115
  311MPD2    H1 4681   1.868   0.095  12.400 -0.8091 -0.0411  0.6718
  311MPD2    H2 4682   2.272   0.012  12.411 -0.2559  3.1314 -0.2184
  311MPD2    H3 4683   2.062   0.060  12.291 -2.1962 -1.0708 -0.3757
  311MPD2     N 4684   1.834   0.122  12.684 -0.4839 -0.1982 -0.9021
  311MPD2    H5 4685   1.840   0.131  12.785 -0.4312  0.0165 -0.9244
  311MPD2    N1 4686   2.301   4.708  12.679 -0.2588  0.1295  0.9676
  311MPD2    H7 4687   2.293   4.690  12.779  2.4250 -0.7419  1.0094
  312TMC3    C1 4688   1.615   0.147  12.747 -0.5672  0.1100 -0.6085
  312TMC3    C2 4689   1.488   0.122  12.711  0.0982  0.3838 -0.4156
  312TMC3    C3 4690   1.393   0.126  12.806  0.1744 -0.8714 -0.3218
  312TMC3    C4 4691   1.649   0.178  12.873 -0.4884 -0.6568  0.7197
  312TMC3    C5 4692   1.549   0.188  12.959 -0.3382 -0.0383  0.1774
  312TMC3    C6 4693   1.417   0.170  12.933  0.0168  0.6771 -0.0769
  312TMC3     C 4694   1.708   0.134  12.638  0.7772 -0.1611  0.5345
  312TMC3     O 4695   1.658   0.117  12.528 -0.4106 -0.4880  0.1821
  312TMC3     H 4696   1.467   0.089  12.610 -0.2192  0.0184 -0.2330
  312TMC3    H1 4697   1.752   0.204  12.896 -0.2885 -1.3191  0.5721
  312TMC3    H2 4698   1.345   0.168  13.014 -0.1211  2.3516 -0.1657
  312TMC3    C7 4699   1.574   0.214  13.096 -0.0245  1.0502 -0.3969
  312TMC3    C8 4700   1.255   0.099  12.767 -0.3281  0.0238  0.0992
  312TMC3    O1 4701   1.487   0.267  13.160 -0.0862  0.0789  0.0617
  312TMC3    O2 4702   1.188   0.052  12.855  0.0772 -0.4282 -1.0975
  313MPD2     C 4703   2.933   4.052   9.991 -0.4970  0.0817 -0.3619
  313MPD2    C1 4704   2.837   4.147   9.952  0.6441  0.1449 -0.2977
  313MPD2    C2 4705   2.746   4.103   9.857 -0.0359  0.1429 -0.2602
  313MPD2    C3 4706   2.732   3.977   9.806  0.4714  0.7315  0.1068
  313MPD2    C4 4707   2.825   3.889   9.838  0.2078  0.4719  0.0167
  313MPD2    C5 4708   2.926   3.922   9.933 -0.7943  0.1254  0.9572
  313MPD2     H 4709   2.669   4.174   9.829 -1.3472 -0.8037  0.9275
  313MPD2    H1 4710   2.818   3.787   9.803 -0.6572  0.3325  0.5998
  313MPD2    H2 4711   3.006   4.069  10.069 -1.0071 -2.5750  0.6680
  313MPD2    H3 4712   2.998   3.849   9.967  0.9045  2.0224  1.4085
  313MPD2     N 4713   2.614   3.944   9.738  0.6069  0.2323 -0.2631
  313MPD2    H5 4714   2.556   4.017   9.700 -0.2559  1.4512  3.4428
  313MPD2    N1 4715   2.826   4.280  10.005 -0.1542  0.2859  0.0580
  313MPD2    H7 4716   2.764   4.346   9.960  1.1858  1.8881  0.5294
  314TMC3    C1 4717   2.879   4.461  10.128 -0.1221  0.3723  0.1487
  314TMC3    C2 4718   2.882   4.520  10.251 -0.6822  0.1604  0.1561
  314TMC3    C3 4719   2.855   4.658  10.250  0.8509  0.3237  1.0636
  314TMC3    C4 4720   2.863   4.538  10.008 -0.4529 -0.9489 -0.1380
  314TMC3    C5 4721   2.839   4.671  10.020  0.1479  0.2770  0.3633
  314TMC3    C6 4722   2.833   0.013  10.139 -0.4583  0.0137  0.4863
  314TMC3     C 4723   2.897   4.320  10.115  0.0448 -0.3269 -0.7170
  314TMC3     O 4724   2.977   4.271  10.193 -0.3935  0.2528  0.0620
  314TMC3     H 4725   2.892   4.459  10.340  1.8212  2.0431  1.1546
  314TMC3    H1 4726   2.880   4.495   9.911  0.7070  0.3698 -0.5256
  314TMC3    H2 4727   2.819   0.119  10.157  1.6580 -0.0871  2.7437
  314TMC3    C7 4728   2.846   0.035   9.904  0.3374  0.2256 -0.7372
  314TMC3    C8 4729   2.831   4.714  10.380 -0.0626 -0.1410 -0.0670
  314TMC3    O1 4730   2.904   4.708   9.807 -0.1139 -0.2424  0.9202
  314TMC3    O2 4731   2.777   0.101  10.387  0.2325  0.1478  0.2145
  315MPD2     C 4732   1.442   3.722   0.802  0.5042  0.4057 -0.1186
  315MPD2    C1 4733   1.580   3.707   0.794 -0.4897  0.0272 -0.0981
  315MPD2    C2 4734   1.656   3.801   0.732  0.1781 -0.4434 -0.3946
  315MPD2    C3 4735   1.600   3.907   0.668  0.1896 -0.8333  0.4862
  315MPD2    C4 4736   1.466   3.916   0.660 -0.0999 -0.0070 -0.2840
  315MPD2    C5 4737   1.385   3.830   0.733 -0.0967  0.2185 -0.5198
  315MPD2     H 4738   1.764   3.793   0.722  0.4202  2.8747 -0.3736
  315MPD2    H1 4739   1.421   3.989   0.594 -0.4512 -1.8290 -2.0455
  315MPD2    H2 4740   1.384   3.661   0.871  0.2681  3.6296  2.4902
  315MPD2    H3 4741   1.278   3.842   0.728  0.2413  3.3619 -0.1223
  315MPD2     N 4742   1.686   3.989   0.596  0.1406 -0.3119 -0.1894
  315MPD2    H5 4743   1.782   3.957   0.604  0.5943  0.9449 -0.6855
  315MPD2    N1 4744   1.651   3.602   0.852 -0.4131  0.1241  0.2620
  315MPD2    H7 4745   1.753   3.603   0.852 -0.3663 -1.3821 -3.0983
  316TMC3    C1 4746   1.781   4.177   0.492 -0.3855 -0.1739  0.9699
  316TMC3    C2 4747   1.900   4.161   0.567  1.1807 -1.0861  0.1453
  316TMC3    C3 4748   2.007   4.224   0.527  0.2243  0.2237  0.1663
  316TMC3    C4 4749   1.774   4.264   0.384  0.1101  0.9935  0.1009
  316TMC3    C5 4750   1.895   4.334   0.350  0.1924 -0.2291 -0.3504
  316TMC3    C6 4751   2.007   4.316   0.428  0.1552 -0.1687  0.1996
  316TMC3     C 4752   1.664   4.114   0.543 -0.7317  1.1851 -0.3122
  316TMC3     O 4753   1.556   4.165   0.514 -0.7898 -0.2529  0.5873
  316TMC3     H 4754   1.903   4.105   0.660  0.4820  0.1261  0.9026
  316TMC3    H1 4755   1.675   4.284   0.344 -0.1759  0.4975  0.5631
  316TMC3    H2 4756   2.099   4.364   0.397  1.9974 -3.6258  0.2610
  316TMC3    C7 4757   1.881   4.457   0.270 -0.1608  0.4891 -0.0608
  316TMC3    C8 4758   2.126   4.220   0.606  0.4101  0.7074  0.3080
  316TMC3    O1 4759   1.958   4.546   0.302  0.5797 -0.4319 -0.0730
  316TMC3    O2 4760   2.203   4.317   0.612  0.0198  0.7763 -0.1290
  317MPD2     C 4761   3.164   2.016  12.438 -0.2881 -0.4819 -0.0752
  317MPD2    C1 4762   3.193   1.897  12.386  0.1765 -0.7080  0.5969
  317MPD2    C2 4763   3.286   1.819  12.454 -0.1733 -0.0594  0.8587
  317MPD2    C3 4764   3.354   1.864  12.569 -0.2172 -0.4384 -0.2465
  317MPD2    C4 4765   3.338   1.993  12.611  0.0933  0.7298  0.1265
  317MPD2    C5 4766   3.241   2.063  12.544  0.6805 -0.9424 -0.2509
  317MPD2     H 4767   3.302   1.715  12.427 -0.9935  0.2745 -0.9058
  317MPD2    H1 4768   3.383   2.036  12.700  0.1979 -0.0095  0.4252
  317MPD2    H2 4769   3.096   2.082  12.384 -2.6688  0.0271  3.4978
  317MPD2    H3 4770   3.228   2.160  12.591 -1.4256 -1.9659  1.2906
  317MPD2     N 4771   3.450   1.776  12.622 -0.3160  0.7256 -0.2098
  317MPD2    H5 4772   3.467   1.691  12.569 -0.8391 -1.0058  2.3661
  317MPD2    N1 4773   3.136   1.840  12.275 -0.0665  0.0115 -0.0507
  317MPD2    H7 4774   3.182   1.755  12.245 -0.5403 -0.6132  0.9891
  318TMC3    C1 4775   3.583   1.672  12.773  0.3141 -0.7295  0.2007
  318TMC3    C2 4776   3.628   1.587  12.670  0.1398 -0.5883 -0.4167
  318TMC3    C3 4777   3.694   1.481  12.708  0.0415 -0.0925 -0.2578
  318TMC3    C4 4778   3.614   1.651  12.902 -0.4233  1.0585 -0.2361
  318TMC3    C5 4779   3.700   1.546  12.936 -0.7262  0.2911  0.4773
  318TMC3    C6 4780   3.735   1.452  12.842  0.1919 -0.0103  0.1171
  318TMC3     C 4781   3.508   1.787  12.742 -0.2127  0.3102 -0.0755
  318TMC3     O 4782   3.468   1.860  12.835 -0.0516  0.0001  0.0741
  318TMC3     H 4783   3.604   1.599  12.565 -1.0265 -1.0869 -0.2046
  318TMC3    H1 4784   3.577   1.720  12.977  0.8617  0.2069  1.1926
  318TMC3    H2 4785   3.798   1.366  12.860 -0.9216 -0.6483  1.0241
  318TMC3    C7 4786   3.722   1.517  13.078 -0.1400  0.7633 -0.9348
  318TMC3    C8 4787   3.650   1.367  12.635  0.2307 -0.3425 -0.2440
  318TMC3    O1 4788   3.648   1.568  13.162 -0.2342  0.5518 -0.0116
  318TMC3    O2 4789   3.635   1.374  12.513 -0.3079 -0.1788  0.1113
  319MPD2     C 4790   4.265   3.042  16.598  0.1067 -0.4890 -0.3000
  319MPD2    C1 4791   4.198   2.970  16.697 -0.5251 -0.0388 -0.7402
  319MPD2    C2 4792   4.064   2.935  16.684 -0.2101 -0.0079  1.0323
  319MPD2    C3 4793   4.005   2.957  16.559  0.2833  0.1114  0.1708
  319MPD2    C4 4794   4.078   3.019  16.460 -0.0829  0.2416 -0.3226
  319MPD2    C5 4795   4.206   3.061  16.473  0.1411 -0.2263 -0.6729
  319MPD2     H 4796   4.003   2.887  16.759 -0.6225  1.0181  1.3516
  319MPD2    H1 4797   4.023   3.024  16.366 -0.4884 -1.0511 -0.1639
  319MPD2    H2 4798   4.368   3.073  16.607  0.0537 -0.3991  0.0039
  319MPD2    H3 4799   4.249   3.110  16.387  1.1380  1.0484  0.5535
  319MPD2     N 4800   3.871   2.915  16.526 -0.2959  0.1356  0.3686
  319MPD2    H5 4801   3.834   2.918  16.431 -0.3112  0.8968  0.3974
  319MPD2    N1 4802   4.262   2.930  16.815  0.2401 -0.3655  0.5251
  319MPD2    H7 4803   4.218   2.859  16.873 -1.1897 -1.1517 -1.5207
  320TMC3    C1 4804   3.658   2.806  16.526  0.4832 -0.2682 -0.1005
  320TMC3    C2 4805   3.588   2.902  16.453 -0.3448 -0.0994  0.8011
  320TMC3    C3 4806   3.506   2.870  16.350 -0.3594 -0.1258  0.3161
  320TMC3    C4 4807   3.627   2.679  16.507 -0.2746  0.1756  0.7366
  320TMC3    C5 4808   3.543   2.643  16.403 -1.1649  0.1870  0.8355
  320TMC3    C6 4809   3.485   2.734  16.320 -0.3859  0.2782 -0.1039
  320TMC3     C 4810   3.785   2.831  16.594  0.7334 -0.1794 -0.3449
  320TMC3     O 4811   3.815   2.771  16.698  0.0334  0.0568  0.1402
  320TMC3     H 4812   3.603   3.003  16.488  2.6852  0.3774 -1.8828
  320TMC3    H1 4813   3.679   2.599  16.559  0.4284  0.6264  0.7311
  320TMC3    H2 4814   3.432   2.696  16.233  1.2750 -0.3727 -0.8279
  320TMC3    C7 4815   3.525   2.499  16.369 -0.0807 -0.9717 -0.1744
  320TMC3    C8 4816   3.496   2.972  16.251 -0.1257 -0.1933 -0.0684
  320TMC3    O1 4817   3.624   2.431  16.386 -0.2145 -0.2980  0.0721
  320TMC3    O2 4818   3.548   3.078  16.281  0.1678 -0.7315 -0.0304
  321TMC3    C1 4819   4.423   2.939  16.994 -0.0984 -0.5658 -0.1327
  321TMC3    C2 4820   4.352   2.834  17.045 -0.2295  0.8990  0.2209
  321TMC3    C3 4821   4.368   2.795  17.177 -1.5309 -0.5812 -0.1369
  321TMC3    C4 4822   4.523   3.008  17.059  0.0438  0.0614  0.4477
  321TMC3    C5 4823   4.545   2.969  17.188  0.0017 -0.4606 -0.4288
  321TMC3    C6 4824   4.455   2.880  17.251 -0.6980 -0.0291 -0.1029
  321TMC3     C 4825   4.365   2.996  16.870 -0.5139 -0.4738 -0.0590
  321TMC3     O 4826   4.422   3.098  16.830  0.0560  0.0330 -0.0987
  321TMC3     H 4827   4.302   2.765  16.978 -0.5809  1.5218 -0.1630
  321TMC3    H1 4828   4.580   3.090  17.016  0.4266  1.4267  3.5471
  321TMC3    H2 4829   4.463   2.867  17.359 -1.5254 -0.5423 -0.1085
  321TMC3    C7 4830   4.689   2.957  17.217 -0.7476 -0.7389  0.3100
  321TMC3    C8 4831   4.383   2.658  17.225 -0.4985 -0.1254  0.3207
  321TMC3    O1 4832   0.043   3.039  17.170  0.7347  0.3418 -0.1651
  321TMC3    O2 4833   4.445   2.639  17.326 -0.2564  0.3968 -0.1872
  322MPD2     C 4834   2.928   4.030  13.427 -0.0711 -0.8980  0.2985
  322MPD2    C1 4835   2.944   3.962  13.544 -0.7235 -0.5360 -0.1591
  322MPD2    C2 4836   2.949   3.826  13.545  0.4449  0.3851 -0.1575
  322MPD2    C3 4837   2.956   3.760  13.424 -0.1486  0.5329  0.3750
  322MPD2    C4 4838   2.948   3.827  13.306  0.8085  0.7923  0.1396
  322MPD2    C5 4839   2.918   3.960  13.305  0.4050 -0.4313 -0.2542
  322MPD2     H 4840   2.967   3.773  13.638 -1.8325  1.0364  0.6549
  322MPD2    H1 4841   2.977   3.772  13.217  0.1247  0.8571 -0.1281
  322MPD2    H2 4842   2.934   4.138  13.419  1.4757 -1.0932 -1.1097
  322MPD2    H3 4843   2.926   4.013  13.211 -2.5747 -0.1553 -0.3289
  322MPD2     N 4844   2.994   3.629  13.446  0.1386  0.0537  0.2878
  322MPD2    H5 4845   2.995   3.597  13.543 -1.1858 -0.1173  0.2392
  322MPD2    N1 4846   2.971   4.040  13.659  0.1280  0.2091 -0.1062
  322MPD2    H7 4847   2.984   4.140  13.654  1.3678  0.0119 -0.9087
  323TMC3    C1 4848   3.006   4.087  13.879 -0.4559  0.5459  0.2077
  323TMC3    C2 4849   3.125   4.155  13.852 -0.3195  0.1377 -0.0970
  323TMC3    C3 4850   3.171   4.258  13.928  0.3283 -0.1723  0.3189
  323TMC3    C4 4851   2.945   4.112  13.994  0.1762 -0.7446  0.1658
  323TMC3    C5 4852   2.987   4.220  14.067  0.6187  0.2248  0.7662
  323TMC3    C6 4853   3.101   4.291  14.040  0.8309 -0.1110 -0.7610
  323TMC3     C 4854   2.970   3.984  13.787  0.4421 -0.2779 -0.2985
  323TMC3     O 4855   2.915   3.880  13.820  0.4344 -0.1909  0.3193
  323TMC3     H 4856   3.182   4.115  13.770 -0.4648  0.4358 -0.3401
  323TMC3    H1 4857   2.872   4.042  14.033 -0.2242 -0.9156 -0.8823
  323TMC3    H2 4858   3.145   4.366  14.104 -0.3263  0.3429 -0.4980
  323TMC3    C7 4859   2.957   4.210  14.205  0.6406  0.2901 -0.2342
  323TMC3    C8 4860   3.308   4.263  13.943  0.4433 -0.4836  0.2363
  323TMC3    O1 4861   2.928   4.099  14.241 -0.4622 -0.3437 -0.5526
  323TMC3    O2 4862   3.349   4.254  14.058  0.0131 -0.3201 -0.0650
  324MPD2     C 4863   0.375   1.010  14.546  0.3209  0.1783  0.2290
  324MPD2    C1 4864   0.399   0.973  14.416 -0.6328  0.4725 -0.0784
  324MPD2    C2 4865   0.286   0.960  14.334 -0.0393  0.1456  0.2493
  324MPD2    C3 4866   0.162   0.998  14.381 -0.5374 -0.3845 -0.3438
  324MPD2    C4 4867   0.141   1.002  14.518  0.1907  0.0683  1.1976
  324MPD2    C5 4868   0.247   1.009  14.600 -0.5031 -0.1505  0.2311
  324MPD2     H 4869   0.306   0.946  14.229  1.6002  2.0331  0.3024
  324MPD2    H1 4870   0.043   1.024  14.559 -0.4266  0.0216 -0.2312
  324MPD2    H2 4871   0.456   1.027  14.615 -0.6010  0.5706  1.2072
  324MPD2    H3 4872   0.233   1.031  14.705  0.0919 -2.3561  0.7714
  324MPD2     N 4873   0.055   1.022  14.290 -0.5925 -0.9371 -0.1944
  324MPD2    H5 4874   4.687   1.023  14.337 -0.0094 -1.1371  0.9433
  324MPD2    N1 4875   0.527   0.938  14.360 -0.0131  0.0920  0.5930
  324MPD2    H7 4876   0.534   0.920  14.261  1.4080  0.4014  0.6510
  325TMC3    C1 4877   4.657   0.997  14.094 -0.1363  1.1066 -0.0705
  325TMC3    C2 4878   4.597   0.884  14.146  0.5193  0.3443 -0.2145
  325TMC3    C3 4879   4.525   0.808  14.065  0.7448 -0.1660  0.9055
  325TMC3    C4 4880   4.645   1.028  13.967  0.7398 -0.2556  0.3291
  325TMC3    C5 4881   4.563   0.954  13.882 -0.5243  0.4968  0.3131
  325TMC3    C6 4882   4.510   0.837  13.933 -0.0044 -0.1689  0.0703
  325TMC3     C 4883   0.056   1.047  14.154 -0.7486  0.2886 -0.2770
  325TMC3     O 4884   0.157   1.068  14.090  0.2821  0.0272  0.0922
  325TMC3     H 4885   4.611   0.862  14.252  2.2103  1.1866 -0.2431
  325TMC3    H1 4886   4.692   1.122  13.939  1.8085 -0.4877  1.3167
  325TMC3    H2 4887   4.449   0.779  13.864 -0.2925  1.6388 -1.2114
  325TMC3    C7 4888   4.484   1.033  13.795  1.0382  0.4636  0.1813
  325TMC3    C8 4889   4.509   0.670  14.105 -0.1808 -0.1967 -0.2884
  325TMC3    O1 4890   4.532   1.100  13.704  0.0705 -0.2348  0.2996
  325TMC3    O2 4891   4.584   0.637  14.195 -0.2356 -0.4655 -0.7418
  326MPD2     C 4892   1.388   1.893  11.114 -0.0816 -0.0805 -0.9321
  326MPD2    C1 4893   1.397   1.893  10.976  0.3788 -0.9220  0.7817
  326MPD2    C2 4894   1.518   1.913  10.914 -0.0404 -0.6366  0.0236
  326MPD2    C3 4895   1.627   1.957  10.984 -0.0066  0.2835 -0.3503
  326MPD2    C4 4896   1.618   1.959  11.122  0.1854  0.2666 -0.1839
  326MPD2    C5 4897   1.501   1.920  11.182  0.2726 -0.1987  0.3616
  326MPD2     H 4898   1.512   1.905  10.806 -2.1728 -0.4192  0.1119
  326MPD2    H1 4899   1.701   1.995  11.182  0.8542 -1.3929 -0.1063
  326MPD2    H2 4900   1.292   1.876  11.162  0.9010  0.4767  1.2433
  326MPD2    H3 4901   1.496   1.911  11.290  1.0828  1.6491  0.5464
  326MPD2     N 4902   1.744   2.006  10.923 -0.9402  0.8070 -0.1453
  326MPD2    H5 4903   1.807   2.056  10.984 -0.5045 -1.5417  1.3645
  326MPD2    N1 4904   1.288   1.857  10.898  0.5579 -0.2376  0.2742
  326MPD2    H7 4905   1.302   1.860  10.797 -0.1366 -0.1919  0.1782
  327TMC3    C1 4906   1.088   1.802  10.819  0.2089 -0.2511 -0.0786
  327TMC3    C2 4907   0.997   1.893  10.773  0.1320 -0.3329  0.2545
  327TMC3    C3 4908   0.992   1.919  10.639 -0.2893  0.5062 -0.3735
  327TMC3    C4 4909   1.154   1.717  10.736  0.4542 -0.1497  0.2430
  327TMC3    C5 4910   1.134   1.731  10.597  0.0112  0.0147  0.4045
  327TMC3    C6 4911   1.058   1.837  10.550  0.9092  0.8619 -0.0090
  327TMC3     C 4912   1.161   1.840  10.941 -0.1823  0.1689 -0.1676
  327TMC3     O 4913   1.106   1.882  11.040 -0.4241  0.2806 -0.5636
  327TMC3     H 4914   0.962   1.972  10.839 -1.7708 -0.1014 -1.0436
  327TMC3    H1 4915   1.209   1.644  10.794 -0.5810 -2.2172 -1.3626
  327TMC3    H2 4916   1.041   1.859  10.446 -0.5078  0.5644  0.1626
  327TMC3    C7 4917   1.248   1.715  10.513 -0.2108 -0.0006  0.6178
  327TMC3    C8 4918   0.961   2.057  10.590  0.5514 -0.2454 -0.1663
  327TMC3    O1 4919   1.249   1.749  10.397 -0.0826 -0.0187  0.1731
  327TMC3    O2 4920   0.985   2.080  10.472 -0.3816 -0.0408 -0.3090
  328MPD2     C 4921   3.088   0.965  16.739  0.6794 -0.5283 -0.2208
  328MPD2    C1 4922   3.130   1.066  16.817 -0.3389  0.6127  0.0673
  328MPD2    C2 4923   3.089   1.196  16.771  0.2114 -0.7271  0.9720
  328MPD2    C3 4924   3.020   1.213  16.657  0.8151 -0.1729  0.3209
  328MPD2    C4 4925   2.966   1.109  16.589  0.0414 -1.3888 -0.3300
  328MPD2    C5 4926   2.999   0.982  16.638  0.1150  0.4028 -0.0051
  328MPD2     H 4927   3.120   1.287  16.822 -0.8090  1.3074 -2.0191
  328MPD2    H1 4928   2.912   1.137  16.500 -0.6120  0.4278  0.6197
  328MPD2    H2 4929   3.111   0.861  16.761  1.6005 -0.1377  0.6309
  328MPD2    H3 4930   2.971   0.896  16.579  0.2838 -1.5933  2.8335
  328MPD2     N 4931   2.978   1.341  16.617 -0.2705  0.1638 -0.2676
  328MPD2    H5 4932   2.916   1.333  16.536 -0.0090  1.2162 -0.5681
  328MPD2    N1 4933   3.198   1.035  16.936  0.5885  0.6765  0.0424
  328MPD2    H7 4934   3.202   0.936  16.956 -1.5922  0.2856 -1.4381
  329TMC3    C1 4935   3.283   1.058  17.151  0.3761  0.0141 -0.7862
  329TMC3    C2 4936   3.362   1.131  17.232 -0.7006  0.1166  0.5606
  329TMC3    C3 4937   3.420   1.070  17.344 -0.3727 -0.3282 -0.2756
  329TMC3    C4 4938   3.250   0.925  17.170 -0.6688  0.0165  0.3078
  329TMC3    C5 4939   3.308   0.867  17.284  0.0217  0.2208  0.1553
  329TMC3    C6 4940   3.384   0.942  17.369 -0.0614 -0.4189  0.2313
  329TMC3     C 4941   3.241   1.126  17.027 -0.2311 -0.4898  0.1888
  329TMC3     O 4942   3.245   1.246  17.018  0.2187 -0.4842 -0.1190
  329TMC3     H 4943   3.394   1.229  17.198 -0.4377 -0.2129 -0.1387
  329TMC3    H1 4944   3.195   0.864  17.099  1.2080  1.6094 -2.4930
  329TMC3    H2 4945   3.415   0.898  17.463  0.4780 -1.0768 -0.2564
  329TMC3    C7 4946   3.323   0.717  17.273  0.9196  0.0132 -0.8115
  329TMC3    C8 4947   3.452   1.149  17.453  0.3754  0.0156  0.1402
  329TMC3    O1 4948   3.296   0.665  17.165 -0.1245  0.7440  0.8155
  329TMC3    O2 4949   3.425   1.270  17.436 -0.0685 -0.0946  0.4611
  330TMC3    C1 4950   2.087   0.847   9.752  0.3526 -0.1680 -0.1667
  330TMC3    C2 4951   2.151   0.820   9.635 -0.1675 -0.4069 -0.1713
  330TMC3    C3 4952   2.192   0.691   9.621  0.7755 -0.5473 -0.0756
  330TMC3    C4 4953   2.087   0.759   9.862 -0.4228  0.1750 -0.5828
  330TMC3    C5 4954   2.141   0.635   9.841  0.1679  0.1065  0.2297
  330TMC3    C6 4955   2.195   0.593   9.722  0.2821 -0.4016 -0.2627
  330TMC3     C 4956   2.045   0.981   9.773  0.2678 -0.4703  0.0960
  330TMC3     O 4957   2.051   1.011   9.891 -0.0670 -0.2639 -0.2057
  330TMC3     H 4958   2.162   0.881   9.546  2.6680 -1.2779 -0.4164
  330TMC3    H1 4959   2.036   0.785   9.955  0.5732  0.3149 -0.0730
  330TMC3    H2 4960   2.234   0.492   9.714 -0.5272 -0.6468 -1.1135
  330TMC3    C7 4961   2.154   0.547   9.962 -0.4585 -0.6698 -0.1309
  330TMC3    C8 4962   2.224   0.644   9.487 -0.4488 -0.0245 -0.4379
  330TMC3    O1 4963   2.135   0.593  10.073  0.0882  0.3931  0.4207
  330TMC3    O2 4964   2.256   0.726   9.401 -0.3881  0.3924 -0.7553
  331MPD2     C 4965   3.867   0.113  12.939 -0.5964 -0.3432 -0.4145
  331MPD2    C1 4966   3.986   0.135  12.869  0.0609 -0.5532  0.0493
  331MPD2    C2 4967   4.037   0.040  12.789 -0.0689 -0.3941  0.7810
  331MPD2    C3 4968   3.974   4.639  12.773  0.5190 -0.2035 -0.0061
  331MPD2    C4 4969   3.867   4.611  12.854 -0.6378 -0.1436 -0.8949
  331MPD2    C5 4970   3.810   4.718  12.928  0.0831 -0.8130 -0.0179
  331MPD2     H 4971   4.123   0.068  12.729  1.1376 -2.1370  1.7024
  331MPD2    H1 4972   3.800   4.528  12.838 -2.0481  1.2258 -2.1482
  331MPD2    H2 4973   3.817   0.189  12.998 -2.2905 -0.2005 -2.0328
  331MPD2    H3 4974   3.722   4.692  12.986 -1.1568 -0.7966 -1.9229
  331MPD2     N 4975   4.023   4.532  12.683 -0.1532  0.5287 -0.3304
  331MPD2    H5 4976   3.986   4.440  12.704  0.6894  0.6695  1.7772
  331MPD2    N1 4977   4.043   0.259  12.881  0.1254  0.2100  0.2556
  331MPD2    H7 4978   3.984   0.331  12.922  0.3103  0.3309  0.3106
  332TMC3    C1 4979   4.154   4.441  12.501  0.2765 -0.4943 -0.2813
  332TMC3    C2 4980   4.194   4.464  12.369 -0.0914 -0.1512  0.1733
  332TMC3    C3 4981   4.296   4.387  12.321 -0.5840 -0.3952  0.0317
  332TMC3    C4 4982   4.202   4.338  12.578  0.5663 -0.3361  1.0817
  332TMC3    C5 4983   4.311   4.271  12.528 -0.0942 -0.1917 -0.4478
  332TMC3    C6 4984   4.358   4.296  12.401  0.1641 -0.5919 -0.5574
  332TMC3     C 4985   4.105   4.553  12.573  0.1169 -0.3223  0.7152
  332TMC3     O 4986   4.135   4.661  12.521 -0.1658 -0.4174 -0.0138
  332TMC3     H 4987   4.161   4.555  12.321 -2.5510  0.5498  3.1609
  332TMC3    H1 4988   4.172   4.324  12.681 -1.0157 -0.5005  0.6056
  332TMC3    H2 4989   4.439   4.236  12.360 -0.2176 -2.8408  2.0452
  332TMC3    C7 4990   4.395   4.191  12.619 -0.1436  0.2131  0.0760
  332TMC3    C8 4991   4.378   4.461  12.218  0.5914 -0.0916  0.0765
  332TMC3    O1 4992   4.337   4.132  12.710  0.7154  0.6929 -0.2429
  332TMC3    O2 4993   4.499   4.447  12.218  0.0252  0.5070 -0.1397
  333MPD2     C 4994   4.323   0.262  11.053  0.0686  0.2736  0.1021
  333MPD2    C1 4995   4.405   0.162  11.002  0.3084 -0.9416 -0.0750
  333MPD2    C2 4996   4.390   0.031  11.042  0.3453  0.2631  0.1678
  333MPD2    C3 4997   4.297   0.001  11.140  0.9263 -0.3344  0.6356
  333MPD2    C4 4998   4.211   0.100  11.183  0.0676  0.1124  0.0160
  333MPD2    C5 4999   4.231   0.226  11.146  0.8788  0.1866 -0.0221
  333MPD2     H 5000   4.447   4.674  10.994 -0.0750  0.0347  0.0417
  333MPD2    H1 5001   4.126   0.078  11.247 -0.0640  0.9143  0.1154
  333MPD2    H2 5002   4.335   0.363  11.018 -2.6537 -0.0926 -1.8756
  333MPD2    H3 5003   4.163   0.298  11.189 -2.2034 -1.5934 -1.8672
  333MPD2     N 5004   4.293   4.594  11.185 -0.6471 -0.1227  0.3134
  333MPD2    H5 5005   4.358   4.530  11.140 -0.5780  0.0175  0.2135
  333MPD2    N1 5006   4.508   0.206  10.908 -0.1126 -0.6749 -0.4121
  333MPD2    H7 5007   4.498   0.298  10.866 -2.8228 -1.0505 -0.6389
  334TMC3    C1 5008   4.700   0.195  10.773  0.4964 -0.5716  0.0911
  334TMC3    C2 5009   0.097   0.137  10.762 -1.0651 -0.3620 -0.1184
  334TMC3    C3 5010   0.200   0.215  10.723  0.5463 -0.3649 -0.1318
  334TMC3    C4 5011   4.682   0.335  10.763 -0.4596  0.8165  0.0690
  334TMC3    C5 5012   0.073   0.406  10.724  0.2259  0.2372  0.0398
  334TMC3    C6 5013   0.194   0.345  10.696  0.6096 -0.1770  0.0573
  334TMC3     C 5014   4.608   0.125  10.861 -0.0566  0.0279 -0.4225
  334TMC3     O 5015   4.649   0.014  10.896  0.5718 -0.4807  0.0929
  334TMC3     H 5016   0.107   0.029  10.771 -0.4184 -0.3581 -0.7846
  334TMC3    H1 5017   4.586   0.385  10.777 -0.8072  0.3078 -0.4790
  334TMC3    H2 5018   0.274   0.399  10.647  0.5438  0.5110  0.7024
  334TMC3    C7 5019   0.062   0.549  10.697 -0.0163  0.5382 -0.3030
  334TMC3    C8 5020   0.314   0.147  10.669  0.1049 -0.7185  0.6397
  334TMC3    O1 5021   0.167   0.605  10.710 -0.3902 -0.5421 -0.7176
  334TMC3    O2 5022   0.293   0.047  10.604 -0.1512 -0.4274  0.2360
  335TMC3    C1 5023   3.799   1.697  17.233 -0.0184  0.1508  0.6258
  335TMC3    C2 5024   3.722   1.605  17.175 -0.0065  0.1000  0.2408
  335TMC3    C3 5025   3.781   1.490  17.137 -0.5828  0.0302 -0.5106
  335TMC3    C4 5026   3.936   1.676  17.268  0.1229  0.2563 -0.1694
  335TMC3    C5 5027   3.992   1.568  17.211  0.1235 -0.1080 -0.0580
  335TMC3    C6 5028   3.919   1.475  17.141 -0.4394  1.1785 -0.3334
  335TMC3     C 5029   3.729   1.805  17.295 -0.2369  0.1761  0.2990
  335TMC3     O 5030   3.792   1.893  17.349 -0.4837 -0.6022  0.2587
  335TMC3     H 5031   3.634   1.634  17.119 -0.2099  2.5844  1.8683
  335TMC3    H1 5032   3.990   1.761  17.307 -0.8377  1.6082 -1.7829
  335TMC3    H2 5033   3.961   1.379  17.113 -0.5361  0.5915  1.5655
  335TMC3    C7 5034   4.138   1.554  17.217 -0.3937  1.1713  0.0525
  335TMC3    C8 5035   3.702   1.406  17.041  0.3814 -0.1736  0.4553
  335TMC3    O1 5036   4.199   1.490  17.134 -0.4159  0.0392 -0.2581
  335TMC3    O2 5037   3.612   1.453  16.979  0.1034  1.0808 -0.2028
  336MPD2     C 5038   3.916   4.282  16.427  0.6028 -0.3644  0.2499
  336MPD2    C1 5039   3.900   4.207  16.313 -0.0092  0.1642 -0.1475
  336MPD2    C2 5040   3.929   4.073  16.310  0.4480 -0.4088  0.1970
  336MPD2    C3 5041   3.976   4.007  16.427 -0.2388  0.3169  0.0046
  336MPD2    C4 5042   3.982   4.081  16.542 -0.2352 -0.8284  0.6624
  336MPD2    C5 5043   3.953   4.218  16.539 -0.2707 -0.4125 -0.1606
  336MPD2     H 5044   3.914   4.028  16.213  0.6452  1.1939 -0.5835
  336MPD2    H1 5045   4.023   4.043  16.635  0.1063  0.0303  0.8668
  336MPD2    H2 5046   3.874   4.381  16.441 -0.8272 -0.6561 -1.9692
  336MPD2    H3 5047   3.954   4.273  16.632  1.6696  0.0970 -0.4780
  336MPD2     N 5048   4.016   3.868  16.432 -0.0797 -0.0496  0.2215
  336MPD2    H5 5049   4.062   3.843  16.519  0.0327  3.8906  1.3080
  336MPD2    N1 5050   3.834   4.247  16.191 -0.6734  0.2603 -0.1628
  336MPD2    H7 5051   3.816   4.173  16.124 -0.4605  1.1494 -1.2033
  337TMC3    C1 5052   3.721   4.387  16.034  0.2176 -0.6998 -0.4165
  337TMC3    C2 5053   3.639   4.286  16.002  0.2744 -0.2245  0.6996
  337TMC3    C3 5054   3.557   4.306  15.892 -0.6478 -0.9230 -0.2074
  337TMC3    C4 5055   3.709   4.505  15.972 -0.0426 -0.1484 -0.0881
  337TMC3    C5 5056   3.634   4.527  15.859  0.4609 -0.0109  0.1467
  337TMC3    C6 5057   3.551   4.422  15.821  0.1700  0.4583  0.4223
  337TMC3     C 5058   3.792   4.379  16.160 -0.0046  0.0324  0.2036
  337TMC3     O 5059   3.834   4.479  16.218  0.2013  0.0806  0.1029
  337TMC3     H 5060   3.631   4.190  16.052 -0.9485 -0.2765  0.4043
  337TMC3    H1 5061   3.767   4.588  16.011  0.4704 -0.7977  0.5492
  337TMC3    H2 5062   3.489   4.438  15.734  1.1392  1.9465  0.0032
  337TMC3    C7 5063   3.583   4.661  15.844 -0.0403 -0.3060 -0.0959
  337TMC3    C8 5064   3.508   4.181  15.835 -0.3158 -0.3447  0.3626
  337TMC3    O1 5065   3.583   0.009  15.946  0.0546  0.0055  0.1731
  337TMC3    O2 5066   3.572   4.083  15.870 -0.3181 -0.4991  0.2315
  338MPD2     C 5067   4.700   3.249   0.948 -0.4343  0.2121 -0.3124
  338MPD2    C1 5068   4.626   3.296   0.841  0.2857 -0.4827 -0.1768
  338MPD2    C2 5069   4.529   3.389   0.861  1.0145 -0.0209 -0.5751
  338MPD2    C3 5070   4.495   3.435   0.988 -0.4544  0.6383 -0.4755
  338MPD2    C4 5071   4.569   3.384   1.096  0.3450  0.4602 -0.2314
  338MPD2    C5 5072   4.671   3.293   1.076 -0.3661 -0.8456 -0.2407
  338MPD2     H 5073   4.466   3.429   0.782  0.9940  3.2086  1.0808
  338MPD2    H1 5074   4.532   3.403   1.196 -1.5826  0.7775 -0.9969
  338MPD2    H2 5075   0.049   3.169   0.932 -0.4445  0.2076 -0.3353
  338MPD2    H3 5076   0.013   3.253   1.153 -0.1614 -0.1850 -0.0710
  338MPD2     N 5077   4.379   3.518   0.995  0.2875 -0.1854 -0.3141
  338MPD2    H5 5078   4.359   3.558   0.904  1.5140  1.7318  0.2485
  338MPD2    N1 5079   4.650   3.263   0.708  0.1158  0.3007  0.5981
  338MPD2    H7 5080   4.588   3.300   0.637 -0.5576  1.3173  1.7147
  339TMC3    C1 5081   4.178   3.592   1.066  0.3085 -0.4444 -0.3921
  339TMC3    C2 5082   4.092   3.484   1.053 -1.1207  0.2015  0.4647
  339TMC3    C3 5083   4.024   3.467   0.941  0.7046  0.6882 -0.0686
  339TMC3    C4 5084   4.191   3.688   0.971  0.0165 -0.1207 -0.3180
  339TMC3    C5 5085   4.136   3.658   0.846  0.1412 -0.0536 -0.3695
  339TMC3    C6 5086   4.054   3.547   0.830 -0.8925  0.2325  0.3894
  339TMC3     C 5087   4.311   3.548   1.108  0.0588  0.3087  0.1560
  339TMC3     O 5088   4.311   3.500   1.218 -0.0669  0.0484  0.3034
  339TMC3     H 5089   4.078   3.416   1.137 -0.2504  0.0148  0.4616
  339TMC3    H1 5090   4.262   3.766   0.996  0.1126  0.0264 -1.0463
  339TMC3    H2 5091   4.006   3.520   0.736  3.1103  1.3880 -1.9917
  339TMC3    C7 5092   4.224   3.687   0.739  0.1762  0.3674  0.0637
  339TMC3    C8 5093   3.985   3.331   0.913  0.5446  0.6393 -0.1668
  339TMC3    O1 5094   4.334   3.699   0.789  0.4171  0.1695  0.0214
  339TMC3    O2 5095   3.959   3.299   0.799 -0.2945 -0.0988  0.4280
  340MPD2     C 5096   0.241   1.555   9.634  0.2974  0.6397  0.7795
  340MPD2    C1 5097   0.265   1.495   9.760 -0.6098  0.5639 -0.1508
  340MPD2    C2 5098   0.198   1.553   9.863 -0.2441  0.0765  0.3629
  340MPD2    C3 5099   0.112   1.662   9.851  0.7178 -0.0589  0.0263
  340MPD2    C4 5100   0.082   1.707   9.721 -0.6250  0.0676 -0.4690
  340MPD2    C5 5101   0.156   1.661   9.614  0.2016  0.0102 -0.2036
  340MPD2     H 5102   0.217   1.523   9.965  2.4776  1.3647  0.2348
  340MPD2    H1 5103   0.007   1.784   9.704  0.6760  1.5583  0.5803
  340MPD2    H2 5104   0.283   1.503   9.549  0.5635 -1.5321  2.2331
  340MPD2    H3 5105   0.133   1.695   9.513 -0.0565 -0.1354 -0.1925
  340MPD2     N 5106   0.048   1.730   9.962 -0.4952  0.1336  0.0130
  340MPD2    H5 5107   4.681   1.772   9.938  0.1369  0.4618 -1.7498
  340MPD2    N1 5108   0.343   1.376   9.768 -0.2790  0.5788 -0.1293
  340MPD2    H7 5109   0.393   1.349   9.684  0.0749 -0.7222  0.5102
  341TMC3    C1 5110   0.456   1.200   9.872  0.6099 -0.1037 -0.0958
  341TMC3    C2 5111   0.419   1.077   9.908  0.3149 -0.2205  0.1980
  341TMC3    C3 5112   0.500   0.969   9.880  0.3338  0.0329 -0.8278
  341TMC3    C4 5113   0.559   1.233   9.789 -0.1783 -0.0259 -0.4447
  341TMC3    C5 5114   0.643   1.126   9.763  0.4102 -0.3794  0.0479
  341TMC3    C6 5115   0.621   0.998   9.819  0.1474 -0.1941  0.5076
  341TMC3     C 5116   0.360   1.310   9.887 -0.0091  0.4394 -0.2033
  341TMC3     O 5117   0.299   1.325   9.993  0.0741  0.0928  0.0788
  341TMC3     H 5118   0.321   1.061   9.951  1.9787 -1.7367  3.4241
  341TMC3    H1 5119   0.594   1.334   9.771 -1.4211  0.6173  0.7597
  341TMC3    H2 5120   0.687   0.918   9.789  1.1838  1.6468 -2.0432
  341TMC3    C7 5121   0.771   1.161   9.717  1.0018  0.4127 -0.1012
  341TMC3    C8 5122   0.438   0.838   9.889 -0.1487  0.2818 -0.1788
  341TMC3    O1 5123   0.860   1.089   9.768 -0.3252  0.0364  0.5493
  341TMC3    O2 5124   0.318   0.839   9.918  0.0545 -0.0312  0.2991
  342MPD2     C 5125   1.956   4.466  17.517 -0.3261  0.1456  0.2296
  342MPD2    C1 5126   2.094   4.498  17.515 -0.1618 -0.7917  1.0026
  342MPD2    C2 5127   2.126   4.628  17.497 -0.5576 -0.0082  0.1623
  342MPD2    C3 5128   2.029   0.005  17.485 -0.5180 -0.1255 -0.0513
  342MPD2    C4 5129   1.893   4.693  17.483  0.4260 -0.1538  0.6902
  342MPD2    C5 5130   1.863   4.561  17.501  0.3660 -0.5806 -0.2981
  342MPD2     H 5131   2.229   4.648  17.524 -1.4031 -0.6073  3.9062
  342MPD2    H1 5132   1.810   0.041  17.470  0.3422 -0.5849 -1.0622
  342MPD2    H2 5133   1.925   4.362  17.524 -3.5057  1.0935  0.1621
  342MPD2    H3 5134   1.760   4.528  17.495 -0.1693  1.1921 -0.8320
  342MPD2     N 5135   2.068   0.143  17.471  0.3658  0.4852  0.6477
  342MPD2    H5 5136   1.992   0.210  17.478 -0.7784 -0.4498 -2.5442
  342MPD2    N1 5137   2.192   4.402  17.535  0.4205  0.1982 -0.3479
  342MPD2    H7 5138   2.287   4.429  17.511 -0.3913  1.3157 -2.2380
  343TMC3    C1 5139   2.292   4.187  17.577  0.5831  0.1160 -0.2343
  343TMC3    C2 5140   2.417   4.229  17.541  0.9378 -0.0680  0.4048
  343TMC3    C3 5141   2.529   4.151  17.545 -0.0850 -0.3791  0.3156
  343TMC3    C4 5142   2.279   4.050  17.620  0.4383 -0.0951 -0.4641
  343TMC3    C5 5143   2.393   3.977  17.621  0.7934 -0.9962 -0.8770
  343TMC3    C6 5144   2.516   4.020  17.584 -0.2636 -0.3648 -0.6514
  343TMC3     C 5145   2.176   4.269  17.563  0.1450  0.0055  0.3478
  343TMC3     O 5146   2.075   4.201  17.570 -0.5966  0.1976 -0.1811
  343TMC3     H 5147   2.430   4.327  17.496 -0.7963  0.3374  0.7927
  343TMC3    H1 5148   2.181   4.008  17.644  0.0242  0.4961 -1.1239
  343TMC3    H2 5149   2.601   3.957  17.605  1.1726  2.0595  0.7632
  343TMC3    C7 5150   2.382   3.835  17.642 -0.1033 -0.5990 -0.6764
  343TMC3    C8 5151   2.664   4.203  17.512 -0.2219 -0.0460  0.1720
  343TMC3    O1 5152   2.270   3.786  17.614 -0.4992 -0.1733  0.8401
  343TMC3    O2 5153   2.692   4.324  17.515 -0.3375  1.0728 -0.1441
  344MPD2     C 5154   3.433   3.858  10.370  0.0258  0.0324 -1.0010
  344MPD2    C1 5155   3.491   3.793  10.471  0.0189  0.3759  0.5825
  344MPD2    C2 5156   3.600   3.856  10.532 -0.0514  0.1579 -0.6085
  344MPD2    C3 5157   3.667   3.960  10.464 -0.2134 -0.3589  0.1897
  344MPD2    C4 5158   3.610   4.019  10.357 -0.3762 -0.2368 -0.3221
  344MPD2    C5 5159   3.490   3.969  10.311 -0.1130 -0.6998  0.3447
  344MPD2     H 5160   3.629   3.816  10.628  0.6032 -1.8993 -1.6577
  344MPD2    H1 5161   3.650   4.110  10.313 -1.1608 -0.0941 -0.7348
  344MPD2    H2 5162   3.341   3.820  10.326  0.1488  1.9185 -2.9034
  344MPD2    H3 5163   3.447   4.012  10.222  0.9741 -0.2011  0.0571
  344MPD2     N 5164   3.783   4.023  10.525  0.4595  0.6267  0.3072
  344MPD2    H5 5165   3.811   4.110  10.481 -1.6660  0.6548 -1.0141
  344MPD2    N1 5166   3.425   3.680  10.521 -0.1393 -0.4494  0.3454
  344MPD2    H7 5167   3.449   3.650  10.615  1.4472 -1.8137 -0.4863
  345TMC3    C1 5168   3.979   4.054  10.647  0.0302  0.3433  0.0644
  345TMC3    C2 5169   4.008   4.126  10.753  0.0424 -0.7323  0.6419
  345TMC3    C3 5170   4.112   4.215  10.749 -0.3852 -0.0534 -0.2202
  345TMC3    C4 5171   4.050   4.063  10.532 -0.4983  0.1393 -0.3240
  345TMC3    C5 5172   4.163   4.144  10.530  1.1787 -0.0122  0.0058
  345TMC3    C6 5173   4.193   4.222  10.637  0.2315  0.3104 -0.1040
  345TMC3     C 5174   3.854   3.979  10.634  0.1831  0.4251  0.6402
  345TMC3     O 5175   3.825   3.905  10.728  0.7398  0.0109 -0.3320
  345TMC3     H 5176   3.942   4.119  10.839 -0.8850  0.6129  0.0318
  345TMC3    H1 5177   4.035   3.995  10.448 -0.9944  1.5861 -1.4125
  345TMC3    H2 5178   4.274   4.295  10.633 -1.3582  2.0391 -0.7276
  345TMC3    C7 5179   4.189   4.217  10.405  0.1707 -0.0581 -0.0252
  345TMC3    C8 5180   4.106   4.341  10.825 -0.0206 -0.6337  0.3296
  345TMC3    O1 5181   4.211   4.336  10.421 -0.1095 -0.0347 -0.4810
  345TMC3    O2 5182   4.158   4.438  10.772 -0.7132  0.6773  0.3659
  346MPD2     C 5183   3.875   0.656  13.610  0.1690  0.4483  0.2844
  346MPD2    C1 5184   3.824   0.778  13.582  0.1798 -1.4272  0.1665
  346MPD2    C2 5185   3.770   0.841  13.693 -0.0461 -0.3633  0.7834
  346MPD2    C3 5186   3.748   0.783  13.814  0.2706 -0.0728 -0.0107
  346MPD2    C4 5187   3.789   0.652  13.829 -1.3900 -0.1815  0.2511
  346MPD2    C5 5188   3.858   0.589  13.727 -0.2786  0.1508 -0.0038
  346MPD2     H 5189   3.742   0.945  13.684 -2.3521 -1.2066 -1.5299
  346MPD2    H1 5190   3.757   0.598  13.917 -0.1810 -2.1715 -0.5405
  346MPD2    H2 5191   3.933   0.609  13.532 -1.4332  0.5331 -0.9729
  346MPD2    H3 5192   3.913   0.496  13.735  1.7674  1.4951  1.6411
  346MPD2     N 5193   3.668   0.858  13.899 -1.0665 -0.1227 -0.1250
  346MPD2    H5 5194   3.646   0.951  13.866 -0.1985 -0.0368 -0.4689
  346MPD2    N1 5195   3.833   0.843  13.457 -0.1054  0.5982  0.1051
  346MPD2    H7 5196   3.769   0.919  13.439  0.2400  0.6465 -0.9026
  347TMC3    C1 5197   3.589   0.956  14.094 -0.4309  0.2147  0.2727
  347TMC3    C2 5198   3.670   1.056  14.044  0.2246 -0.3203  0.0527
  347TMC3    C3 5199   3.771   1.103  14.123  0.0160 -0.1822 -0.0685
  347TMC3    C4 5200   3.596   0.928  14.228 -0.2883 -0.1983 -0.3060
  347TMC3    C5 5201   3.694   0.975  14.308  0.1675 -0.2534  0.2248
  347TMC3    C6 5202   3.778   1.061  14.256  0.4505 -0.9859 -0.2932
  347TMC3     C 5203   3.627   0.832  14.023 -0.0151  0.6189 -0.1368
  347TMC3     O 5204   3.623   0.730  14.089  0.0196 -0.0276 -0.2783
  347TMC3     H 5205   3.684   1.081  13.940  1.2387 -0.5348  0.1319
  347TMC3    H1 5206   3.543   0.847  14.275 -0.0057 -0.6804 -0.8090
  347TMC3    H2 5207   3.858   1.099  14.318  0.2175 -0.4447 -0.3200
  347TMC3    C7 5208   3.681   0.946  14.452 -0.1277  0.3061 -0.4308
  347TMC3    C8 5209   3.897   1.097  14.065  0.3364 -0.4889  0.4572
  347TMC3    O1 5210   3.565   0.944  14.491  0.1458  0.7047  0.2042
  347TMC3    O2 5211   3.977   1.057  14.144  0.5807 -0.4133  1.0836
  348MPD2     C 5212   2.506   1.144  12.230  0.1314 -0.3243  0.3826
  348MPD2    C1 5213   2.397   1.068  12.181  0.4656 -0.1886  0.2170
  348MPD2    C2 5214   2.309   1.129  12.093  1.1017 -0.6722  0.4691
  348MPD2    C3 5215   2.347   1.254  12.042 -0.0782 -0.3587 -0.6450
  348MPD2    C4 5216   2.446   1.329  12.101  0.3092 -0.1931  0.6226
  348MPD2    C5 5217   2.525   1.276  12.195  0.6704 -0.2019 -0.0798
  348MPD2     H 5218   2.223   1.081  12.050  1.2558  3.7677 -4.9017
  348MPD2    H1 5219   2.469   1.432  12.079  0.4433 -0.2219  0.6247
  348MPD2    H2 5220   2.580   1.115  12.304  1.4465 -2.4433 -1.7589
  348MPD2    H3 5221   2.610   1.337  12.223  0.3855  0.4496 -0.6313
  348MPD2     N 5222   2.278   1.299  11.925  0.1055  0.0103  0.2622
  348MPD2    H5 5223   2.197   1.244  11.899 -0.0003 -0.6086  1.9088
  348MPD2    N1 5224   2.370   0.932  12.207 -0.0644  0.7054 -0.2058
  348MPD2    H7 5225   2.275   0.899  12.197  0.6928 -2.0077  1.2773
  349TMC3    C1 5226   2.434   0.706  12.250  0.3569  0.3307  1.1421
  349TMC3    C2 5227   2.543   0.624  12.276  0.3968 -0.1669  0.2098
  349TMC3    C3 5228   2.551   0.503  12.207  0.4795  0.2263 -0.8614
  349TMC3    C4 5229   2.354   0.675  12.141 -0.2998 -0.0933  0.0351
  349TMC3    C5 5230   2.363   0.559  12.070 -0.4273  0.1185 -0.4064
  349TMC3    C6 5231   2.458   0.469  12.114 -0.6018  0.4785 -0.1172
  349TMC3     C 5232   2.465   0.846  12.263 -0.4497 -0.0162  0.2902
  349TMC3     O 5233   2.559   0.878  12.327  0.1426  0.4918 -0.2458
  349TMC3     H 5234   2.615   0.644  12.354 -0.6620 -0.8892  1.3889
  349TMC3    H1 5235   2.270   0.741  12.119 -0.0204  0.4775  0.6789
  349TMC3    H2 5236   2.461   0.373  12.064 -1.9992  0.3148  0.1260
  349TMC3    C7 5237   2.351   0.565  11.930 -0.3732 -0.2705  0.2799
  349TMC3    C8 5238   2.663   0.423  12.236 -0.3399 -0.3940 -0.1191
  349TMC3    O1 5239   2.387   0.465  11.872 -0.8768 -0.3617  0.3360
  349TMC3    O2 5240   2.766   0.472  12.293 -0.0925 -0.3494 -0.1569
  350MPD2     C 5241   1.940   3.357   9.187 -0.5530  0.5480 -0.1994
  350MPD2    C1 5242   1.987   3.320   9.309 -0.9717 -0.1988 -0.3672
  350MPD2    C2 5243   2.086   3.398   9.360 -0.6839  0.0296  0.6185
  350MPD2    C3 5244   2.130   3.518   9.305 -0.1666  0.7102 -0.4653
  350MPD2    C4 5245   2.091   3.542   9.175  0.4164 -0.7113  0.1655
  350MPD2    C5 5246   2.003   3.451   9.113 -0.2649  0.3170 -0.0192
  350MPD2     H 5247   2.124   3.376   9.460  0.8645 -0.7183 -0.1272
  350MPD2    H1 5248   2.127   3.632   9.126 -1.1211  0.4373  1.1743
  350MPD2    H2 5249   1.871   3.289   9.139 -0.4642 -1.0754  1.9832
  350MPD2    H3 5250   1.977   3.474   9.010  0.9953  0.1609 -0.3646
  350MPD2     N 5251   2.217   3.601   9.380 -0.3745 -0.2803 -0.1204
  350MPD2    H5 5252   2.237   3.587   9.479 -0.0568  1.5174  0.0699
  350MPD2    N1 5253   1.940   3.220   9.393 -0.5582  0.3142  0.4845
  350MPD2    H7 5254   1.994   3.202   9.477 -0.8922  1.7905  1.0206
  351TMC3    C1 5255   1.779   3.068   9.479  0.4602  0.1655 -0.2740
  351TMC3    C2 5256   1.876   2.991   9.533 -0.0300  0.1234 -0.5968
  351TMC3    C3 5257   1.826   2.892   9.621  0.2338 -0.2179 -0.2272
  351TMC3    C4 5258   1.644   3.045   9.490 -1.3851  0.0571  0.0231
  351TMC3    C5 5259   1.599   2.939   9.562  0.3195  0.3157 -0.7398
  351TMC3    C6 5260   1.693   2.866   9.637 -0.3607 -0.6629  0.1202
  351TMC3     C 5261   1.820   3.161   9.373  0.2067 -0.7467 -0.0336
  351TMC3     O 5262   1.732   3.195   9.293  0.5613  0.6334  0.0643
  351TMC3     H 5263   1.983   2.995   9.513  0.5291 -1.5086  2.0370
  351TMC3    H1 5264   1.576   3.095   9.422 -1.0612  1.8830  1.0432
  351TMC3    H2 5265   1.659   2.774   9.684 -1.1364 -1.8490 -2.7728
  351TMC3    C7 5266   1.472   2.880   9.540 -0.0935 -0.6236  0.4685
  351TMC3    C8 5267   1.925   2.799   9.677 -0.3170  0.1849 -0.7509
  351TMC3    O1 5268   1.425   2.902   9.429 -0.1281  0.5752 -0.1700
  351TMC3    O2 5269   2.025   2.780   9.610 -0.1289 -0.0111  0.1485
  352MPD2     C 5270   4.621   0.395   0.424  0.2034 -0.0757 -0.2262
  352MPD2    C1 5271   4.683   0.433   0.542 -0.2381  0.2148  0.1983
  352MPD2    C2 5272   0.087   0.388   0.569  0.0473 -0.0796 -0.0535
  352MPD2    C3 5273   0.148   0.298   0.483 -0.7224  0.4095 -0.1402
  352MPD2    C4 5274   0.087   0.266   0.366  0.1420  0.1155  0.4750
  352MPD2    C5 5275   4.682   0.306   0.343  0.5234  0.1008 -0.2429
  352MPD2     H 5276   0.141   0.429   0.653  1.7359 -1.2962 -0.5477
  352MPD2    H1 5277   0.120   0.195   0.291 -1.3789 -0.6885  0.5793
  352MPD2    H2 5278   4.521   0.430   0.399  0.6422  1.7091  0.5121
  352MPD2    H3 5279   4.635   0.285   0.248  1.7725 -1.5427 -0.4982
  352MPD2     N 5280   0.276   0.247   0.499 -0.1369 -0.5065  0.9886
  352MPD2    H5 5281   0.315   0.195   0.421 -3.4480  0.9415 -1.6303
  352MPD2    N1 5282   4.615   0.532   0.618 -0.5536 -0.0039  0.1216
  352MPD2    H7 5283   4.526   0.567   0.585 -1.0754 -1.1031  0.3737
  353TMC3    C1 5284   0.485   0.201   0.612  0.1506  0.3265  0.2971
  353TMC3    C2 5285   0.526   0.115   0.516  0.0553 -1.1439 -0.2070
  353TMC3    C3 5286   0.608   0.005   0.551  0.0443 -0.2273  0.3884
  353TMC3    C4 5287   0.537   0.181   0.742 -0.0017  0.1377  0.5987
  353TMC3    C5 5288   0.611   0.072   0.777 -0.6326  0.2680  0.2118
  353TMC3    C6 5289   0.654   4.705   0.682  0.3174  0.3384 -0.3245
  353TMC3     C 5290   0.361   0.280   0.602 -0.9482 -0.3471  0.1201
  353TMC3     O 5291   0.344   0.347   0.702 -0.5164 -0.3332 -0.1136
  353TMC3     H 5292   0.477   0.105   0.420 -0.3344 -0.9100 -0.0323
  353TMC3    H1 5293   0.494   0.237   0.824 -0.8185  1.3617 -0.6760
  353TMC3    H2 5294   0.725   4.631   0.717 -0.6546 -0.0935  0.7166
  353TMC3    C7 5295   0.535   0.003   0.871 -1.3179 -0.0660 -0.1430
  353TMC3    C8 5296   0.604   4.618   0.454 -0.8194 -0.0276  0.1328
  353TMC3    O1 5297   0.455   4.645   0.821  0.5915 -0.3562  0.4117
  353TMC3    O2 5298   0.562   4.633   0.341 -0.4479 -0.9742  0.0014
  354TMC3    C1 5299   1.126   1.665  12.851 -0.3320 -0.5674 -0.5108
  354TMC3    C2 5300   1.061   1.774  12.800 -0.0835 -0.2858  0.4263
  354TMC3    C3 5301   1.070   1.797  12.668 -0.3145  0.4701  0.3051
  354TMC3    C4 5302   1.197   1.574  12.783  0.4033  0.4819  0.1808
  354TMC3    C5 5303   1.218   1.610  12.655  0.0327 -0.6164  0.8059
  354TMC3    C6 5304   1.149   1.712  12.592 -0.0525  0.4320 -0.0592
  354TMC3     C 5305   1.123   1.665  12.997 -0.2877 -0.0814  0.0383
  354TMC3     O 5306   1.075   1.753  13.066 -0.2908 -0.6070  0.3719
  354TMC3     H 5307   1.009   1.844  12.864  0.5804  1.0307 -0.4654
  354TMC3    H1 5308   1.273   1.525  12.843 -1.3070  0.2273  2.1134
  354TMC3    H2 5309   1.156   1.727  12.485  0.2457  1.4513  0.0991
  354TMC3    C7 5310   1.324   1.546  12.580  0.3836  0.7669  0.7824
  354TMC3    C8 5311   1.042   1.929  12.615  0.9886 -0.3306 -0.0112
  354TMC3    O1 5312   1.346   1.429  12.606 -0.2002  0.3525 -0.0553
  354TMC3    O2 5313   1.095   1.950  12.508 -0.0671 -0.2973  0.0351
  355MPD2     C 5314   1.582   2.717  11.446  0.7159  0.3584  0.5922
  355MPD2    C1 5315   1.667   2.811  11.495 -0.0322 -0.2368  0.0394
  355MPD2    C2 5316   1.692   2.806  11.631  0.4397 -0.4946  0.5065
  355MPD2    C3 5317   1.661   2.701  11.716  0.1616 -0.2896  0.1237
  355MPD2    C4 5318   1.580   2.605  11.657  0.0273  0.1176  0.1047
  355MPD2    C5 5319   1.540   2.624  11.526 -0.6086  0.4871 -0.6424
  355MPD2     H 5320   1.754   2.886  11.670 -1.3938  0.9976  0.3563
  355MPD2    H1 5321   1.549   2.517  11.713 -0.1635  0.0984 -0.0327
  355MPD2    H2 5322   1.552   2.709  11.342 -1.0515  0.7792  1.0584
  355MPD2    H3 5323   1.487   2.540  11.482  0.2130  0.3253 -1.3129
  355MPD2     N 5324   1.705   2.686  11.852 -0.2432 -0.4065  0.5476
  355MPD2    H5 5325   1.655   2.613  11.901 -2.8129  0.7270 -0.3653
  355MPD2    N1 5326   1.737   2.894  11.406 -0.2626  0.0475 -0.6648
  355MPD2    H7 5327   1.719   2.888  11.307 -0.3671  2.2013 -0.7783
  356TMC3    C1 5328   1.884   2.854  11.870  0.1200 -0.2511  0.7040
  356TMC3    C2 5329   1.967   2.817  11.768 -0.4952  0.5901 -1.0739
  356TMC3    C3 5330   2.084   2.886  11.762 -0.7509 -0.1108 -0.7260
  356TMC3    C4 5331   1.919   2.946  11.959 -0.6508 -0.1087 -0.0107
  356TMC3    C5 5332   2.039   3.007  11.956 -0.4863 -0.3223 -0.0830
  356TMC3    C6 5333   2.129   2.976  11.852 -0.7578 -0.4098  0.0626
  356TMC3     C 5334   1.793   2.759  11.928 -0.2956  0.6496  0.1629
  356TMC3     O 5335   1.805   2.745  12.047 -0.2386  0.0756 -0.3690
  356TMC3     H 5336   1.946   2.740  11.694  0.0668 -0.7898  0.1978
  356TMC3    H1 5337   1.853   2.959  12.044 -2.0961  0.6585 -1.2295
  356TMC3    H2 5338   2.226   3.024  11.843 -0.4671 -0.6404  1.9556
  356TMC3    C7 5339   2.110   3.033  12.083 -0.4960  0.3538  0.0822
  356TMC3    C8 5340   2.135   2.896  11.620 -0.2007  1.2756 -0.3102
  356TMC3    O1 5341   2.051   2.982  12.181  0.7236 -0.0707 -0.9424
  356TMC3    O2 5342   2.128   2.800  11.551  0.5155  0.1969  0.0261
  357MPD2     C 5343   1.111   2.373   1.704  0.7994 -0.0088 -0.0791
  357MPD2    C1 5344   1.193   2.308   1.794 -0.2730  0.0489 -0.0034
  357MPD2    C2 5345   1.130   2.260   1.910 -0.0285 -0.2398  0.1745
  357MPD2    C3 5346   0.989   2.259   1.912 -0.2305 -0.3820 -0.5281
  357MPD2    C4 5347   0.918   2.325   1.814 -0.7720 -0.4993 -0.1397
  357MPD2    C5 5348   0.975   2.379   1.709 -0.3777 -0.4890 -0.1658
  357MPD2     H 5349   1.187   2.196   1.976  0.8462  1.0863  0.6915
  357MPD2    H1 5350   0.810   2.338   1.819 -0.5794  0.2326  1.9868
  357MPD2    H2 5351   1.161   2.426   1.623 -0.1911  3.4588  1.5767
  357MPD2    H3 5352   0.909   2.428   1.638 -0.2510 -0.8390 -0.5294
  357MPD2     N 5353   0.910   2.201   2.012 -0.5366  0.2613  0.1192
  357MPD2    H5 5354   0.809   2.214   2.009 -0.4921  0.1415 -1.6357
  357MPD2    N1 5355   1.328   2.288   1.762 -0.2105  0.6770  0.3861
  357MPD2    H7 5356   1.350   2.320   1.668 -0.3573 -4.0121 -1.2519
  358TMC3    C1 5357   1.544   2.183   1.778 -0.3041  0.0607 -0.2150
  358TMC3    C2 5358   1.546   2.159   1.646 -0.6407  0.5495 -0.1340
  358TMC3    C3 5359   1.667   2.146   1.586 -0.0083  0.1134  0.4409
  358TMC3    C4 5360   1.650   2.189   1.862 -0.1329 -0.0333 -0.3574
  358TMC3    C5 5361   1.765   2.155   1.798 -0.1080  0.2189 -0.0921
  358TMC3    C6 5362   1.780   2.139   1.662  0.0943 -0.4139  0.3938
  358TMC3     C 5363   1.414   2.215   1.843  0.0233  0.0963  0.3140
  358TMC3     O 5364   1.402   2.168   1.954 -0.3679  0.5063 -0.0918
  358TMC3     H 5365   1.453   2.148   1.592  0.1361 -1.7289 -1.0123
  358TMC3    H1 5366   1.635   2.218   1.965  2.5214 -0.1125  0.0299
  358TMC3    H2 5367   1.870   2.095   1.618 -1.7439 -1.4780 -2.3088
  358TMC3    C7 5368   1.888   2.124   1.872 -0.5522  0.4040  0.0733
  358TMC3    C8 5369   1.667   2.153   1.441  0.4140 -0.0226  0.1062
  358TMC3    O1 5370   1.992   2.093   1.817  0.4185  0.2389 -0.2367
  358TMC3    O2 5371   1.562   2.134   1.377 -0.1151 -0.4852  0.0189
  359MPD2     C 5372   2.103   1.522  12.198 -0.1126  0.0680  0.0579
  359MPD2    C1 5373   2.059   1.550  12.074  0.7421 -0.3872  0.2640
  359MPD2    C2 5374   1.982   1.461  12.005  0.1048  0.4286 -0.1483
  359MPD2    C3 5375   1.952   1.338  12.066 -0.3308  0.6786  0.4774
  359MPD2    C4 5376   2.002   1.307  12.191  0.2017 -0.6330  0.3543
  359MPD2    C5 5377   2.074   1.402  12.255 -0.0829  0.2235  0.2306
  359MPD2     H 5378   1.941   1.489  11.909  0.9436 -0.9478 -0.9060
  359MPD2    H1 5379   1.982   1.212  12.238  1.8829 -0.1739  1.9945
  359MPD2    H2 5380   2.157   1.590  12.263 -2.3278 -0.5588  2.5418
  359MPD2    H3 5381   2.122   1.376  12.349 -1.0798  0.0877  0.6998
  359MPD2     N 5382   1.869   1.240  12.002  0.3182 -0.2756 -0.0084
  359MPD2    H5 5383   1.875   1.151  12.051  2.2667 -0.8507 -1.2608
  359MPD2    N1 5384   2.082   1.678  12.014  0.1862  0.5243 -0.6198
  359MPD2    H7 5385   2.038   1.688  11.923 -0.1010 -0.2289 -0.5648
  360TMC3    C1 5386   2.166   1.901  11.995  0.6434  0.7968 -0.7706
  360TMC3    C2 5387   2.292   1.958  11.980 -0.5379 -0.0067  0.2222
  360TMC3    C3 5388   2.296   2.060  11.891 -0.2755 -0.6988 -0.6978
  360TMC3    C4 5389   2.052   1.944  11.929 -0.3225  0.1849 -1.0102
  360TMC3    C5 5390   2.064   2.052  11.841 -0.7406 -0.5862  0.3392
  360TMC3    C6 5391   2.185   2.110  11.822  0.7983  0.3080  0.3941
  360TMC3     C 5392   2.157   1.779  12.073  0.7637  0.5330  1.3641
  360TMC3     O 5393   2.240   1.773  12.163 -0.2647 -0.2864  0.1435
  360TMC3     H 5394   2.371   1.944  12.053  0.1307  1.4687 -0.2310
  360TMC3    H1 5395   1.958   1.897  11.957 -0.6767  1.7172  0.4141
  360TMC3    H2 5396   2.204   2.194  11.757  2.0282  1.1172  1.7892
  360TMC3    C7 5397   1.992   2.027  11.723 -0.2324  0.2491  0.0255
  360TMC3    C8 5398   2.421   2.086  11.829 -0.3411 -0.1647 -0.4268
  360TMC3    O1 5399   2.042   2.053  11.613 -0.2856  0.0236 -0.0145
  360TMC3    O2 5400   2.434   2.183  11.753 -0.0611 -0.4901 -0.1911
  361MPD2     C 5401   2.941   4.687  16.806  0.4131 -0.2008  0.0002
  361MPD2    C1 5402   3.006   0.079  16.852  0.6474 -0.2696  0.5354
  361MPD2    C2 5403   3.140   0.082  16.879  0.1266 -0.2151 -0.2030
  361MPD2    C3 5404   3.212   4.685  16.861  0.3181  0.2337 -0.3835
  361MPD2    C4 5405   3.150   4.580  16.796  0.3920  0.0805 -0.3346
  361MPD2    C5 5406   3.014   4.578  16.774 -0.0510  0.5102  0.2355
  361MPD2     H 5407   3.183   0.171  16.923 -0.3964  0.1925 -0.5236
  361MPD2    H1 5408   3.194   4.484  16.773 -0.1086  0.2898 -2.1717
  361MPD2    H2 5409   2.837   4.689  16.776 -0.0033  1.2668  1.5457
  361MPD2    H3 5410   2.963   4.495  16.727 -0.3576  1.0221 -0.3369
  361MPD2     N 5411   3.345   4.658  16.908  0.3384  0.3047  0.1174
  361MPD2    H5 5412   3.392   4.573  16.876  2.6293  2.8104 -3.1367
  361MPD2    N1 5413   2.930   0.201  16.874 -0.0426  0.5340  0.1150
  361MPD2    H7 5414   2.981   0.286  16.898  1.5570 -0.9567  1.9979
  362TMC3    C1 5415   2.759   0.360  16.901  0.2845 -0.1377 -0.0499
  362TMC3    C2 5416   2.656   0.366  16.992 -0.7287 -0.7176 -0.6071
  362TMC3    C3 5417   2.563   0.464  16.975 -0.1127 -0.1049  0.6841
  362TMC3    C4 5418   2.759   0.439  16.789  0.0650  0.8659 -0.6216
  362TMC3    C5 5419   2.653   0.532  16.775  0.9982 -0.0994  0.1812
  362TMC3    C6 5420   2.561   0.547  16.875  0.0529  1.0827  0.1939
  362TMC3     C 5421   2.796   0.217  16.878  0.2402 -0.1085 -0.1952
  362TMC3     O 5422   2.710   0.133  16.900 -0.0381 -0.3786 -0.3641
  362TMC3     H 5423   2.649   0.295  17.073 -0.2583  1.0297  0.9740
  362TMC3    H1 5424   2.838   0.438  16.715  0.6493  1.4976 -0.0007
  362TMC3    H2 5425   2.473   0.609  16.860 -1.2632 -0.7103  0.4323
  362TMC3    C7 5426   2.616   0.593  16.655  0.1106 -0.4686  0.1278
  362TMC3    C8 5427   2.445   0.462  17.067  0.3756  0.0574  0.4215
  362TMC3    O1 5428   2.542   0.689  16.666  0.5737 -0.1536 -0.5538
  362TMC3    O2 5429   2.410   0.350  17.098  0.6757 -0.2953 -0.1518
  363TMC3    C1 5430   3.410   2.658   9.554 -0.1153 -0.5983 -0.2461
  363TMC3    C2 5431   3.437   2.614   9.679  0.4260  0.3729 -0.0896
  363TMC3    C3 5432   3.354   2.522   9.737 -0.1425  0.0611  1.0311
  363TMC3    C4 5433   3.296   2.624   9.483  0.7249 -0.8602  0.2620
  363TMC3    C5 5434   3.209   2.541   9.550  0.7032  0.1167 -0.0385
  363TMC3    C6 5435   3.235   2.491   9.678 -0.3826 -0.5661  0.2898
  363TMC3     C 5436   3.491   2.748   9.478 -0.1601  1.5840 -0.4418
  363TMC3     O 5437   3.480   2.735   9.356 -0.3953  0.2776  0.1546
  363TMC3     H 5438   3.537   2.614   9.722  0.4428  0.0771 -0.1309
  363TMC3    H1 5439   3.272   2.677   9.391  0.2310 -0.9976  0.3100
  363TMC3    H2 5440   3.169   2.412   9.712  1.8833 -1.3082  2.9751
  363TMC3    C7 5441   3.096   2.491   9.477  0.1699  0.7258  0.8160
  363TMC3    C8 5442   3.392   2.466   9.864  0.0991 -0.0822  0.2837
  363TMC3    O1 5443   3.008   2.438   9.540 -0.2436 -0.4169 -1.0405
  363TMC3    O2 5444   3.471   2.527   9.931 -0.1015 -0.4540  0.3678
  364MPD2     C 5445   0.863   2.534  10.734  0.1080  0.4433  0.1005
  364MPD2    C1 5446   0.932   2.491  10.626 -0.3404 -0.7200 -0.4356
  364MPD2    C2 5447   0.939   2.355  10.600 -0.4546 -0.2770 -0.2504
  364MPD2    C3 5448   0.874   2.270  10.685 -0.4708  0.1464 -0.2562
  364MPD2    C4 5449   0.798   2.318  10.788 -0.0611 -0.8424  0.0204
  364MPD2    C5 5450   0.786   2.449  10.812 -0.1617  0.0799 -0.6868
  364MPD2     H 5451   0.994   2.315  10.515  1.0687 -0.7733  0.9648
  364MPD2    H1 5452   0.760   2.239  10.853 -1.7764  1.8152  2.2469
  364MPD2    H2 5453   0.867   2.640  10.755 -0.8529  0.7102 -1.0926
  364MPD2    H3 5454   0.723   2.482  10.894  1.7734 -0.6775  1.0932
  364MPD2     N 5455   0.896   2.130  10.684 -0.2126  0.1730  0.0435
  364MPD2    H5 5456   0.848   2.076  10.756  1.7726 -2.7335 -0.8178
  364MPD2    N1 5457   1.008   2.570  10.539 -0.2532 -0.2193  0.6708
  364MPD2    H7 5458   1.049   2.527  10.456  0.4615  0.3198  0.7416
  365TMC3    C1 5459   1.108   2.747  10.443  0.3324 -0.2629  1.0310
  365TMC3    C2 5460   1.214   2.678  10.389  0.2820  0.5768  0.3089
  365TMC3    C3 5461   1.311   2.746  10.318  0.0883  0.0783 -0.0192
  365TMC3    C4 5462   1.096   2.880  10.422  0.6376  0.0117  0.6638
  365TMC3    C5 5463   1.201   2.947  10.357 -0.4379 -0.5117 -0.4047
  365TMC3    C6 5464   1.304   2.883  10.304  0.6983  0.3753 -0.2002
  365TMC3     C 5465   1.041   2.698  10.559 -0.1974 -0.7052 -0.1207
  365TMC3     O 5466   1.018   2.783  10.646 -0.2264  0.0470 -0.0614
  365TMC3     H 5467   1.227   2.574  10.416 -0.5856 -0.1650 -2.1704
  365TMC3    H1 5468   1.008   2.930  10.460  0.7942  1.2826 -0.6522
  365TMC3    H2 5469   1.388   2.934  10.258  1.0990 -0.0225  0.0956
  365TMC3    C7 5470   1.216   3.086  10.391  0.3786 -0.2424 -0.3744
  365TMC3    C8 5471   1.396   2.676  10.223 -0.1965  0.3279 -0.2727
  365TMC3    O1 5472   1.288   3.152  10.313  0.1450  0.7777  0.2114
  365TMC3    O2 5473   1.481   2.745  10.159 -0.4301 -0.3025  0.5572
  366MPD2     C 5474   3.315   3.738  15.323  0.4198  0.0464  0.0815
  366MPD2    C1 5475   3.446   3.738  15.361  0.4690  0.0253  0.1954
  366MPD2    C2 5476   3.503   3.615  15.396 -0.1354 -0.2913 -0.1871
  366MPD2    C3 5477   3.426   3.500  15.402  0.1334 -0.1071 -0.1236
  366MPD2    C4 5478   3.291   3.509  15.372  0.4440 -0.5100 -0.6431
  366MPD2    C5 5479   3.239   3.626  15.324 -0.1066  0.1889 -0.5307
  366MPD2     H 5480   3.608   3.608  15.420 -0.5464 -1.4795  1.2282
  366MPD2    H1 5481   3.233   3.419  15.379  0.1090 -0.2972 -0.6854
  366MPD2    H2 5482   3.270   3.834  15.300 -1.0334 -0.5107  0.6403
  366MPD2    H3 5483   3.133   3.635  15.303 -0.2004  1.9734  0.8009
  366MPD2     N 5484   3.481   3.386  15.470  0.4586  0.0774 -0.5713
  366MPD2    H5 5485   3.574   3.404  15.505 -0.2862  1.1230  0.8449
  366MPD2    N1 5486   3.539   3.857  15.367  0.1244 -0.2866  0.5366
  366MPD2    H7 5487   3.635   3.837  15.393  0.8769  0.2653 -1.8888
  367TMC3    C1 5488   3.607   4.077  15.391  0.2204 -0.2629 -0.1847
  367TMC3    C2 5489   3.686   4.052  15.503  0.0573  0.3199  0.1399
  367TMC3    C3 5490   3.760   4.154  15.553  0.6109 -0.5931  0.2522
  367TMC3    C4 5491   3.592   4.201  15.345  0.4198 -0.0173 -0.1085
  367TMC3    C5 5492   3.651   4.299  15.416 -0.1534 -0.5556  0.5252
  367TMC3    C6 5493   3.734   4.285  15.521  0.5148 -0.8975  0.2442
  367TMC3     C 5494   3.499   3.986  15.359 -0.4753 -0.2118  0.8500
  367TMC3     O 5495   3.392   4.037  15.331  0.0199  0.0112 -0.0504
  367TMC3     H 5496   3.692   3.956  15.552  1.4450 -0.2042 -1.0381
  367TMC3    H1 5497   3.532   4.232  15.260  0.4300 -2.3294 -0.9687
  367TMC3    H2 5498   3.762   4.368  15.584  1.3783 -0.2941 -0.9400
  367TMC3    C7 5499   3.541   4.393  15.456 -0.3511 -0.1034 -0.1569
  367TMC3    C8 5500   3.840   4.121  15.677 -0.0757  0.4922  1.0264
  367TMC3    O1 5501   3.571   4.499  15.517  0.5514 -0.0221 -0.1848
  367TMC3    O2 5502   3.817   4.013  15.731  0.1295  0.0909  0.0796
  368MPD2     C 5503   0.513   0.264  12.798 -0.3247 -0.3233  0.2601
  368MPD2    C1 5504   0.493   0.400  12.777  0.2507 -0.6092  0.6505
  368MPD2    C2 5505   0.563   0.459  12.680 -0.3193  0.6118  0.3085
  368MPD2    C3 5506   0.661   0.388  12.609 -0.6452  0.7056  0.7328
  368MPD2    C4 5507   0.682   0.256  12.637 -0.4125 -0.1339  0.3653
  368MPD2    C5 5508   0.605   0.194  12.722 -0.9017 -0.1047  0.4577
  368MPD2     H 5509   0.559   0.566  12.662  2.3288  0.3333 -1.8394
  368MPD2    H1 5510   0.750   0.190  12.584 -1.6229 -1.5218  0.5553
  368MPD2    H2 5511   0.454   0.209  12.870 -0.7721 -0.3448 -0.1163
  368MPD2    H3 5512   0.635   0.091  12.738  0.4203  0.7432  3.4172
  368MPD2     N 5513   0.745   0.443  12.511  1.0755  0.2977 -0.9950
  368MPD2    H5 5514   0.807   0.371  12.477  0.9790  0.1940 -0.9513
  368MPD2    N1 5515   0.386   0.466  12.843  0.0633  0.0027 -0.3412
  368MPD2    H7 5516   0.317   0.408  12.890  0.5093  0.0047  0.3052
  369TMC3    C1 5517   0.238   0.642  12.914 -0.2434 -0.1917 -0.1234
  369TMC3    C2 5518   0.232   0.776  12.946  0.2495 -0.5056  0.3736
  369TMC3    C3 5519   0.110   0.820  12.996 -0.3215  0.3238 -0.3615
  369TMC3    C4 5520   0.128   0.561  12.911  0.8490  0.3117  1.0339
  369TMC3    C5 5521   0.010   0.616  12.952  0.2454 -0.3932 -0.4262
  369TMC3    C6 5522   4.722   0.742  12.997  0.2808  0.2126  0.2840
  369TMC3     C 5523   0.360   0.604  12.842  0.4222 -0.1839 -0.5593
  369TMC3     O 5524   0.438   0.691  12.806  0.3927  0.3419  0.5457
  369TMC3     H 5525   0.321   0.838  12.938  0.4647 -0.9687 -0.8315
  369TMC3    H1 5526   0.130   0.459  12.876 -1.6648  1.4935 -2.5429
  369TMC3    H2 5527   4.632   0.785  13.041 -0.1163 -0.8601  0.5275
  369TMC3    C7 5528   4.608   0.536  12.964 -0.2667  0.2357 -1.1653
  369TMC3    C8 5529   0.106   0.943  13.084  0.4681  0.0776  0.1841
  369TMC3    O1 5530   4.599   0.421  12.922  0.1140 -0.3365  0.2327
  369TMC3    O2 5531   0.063   0.914  13.195 -0.1961  0.5434 -0.1234
  370TMC3    C1 5532   4.162   1.213  16.153 -0.6473  0.5567  0.2843
  370TMC3    C2 5533   4.127   1.121  16.248  0.4401 -0.5083  0.4427
  370TMC3    C3 5534   4.098   0.997  16.199 -0.9969  0.0228 -0.1061
  370TMC3    C4 5535   4.180   1.185  16.021  0.2847  0.5952  0.7425
  370TMC3    C5 5536   4.170   1.055  15.985  0.7257  0.3153 -0.1153
  370TMC3    C6 5537   4.117   0.965  16.070  0.5582 -0.2486 -0.0986
  370TMC3     C 5538   4.159   1.351  16.202 -0.0744  0.2267 -0.5635
  370TMC3     O 5539   4.084   1.364  16.297 -0.2145 -0.2913 -0.1841
  370TMC3     H 5540   4.127   1.149  16.353  1.4766  0.6980  0.1290
  370TMC3    H1 5541   4.213   1.255  15.945 -2.6195  2.0868  0.8602
  370TMC3    H2 5542   4.087   0.866  16.037  0.3404 -0.5835  1.1119
  370TMC3    C7 5543   4.201   1.018  15.851 -0.8457  0.1415  0.2269
  370TMC3    C8 5544   4.070   0.893  16.296  0.2871 -0.6080 -0.3527
  370TMC3    O1 5545   4.177   1.095  15.761  0.0999  0.1165  0.5210
  370TMC3    O2 5546   4.083   0.776  16.260  0.5529 -0.5562 -0.2493
  371TMC3    C1 5547   0.563   3.838  15.557 -0.4486  0.0096 -0.5816
  371TMC3    C2 5548   0.445   3.895  15.595  0.1091 -0.2080  0.2464
  371TMC3    C3 5549   0.398   4.004  15.528  0.5884 -0.0772  0.8878
  371TMC3    C4 5550   0.645   3.900  15.467 -0.4990  0.5628 -0.4827
  371TMC3    C5 5551   0.591   4.006  15.395  0.2076 -0.1744 -0.4927
  371TMC3    C6 5552   0.468   4.061  15.425 -0.4643 -1.1702 -0.0803
  371TMC3     C 5553   0.647   3.759  15.647  0.0305  0.1815 -0.1106
  371TMC3     O 5554   0.767   3.788  15.656 -0.4808  1.0433  0.5756
  371TMC3     H 5555   0.384   3.841  15.666 -2.5661  1.2163 -0.9420
  371TMC3    H1 5556   0.745   3.860  15.453  0.4236  2.5459  0.4291
  371TMC3    H2 5557   0.442   4.146  15.362 -0.5455  0.8513  2.7153
  371TMC3    C7 5558   0.658   4.055  15.276 -0.2092  0.4257 -0.7761
  371TMC3    C8 5559   0.267   4.047  15.569 -0.9735  0.1552 -0.3548
  371TMC3    O1 5560   0.623   4.166  15.228  0.3564  0.6670  0.2795
  371TMC3    O2 5561   0.182   3.970  15.616  0.3236 -0.2321 -0.2840
  372MPD2     C 5562   0.507   0.770  13.207  0.8883  0.1279  0.1508
  372MPD2    C1 5563   0.507   0.640  13.253  0.0428  0.2256  0.3235
  372MPD2    C2 5564   0.421   0.607  13.357  0.6501  0.1393 -0.8556
  372MPD2    C3 5565   0.325   0.693  13.412 -0.4715  0.5612 -0.5670
  372MPD2    C4 5566   0.316   0.816  13.356 -0.3486  0.3778 -0.2745
  372MPD2    C5 5567   0.409   0.860  13.257 -0.4148  0.0149 -0.2391
  372MPD2     H 5568   0.442   0.509  13.397 -2.5059 -0.0726  0.2680
  372MPD2    H1 5569   0.238   0.889  13.377  1.2678  1.3122  2.4413
  372MPD2    H2 5570   0.570   0.817  13.133 -0.1788 -0.8955 -1.4107
  372MPD2    H3 5571   0.401   0.962  13.222  2.0934  0.4639  0.5007
  372MPD2     N 5572   0.244   0.654  13.515  0.5230 -0.3142 -0.3940
  372MPD2    H5 5573   0.252   0.562  13.557  2.2321 -0.1945 -0.4706
  372MPD2    N1 5574   0.599   0.545  13.201  0.1218 -0.5820  0.2761
  372MPD2    H7 5575   0.586   0.452  13.237  0.0136 -0.8341 -0.4223
  373TMC3    C1 5576   0.097   0.661  13.690  1.3014  0.1626 -0.6478
  373TMC3    C2 5577   0.112   0.731  13.811  0.1080 -1.0233 -0.2529
  373TMC3    C3 5578   0.091   0.665  13.928  0.0019 -0.0600 -0.4245
  373TMC3    C4 5579   0.072   0.532  13.675 -0.3535  0.4921  0.0024
  373TMC3    C5 5580   0.063   0.462  13.797  0.0614 -0.4067  0.3518
  373TMC3    C6 5581   0.075   0.525  13.918  0.6678 -0.1884 -0.8425
  373TMC3     C 5582   0.168   0.738  13.587  0.0777  0.1005  0.4508
  373TMC3     O 5583   0.147   0.861  13.580  0.1669  0.3110  0.5962
  373TMC3     H 5584   0.138   0.836  13.813 -0.0270 -1.0392  2.0857
  373TMC3    H1 5585   0.053   0.479  13.583 -0.8815 -0.7924  0.8409
  373TMC3    H2 5586   0.067   0.474  14.013  1.0575  0.8987 -0.2193
  373TMC3    C7 5587   0.056   0.308  13.777  0.0323 -0.0721 -0.0419
  373TMC3    C8 5588   0.178   0.703  14.035 -0.1500 -0.0267 -0.5368
  373TMC3    O1 5589   0.051   0.269  13.660 -0.0532 -0.3409  0.5321
  373TMC3    O2 5590   0.282   0.761  14.007 -0.3899  0.6580 -0.9739
  374TMC3    C1 5591   0.697   0.575  10.339  0.4815 -0.5591  0.3288
  374TMC3    C2 5592   0.800   0.496  10.374 -0.2440  0.4160  0.7634
  374TMC3    C3 5593   0.927   0.542  10.379 -0.0837  0.0505  0.4456
  374TMC3    C4 5594   0.728   0.699  10.293  0.3996  0.4645  0.4901
  374TMC3    C5 5595   0.855   0.744  10.277 -0.0642 -0.3019 -0.4714
  374TMC3    C6 5596   0.958   0.660  10.319 -0.2174  0.3997  0.0024
  374TMC3     C 5597   0.560   0.533  10.330  0.4088 -0.1619 -0.1420
  374TMC3     O 5598   0.468   0.612  10.357 -0.0776 -0.1588 -0.0236
  374TMC3     H 5599   0.780   0.395  10.409 -0.4998  0.0269 -0.4911
  374TMC3    H1 5600   0.637   0.744  10.255 -0.4179 -1.1100  0.5995
  374TMC3    H2 5601   1.057   0.700  10.301 -0.2707  0.8243  0.6570
  374TMC3    C7 5602   0.893   0.864  10.207 -0.0099 -0.0653  0.4791
  374TMC3    C8 5603   1.034   0.451  10.385  0.3836  0.0507 -0.6206
  374TMC3    O1 5604   1.007   0.867  10.167 -0.2607  0.1028 -0.1427
  374TMC3    O2 5605   1.012   0.338  10.339  0.2163 -0.0744  0.9617
  375MPD2     C 5606   0.659   1.031  17.145  0.0415  0.2881  0.3979
  375MPD2    C1 5607   0.594   1.057  17.028 -0.5475 -0.4976 -0.1972
  375MPD2    C2 5608   0.651   1.017  16.908 -0.2150  0.1416 -0.1488
  375MPD2    C3 5609   0.781   0.965  16.904  0.9630  0.4025  0.1155
  375MPD2    C4 5610   0.843   0.929  17.019  0.5341 -0.2632  0.7301
  375MPD2    C5 5611   0.773   0.959  17.137  1.0473 -0.3311  0.6784
  375MPD2     H 5612   0.590   1.039  16.821 -0.1548 -0.8280 -0.4292
  375MPD2    H1 5613   0.945   0.893  17.017  0.0097 -1.7214  0.4195
  375MPD2    H2 5614   0.622   1.067  17.240  2.2943  0.3233  1.2642
  375MPD2    H3 5615   0.824   0.945  17.232  0.5191 -1.2258  0.8329
  375MPD2     N 5616   0.861   0.950  16.791 -1.0818 -0.0675 -0.3061
  375MPD2    H5 5617   0.959   0.926  16.808 -1.3833  1.3241  3.2469
  375MPD2    N1 5618   0.473   1.119  17.026  0.3912  0.0972 -0.0752
  375MPD2    H7 5619   0.437   1.143  16.934  0.5613  1.3223  0.1796
  376TMC3    C1 5620   0.919   0.920  16.562 -0.3044 -0.0813  0.1614
  376TMC3    C2 5621   1.061   0.920  16.586  0.0987 -0.3201 -0.7034
  376TMC3    C3 5622   1.150   0.864  16.502  0.3524 -0.6457 -0.7326
  376TMC3    C4 5623   0.875   0.876  16.443  0.0886 -0.1987 -0.4130
  376TMC3    C5 5624   0.970   0.821  16.358  0.8370 -0.2131  0.4589
  376TMC3    C6 5625   1.107   0.820  16.383 -0.4581 -0.8464  0.0809
  376TMC3     C 5626   0.816   0.966  16.659 -0.4439  0.3725  0.0043
  376TMC3     O 5627   0.698   0.984  16.626  0.0826 -0.1876 -0.0207
  376TMC3     H 5628   1.084   0.979  16.674  0.0617  1.1866 -1.6905
  376TMC3    H1 5629   0.772   0.876  16.409  0.3367 -1.8769 -1.1822
  376TMC3    H2 5630   1.178   0.805  16.303  0.6395 -1.0841  1.1078
  376TMC3    C7 5631   0.931   0.808  16.221  0.1102 -0.9323  0.0606
  376TMC3    C8 5632   1.275   0.939  16.475 -0.3537  0.3420 -0.1914
  376TMC3    O1 5633   0.837   0.875  16.184 -0.4778 -0.4766  0.4657
  376TMC3    O2 5634   1.286   0.988  16.364 -0.1907  0.3656 -0.3709
  377MPD2     C 5635   3.650   0.838  12.837 -0.0725 -0.2002  0.7180
  377MPD2    C1 5636   3.776   0.778  12.856  0.3782 -0.3551  0.0699
  377MPD2    C2 5637   3.776   0.673  12.955 -0.2914  0.5352  0.0927
  377MPD2    C3 5638   3.672   0.656  13.037 -0.1744  0.0447 -0.2942
  377MPD2    C4 5639   3.554   0.726  13.023  0.3281 -0.9617 -0.0986
  377MPD2    C5 5640   3.545   0.821  12.921  0.0572 -0.4058 -0.1571
  377MPD2     H 5641   3.872   0.626  12.976  0.8341  1.9803 -1.8220
  377MPD2    H1 5642   3.468   0.721  13.089  0.0567 -1.5002 -0.4982
  377MPD2    H2 5643   3.644   0.908  12.754 -2.1978  0.5838  1.5555
  377MPD2    H3 5644   3.457   0.884  12.916 -0.1085 -0.6552 -0.3730
  377MPD2     N 5645   3.678   0.575  13.151  0.0967  0.1015 -0.3560
  377MPD2    H5 5646   3.602   0.580  13.219 -0.5678 -1.0239 -1.0259
  377MPD2    N1 5647   3.882   0.817  12.779 -0.2668  0.2430  0.0038
  377MPD2    H7 5648   3.862   0.891  12.712  1.0881  0.9376  0.3545
  378TMC3    C1 5649   4.124   0.901  12.466  0.2780 -0.5227 -0.2894
  378TMC3    C2 5650   4.038   0.864  12.566  0.5796 -0.2421 -0.6552
  378TMC3    C3 5651   4.094   0.834  12.686 -0.1313 -0.2612  0.9376
  378TMC3    C4 5652   4.258   0.892  12.474  0.3638 -0.3873  0.5817
  378TMC3    C5 5653   4.302   0.863  12.603 -0.3961  0.1073 -0.3605
  378TMC3    C6 5654   4.224   0.830  12.708  0.0132 -0.4833 -0.3088
  378TMC3     C 5655   4.069   0.931  12.339 -0.1893  0.5225  0.2567
  378TMC3     O 5656   3.953   0.898  12.325  0.6070 -0.0368 -0.1538
  378TMC3     H 5657   3.932   0.884  12.561  0.5372 -0.3071  0.0942
  378TMC3    H1 5658   4.329   0.932  12.403  0.6104 -2.2128 -0.1937
  378TMC3    H2 5659   4.272   0.806  12.802  2.0715 -2.4964 -1.8717
  378TMC3    C7 5660   4.439   0.846  12.620 -0.9117  0.1182  0.4093
  378TMC3    C8 5661   4.011   0.779  12.792 -0.0582  0.1082  0.6394
  378TMC3    O1 5662   4.476   0.833  12.737 -0.2026  0.2328 -0.3793
  378TMC3    O2 5663   4.079   0.725  12.877  0.4133 -0.2936 -0.3274
  379MPD2     C 5664   0.275   3.851  16.074 -0.0439 -0.2175  0.2918
  379MPD2    C1 5665   0.194   3.830  16.185  0.7396 -0.2143  0.2586
  379MPD2    C2 5666   0.240   3.775  16.303 -0.0193 -0.3245 -0.0298
  379MPD2    C3 5667   0.375   3.735  16.305  0.8249  0.4510 -0.3620
  379MPD2    C4 5668   0.452   3.741  16.192 -0.2485 -0.8480 -0.4886
  379MPD2    C5 5669   0.402   3.806  16.076  0.3123 -0.1571  0.0793
  379MPD2     H 5670   0.179   3.755  16.391  0.8262 -2.6853  0.0089
  379MPD2    H1 5671   0.552   3.702  16.178 -0.6853 -1.2738 -2.4360
  379MPD2    H2 5672   0.241   3.895  15.981  0.9781 -2.0604 -0.9642
  379MPD2    H3 5673   0.462   3.818  15.986 -1.3136  2.2602 -0.6673
  379MPD2     N 5674   0.438   3.674  16.420 -0.4490  0.2034  0.0061
  379MPD2    H5 5675   0.538   3.656  16.412 -0.0259  1.8194  1.7691
  379MPD2    N1 5676   0.061   3.866  16.159  0.0682  0.4815 -0.2226
  379MPD2    H7 5677   0.037   3.875  16.061  0.0414  1.7514 -0.0974
  380TMC3    C1 5678   4.560   3.844  16.188 -0.2142 -0.1581  0.4276
  380TMC3    C2 5679   4.551   3.769  16.072  0.4561 -0.1917  0.0017
  380TMC3    C3 5680   4.432   3.765  16.015 -0.0426  0.3956  0.1411
  380TMC3    C4 5681   4.452   3.905  16.246  0.5337  0.0226 -0.0957
  380TMC3    C5 5682   4.324   3.889  16.185 -0.5771  0.1235  0.0143
  380TMC3    C6 5683   4.318   3.809  16.074  0.3664 -0.8317  0.2323
  380TMC3     C 5684   4.686   3.869  16.250 -0.2325 -0.3583 -0.0852
  380TMC3     O 5685   4.684   3.894  16.370  0.5376 -0.2003  0.5955
  380TMC3     H 5686   4.635   3.723  16.021 -0.3739  0.9630 -2.4134
  380TMC3    H1 5687   4.463   3.961  16.338  0.2838 -1.7499  1.0185
  380TMC3    H2 5688   4.234   3.779  16.013 -1.4061  0.1075  2.2193
  380TMC3    C7 5689   4.237   4.005  16.191  0.6159 -1.0047  0.5352
  380TMC3    C8 5690   4.423   3.755  15.869 -0.4329  0.2478  0.0150
  380TMC3    O1 5691   4.265   4.076  16.285 -0.4408  0.7643  0.0746
  380TMC3    O2 5692   4.353   3.839  15.811  0.0562  0.1550 -0.1154
  381TMC3    C1 5693   4.409   0.080  16.043  0.2348 -0.4710  0.4173
  381TMC3    C2 5694   4.466   0.200  16.021 -0.3399  1.0415 -0.1126
  381TMC3    C3 5695   4.440   0.297  16.112  0.0514  0.0797 -0.6281
  381TMC3    C4 5696   4.315   0.065  16.147  0.4274 -0.0996  0.5788
  381TMC3    C5 5697   4.292   0.162  16.234  0.0352 -0.0913 -0.6487
  381TMC3    C6 5698   4.355   0.280  16.221  0.8748 -0.2258 -0.3835
  381TMC3     C 5699   4.481   4.685  16.004  0.0136  0.1396 -0.2108
  381TMC3     O 5700   4.537   4.699  15.896 -0.1036 -0.0977  0.1701
  381TMC3     H 5701   4.540   0.205  15.941 -1.0809  0.6612 -0.8194
  381TMC3    H1 5702   4.268   4.691  16.161  0.9082 -0.6087 -1.2591
  381TMC3    H2 5703   4.342   0.360  16.293 -0.1926 -1.4587  0.7961
  381TMC3    C7 5704   4.281   0.111  16.369  0.2999  0.5572  0.1461
  381TMC3    C8 5705   4.492   0.432  16.074  0.1570 -0.8877 -0.4796
  381TMC3    O1 5706   4.311   4.716  16.379 -0.3232 -0.1384 -0.2547
  381TMC3    O2 5707   4.559   0.443  15.972  0.2646 -0.4994 -0.2803
  382MPD2     C 5708   3.263   2.534  17.607 -0.0193 -0.0811  0.2966
  382MPD2    C1 5709   3.368   2.562  17.527 -0.1280 -0.3290 -0.3903
  382MPD2    C2 5710   3.385   2.461  17.425 -0.1857 -0.0589  0.1290
  382MPD2    C3 5711   3.299   2.355  17.403 -0.1831 -0.1122 -0.5200
  382MPD2    C4 5712   3.183   2.349  17.482  0.8010  0.3825 -0.0956
  382MPD2    C5 5713   3.174   2.430  17.590  0.4424  0.4103 -0.2767
  382MPD2     H 5714   3.466   2.482  17.356 -0.0933  0.4722  0.3929
  382MPD2    H1 5715   3.111   2.269  17.471  1.0503  0.4776 -2.4769
  382MPD2    H2 5716   3.232   2.603  17.684  1.6058  0.4326  0.4853
  382MPD2    H3 5717   3.101   2.413  17.668  2.1855 -0.4654  1.1284
  382MPD2     N 5718   3.302   2.276  17.286 -0.0554 -0.5625  0.9463
  382MPD2    H5 5719   3.215   2.232  17.258 -1.3205  1.7358  1.2001
  382MPD2    N1 5720   3.440   2.677  17.542 -0.6668 -0.7982 -0.7636
  382MPD2    H7 5721   3.419   2.730  17.626  0.4237 -0.0554 -0.9592
  383TMC3    C1 5722   3.392   2.170  17.091 -0.4343 -0.0383  0.2616
  383TMC3    C2 5723   3.264   2.146  17.037  0.0963 -0.0272  0.0864
  383TMC3    C3 5724   3.239   2.031  16.966  0.1420  0.0599 -0.6142
  383TMC3    C4 5725   3.488   2.074  17.079  0.4443 -0.3319 -0.0877
  383TMC3    C5 5726   3.465   1.972  16.989  0.0288  0.4541 -0.1926
  383TMC3    C6 5727   3.342   1.954  16.933  0.0157 -0.7428 -0.6683
  383TMC3     C 5728   3.409   2.271  17.199 -0.3238  0.0960  0.2167
  383TMC3     O 5729   3.531   2.297  17.216  0.3689 -0.0075  0.1606
  383TMC3     H 5730   3.188   2.218  17.061 -0.7763 -1.1925  0.7785
  383TMC3    H1 5731   3.585   2.095  17.122 -0.3270 -1.3443  2.1580
  383TMC3    H2 5732   3.334   1.870  16.865  0.1491 -0.6892 -0.7490
  383TMC3    C7 5733   3.573   1.880  16.952 -0.3093 -0.0785  0.2275
  383TMC3    C8 5734   3.096   2.001  16.945 -0.4823  0.0904  0.0448
  383TMC3    O1 5735   3.552   1.776  16.889 -0.0645 -0.1423 -0.2730
  383TMC3    O2 5736   3.014   2.087  16.972 -0.0262  0.0576 -0.1507
  384MPD2     C 5737   0.760   4.167  12.518 -0.0145 -0.0907  0.4811
  384MPD2    C1 5738   0.784   4.035  12.515  0.0228 -0.9762 -0.3784
  384MPD2    C2 5739   0.888   3.981  12.443  0.3675 -0.1355 -0.1814
  384MPD2    C3 5740   0.964   4.065  12.366  0.3252  0.1595  0.5593
  384MPD2    C4 5741   0.931   4.196  12.352  0.0499  0.0399 -0.1865
  384MPD2    C5 5742   0.827   4.244  12.432 -0.1434 -1.0239 -0.2231
  384MPD2     H 5743   0.902   3.876  12.462  2.2402 -0.3079 -2.5084
  384MPD2    H1 5744   0.990   4.262  12.289 -0.6363  0.8937  0.0503
  384MPD2    H2 5745   0.676   4.212  12.569 -0.4318 -0.3509  0.0276
  384MPD2    H3 5746   0.813   4.351  12.430 -0.4308 -1.0629 -0.2389
  384MPD2     N 5747   1.079   4.008  12.300  1.4614  0.0309  0.0287
  384MPD2    H5 5748   1.090   3.908  12.312  0.9249 -0.2550 -1.8831
  384MPD2    N1 5749   0.701   3.941  12.584  0.3171 -0.4428 -0.0799
  384MPD2    H7 5750   0.734   3.845  12.581  2.5014  0.3602 -1.4238
  385TMC3    C1 5751   1.243   3.971  12.144 -0.1313 -1.0464  0.1768
  385TMC3    C2 5752   1.237   3.975  12.005 -0.1090  0.3651 -0.5127
  385TMC3    C3 5753   1.222   3.857  11.937  0.0283  0.1499 -0.7583
  385TMC3    C4 5754   1.240   3.850  12.209 -0.3560 -0.2639  0.5053
  385TMC3    C5 5755   1.219   3.735  12.143  0.4238  0.0509 -0.3535
  385TMC3    C6 5756   1.205   3.735  12.007 -0.2466  0.2357 -0.2812
  385TMC3     C 5757   1.153   4.068  12.205  0.1819  0.4499 -0.2052
  385TMC3     O 5758   1.165   4.182  12.169  0.1658  0.1777 -0.1078
  385TMC3     H 5759   1.240   4.071  11.953  0.0822  0.7818  0.2705
  385TMC3    H1 5760   1.260   3.847  12.315 -0.1506  0.2367  0.4802
  385TMC3    H2 5761   1.172   3.647  11.954  0.7651 -0.3697  0.0951
  385TMC3    C7 5762   1.123   3.648  12.213  0.2433 -0.1845  0.6638
  385TMC3    C8 5763   1.259   3.860  11.800 -0.3563  0.0119 -0.0049
  385TMC3    O1 5764   1.100   3.696  12.320 -0.2037  0.4046  0.3228
  385TMC3    O2 5765   1.319   3.963  11.771  0.5072 -0.1077  0.1893
  386TMC3    C1 5766   0.895   0.860  11.616 -0.6476 -0.3512  0.2430
  386TMC3    C2 5767   0.888   0.918  11.495  1.0579  0.1492 -0.6413
  386TMC3    C3 5768   0.797   1.010  11.479  0.3213 -0.0178  0.5851
  386TMC3    C4 5769   0.812   0.888  11.721 -0.5356  0.0675 -0.4497
  386TMC3    C5 5770   0.713   0.984  11.702 -0.6252  0.0292 -0.0743
  386TMC3    C6 5771   0.704   1.045  11.578  0.4136 -0.0099  0.2623
  386TMC3     C 5772   0.993   0.758  11.633 -0.2050 -0.5024  0.9444
  386TMC3     O 5773   0.960   0.653  11.691  0.4290 -0.5170 -0.0047
  386TMC3     H 5774   0.954   0.902  11.411  1.0208 -2.8247 -0.0934
  386TMC3    H1 5775   0.821   0.829  11.812  0.1750  0.5807 -0.1935
  386TMC3    H2 5776   0.624   1.117  11.566 -0.8041 -1.2454  0.8663
  386TMC3    C7 5777   0.591   0.970  11.781  0.0590  0.2085  1.1966
  386TMC3    C8 5778   0.759   1.045  11.340  0.2153  0.9780 -0.5095
  386TMC3    O1 5779   0.594   0.976  11.902 -0.3031 -0.3790  0.2458
  386TMC3    O2 5780   0.688   1.143  11.339 -0.5125  0.0299 -0.4683
  387MPD2     C 5781   3.619   0.692   9.713  0.3727 -0.0523 -0.2572
  387MPD2    C1 5782   3.742   0.702   9.777  0.5107  0.2186 -0.4327
  387MPD2    C2 5783   3.825   0.596   9.780 -0.0386 -1.1684 -0.3239
  387MPD2    C3 5784   3.790   0.473   9.723  0.5480  0.3519  0.6379
  387MPD2    C4 5785   3.673   0.461   9.654 -1.2029  0.3900 -0.0633
  387MPD2    C5 5786   3.586   0.563   9.656 -0.5498 -0.2652 -0.4241
  387MPD2     H 5787   3.923   0.611   9.824 -0.4862 -1.2276  0.6725
  387MPD2    H1 5788   3.644   0.363   9.616  1.8988 -0.7365  0.4691
  387MPD2    H2 5789   3.552   0.777   9.711 -0.4424 -0.7057 -0.5181
  387MPD2    H3 5790   3.495   0.548   9.599  0.4133  1.0160 -2.3061
  387MPD2     N 5791   3.884   0.376   9.743  0.0223 -0.4164  0.0525
  387MPD2    H5 5792   3.974   0.407   9.779  0.1179 -0.3631 -0.2290
  387MPD2    N1 5793   3.785   0.816   9.842  0.1518 -0.3704 -0.4936
  387MPD2    H7 5794   3.882   0.821   9.872  0.5458  1.7547 -2.0764
  388TMC3    C1 5795   3.786   1.017   9.961 -0.2273 -1.1913 -0.4660
  388TMC3    C2 5796   3.764   1.150   9.966  0.1332 -0.6054  0.1911
  388TMC3    C3 5797   3.842   1.222  10.058  0.0571  0.0558 -0.0207
  388TMC3    C4 5798   3.867   0.951  10.043  0.7393  0.5300  0.8352
  388TMC3    C5 5799   3.945   1.027  10.135 -0.6903 -0.5051 -0.8327
  388TMC3    C6 5800   3.932   1.163  10.146  0.2066  0.4262 -0.0947
  388TMC3     C 5801   3.711   0.929   9.871  0.3102  0.0559 -0.3893
  388TMC3     O 5802   3.601   0.970   9.828  0.1631 -0.2110  0.4880
  388TMC3     H 5803   3.698   1.189   9.889 -0.2651  2.4915  2.1022
  388TMC3    H1 5804   3.855   0.845  10.062  0.9805  0.0963 -1.4024
  388TMC3    H2 5805   3.990   1.215  10.221 -2.4569  3.3601 -0.0649
  388TMC3    C7 5806   4.043   0.956  10.218  0.7100  0.4493  0.1241
  388TMC3    C8 5807   3.836   1.363  10.076  0.2806  0.6142 -0.0364
  388TMC3    O1 5808   4.088   1.003  10.321 -0.2109 -0.0249  0.5846
  388TMC3    O2 5809   3.907   1.413  10.159  0.5126  0.3799  0.3177
  389MPD2     C 5810   3.062   3.905  10.289  0.5241 -0.6880 -0.3905
  389MPD2    C1 5811   3.039   3.779  10.248  0.5670  0.0093  0.4455
  389MPD2    C2 5812   2.917   3.719  10.286 -0.1568 -0.1489  0.9063
  389MPD2    C3 5813   2.837   3.779  10.380  0.1541 -0.3289  0.0608
  389MPD2    C4 5814   2.856   3.911  10.409 -0.0850  0.4598 -0.7378
  389MPD2    C5 5815   2.968   3.974  10.362  0.3013  0.2392 -0.9283
  389MPD2     H 5816   2.897   3.618  10.253 -2.0722  0.2635  0.8106
  389MPD2    H1 5817   2.782   3.970  10.463 -0.8864 -1.7989  0.5990
  389MPD2    H2 5818   3.147   3.961  10.251  1.0478  0.4900  2.5219
  389MPD2    H3 5819   2.978   4.081  10.371  0.9839  0.3558 -3.0759
  389MPD2     N 5820   2.725   3.710  10.432  0.1529  0.6088 -0.4714
  389MPD2    H5 5821   2.679   3.748  10.514  1.7494  2.7053 -0.5599
  389MPD2    N1 5822   3.128   3.735  10.150  0.1624 -0.1867  0.9254
  389MPD2    H7 5823   3.204   3.796  10.121 -0.5280  0.6887  0.9466
  390TMC3    C1 5824   2.538   3.580  10.455 -0.1685 -0.6289  0.5012
  390TMC3    C2 5825   2.517   3.644  10.577  0.2899 -0.6341  0.7281
  390TMC3    C3 5826   2.392   3.698  10.597 -0.2537  0.1313 -0.0143
  390TMC3    C4 5827   2.430   3.551  10.371 -0.2619 -0.0645  0.4548
  390TMC3    C5 5828   2.307   3.590  10.411  0.4244 -0.6449 -0.3504
  390TMC3    C6 5829   2.290   3.676  10.507  0.0166 -0.2497 -0.5751
  390TMC3     C 5830   2.662   3.596  10.384  0.4515 -1.0123  0.4500
  390TMC3     O 5831   2.673   3.549  10.270 -0.1309  0.2745 -0.8264
  390TMC3     H 5832   2.590   3.662  10.655 -0.2141  2.0615  0.5997
  390TMC3    H1 5833   2.448   3.490  10.283  1.0958  1.1098 -0.0875
  390TMC3    H2 5834   2.196   3.729  10.519 -0.0469 -0.2294 -1.2005
  390TMC3    C7 5835   2.215   3.477  10.423  0.1705  0.4917 -0.1500
  390TMC3    C8 5836   2.352   3.664  10.731 -0.3884  0.3915  0.0243
  390TMC3    O1 5837   2.233   3.390  10.338 -0.3905 -0.0674 -0.3630
  390TMC3    O2 5838   2.408   3.574  10.782  0.1373 -0.2182 -0.0608
  391MPD2     C 5839   1.897   0.921  11.625 -0.1360 -0.0708  0.1801
  391MPD2    C1 5840   1.909   1.029  11.541  0.0275  0.1677  0.7317
  391MPD2    C2 5841   1.862   1.023  11.407  0.2419 -0.3790 -0.3109
  391MPD2    C3 5842   1.807   0.906  11.357 -0.0135  0.0518 -0.2476
  391MPD2    C4 5843   1.794   0.799  11.440  0.5373  0.1334  0.5984
  391MPD2    C5 5844   1.839   0.807  11.573 -0.3813  0.5698  0.7553
  391MPD2     H 5845   1.879   1.113  11.348  0.1375  0.0793  0.3499
  391MPD2    H1 5846   1.761   0.699  11.415 -1.7650  1.7456 -2.8044
  391MPD2    H2 5847   1.930   0.913  11.728  2.3134  2.1362 -0.4229
  391MPD2    H3 5848   1.831   0.722  11.640 -0.0508 -0.5982 -0.6664
  391MPD2     N 5849   1.776   0.900  11.220 -0.4110  0.2788  0.3971
  391MPD2    H5 5850   1.793   0.983  11.165 -2.3904  0.3581 -0.0973
  391MPD2    N1 5851   1.968   1.148  11.595 -0.8604  0.4417  0.1340
  391MPD2    H7 5852   2.024   1.137  11.678  1.9766  2.2156 -1.5646
  392TMC3    C1 5853   1.725   0.809  11.009 -0.9352  0.6285  0.6336
  392TMC3    C2 5854   1.642   0.735  10.925  0.4312 -0.3040 -0.0674
  392TMC3    C3 5855   1.669   0.715  10.794 -0.6086 -0.0158  0.1126
  392TMC3    C4 5856   1.842   0.854  10.956 -0.3488  0.0411  0.0799
  392TMC3    C5 5857   1.869   0.841  10.820  0.1281  0.1981 -0.6467
  392TMC3    C6 5858   1.786   0.767  10.740  0.3010  0.4055 -0.0686
  392TMC3     C 5859   1.715   0.794  11.152 -0.1022 -0.2739 -0.4523
  392TMC3     O 5860   1.641   0.704  11.190 -0.1574  0.4884 -0.0692
  392TMC3     H 5861   1.550   0.697  10.968 -1.5601  1.8956 -2.3974
  392TMC3    H1 5862   1.916   0.901  11.019 -1.3354 -0.0378  1.3060
  392TMC3    H2 5863   1.796   0.749  10.633  1.2824 -0.6772  0.2106
  392TMC3    C7 5864   1.995   0.890  10.762  0.1754 -0.4379  0.3951
  392TMC3    C8 5865   1.557   0.681  10.718  0.5930 -0.4786  0.7043
  392TMC3    O1 5866   2.086   0.900  10.846  0.1973  0.2618  0.1411
  392TMC3    O2 5867   1.454   0.728  10.766 -0.6064 -0.2256 -0.1890
  393TMC3    C1 5868   1.431   3.666   9.841  0.7088 -0.0330 -0.9101
  393TMC3    C2 5869   1.312   3.654   9.910 -0.2148 -0.6897 -0.5372
  393TMC3    C3 5870   1.289   3.737  10.013  0.0501  0.2181 -0.6783
  393TMC3    C4 5871   1.517   3.767   9.875 -0.0781 -0.1468  0.4637
  393TMC3    C5 5872   1.491   3.849   9.985  0.0760 -0.2385 -0.5909
  393TMC3    C6 5873   1.375   3.837  10.056 -0.7146  0.1029 -0.0722
  393TMC3     C 5874   1.438   3.614   9.706  0.0164  0.0494 -0.9186
  393TMC3     O 5875   1.531   3.651   9.638  0.0053  0.0675  0.4077
  393TMC3     H 5876   1.236   3.580   9.890 -0.7632 -0.1002 -0.6104
  393TMC3    H1 5877   1.598   3.784   9.805 -0.5739 -0.7119 -0.2556
  393TMC3    H2 5878   1.374   3.891  10.150  0.5282  0.6050 -0.3357
  393TMC3    C7 5879   1.576   3.956  10.027  0.3140  0.2573  0.1080
  393TMC3    C8 5880   1.181   3.700  10.105 -0.1159 -0.0737 -0.3718
  393TMC3    O1 5881   1.550   4.023  10.128  0.5616  0.1890 -0.1405
  393TMC3    O2 5882   1.125   3.593  10.089 -0.6854 -1.2980  0.2685
  394TMC3    C1 5883   3.216   3.593   9.983  0.2273 -0.4249 -0.7016
  394TMC3    C2 5884   3.182   3.516   9.877  0.2557  0.1652 -0.1787
  394TMC3    C3 5885   3.265   3.521   9.770 -0.5616  0.0244  0.0882
  394TMC3    C4 5886   3.329   3.675   9.984  0.1542 -0.2318  0.2114
  394TMC3    C5 5887   3.404   3.682   9.867 -0.5688  0.6624  0.1169
  394TMC3    C6 5888   3.372   3.605   9.758 -0.3525  0.5334  0.3598
  394TMC3     C 5889   3.122   3.608  10.093  0.4507  0.2378  0.1764
  394TMC3     O 5890   3.034   3.522  10.109 -0.3197 -0.0483 -0.6473
  394TMC3     H 5891   3.075   3.498   9.871  0.0236  1.5688 -0.3386
  394TMC3    H1 5892   3.354   3.732  10.073  0.9121  0.3639 -0.3863
  394TMC3    H2 5893   3.433   3.598   9.669 -1.3099  0.5827 -0.2973
  394TMC3    C7 5894   3.517   3.772   9.868  0.3652  0.4294  0.2126
  394TMC3    C8 5895   3.216   3.464   9.648  0.1283  0.1778 -0.3264
  394TMC3    O1 5896   3.553   3.827   9.765  0.0123  0.1637  0.6067
  394TMC3    O2 5897   3.242   3.507   9.535 -0.3321 -0.0279  0.4825
  395TMC3    C1 5898   1.867   1.722  14.040  0.0098 -0.3628 -0.1681
  395TMC3    C2 5899   1.752   1.791  14.074  0.8130 -0.1412  0.6593
  395TMC3    C3 5900   1.751   1.882  14.177 -0.2531  0.5636 -0.5209
  395TMC3    C4 5901   1.983   1.743  14.112 -0.4186 -0.5203  0.3694
  395TMC3    C5 5902   1.973   1.834  14.216  0.1883  0.3510 -0.2021
  395TMC3    C6 5903   1.864   1.904  14.251 -0.4533  0.9565  0.1644
  395TMC3     C 5904   1.846   1.574  14.046  0.0504 -0.6542 -0.3671
  395TMC3     O 5905   1.929   1.517  14.115  0.4745  0.0559  0.1273
  395TMC3     H 5906   1.660   1.778  14.018  1.4834  0.6645 -0.6495
  395TMC3    H1 5907   2.077   1.696  14.086 -0.7353 -0.7862 -0.2995
  395TMC3    H2 5908   1.868   1.978  14.330  1.8035  0.0051  0.9299
  395TMC3    C7 5909   2.061   1.809  14.329  0.1817 -0.2442  0.1930
  395TMC3    C8 5910   1.619   1.883  14.248  0.4272 -0.2190 -0.0502
  395TMC3    O1 5911   2.058   1.894  14.416 -0.3378  0.3439  1.0298
  395TMC3    O2 5912   1.613   1.980  14.322 -0.2314  0.4088  0.2208
  396MPD2     C 5913   2.128   2.218   0.149  1.0942 -0.2817 -0.0977
  396MPD2    C1 5914   2.123   2.200   0.014  0.4520  0.5694  0.3369
  396MPD2    C2 5915   2.141   2.304  17.621  0.3630  0.0279  0.3717
  396MPD2    C3 5916   2.155   2.429  17.678 -0.1172 -0.0203 -0.3129
  396MPD2    C4 5917   2.160   2.454   0.122  0.4408  0.2414  0.6602
  396MPD2    C5 5918   2.149   2.340   0.198 -1.1562  0.2244 -0.0392
  396MPD2     H 5919   2.143   2.290  17.513 -1.9669  1.3022  0.1537
  396MPD2    H1 5920   2.167   2.553   0.164 -1.4147  0.1170  1.2749
  396MPD2    H2 5921   2.125   2.134   0.217  0.5033  0.4111  0.7359
  396MPD2    H3 5922   2.163   2.346   0.305  1.3600  0.4407 -0.3803
  396MPD2     N 5923   2.156   2.532  17.585 -0.0408 -0.1319 -0.2044
  396MPD2    H5 5924   2.147   2.496  17.490  1.5866 -0.8331 -0.0863
  396MPD2    N1 5925   2.107   2.069  17.653  0.3252 -0.9748 -0.3282
  396MPD2    H7 5926   2.078   2.004   0.035 -1.6520 -1.5684 -1.6506
  397TMC3    C1 5927   2.075   1.893  17.497 -0.8423 -0.3257 -0.1697
  397TMC3    C2 5928   2.069   1.886  17.358  0.3779 -0.7883 -0.4777
  397TMC3    C3 5929   1.959   1.839  17.293 -0.0452 -0.2945 -0.8105
  397TMC3    C4 5930   1.959   1.847  17.558  0.7334  0.2700  0.3145
  397TMC3    C5 5931   1.846   1.813  17.494 -0.4314 -0.9289  0.0836
  397TMC3    C6 5932   1.847   1.795  17.356  0.3652 -0.3998  0.4357
  397TMC3     C 5933   2.127   2.025  17.523 -0.6187  0.2155  0.1818
  397TMC3     O 5934   2.185   2.077  17.428  0.0870 -0.0340 -0.1243
  397TMC3     H 5935   2.164   1.882  17.306  0.8898  0.6443  0.3282
  397TMC3    H1 5936   1.958   1.849  17.666 -1.1157  1.9003  0.2703
  397TMC3    H2 5937   1.761   1.768  17.296 -0.6657 -0.0348  1.7578
  397TMC3    C7 5938   1.753   1.737  17.571 -0.3249 -0.5666  0.2998
  397TMC3    C8 5939   1.940   1.900  17.161  0.0756 -0.0566  0.8321
  397TMC3    O1 5940   1.704   1.647  17.509  0.2755  0.5602 -0.1644
  397TMC3    O2 5941   1.838   1.877  17.106  0.4364  0.9471  0.2199
  398MPD2     C 5942   0.389   3.634   0.144 -0.0035 -0.3113 -1.0277
  398MPD2    C1 5943   0.467   3.525   0.112 -0.5534  0.0031  0.0346
  398MPD2    C2 5944   0.595   3.513   0.170 -0.2126  0.4220 -0.1200
  398MPD2    C3 5945   0.643   3.612   0.261  0.0234 -0.0922  0.0618
  398MPD2    C4 5946   0.556   3.714   0.292 -0.4541  0.5044 -0.7402
  398MPD2    C5 5947   0.431   3.729   0.232  1.1192 -0.4592  0.0334
  398MPD2     H 5948   0.664   3.442   0.127  0.0530 -0.9801  2.5832
  398MPD2    H1 5949   0.586   3.788   0.365 -0.1032  1.1621 -1.5480
  398MPD2    H2 5950   0.293   3.649   0.095  0.2318 -0.8493 -1.6472
  398MPD2    H3 5951   0.371   3.812   0.269 -2.0082 -3.6024  1.9414
  398MPD2     N 5952   0.761   3.577   0.316  0.5098  0.7144 -0.2878
  398MPD2    H5 5953   0.805   3.495   0.275  0.4891 -0.1255  1.3371
  398MPD2    N1 5954   0.426   3.429   0.016  0.3719 -0.5424 -0.1155
  398MPD2    H7 5955   0.491   3.353   0.005  2.3703  0.9450  1.2263
  399TMC3    C1 5956   0.293   3.276  17.595  0.8039  0.0869 -0.0765
  399TMC3    C2 5957   0.397   3.184  17.602 -0.4092 -0.1751 -0.5937
  399TMC3    C3 5958   0.364   3.047  17.601  0.3645  0.4904  0.3377
  399TMC3    C4 5959   0.161   3.224  17.594  0.2166  0.9203 -0.0569
  399TMC3    C5 5960   0.140   3.088  17.594  0.4953 -0.1585  0.4151
  399TMC3    C6 5961   0.240   2.995  17.593  0.2162  0.3801 -0.4381
  399TMC3     C 5962   0.314   3.414  17.633 -0.1876  0.6690 -0.4301
  399TMC3     O 5963   0.218   3.488  17.616 -0.7408  0.0094  0.1799
  399TMC3     H 5964   0.499   3.218  17.593  0.1876 -1.3536  1.8191
  399TMC3    H1 5965   0.076   3.291  17.590  0.1331  0.9096  1.5201
  399TMC3    H2 5966   0.222   2.888  17.587  0.1767  0.3395  0.3751
  399TMC3    C7 5967   0.009   3.020  17.591  0.4451 -0.3845 -0.5116
  399TMC3    C8 5968   0.470   2.959  17.645 -0.1130 -0.1523 -0.5912
  399TMC3    O1 5969   4.719   2.901  17.619 -0.3313  0.5029  0.1295
  399TMC3    O2 5970   0.568   3.019   0.003 -0.3911  0.2182 -0.1401
  400TMC3    C1 5971   2.963   1.574  16.592  0.1686  0.2991 -0.5484
  400TMC3    C2 5972   2.830   1.564  16.563  0.1012 -0.4177 -0.5655
  400TMC3    C3 5973   2.768   1.683  16.533  0.1661 -0.4344 -0.3526
  400TMC3    C4 5974   3.034   1.687  16.602  0.1150  0.1066 -0.3291
  400TMC3    C5 5975   2.964   1.800  16.585 -0.0091  0.0732  0.5391
  400TMC3    C6 5976   2.828   1.807  16.549  0.0925 -0.2443  0.6701
  400TMC3     C 5977   3.026   1.461  16.658  0.6042 -0.6298  0.2154
  400TMC3     O 5978   3.124   1.482  16.722 -0.7623 -0.4167 -0.0129
  400TMC3     H 5979   2.783   1.466  16.565 -0.1967 -0.2927 -1.3860
  400TMC3    H1 5980   3.138   1.681  16.635 -0.0196 -0.9594 -0.1186
  400TMC3    H2 5981   2.781   1.899  16.517 -1.9864 -0.8082  2.1325
  400TMC3    C7 5982   3.030   1.930  16.592 -0.1727  0.2225  0.6831
  400TMC3    C8 5983   2.625   1.685  16.498  0.0990 -0.2306  0.0662
  400TMC3    O1 5984   3.151   1.934  16.572  0.1655  0.2095 -0.1768
  400TMC3    O2 5985   2.574   1.794  16.477  0.1720 -0.1544 -0.0867
  401MPD2     C 5986   1.504   0.820   0.497 -0.0221  0.5220  0.2210
  401MPD2    C1 5987   1.622   0.832   0.565  0.7265  0.7091 -0.0999
  401MPD2    C2 5988   1.717   0.731   0.549  0.2246  0.2026  0.0581
  401MPD2    C3 5989   1.712   0.634   0.450  0.5788 -0.2819  0.2881
  401MPD2    C4 5990   1.596   0.635   0.375 -0.0693  0.0348 -0.0890
  401MPD2    C5 5991   1.498   0.717   0.406 -0.4412  0.2657 -0.1040
  401MPD2     H 5992   1.807   0.746   0.607  0.6235 -0.2882 -0.4344
  401MPD2    H1 5993   1.568   0.559   0.302  0.0591  0.1663 -0.2763
  401MPD2    H2 5994   1.413   0.877   0.508  1.3955  2.1834  3.2840
  401MPD2    H3 5995   1.405   0.694   0.355 -1.2019  1.6073  0.6796
  401MPD2     N 5996   1.817   0.538   0.438  0.3951 -0.2994  0.1482
  401MPD2    H5 5997   1.892   0.533   0.506 -1.0742  1.3813  1.8569
  401MPD2    N1 5998   1.643   0.934   0.658 -0.8234  0.6675  0.1327
  401MPD2    H7 5999   1.728   0.924   0.712  0.6563 -1.5632 -2.6524
  402TMC3    C1 6000   1.927   0.345   0.346  0.4452 -0.5336  0.2060
  402TMC3    C2 6001   1.953   0.298   0.473 -0.6150 -0.4113 -0.9089
  402TMC3    C3 6002   2.050   0.199   0.480 -0.1496  1.2196  0.0810
  402TMC3    C4 6003   1.986   0.292   0.229  0.4382 -0.2489 -0.5303
  402TMC3    C5 6004   2.067   0.182   0.243  0.0136 -0.2875 -0.6674
  402TMC3    C6 6005   2.110   0.143   0.369  0.2381 -0.0597  0.1993
  402TMC3     C 6006   1.824   0.448   0.329  0.4854  0.0240 -0.7219
  402TMC3     O 6007   1.762   0.443   0.225  0.0819 -0.0342 -0.1487
  402TMC3     H 6008   1.896   0.341   0.555  2.3546  0.5800  0.6476
  402TMC3    H1 6009   1.955   0.333   0.134  0.5029  1.8761  0.3649
  402TMC3    H2 6010   2.202   0.092   0.395  0.8001  0.8774  0.0665
  402TMC3    C7 6011   2.147   0.136   0.138 -0.1302 -0.2254 -0.4498
  402TMC3    C8 6012   2.116   0.168   0.610 -0.1319  0.8233  0.5362
  402TMC3    O1 6013   2.195   0.225   0.063 -0.2178 -0.4897  0.6098
  402TMC3    O2 6014   2.182   0.065   0.621  0.1567 -0.1053 -0.0856
  403MPD2     C 6015   4.454   3.410  13.366  0.6509  0.1192 -0.0714
  403MPD2    C1 6016   4.481   3.332  13.471  0.8717  0.0934 -0.3021
  403MPD2    C2 6017   4.537   3.379  13.591  0.0503  0.2293 -0.6067
  403MPD2    C3 6018   4.590   3.507  13.596 -0.0484 -0.6567 -0.7024
  403MPD2    C4 6019   4.565   3.586  13.483  0.0053 -0.7774 -0.3708
  403MPD2    C5 6020   4.504   3.538  13.368  0.0051 -0.1435 -0.0348
  403MPD2     H 6021   4.540   3.310  13.675  0.3363  1.4799  0.4156
  403MPD2    H1 6022   4.611   3.685  13.479 -3.1782  0.6951 -0.3551
  403MPD2    H2 6023   4.413   3.378  13.271  1.4252  0.9029 -0.6723
  403MPD2    H3 6024   4.494   3.599  13.279 -1.4628 -0.5002 -0.1248
  403MPD2     N 6025   4.668   3.550  13.702 -0.3927  0.1806  0.0471
  403MPD2    H5 6026   4.691   3.478  13.771 -0.7014  0.9206  0.9225
  403MPD2    N1 6027   4.452   3.198  13.450  0.0360 -0.4441 -0.4272
  403MPD2    H7 6028   4.423   3.166  13.358 -4.5627  2.9161 -0.1600
  404TMC3    C1 6029   4.417   2.975  13.489  0.3514 -0.0556  0.0843
  404TMC3    C2 6030   4.427   2.868  13.574 -0.8472 -0.0500 -0.1507
  404TMC3    C3 6031   4.443   2.738  13.519  0.2590  0.3129 -0.6071
  404TMC3    C4 6032   4.436   2.957  13.349 -0.0082 -1.0870 -0.3489
  404TMC3    C5 6033   4.467   2.836  13.297 -0.9722 -0.4407  0.2320
  404TMC3    C6 6034   4.465   2.725  13.379 -0.0622  0.5636  0.5566
  404TMC3     C 6035   4.446   3.101  13.551 -0.4643  0.2250  0.2491
  404TMC3     O 6036   4.448   3.107  13.672  0.0671 -0.2302 -0.7543
  404TMC3     H 6037   4.423   2.887  13.681 -3.6312 -1.6627  0.0241
  404TMC3    H1 6038   4.420   3.035  13.276 -0.9763 -0.1929  0.8130
  404TMC3    H2 6039   4.487   2.633  13.327  1.0945 -1.0098  3.8143
  404TMC3    C7 6040   4.460   2.814  13.157  0.3554 -0.2586  1.0754
  404TMC3    C8 6041   4.495   2.631  13.599  0.4464 -0.2332 -0.2881
  404TMC3    O1 6042   4.385   2.728  13.112 -0.0234 -0.3055 -0.0456
  404TMC3    O2 6043   4.566   2.550  13.544  0.1109  0.0426 -0.9135
  405MPD2     C 6044   0.233   3.875  14.756 -0.4007 -0.1497 -0.4937
  405MPD2    C1 6045   0.204   3.745  14.712  0.0402  0.8435 -0.2620
  405MPD2    C2 6046   0.105   3.724  14.609 -0.2983  0.1293 -0.4552
  405MPD2    C3 6047   0.044   3.834  14.549 -0.9375 -0.4454  0.0712
  405MPD2    C4 6048   0.072   3.960  14.594 -0.4324 -0.1123  0.4397
  405MPD2    C5 6049   0.167   3.978  14.697 -0.2913  0.6284  0.1081
  405MPD2     H 6050   0.092   3.619  14.583  0.7173 -0.2173  0.4191
  405MPD2    H1 6051   0.016   4.045  14.556  3.9089  1.6881 -2.0055
  405MPD2    H2 6052   0.289   3.900  14.845 -0.6372  1.6232 -0.8399
  405MPD2    H3 6053   0.187   4.072  14.747 -2.0141  1.2720 -0.4206
  405MPD2     N 6054   4.690   3.809  14.434 -0.0974 -0.3362 -0.7395
  405MPD2    H5 6055   4.685   3.717  14.392  0.2870 -0.7929  0.2176
  405MPD2    N1 6056   0.258   3.642  14.784  0.2084  0.0298 -0.5867
  405MPD2    H7 6057   0.309   3.658  14.870 -0.5272 -1.0317  0.0476
  406TMC3    C1 6058   4.406   3.780  14.084 -0.5646  0.6685 -0.5103
  406TMC3    C2 6059   4.456   3.661  14.060 -0.1659 -0.0494 -0.0919
  406TMC3    C3 6060   4.575   3.623  14.123  0.1807 -0.5168  0.2415
  406TMC3    C4 6061   4.473   3.872  14.167  0.8520 -0.7960 -0.3859
  406TMC3    C5 6062   4.586   3.831  14.229 -1.0074 -0.3642 -0.1495
  406TMC3    C6 6063   4.641   3.709  14.204 -0.0584 -0.4110 -0.7730
  406TMC3     C 6064   4.263   3.792  14.064  0.7751 -0.7342  0.0639
  406TMC3     O 6065   4.222   3.759  13.953 -0.5305 -0.0042  0.3208
  406TMC3     H 6066   4.398   3.597  13.995 -1.0003 -1.2329  1.8152
  406TMC3    H1 6067   4.418   3.961  14.196  0.7406 -1.0308  0.1357
  406TMC3    H2 6068   0.026   3.694  14.219 -0.2716 -0.5316  0.6384
  406TMC3    C7 6069   4.615   3.898  14.358  0.0954  0.2927  0.6980
  406TMC3    C8 6070   4.587   3.484  14.155 -0.3547  0.0856  0.0216
  406TMC3    O1 6071   4.594   4.018  14.370 -0.7571  0.6911  0.2118
  406TMC3    O2 6072   4.498   3.414  14.104 -0.2382 -0.2425  0.0981
  407MPD2     C 6073   3.304   0.256   9.428  0.0119 -0.2990  0.0284
  407MPD2    C1 6074   3.404   0.208   9.514  0.1977 -0.0198 -0.7082
  407MPD2    C2 6075   3.395   0.250   9.645 -0.2002 -0.6222  0.3034
  407MPD2    C3 6076   3.295   0.337   9.691 -0.0781 -0.3943  0.8360
  407MPD2    C4 6077   3.211   0.388   9.598 -0.1608 -0.4052  0.7715
  407MPD2    C5 6078   3.211   0.346   9.467 -0.5589  0.4004 -0.4626
  407MPD2     H 6079   3.469   0.196   9.703 -0.3796 -0.5590  0.5886
  407MPD2    H1 6080   3.134   0.459   9.626 -1.7313 -0.9940 -2.0868
  407MPD2    H2 6081   3.298   0.218   9.327 -0.0286 -3.1583  1.1104
  407MPD2    H3 6082   3.127   0.373   9.404 -0.0006  1.4705 -0.7510
  407MPD2     N 6083   3.296   0.385   9.825 -0.3046 -0.1157  0.6782
  407MPD2    H5 6084   3.219   0.441   9.860  0.2872  1.5950 -0.7621
  407MPD2    N1 6085   3.521   0.140   9.472 -0.3453 -0.5469 -0.4908
  407MPD2    H7 6086   3.592   0.132   9.544 -0.1195  0.9356 -0.5483
  408TMC3    C1 6087   3.685   0.063   9.325  0.7119 -0.1394  0.3784
  408TMC3    C2 6088   3.774   0.147   9.389  0.4228 -0.3631  0.2300
  408TMC3    C3 6089   3.905   0.108   9.382  0.0116  0.0170 -0.1454
  408TMC3    C4 6090   3.714   4.659   9.275  0.2180 -0.1406 -0.3198
  408TMC3    C5 6091   3.851   4.622   9.280  0.4467 -0.8041  0.3503
  408TMC3    C6 6092   3.945   4.713   9.331 -0.1831  0.2174  0.2622
  408TMC3     C 6093   3.548   0.083   9.351  0.0353 -0.6254 -0.4761
  408TMC3     O 6094   3.478   0.075   9.252 -0.1981  0.6702 -0.5231
  408TMC3     H 6095   3.753   0.242   9.439  0.3533  0.2329 -0.9335
  408TMC3    H1 6096   3.637   4.593   9.236 -0.3705  1.2917 -1.5935
  408TMC3    H2 6097   4.050   4.691   9.321 -0.2727 -0.7310  1.3939
  408TMC3    C7 6098   3.893   4.506   9.222  0.4008  0.3661 -0.4956
  408TMC3    C8 6099   4.004   0.205   9.428 -0.5965  0.6266 -0.7119
  408TMC3    O1 6100   3.831   4.454   9.134  0.2773 -0.0868 -0.1120
  408TMC3    O2 6101   4.111   0.168   9.474  0.0704 -0.1432  0.2596
  409MPD2     C 6102   1.768   1.480  16.985  1.1167  0.6139 -0.4715
  409MPD2    C1 6103   1.893   1.488  17.033  0.5666 -0.6942  0.8425
  409MPD2    C2 6104   1.983   1.574  16.980 -0.2894 -0.3071  0.4490
  409MPD2    C3 6105   1.948   1.661  16.872 -0.2894 -0.4682 -0.1343
  409MPD2    C4 6106   1.820   1.645  16.828 -0.1780 -0.1784  0.9308
  409MPD2    C5 6107   1.733   1.556  16.884 -0.4327  0.3068 -0.1573
  409MPD2     H 6108   2.080   1.570  17.028  1.4737 -3.2237 -3.3638
  409MPD2    H1 6109   1.783   1.709  16.748  1.9388 -0.6701 -0.4440
  409MPD2    H2 6110   1.691   1.421  17.033  0.8330  0.2433 -1.3775
  409MPD2    H3 6111   1.630   1.569  16.853 -1.4185 -0.6830  2.7173
  409MPD2     N 6112   2.038   1.746  16.807  0.3210 -0.0461 -0.4820
  409MPD2    H5 6113   2.010   1.788  16.719 -1.1017  3.2961  1.5737
  409MPD2    N1 6114   1.939   1.418  17.145  0.1244  0.2865  0.3186
  409MPD2    H7 6115   2.032   1.433  17.183  0.5170  0.2312 -0.6174
  410TMC3    C1 6116   2.224   1.892  16.795  0.6591 -0.3818 -0.4032
  410TMC3    C2 6117   2.355   1.924  16.832 -0.1271  0.2153 -0.0257
  410TMC3    C3 6118   2.443   1.982  16.747 -0.7895  0.3275 -0.5029
  410TMC3    C4 6119   2.198   1.916  16.663  0.2445  0.0474  0.2436
  410TMC3    C5 6120   2.290   1.969  16.585  0.2785  0.2333  0.3207
  410TMC3    C6 6121   2.408   2.017  16.623 -0.7784  0.2089 -0.1064
  410TMC3     C 6122   2.157   1.790  16.868  0.3430  0.4069 -0.2391
  410TMC3     O 6123   2.210   1.755  16.970  0.1443 -0.5542 -0.3481
  410TMC3     H 6124   2.393   1.906  16.932  0.8653 -1.0960 -0.6492
  410TMC3    H1 6125   2.114   1.875  16.609 -0.7750  2.7761 -0.2758
  410TMC3    H2 6126   2.487   2.032  16.551  0.2060  3.5207  1.6439
  410TMC3    C7 6127   2.259   1.980  16.440  0.2514  0.3620 -0.2796
  410TMC3    C8 6128   2.578   1.966  16.772  0.0109  0.1165  0.6513
  410TMC3    O1 6129   2.156   1.930  16.400 -0.1185  0.5320 -0.1188
  410TMC3    O2 6130   2.659   2.045  16.730  0.5589  0.0051  0.8305
  411MPD2     C 6131   2.478   2.077  14.490 -0.1174  0.0403  0.0949
  411MPD2    C1 6132   2.424   2.151  14.388 -0.3146 -0.2209 -0.1922
  411MPD2    C2 6133   2.392   2.079  14.274 -0.7019  0.1224  0.1613
  411MPD2    C3 6134   2.421   1.943  14.255 -0.4538  0.3829 -0.0035
  411MPD2    C4 6135   2.463   1.871  14.363 -0.1538 -0.0534  0.3744
  411MPD2    C5 6136   2.488   1.940  14.482 -0.3075 -0.0684 -0.4060
  411MPD2     H 6137   2.358   2.139  14.191 -2.4319  0.9596  1.4795
  411MPD2    H1 6138   2.497   1.768  14.358 -1.7215 -0.7121  3.1191
  411MPD2    H2 6139   2.513   2.128  14.580 -0.6372  1.3093 -0.4225
  411MPD2    H3 6140   2.539   1.887  14.562  1.3486 -0.1312 -1.4853
  411MPD2     N 6141   2.406   1.880  14.133  0.1659  0.0163  0.1301
  411MPD2    H5 6142   2.408   1.779  14.142 -2.0186 -0.2430 -2.3777
  411MPD2    N1 6143   2.408   2.289  14.414 -0.1267  0.0160  0.0550
  411MPD2    H7 6144   2.444   2.323  14.503  0.2210 -1.0239  0.3048
  412TMC3    C1 6145   2.342   1.852  13.900 -0.2131  0.0942  0.0276
  412TMC3    C2 6146   2.351   1.718  13.899  0.2770 -0.0959  0.2770
  412TMC3    C3 6147   2.325   1.650  13.787  0.5746  0.3173 -0.1725
  412TMC3    C4 6148   2.296   1.920  13.788  0.1423 -0.0007 -0.8915
  412TMC3    C5 6149   2.266   1.849  13.670  0.4838  0.2188 -0.0177
  412TMC3    C6 6150   2.287   1.713  13.666 -0.8601  0.0180 -0.3209
  412TMC3     C 6151   2.371   1.942  14.015 -0.0618  0.5704  0.4252
  412TMC3     O 6152   2.352   2.058  13.983  0.5169  0.1160  0.2122
  412TMC3     H 6153   2.381   1.659  13.985 -0.3845 -0.0956  0.5072
  412TMC3    H1 6154   2.265   2.024  13.792 -1.0547 -0.3738 -0.2987
  412TMC3    H2 6155   2.287   1.656  13.574  1.8650 -1.7984  0.8412
  412TMC3    C7 6156   2.131   1.873  13.627  0.4486 -0.2337  0.1448
  412TMC3    C8 6157   2.248   1.523  13.792 -0.3479  0.4707 -0.1182
  412TMC3    O1 6158   2.067   1.768  13.618  0.3927 -0.1243  0.2321
  412TMC3    O2 6159   2.295   1.432  13.865 -0.1444  1.1451 -0.2232
  413MPD2     C 6160   3.569   0.667  15.420 -0.1883  0.3353  0.0970
  413MPD2    C1 6161   3.529   0.569  15.335 -0.3791 -0.6862  0.0319
  413MPD2    C2 6162   3.626   0.493  15.262  0.2074  0.1996 -0.6697
  413MPD2    C3 6163   3.755   0.499  15.300  0.1517 -0.4283 -0.0146
  413MPD2    C4 6164   3.791   0.590  15.400 -0.0162  0.4185  0.4367
  413MPD2    C5 6165   3.701   0.672  15.460  0.6975  0.4353 -0.4521
  413MPD2     H 6166   3.599   0.436  15.174  0.3952  1.0895 -1.3007
  413MPD2    H1 6167   3.894   0.599  15.434  0.8392 -0.2601 -1.9570
  413MPD2    H2 6168   3.511   0.748  15.462  1.6799  1.4587  0.5482
  413MPD2    H3 6169   3.734   0.746  15.532 -1.7608  0.9653  0.1330
  413MPD2     N 6170   3.848   0.426  15.227 -0.6423 -0.2286  0.0736
  413MPD2    H5 6171   3.805   0.380  15.147 -0.0408 -1.4944  0.4766
  413MPD2    N1 6172   3.393   0.580  15.290 -0.6516 -0.1440  0.2368
  413MPD2    H7 6173   3.335   0.654  15.329  1.3511  1.2184  0.6450
  414TMC3    C1 6174   4.043   0.318  15.164 -0.9117 -0.2665 -0.2847
  414TMC3    C2 6175   4.097   0.202  15.203 -0.6318 -0.5628  0.6536
  414TMC3    C3 6176   4.092   0.096  15.119  0.3081  0.4312  0.1012
  414TMC3    C4 6177   4.002   0.334  15.033  0.5811 -0.1607  0.7427
  414TMC3    C5 6178   4.002   0.228  14.947 -0.2380  0.6392  0.4514
  414TMC3    C6 6179   4.038   0.104  14.996  0.2142  0.6796 -0.0454
  414TMC3     C 6180   3.979   0.400  15.265  0.2935  0.7555  0.4322
  414TMC3     O 6181   4.030   0.414  15.376 -0.2621  0.2017 -0.9309
  414TMC3     H 6182   4.139   0.197  15.303 -1.6684  0.2647  1.1385
  414TMC3    H1 6183   3.977   0.435  15.002 -1.3270  0.0539  2.9443
  414TMC3    H2 6184   4.043   0.015  14.934 -0.6288 -1.2175  2.6166
  414TMC3    C7 6185   3.913   0.239  14.827 -0.0019 -0.0123 -0.1316
  414TMC3    C8 6186   4.189   4.707  15.145 -0.5489 -0.6261  0.3247
  414TMC3    O1 6187   3.820   0.312  14.858  0.4042 -0.0500  0.0595
  414TMC3    O2 6188   4.167   4.606  15.082  0.2285  0.0480  0.5276
  415TMC3    C1 6189   0.809   2.612   9.648  0.1935 -0.5721 -0.1217
  415TMC3    C2 6190   0.844   2.672   9.531 -0.0234 -0.4389  0.5489
  415TMC3    C3 6191   0.802   2.629   9.409  1.0382  0.3946 -0.2121
  415TMC3    C4 6192   0.734   2.496   9.640 -0.0026 -0.7064 -0.0220
  415TMC3    C5 6193   0.685   2.458   9.515  0.1118 -0.2355 -0.2260
  415TMC3    C6 6194   0.718   2.511   9.397  0.1996 -0.5575  0.2122
  415TMC3     C 6195   0.831   2.666   9.779  0.2102 -0.5679  0.1884
  415TMC3     O 6196   0.765   2.613   9.865  0.7622  0.4969 -0.6839
  415TMC3     H 6197   0.912   2.755   9.550 -1.3312  0.1528  2.6939
  415TMC3    H1 6198   0.688   2.453   9.728 -0.8358  0.8174  0.2859
  415TMC3    H2 6199   0.664   2.482   9.307 -0.2288  0.1649  0.2344
  415TMC3    C7 6200   0.581   2.358   9.507  0.4388 -0.0921  1.0592
  415TMC3    C8 6201   0.830   2.715   9.301 -0.0399  0.2025 -0.3867
  415TMC3    O1 6202   0.581   2.279   9.413  0.6559 -0.0862  0.6564
  415TMC3    O2 6203   0.770   2.700   9.194 -0.2895  0.0153 -0.6022
  416MPD2     C 6204   2.270   2.121  11.358 -0.2284 -0.1276 -0.5919
  416MPD2    C1 6205   2.179   2.106  11.259 -0.1294  0.4044  0.0762
  416MPD2    C2 6206   2.206   2.027  11.148 -0.0115 -0.5171 -0.4899
  416MPD2    C3 6207   2.323   1.962  11.131  0.2328  0.1851  0.6869
  416MPD2    C4 6208   2.419   1.994  11.226 -0.9601  0.2534  0.1961
  416MPD2    C5 6209   2.395   2.070  11.337  0.1455 -0.1776  0.1665
  416MPD2     H 6210   2.127   2.007  11.077 -0.4536 -0.1388 -0.1054
  416MPD2    H1 6211   2.524   1.968  11.215 -1.2086 -1.0969  0.9343
  416MPD2    H2 6212   2.252   2.190  11.439 -0.4476  0.8160 -1.4461
  416MPD2    H3 6213   2.475   2.087  11.408  0.3815 -2.0346  0.3594
  416MPD2     N 6214   2.353   1.861  11.034 -0.0011 -0.1789  0.8105
  416MPD2    H5 6215   2.445   1.818  11.043 -0.2141 -0.6232  0.8501
  416MPD2    N1 6216   2.058   2.169  11.286  0.2016 -0.4358 -0.1672
  416MPD2    H7 6217   2.061   2.228  11.368  1.3913  1.5913 -1.6887
  417TMC3    C1 6218   1.832   2.237  11.270  0.7754  0.6300  0.1290
  417TMC3    C2 6219   1.824   2.230  11.406 -0.2246  0.4654  0.7293
  417TMC3    C3 6220   1.690   2.240  11.456  0.0158 -0.4112  0.7546
  417TMC3    C4 6221   1.730   2.257  11.173 -0.2070 -0.5024 -0.1497
  417TMC3    C5 6222   1.609   2.282  11.242  0.2190 -0.4560  0.1749
  417TMC3    C6 6223   1.582   2.259  11.371  0.1556  0.5215  0.4308
  417TMC3     C 6224   1.941   2.166  11.211  0.5260  0.3112  0.0264
  417TMC3     O 6225   1.920   2.101  11.110  0.6602 -0.5470  0.4809
  417TMC3     H 6226   1.902   2.193  11.470  0.5177 -0.5621 -0.7780
  417TMC3    H1 6227   1.756   2.280  11.070  0.8008 -2.3482 -0.3248
  417TMC3    H2 6228   1.483   2.282  11.409 -0.5105 -1.7414  0.0792
  417TMC3    C7 6229   1.500   2.336  11.164  0.4125 -0.2583 -0.5092
  417TMC3    C8 6230   1.667   2.263  11.601  0.0580 -0.1781 -0.4819
  417TMC3    O1 6231   1.388   2.301  11.200 -0.4202 -0.2919  0.0223
  417TMC3    O2 6232   1.547   2.264  11.630 -0.6213 -0.1653  0.2414
  418TMC3    C1 6233   1.121   3.435   0.428 -0.3067 -0.1955 -0.3311
  418TMC3    C2 6234   1.018   3.508   0.376 -0.1944 -0.0123  0.6198
  418TMC3    C3 6235   0.945   3.593   0.456  0.4346 -0.3176  0.6506
  418TMC3    C4 6236   1.134   3.424   0.565 -0.5302 -0.0388  0.3017
  418TMC3    C5 6237   1.064   3.511   0.648  0.0098  0.3350  0.4658
  418TMC3    C6 6238   0.968   3.595   0.592 -0.3917 -0.1904  0.1480
  418TMC3     C 6239   1.207   3.367   0.333 -0.7892  0.0056  0.2103
  418TMC3     O 6240   1.199   3.392   0.207 -0.9568  0.0979 -0.1407
  418TMC3     H 6241   1.008   3.501   0.268 -2.8611  0.9640  0.8068
  418TMC3    H1 6242   1.208   3.363   0.615 -0.5304 -1.0651 -0.9398
  418TMC3    H2 6243   0.903   3.644   0.664  0.6440  1.5295 -0.0850
  418TMC3    C7 6244   1.046   3.475   0.789 -0.2279 -0.3034 -0.4212
  418TMC3    C8 6245   0.825   3.651   0.410  0.3172 -0.1871  0.3886
  418TMC3    O1 6246   1.023   3.563   0.870  0.1630  0.1723  0.0712
  418TMC3    O2 6247   0.786   3.740   0.485  0.4502  0.2002 -0.2440
  419MPD2     C 6248   3.898   1.712  12.360 -0.4749  0.4688 -0.0801
  419MPD2    C1 6249   3.813   1.813  12.323 -0.0376 -0.5823  0.5094
  419MPD2    C2 6250   3.763   1.889  12.425  0.0094  0.0303 -0.3702
  419MPD2    C3 6251   3.817   1.875  12.548  0.1780  0.0231 -0.2926
  419MPD2    C4 6252   3.898   1.769  12.587  0.4124  0.3702  0.1750
  419MPD2    C5 6253   3.932   1.687  12.492 -0.0308  0.7403  0.1753
  419MPD2     H 6254   3.696   1.971  12.399 -1.0946 -0.6333  0.3642
  419MPD2    H1 6255   3.947   1.753  12.682  0.7030  0.5344  0.0528
  419MPD2    H2 6256   3.947   1.643  12.292 -0.2449  0.0908  0.4680
  419MPD2    H3 6257   3.998   1.602  12.507 -0.0903  0.3921 -1.5235
  419MPD2     N 6258   3.772   1.965  12.655 -0.7522 -0.2122  0.0267
  419MPD2    H5 6259   3.696   2.029  12.631 -0.6006  1.6061  4.4411
  419MPD2    N1 6260   3.771   1.841  12.193 -0.1552 -0.1547  0.0250
  419MPD2    H7 6261   3.695   1.908  12.187  0.2703  0.2086 -1.3555
  420TMC3    C1 6262   3.734   2.064  12.865 -0.0949 -0.0820  0.0176
  420TMC3    C2 6263   3.647   2.153  12.812 -0.2467  0.4497  0.8955
  420TMC3    C3 6264   3.543   2.197  12.890 -0.0549  0.4055  0.1746
  420TMC3    C4 6265   3.725   2.030  12.998 -0.1619 -0.0438  0.5924
  420TMC3    C5 6266   3.625   2.082  13.070  0.1215  0.8321  0.6849
  420TMC3    C6 6267   3.521   2.156  13.020  0.4262  0.3885  0.2287
  420TMC3     C 6268   3.798   1.958  12.786 -0.3683  0.3566 -0.4056
  420TMC3     O 6269   3.846   1.865  12.845 -0.3334  0.3471  0.7153
  420TMC3     H 6270   3.656   2.191  12.711 -0.2319  1.4563  1.2837
  420TMC3    H1 6271   3.806   1.978  13.049  1.2502 -0.5588 -2.1598
  420TMC3    H2 6272   3.432   2.179  13.077 -0.2826 -0.1431 -0.6730
  420TMC3    C7 6273   3.620   2.044  13.204  0.4562  0.3934 -0.3915
  420TMC3    C8 6274   3.450   2.288  12.828  0.7781  0.2281  0.5118
  420TMC3    O1 6275   3.651   1.929  13.239  0.1499 -0.2145  0.8905
  420TMC3    O2 6276   3.499   2.382  12.768  0.4689 -0.0346 -0.0090
  421TMC3    C1 6277   0.091   3.680  13.834 -0.3041  0.9101  0.0057
  421TMC3    C2 6278   0.120   3.799  13.901  0.8788  0.1538 -1.1634
  421TMC3    C3 6279   0.223   3.791  13.993 -0.0219  0.0172 -0.8149
  421TMC3    C4 6280   0.174   3.571  13.852 -0.3716  0.0582 -0.7156
  421TMC3    C5 6281   0.274   3.577  13.941 -0.1510  0.6091  0.2586
  421TMC3    C6 6282   0.304   3.684  14.012  0.6720 -0.2145 -0.8921
  421TMC3     C 6283   4.720   3.676  13.726  0.1129  0.6302  0.8209
  421TMC3     O 6284   4.680   3.782  13.681  0.1808  0.0586 -0.0625
  421TMC3     H 6285   0.070   3.894  13.891  3.1057  1.4418 -0.0820
  421TMC3    H1 6286   0.166   3.486  13.785 -1.2985 -1.3487  1.1968
  421TMC3    H2 6287   0.385   3.683  14.083  0.7408  1.8272 -0.9387
  421TMC3    C7 6288   0.343   3.453  13.967 -0.2806  0.2132 -0.0999
  421TMC3    C8 6289   0.238   3.909  14.074  0.4849 -0.4040 -1.2116
  421TMC3    O1 6290   0.443   3.465  14.038  0.2602 -0.0219 -0.6001
  421TMC3    O2 6291   0.141   3.981  14.091 -0.2184 -0.3495  0.6221
  422TMC3    C1 6292   2.712   4.518  12.753  0.2455  0.2717 -0.4153
  422TMC3    C2 6293   2.746   4.597  12.854 -0.5917 -0.7493 -0.0739
  422TMC3    C3 6294   2.667   4.696  12.896  0.4402 -0.0650 -0.4832
  422TMC3    C4 6295   2.605   4.538  12.681  0.3640 -0.3812  0.7268
  422TMC3    C5 6296   2.528   4.644  12.716 -0.3996 -0.3597 -0.2779
  422TMC3    C6 6297   2.551   0.006  12.828 -0.0232  0.4764 -0.4203
  422TMC3     C 6298   2.815   4.452  12.681  0.1091  0.0283 -0.3346
  422TMC3     O 6299   2.805   4.336  12.648  0.4925  0.2364  0.5977
  422TMC3     H 6300   2.840   4.575  12.905 -0.2883 -0.7986 -0.6545
  422TMC3    H1 6301   2.575   4.477  12.596 -0.5252  1.1620 -0.0709
  422TMC3    H2 6302   2.476   0.076  12.865  1.0083  1.4042 -0.0942
  422TMC3    C7 6303   2.425   4.686  12.621 -0.6579 -0.0435  0.3974
  422TMC3    C8 6304   2.707   0.032  13.019 -0.6832  0.1533  0.5620
  422TMC3    O1 6305   2.475   0.003  12.517  0.0985  0.1507 -0.6230
  422TMC3    O2 6306   2.762   4.680  13.102  0.2788 -0.6641 -0.0962
  423MPD2     C 6307   4.185   1.076   0.480  0.3344 -0.2496  0.1209
  423MPD2    C1 6308   4.232   0.949   0.477 -0.2591  0.0165 -0.0846
  423MPD2    C2 6309   4.224   0.875   0.357  0.4690  0.0620 -0.3851
  423MPD2    C3 6310   4.157   0.924   0.248 -0.3147 -0.3460  0.7206
  423MPD2    C4 6311   4.114   1.057   0.254 -0.3098  0.5376  0.3555
  423MPD2    C5 6312   4.126   1.126   0.369  0.2043  0.3416 -0.6663
  423MPD2     H 6313   4.266   0.775   0.355  2.2425  0.8023 -0.0895
  423MPD2    H1 6314   4.061   1.100   0.169 -0.3687 -0.1681  0.0288
  423MPD2    H2 6315   4.188   1.139   0.569 -0.3746 -2.1182  1.4727
  423MPD2    H3 6316   4.097   1.230   0.375  3.9247  1.4391 -1.6521
  423MPD2     N 6317   4.133   0.856   0.128 -0.3059 -0.4679  0.2754
  423MPD2    H5 6318   4.106   0.915   0.050 -1.6077 -1.4089  0.0041
  423MPD2    N1 6319   4.288   0.877   0.590  0.1706  0.0342  0.5116
  423MPD2    H7 6320   4.314   0.781   0.567 -2.0315 -0.1309 -1.2643
  424TMC3    C1 6321   4.403   0.828   0.797  0.0514  0.4407 -0.4721
  424TMC3    C2 6322   4.490   0.744   0.734 -0.4112 -0.0532 -0.2537
  424TMC3    C3 6323   4.562   0.659   0.811 -0.0425 -0.0883  0.4296
  424TMC3    C4 6324   4.415   0.862   0.925  0.7834  0.5025 -0.1604
  424TMC3    C5 6325   4.495   0.786   1.005 -0.2098  0.9547  0.1115
  424TMC3    C6 6326   4.566   0.683   0.951  0.0162 -0.6820 -0.3291
  424TMC3     C 6327   4.332   0.923   0.709 -0.0228 -0.4810 -0.2289
  424TMC3     O 6328   4.301   1.037   0.760 -0.3541  0.2755 -0.3995
  424TMC3     H 6329   4.493   0.737   0.626  1.7706 -0.0665 -0.1760
  424TMC3    H1 6330   4.355   0.946   0.960  3.3273  2.3394 -0.2039
  424TMC3    H2 6331   4.632   0.615   1.004 -2.9183 -2.4435  1.0756
  424TMC3    C7 6332   4.508   0.804   1.151 -0.6097 -0.4920  0.5680
  424TMC3    C8 6333   4.637   0.558   0.752 -0.1955 -0.5001  0.2364
  424TMC3    O1 6334   4.557   0.707   1.208 -0.1342  0.3941  0.0116
  424TMC3    O2 6335   4.701   0.489   0.832  0.4200  0.9706 -0.3625
  425MPD2     C 6336   2.984   0.448  17.232 -0.6523 -0.3414  0.0830
  425MPD2    C1 6337   2.921   0.334  17.259 -0.2618  0.1320 -0.4646
  425MPD2    C2 6338   2.792   0.340  17.310  0.6198  0.3641  0.2925
  425MPD2    C3 6339   2.727   0.458  17.338  0.0706 -0.1038  0.5214
  425MPD2    C4 6340   2.797   0.572  17.314  0.4713 -0.0985  0.9712
  425MPD2    C5 6341   2.920   0.565  17.257  1.0121 -0.0614  0.1145
  425MPD2     H 6342   2.730   0.254  17.329  0.6058  0.2276 -0.3533
  425MPD2    H1 6343   2.754   0.670  17.334  3.5022  1.9704 -2.6743
  425MPD2    H2 6344   3.079   0.463  17.183 -0.5628  0.9477  0.6690
  425MPD2    H3 6345   2.978   0.652  17.225 -0.1240  1.7752  3.0612
  425MPD2     N 6346   2.585   0.452  17.374  0.2873 -0.1093  0.4960
  425MPD2    H5 6347   2.542   0.360  17.373 -3.2372  1.5588 -2.4490
  425MPD2    N1 6348   2.994   0.215  17.248  0.2240 -0.5017  0.3032
  425MPD2    H7 6349   3.091   0.231  17.223 -0.1893  2.4806  0.5937
  426TMC3    C1 6350   3.048   4.703  17.214  0.5622 -0.4639 -0.5050
  426TMC3    C2 6351   3.001   4.592  17.153 -0.0340 -0.6995 -0.3066
  426TMC3    C3 6352   3.064   4.473  17.175 -0.4349  0.2653  0.0873
  426TMC3    C4 6353   3.161   4.705  17.295  0.3044  0.1271  0.4332
  426TMC3    C5 6354   3.227   4.586  17.298 -0.8221 -0.1836  0.1318
  426TMC3    C6 6355   3.193   4.467  17.240 -1.2556 -0.4630 -0.0600
  426TMC3     C 6356   2.948   0.085  17.229 -0.1600 -0.3971  0.0146
  426TMC3     O 6357   2.833   0.050  17.221 -0.6166  0.2003  0.4652
  426TMC3     H 6358   2.910   4.602  17.096  0.2330  0.9058 -0.4585
  426TMC3    H1 6359   3.196   0.070  17.351  0.1383  0.0407  0.6716
  426TMC3    H2 6360   3.260   4.383  17.246  0.5181  0.9803  0.3947
  426TMC3    C7 6361   3.333   4.573  17.388 -0.1477 -0.4997  0.1969
  426TMC3    C8 6362   3.038   4.362  17.085 -0.5663 -0.2478  0.7116
  426TMC3    O1 6363   3.422   4.489  17.366  0.2157 -0.6733 -0.3677
  426TMC3    O2 6364   3.133   4.320  17.024 -0.7885 -0.1613 -0.1225
  427MPD2     C 6365   1.347   2.608  15.262  0.5185 -0.1538 -0.4750
  427MPD2    C1 6366   1.312   2.470  15.239  0.3021  0.2894  0.0645
  427MPD2    C2 6367   1.193   2.422  15.294  1.1071  0.2930 -0.1072
  427MPD2    C3 6368   1.120   2.499  15.379 -0.3212  0.4128  0.8173
  427MPD2    C4 6369   1.156   2.629  15.400 -0.4232  0.0582  0.0246
  427MPD2    C5 6370   1.268   2.683  15.339  0.4067 -0.3663  0.6867
  427MPD2     H 6371   1.173   2.320  15.264 -1.1362  0.3226  1.2964
  427MPD2    H1 6372   1.100   2.708  15.450  0.9273  0.8791  0.2584
  427MPD2    H2 6373   1.439   2.655  15.229  1.1892 -0.0939  1.4786
  427MPD2    H3 6374   1.293   2.788  15.353 -1.2960  0.2335 -0.8196
  427MPD2     N 6375   1.000   2.446  15.434 -0.2451  0.4957  0.4751
  427MPD2    H5 6376   0.940   2.510  15.485 -1.2993 -0.0048 -0.1222
  427MPD2    N1 6377   1.395   2.371  15.173  0.2116 -0.3412  0.8994
  427MPD2    H7 6378   1.369   2.273  15.186  0.0131 -0.1081  2.3151
  428TMC3    C1 6379   1.589   2.284  15.064 -0.6292 -0.2486  0.0270
  428TMC3    C2 6380   1.524   2.196  14.989 -1.3529  0.2095 -0.1567
  428TMC3    C3 6381   1.605   2.101  14.928  0.4458 -0.1315  0.2206
  428TMC3    C4 6382   1.720   2.293  15.079  0.0402 -0.1768 -0.4608
  428TMC3    C5 6383   1.796   2.204  15.008 -0.5942  0.0684  0.7062
  428TMC3    C6 6384   1.742   2.107  14.930  0.1267  0.1040 -0.6856
  428TMC3     C 6385   1.511   2.396  15.118 -0.5112 -0.2049 -0.5540
  428TMC3     O 6386   1.573   2.502  15.105  0.2030  0.0023  0.0343
  428TMC3     H 6387   1.418   2.216  14.984 -1.4669 -0.5477 -0.7351
  428TMC3    H1 6388   1.767   2.358  15.152 -0.0962 -0.1092 -0.4327
  428TMC3    H2 6389   1.802   2.021  14.900 -0.4409 -0.9611  1.2285
  428TMC3    C7 6390   1.931   2.195  15.045  0.3911  0.3284  0.0572
  428TMC3    C8 6391   1.548   1.976  14.888 -0.4861  0.4488 -0.2818
  428TMC3    O1 6392   1.946   2.201  15.166  0.1536  0.0111 -0.1028
  428TMC3    O2 6393   1.629   1.895  14.846 -0.1122  0.1049  0.5744
  429MPD2     C 6394   2.482   2.598   0.068  0.5666  0.1273  1.0399
  429MPD2    C1 6395   2.498   2.478  17.685 -0.1211  0.8047 -0.2809
  429MPD2    C2 6396   2.509   2.494  17.546 -0.3608  0.0399  0.8476
  429MPD2    C3 6397   2.517   2.616  17.489  0.5024 -0.3203 -0.4013
  429MPD2    C4 6398   2.516   2.731  17.565 -0.5070 -0.1507 -0.3332
  429MPD2    C5 6399   2.490   2.717   0.008  0.5323 -0.3826 -0.7893
  429MPD2     H 6400   2.512   2.407  17.481 -0.1180 -0.5440  1.6461
  429MPD2    H1 6401   2.521   2.831  17.525 -0.4741 -0.1118 -0.2317
  429MPD2    H2 6402   2.460   2.600   0.174  2.0272  2.7849  1.2997
  429MPD2    H3 6403   2.481   2.809   0.064 -0.6677 -1.2956  0.5113
  429MPD2     N 6404   2.540   2.619  17.344 -0.0235  0.3249  0.0805
  429MPD2    H5 6405   2.529   2.535  17.288  0.0804 -0.8765  1.8738
  429MPD2    N1 6406   2.501   2.350   0.050  0.1820 -0.2057 -0.7719
  429MPD2    H7 6407   2.517   2.270  17.680 -0.5874  0.2319 -1.5556
  430TMC3    C1 6408   2.603   2.697  17.128  0.1651  0.2099 -0.2543
  430TMC3    C2 6409   2.600   2.803  17.037  0.1853  0.1213  0.1866
  430TMC3    C3 6410   2.651   2.786  16.912  0.0407  0.4855  0.5798
  430TMC3    C4 6411   2.660   2.579  17.093 -0.6008  0.1162  0.2708
  430TMC3    C5 6412   2.728   2.572  16.977  0.4489  0.5050  0.8523
  430TMC3    C6 6413   2.714   2.668  16.880 -0.7797 -0.2904  0.1364
  430TMC3     C 6414   2.576   2.732  17.267 -1.0700  0.3515  0.1102
  430TMC3     O 6415   2.600   2.845  17.301 -0.7225  0.2758 -0.7265
  430TMC3     H 6416   2.554   2.892  17.079 -0.9391  0.9887 -2.8955
  430TMC3    H1 6417   2.676   2.499  17.165  1.1744  1.9599  1.9187
  430TMC3    H2 6418   2.745   2.658  16.777  0.9728 -2.2193  0.8409
  430TMC3    C7 6419   2.791   2.449  16.933  0.4106 -0.1594  0.2665
  430TMC3    C8 6420   2.616   2.882  16.808  0.1335  0.1977 -0.1526
  430TMC3    O1 6421   2.765   2.349  16.991 -0.7245 -0.0361  0.3470
  430TMC3    O2 6422   2.561   2.986  16.851 -0.9003 -0.5941 -0.2197
  431MPD2     C 6423   3.673   2.343  12.485 -0.5999 -0.3122 -0.3739
  431MPD2    C1 6424   3.760   2.369  12.380 -0.3222 -0.0777  0.2474
  431MPD2    C2 6425   3.750   2.300  12.259 -0.0221  0.0669 -0.3442
  431MPD2    C3 6426   3.645   2.209  12.240 -0.3513 -0.0508  0.6020
  431MPD2    C4 6427   3.556   2.185  12.337 -0.5972  0.2055  0.4637
  431MPD2    C5 6428   3.578   2.243  12.462  0.0248  0.7164  0.2285
  431MPD2     H 6429   3.827   2.319  12.185 -0.0478  0.2955 -0.3116
  431MPD2    H1 6430   3.477   2.112  12.325 -0.0963  0.0015 -1.6666
  431MPD2    H2 6431   3.677   2.392  12.581 -1.0589  1.4177 -1.2456
  431MPD2    H3 6432   3.509   2.223  12.543  0.3010 -1.1741 -0.0164
  431MPD2     N 6433   3.626   2.138  12.119 -0.1362 -0.6591 -0.5423
  431MPD2    H5 6434   3.539   2.086  12.119 -0.2163 -0.5010  2.3604
  431MPD2    N1 6435   3.866   2.461  12.399 -0.1914  0.0386  0.2080
  431MPD2    H7 6436   3.931   2.469  12.322 -0.9368 -0.1735 -0.4497
  432TMC3    C1 6437   3.684   2.045  11.915 -0.6544 -0.0748 -0.9963
  432TMC3    C2 6438   3.777   2.061  11.810  0.3794 -0.3723  0.6555
  432TMC3    C3 6439   3.870   1.964  11.788  0.5115  0.1386  0.0337
  432TMC3    C4 6440   3.656   1.929  11.977  0.1789  0.8257 -0.0128
  432TMC3    C5 6441   3.759   1.834  11.955 -0.5268  0.6936  0.2573
  432TMC3    C6 6442   3.857   1.843  11.856  0.0028  0.4007 -0.2786
  432TMC3     C 6443   3.703   2.148  12.004  0.6626  0.5244  0.0582
  432TMC3     O 6444   3.800   2.217  11.973 -0.1198  0.3897 -0.0826
  432TMC3     H 6445   3.784   2.155  11.757 -2.1595 -0.2439  0.5357
  432TMC3    H1 6446   3.585   1.914  12.057 -1.0368  1.3128 -0.9981
  432TMC3    H2 6447   3.935   1.770  11.837  0.0790  0.3867  0.1014
  432TMC3    C7 6448   3.820   1.779  12.075 -0.9274 -0.6460  0.2335
  432TMC3    C8 6449   3.959   1.971  11.677 -0.7632 -0.6089 -0.3182
  432TMC3    O1 6450   3.918   1.705  12.075 -0.2030  0.5377  0.0286
  432TMC3    O2 6451   3.957   1.870  11.606 -0.1189 -0.2942  0.1952
  433MPD2     C 6452   2.952   1.195  10.688 -0.8640  1.0370 -0.4324
  433MPD2    C1 6453   2.872   1.097  10.753 -0.1424  0.1981  0.4190
  433MPD2    C2 6454   2.845   1.124  10.887  0.6917 -0.2845 -0.2079
  433MPD2    C3 6455   2.900   1.230  10.961  0.0528 -0.4789  0.1466
  433MPD2    C4 6456   2.990   1.314  10.891 -0.2668 -0.2440  0.0780
  433MPD2    C5 6457   3.003   1.301  10.759 -0.9056  0.3373  0.0640
  433MPD2     H 6458   2.782   1.048  10.933 -0.9710  1.9196  1.1564
  433MPD2    H1 6459   3.036   1.405  10.929  0.5869 -0.1641 -1.1401
  433MPD2    H2 6460   2.982   1.175  10.586  2.3356 -0.0702  0.7201
  433MPD2    H3 6461   3.067   1.367  10.701 -1.4562  2.3051  1.7035
  433MPD2     N 6462   2.854   1.260  11.093 -0.3610  0.0273  0.5086
  433MPD2    H5 6463   2.783   1.198  11.132  1.0323 -2.5579 -1.0780
  433MPD2    N1 6464   2.822   0.986  10.680 -0.1449  0.0154 -0.3919
  433MPD2    H7 6465   2.863   0.962  10.591 -0.8292 -0.9051 -0.4582
  434TMC3    C1 6466   2.736   0.767  10.674 -0.6003 -0.0417 -0.1170
  434TMC3    C2 6467   2.699   0.667  10.758 -0.2259  0.3012  0.3050
  434TMC3    C3 6468   2.720   0.541  10.718  0.0882 -0.7476  0.3187
  434TMC3    C4 6469   2.791   0.738  10.549 -0.4744  0.0534 -0.0312
  434TMC3    C5 6470   2.815   0.605  10.513  0.2445  0.2218 -0.2198
  434TMC3    C6 6471   2.778   0.508  10.602  0.0710  0.1177  0.5909
  434TMC3     C 6472   2.731   0.900  10.729  0.6354  0.1517 -0.0480
  434TMC3     O 6473   2.652   0.918  10.822 -0.0248  0.3457 -0.0392
  434TMC3     H 6474   2.647   0.684  10.851 -2.4473 -2.0052 -0.5328
  434TMC3    H1 6475   2.820   0.819  10.483  3.1561  0.0533  1.5636
  434TMC3    H2 6476   2.779   0.402  10.579  3.2849 -0.1502  1.9244
  434TMC3    C7 6477   2.817   0.579  10.369  0.2265  0.6953  0.0860
  434TMC3    C8 6478   2.750   0.449  10.831  0.2865 -0.2401 -0.0303
  434TMC3    O1 6479   2.792   0.673  10.297  0.3022 -0.3082  0.0515
  434TMC3    O2 6480   2.673   0.443  10.927 -0.2088  0.3265 -0.1006
  435MPD2     C 6481   4.098   0.964  15.155  0.1751  0.0599  0.2813
  435MPD2    C1 6482   4.095   1.018  15.285  0.3388 -0.5413  0.0710
  435MPD2    C2 6483   4.216   1.039  15.343  0.5791  0.1164 -0.0571
  435MPD2    C3 6484   4.335   1.004  15.281  0.4457  0.0969 -0.3155
  435MPD2    C4 6485   4.340   0.955  15.151  0.2045 -0.2769  0.3312
  435MPD2    C5 6486   4.216   0.935  15.090  0.0080 -0.7268  0.2341
  435MPD2     H 6487   4.222   1.086  15.440  1.2806 -1.5527  0.7152
  435MPD2    H1 6488   4.433   0.922  15.104  0.2474  0.0046  0.2192
  435MPD2    H2 6489   4.001   0.946  15.109  1.1417  1.1919 -2.1930
  435MPD2    H3 6490   4.206   0.901  14.987 -1.3508  0.1689  0.0698
  435MPD2     N 6491   4.450   1.003  15.362 -0.0754 -0.7184 -0.0251
  435MPD2    H5 6492   4.435   1.017  15.461  1.7126  0.5512  0.0675
  435MPD2    N1 6493   3.980   1.060  15.360 -0.0323 -0.2855  0.5766
  435MPD2    H7 6494   3.991   1.109  15.448 -0.0461 -0.1069  0.4785
  436TMC3    C1 6495   3.688   1.012  15.642 -0.1143  0.6834  0.0776
  436TMC3    C2 6496   3.790   1.021  15.547  1.0621 -0.0752  0.2780
  436TMC3    C3 6497   3.751   1.066  15.427 -0.3681  0.5461 -0.0897
  436TMC3    C4 6498   3.561   1.036  15.612  0.0004 -0.5823 -0.4114
  436TMC3    C5 6499   3.520   1.044  15.478  0.0895 -0.1587 -0.5944
  436TMC3    C6 6500   3.622   1.051  15.391  0.1018  0.3296 -0.5260
  436TMC3     C 6501   3.723   1.006  15.781  0.1484  0.4343  0.2497
  436TMC3     O 6502   3.824   0.943  15.813  0.2469 -0.3470  0.4049
  436TMC3     H 6503   3.893   1.012  15.580  1.3717  1.3635 -0.2794
  436TMC3    H1 6504   3.491   1.010  15.692  0.5825  0.0504  0.3092
  436TMC3    H2 6505   3.601   1.086  15.291 -0.2271  1.0288 -0.2144
  436TMC3    C7 6506   3.384   1.001  15.448  0.1802  0.3236  0.2807
  436TMC3    C8 6507   3.850   1.037  15.322 -0.1493  0.5686 -0.6210
  436TMC3    O1 6508   3.310   1.001  15.545  0.3498  0.5290  0.8012
  436TMC3    O2 6509   3.806   0.969  15.233 -0.3830 -0.1439  0.0416
  437TMC3    C1 6510   3.983   2.546  11.848 -0.7732 -0.7979  0.3893
  437TMC3    C2 6511   3.885   2.547  11.940 -0.2903 -0.4610 -0.5001
  437TMC3    C3 6512   3.819   2.661  11.967 -0.5161 -0.5862  1.1404
  437TMC3    C4 6513   4.021   2.670  11.789 -0.1613 -0.3800  0.3473
  437TMC3    C5 6514   3.958   2.785  11.832 -0.2514 -0.3826  0.1687
  437TMC3    C6 6515   3.854   2.779  11.917 -0.3129 -0.1060 -0.6145
  437TMC3     C 6516   4.082   2.433  11.842  0.4333  0.6258  0.2347
  437TMC3     O 6517   4.170   2.446  11.757  0.1726  0.1905  0.4916
  437TMC3     H 6518   3.861   2.455  11.992 -0.2058  0.1613  0.6277
  437TMC3    H1 6519   4.108   2.674  11.724 -1.3964 -0.0809 -1.2669
  437TMC3    H2 6520   3.800   2.870  11.937 -1.5660 -1.5103  2.4195
  437TMC3    C7 6521   4.019   2.912  11.811  0.3931  1.0720 -0.2014
  437TMC3    C8 6522   3.706   2.643  12.056  0.1850  0.8133 -0.0613
  437TMC3    O1 6523   4.083   2.938  11.711 -0.5229  0.4244  0.6765
  437TMC3    O2 6524   3.645   2.541  12.039 -0.6303  0.2756  0.0714
  438MPD2     C 6525   1.139   3.375  16.774 -0.6848  0.2994  0.1559
  438MPD2    C1 6526   1.199   3.346  16.894  0.1641  0.2661 -0.2000
  438MPD2    C2 6527   1.162   3.427  17.001  0.4458  0.6966 -0.2029
  438MPD2    C3 6528   1.059   3.521  16.987  0.1530 -0.3150  0.8083
  438MPD2    C4 6529   0.996   3.537  16.865  0.1316 -0.2981 -0.5414
  438MPD2    C5 6530   1.035   3.455  16.761 -0.5115 -0.0709 -0.6407
  438MPD2     H 6531   1.211   3.408  17.096 -0.1635  2.5100  0.4726
  438MPD2    H1 6532   0.915   3.605  16.844  0.3695 -0.4234 -1.8603
  438MPD2    H2 6533   1.142   3.299  16.696  2.0825  1.9391 -1.3492
  438MPD2    H3 6534   0.997   3.473  16.661 -0.3969  1.9520 -0.3213
  438MPD2     N 6535   1.011   3.595  17.098 -0.4512  0.3595 -0.0833
  438MPD2    H5 6536   0.923   3.645  17.088 -0.3512  0.7107  0.8419
  438MPD2    N1 6537   1.289   3.238  16.924  0.2171 -0.3990  0.3971
  438MPD2    H7 6538   1.311   3.227  17.022  0.9151  0.1672  0.3040
  439TMC3    C1 6539   1.381   3.024  16.886 -0.6074 -0.1901  0.7861
  439TMC3    C2 6540   1.407   2.932  16.786 -0.6723  0.4802 -0.0808
  439TMC3    C3 6541   1.480   2.818  16.814 -0.3102  0.6632 -0.3953
  439TMC3    C4 6542   1.460   3.026  16.999  0.1782 -0.5256 -0.1036
  439TMC3    C5 6543   1.552   2.921  17.010  0.2722 -0.8791 -0.9340
  439TMC3    C6 6544   1.558   2.811  16.927 -0.7519  0.4282  0.0686
  439TMC3     C 6545   1.325   3.145  16.832  0.0543 -0.5740  0.2298
  439TMC3     O 6546   1.330   3.157  16.710  0.3184  0.1548 -0.0857
  439TMC3     H 6547   1.330   2.921  16.710  0.2281 -1.7321 -0.6568
  439TMC3    H1 6548   1.467   3.116  17.059 -1.0868 -0.3996 -0.1571
  439TMC3    H2 6549   1.637   2.736  16.929 -0.0282  1.2079  0.3971
  439TMC3    C7 6550   1.609   2.910  17.136 -0.4972  0.0146  0.1910
  439TMC3    C8 6551   1.540   2.753  16.701  0.3754 -0.2583  0.0593
  439TMC3    O1 6552   1.605   3.012  17.205 -0.0336 -0.2189  0.1936
  439TMC3    O2 6553   1.657   2.714  16.706 -0.1767 -0.2118  0.3862
  440MPD2     C 6554   3.987   4.388  14.622 -0.1737 -0.4418  0.2220
  440MPD2    C1 6555   3.955   4.392  14.758  0.2838 -0.0890 -0.7042
  440MPD2    C2 6556   4.019   4.305  14.842 -0.4415  0.4438  0.0285
  440MPD2    C3 6557   4.130   4.231  14.798  0.0436  0.4579  0.6817
  440MPD2    C4 6558   4.168   4.233  14.663  0.2808 -0.1423 -0.1735
  440MPD2    C5 6559   4.092   4.308  14.580 -0.1748  0.4748  0.2664
  440MPD2     H 6560   3.986   4.310  14.945  1.3341  0.5063  0.5961
  440MPD2    H1 6561   4.250   4.177  14.621 -0.1263 -2.3019  1.9360
  440MPD2    H2 6562   3.930   4.448  14.551 -1.7352 -1.7007  0.4171
  440MPD2    H3 6563   4.114   4.305  14.474  2.8984  2.8093  0.8322
  440MPD2     N 6564   4.215   4.150  14.873 -0.1453  0.7432 -0.1343
  440MPD2    H5 6565   4.291   4.100  14.827 -0.3360  1.9237 -1.6837
  440MPD2    N1 6566   3.844   4.466  14.805 -0.3839  0.4904  0.6705
  440MPD2    H7 6567   3.828   4.463  14.905 -0.9612  2.5300  0.6409
  441TMC3    C1 6568   4.332   4.073  15.063  0.9330 -0.8800  0.6981
  441TMC3    C2 6569   4.452   4.129  15.019 -0.2069 -0.1365  0.6753
  441TMC3    C3 6570   4.570   4.116  15.097 -0.2623  0.3327 -0.2367
  441TMC3    C4 6571   4.327   3.998  15.174 -0.0916  0.0512 -0.1306
  441TMC3    C5 6572   4.452   3.956  15.224  0.1325 -0.0466  0.3381
  441TMC3    C6 6573   4.568   4.022  15.199  1.0660 -0.1039  0.5293
  441TMC3     C 6574   4.205   4.121  15.007  0.6689  0.5890  0.0557
  441TMC3     O 6575   4.116   4.159  15.087  0.1040 -0.3221 -0.0498
  441TMC3     H 6576   4.447   4.197  14.934  1.0615 -1.3446 -0.3625
  441TMC3    H1 6577   4.242   3.937  15.202 -1.1476  0.8517 -1.6111
  441TMC3    H2 6578   4.655   4.019  15.262  2.2420  1.5699 -1.0187
  441TMC3    C7 6579   4.445   3.903  15.357  0.0400 -0.1925 -0.1669
  441TMC3    C8 6580   4.631   4.234  15.141  0.6138  0.7599 -0.2049
  441TMC3    O1 6581   4.347   3.934  15.421 -0.4538  0.4292 -1.0214
  441TMC3    O2 6582   0.026   4.246  15.179  0.5461 -0.4459  0.0636
  442MPD2     C 6583   2.615   0.021  16.468  0.9301 -0.2098  0.1162
  442MPD2    C1 6584   2.569   4.690  16.589 -0.0218 -0.2354 -0.3836
  442MPD2    C2 6585   2.607   4.556  16.610 -0.1521 -0.0758 -0.1107
  442MPD2    C3 6586   2.713   4.498  16.539 -0.5036  0.0649  0.3522
  442MPD2    C4 6587   2.759   4.572  16.429 -0.9159  0.2087 -0.4728
  442MPD2    C5 6588   2.699   4.678  16.385  0.9462 -0.5313 -0.1766
  442MPD2     H 6589   2.574   4.500  16.697 -1.7583 -0.1923 -0.7963
  442MPD2    H1 6590   2.825   4.535  16.352  1.5926  0.1309  1.7392
  442MPD2    H2 6591   2.578   0.115  16.427  0.9100  0.3233  1.3559
  442MPD2    H3 6592   2.725   4.716  16.286  2.5003 -1.5931 -0.1714
  442MPD2     N 6593   2.767   4.369  16.566  0.0920  0.3860  1.1584
  442MPD2    H5 6594   2.823   4.336  16.488 -0.5344 -3.2624  2.2397
  442MPD2    N1 6595   2.491   0.036  16.682 -0.2697  0.0758 -0.3058
  442MPD2    H7 6596   2.442   4.707  16.756 -0.5643 -2.5907 -2.3384
  443TMC3    C1 6597   2.352   0.227  16.756 -1.0511  0.1122  0.8351
  443TMC3    C2 6598   2.313   0.353  16.716 -0.1215  0.2189  0.1970
  443TMC3    C3 6599   2.200   0.412  16.770  0.2792 -0.9007 -0.3866
  443TMC3    C4 6600   2.278   0.153  16.843 -0.4240  0.3113  0.3200
  443TMC3    C5 6601   2.164   0.218  16.887  0.0444 -0.4658  0.4972
  443TMC3    C6 6602   2.123   0.345  16.853  0.4058 -0.3818  0.2286
  443TMC3     C 6603   2.454   0.169  16.672 -1.2293 -0.2308 -1.3499
  443TMC3     O 6604   2.520   0.246  16.608 -0.4015  0.5176  0.7704
  443TMC3     H 6605   2.370   0.414  16.647  1.4064 -2.5484 -0.9731
  443TMC3    H1 6606   2.319   0.064  16.890  0.9583  0.3211 -0.8690
  443TMC3    H2 6607   2.029   0.394  16.875  0.4662  0.5689 -1.6620
  443TMC3    C7 6608   2.080   0.147  16.978 -0.5534 -0.3888  1.1329
  443TMC3    C8 6609   2.169   0.550  16.753 -0.1226 -0.1339 -0.3197
  443TMC3    O1 6610   2.109   0.033  16.989  0.0256  0.1074 -0.1244
  443TMC3    O2 6611   2.139   0.613  16.854 -0.5392 -0.2467  0.2550
  444MPD2     C 6612   2.950   4.217  17.462 -0.5953 -0.9573  1.0370
  444MPD2    C1 6613   2.867   4.118  17.408 -0.2821  0.1470  0.7812
  444MPD2    C2 6614   2.927   4.022  17.327  0.3237 -0.7700  0.6373
  444MPD2    C3 6615   3.061   4.027  17.299 -0.0802  0.3690 -0.5295
  444MPD2    C4 6616   3.139   4.128  17.342  0.2226  0.1868 -0.2143
  444MPD2    C5 6617   3.078   4.222  17.420  0.9607 -0.1848 -0.0271
  444MPD2     H 6618   2.870   3.946  17.275 -0.3085  1.2263 -1.6258
  444MPD2    H1 6619   3.246   4.129  17.326  0.7646 -0.4995  3.4701
  444MPD2    H2 6620   2.916   4.296  17.528 -0.8901 -0.4622  0.2927
  444MPD2    H3 6621   3.151   4.294  17.454 -0.8731  1.4041  0.5238
  444MPD2     N 6622   3.115   3.922  17.223 -0.0571  0.3487  0.3521
  444MPD2    H5 6623   3.047   3.858  17.182 -0.0219  2.1044 -2.4379
  444MPD2    N1 6624   2.736   4.099  17.455  0.8810  0.4258  0.3512
  444MPD2    H7 6625   2.691   4.008  17.447 -1.1161  1.4526 -0.1196
  445TMC3    C1 6626   3.257   3.765  17.141  0.7612 -1.1107  0.4506
  445TMC3    C2 6627   3.172   3.664  17.182 -0.0728 -0.4471  0.1408
  445TMC3    C3 6628   3.208   3.535  17.141  0.5868  0.4056 -0.6585
  445TMC3    C4 6629   3.367   3.752  17.064  0.1450 -0.2695  0.2050
  445TMC3    C5 6630   3.395   3.625  17.026 -0.0092 -0.2339  0.6375
  445TMC3    C6 6631   3.322   3.515  17.062  0.3628  0.0334 -0.2072
  445TMC3     C 6632   3.243   3.893  17.214  0.8857 -0.9546  0.4088
  445TMC3     O 6633   3.349   3.951  17.225  0.2190 -0.3601  0.3542
  445TMC3     H 6634   3.092   3.681  17.253 -0.3421 -0.3217 -0.1952
  445TMC3    H1 6635   3.438   3.828  17.034  0.9359 -1.5386 -1.0927
  445TMC3    H2 6636   3.336   3.421  17.010 -0.8935 -1.0530  1.4265
  445TMC3    C7 6637   3.522   3.591  16.972 -0.3645 -0.5713  0.0706
  445TMC3    C8 6638   3.104   3.435  17.177  0.1102  0.4384  0.3742
  445TMC3    O1 6639   3.576   3.681  16.912  1.3332 -0.1852 -0.0704
  445TMC3    O2 6640   3.007   3.474  17.239  0.2737  0.1769 -0.2740
  446MPD2     C 6641   2.520   0.519  11.387 -0.4567 -0.3750  0.0114
  446MPD2    C1 6642   2.570   0.501  11.259 -0.1627 -0.5335  0.8160
  446MPD2    C2 6643   2.695   0.554  11.224 -0.7022  0.5776  0.8131
  446MPD2    C3 6644   2.779   0.617  11.315  0.4001 -0.1914 -0.0814
  446MPD2    C4 6645   2.725   0.639  11.441 -0.7083  0.1848  0.8438
  446MPD2    C5 6646   2.601   0.589  11.474 -0.3885  0.0055  0.3738
  446MPD2     H 6647   2.738   0.522  11.130 -1.9540 -1.8523  1.0714
  446MPD2    H1 6648   2.771   0.698  11.520  0.7427 -2.3176  1.8364
  446MPD2    H2 6649   2.420   0.487  11.415 -0.3802 -1.5580 -1.0612
  446MPD2    H3 6650   2.560   0.602  11.574 -1.8429  0.9487 -0.3571
  446MPD2     N 6651   2.917   0.641  11.280 -0.0456 -0.1167 -0.1211
  446MPD2    H5 6652   2.929   0.638  11.179  2.1886  0.6905  0.1301
  446MPD2    N1 6653   2.504   0.436  11.157 -0.4437 -0.0665 -0.5950
  446MPD2    H7 6654   2.544   0.433  11.063 -1.6669  1.6128 -1.1677
  447TMC3    C1 6655   3.141   0.658  11.306  0.6180 -0.4542  0.1498
  447TMC3    C2 6656   3.158   0.621  11.171  0.2712 -0.0816 -0.6328
  447TMC3    C3 6657   3.297   0.616  11.135 -0.6664 -0.5995  0.0642
  447TMC3    C4 6658   3.246   0.685  11.396  0.8178 -0.7179 -0.1990
  447TMC3    C5 6659   3.373   0.690  11.349 -0.7330 -0.1136  0.0702
  447TMC3    C6 6660   3.397   0.666  11.217 -1.0392 -0.0032  0.2522
  447TMC3     C 6661   3.012   0.665  11.370 -0.2588  0.0692  0.5223
  447TMC3     O 6662   3.006   0.663  11.494  0.2113 -0.5163 -0.1659
  447TMC3     H 6663   3.081   0.589  11.102  0.3356  0.0288 -0.7567
  447TMC3    H1 6664   3.223   0.738  11.487 -0.7257 -1.1412 -0.3296
  447TMC3    H2 6665   3.496   0.692  11.182 -0.3485  1.5988  3.4668
  447TMC3    C7 6666   3.485   0.724  11.431 -0.8430 -0.2133 -0.3262
  447TMC3    C8 6667   3.328   0.581  10.994 -0.8885 -0.0671  0.2495
  447TMC3    O1 6668   3.592   0.756  11.381  0.3248 -0.0783  0.2891
  447TMC3    O2 6669   3.251   0.618  10.908 -0.2998 -0.0878 -0.0918
  448TMC3    C1 6670   0.651   0.732   0.207 -0.6696  0.8549  0.0048
  448TMC3    C2 6671   0.684   0.644   0.119  0.0767  0.0603 -0.3003
  448TMC3    C3 6672   0.804   0.583   0.129  0.6224  0.2052 -0.6931
  448TMC3    C4 6673   0.733   0.781   0.303  0.2383  0.0752  0.2573
  448TMC3    C5 6674   0.858   0.721   0.304  0.1938 -0.2524 -0.0998
  448TMC3    C6 6675   0.889   0.614   0.227 -0.5892  0.4081 -0.6176
  448TMC3     C 6676   0.520   0.802   0.188  0.2665 -0.8711  0.0223
  448TMC3     O 6677   0.446   0.734   0.116  0.5549  0.0783 -0.6119
  448TMC3     H 6678   0.613   0.608   0.045  1.1663  0.4678 -1.5425
  448TMC3    H1 6679   0.700   0.855   0.375  0.8588  1.9637 -1.3766
  448TMC3    H2 6680   0.985   0.563   0.237 -0.5505  0.7409  0.6723
  448TMC3    C7 6681   0.924   0.755   0.428  0.6588 -0.6756  0.1372
  448TMC3    C8 6682   0.845   0.483   0.023 -0.6360 -0.7144  0.1801
  448TMC3    O1 6683   0.896   0.862   0.475 -0.0025  0.3013  0.0440
  448TMC3    O2 6684   0.950   0.426   0.036  0.1699 -0.3108  0.1812
  449MPD2     C 6685   2.039   3.257  13.862 -0.4262 -0.1564  0.0297
  449MPD2    C1 6686   1.939   3.194  13.790  0.2185  0.0469  0.1592
  449MPD2    C2 6687   1.811   3.192  13.840  0.4936  0.0971 -0.3874
  449MPD2    C3 6688   1.789   3.245  13.968 -0.3175  0.0844  0.0628
  449MPD2    C4 6689   1.894   3.299  14.041 -0.0069  0.1719  0.0393
  449MPD2    C5 6690   2.019   3.304  13.987 -0.5900 -0.5586 -0.8912
  449MPD2     H 6691   1.723   3.161  13.786 -0.5795  0.3048  1.2428
  449MPD2    H1 6692   1.886   3.342  14.139 -0.7716 -0.1890  0.1390
  449MPD2    H2 6693   2.138   3.258  13.819 -0.2441 -0.8941  0.4224
  449MPD2    H3 6694   2.102   3.341  14.046 -0.2145  0.5532 -2.1494
  449MPD2     N 6695   1.660   3.251  14.022  0.6038  0.3506 -0.1861
  449MPD2    H5 6696   1.593   3.221  13.951 -0.0716  0.0902  0.5713
  449MPD2    N1 6697   1.959   3.131  13.666 -0.3861  0.3771  0.2062
  449MPD2    H7 6698   1.874   3.107  13.616 -0.2110 -0.6440  0.3898
  450TMC3    C1 6699   2.026   3.036  13.471  0.1658  0.2387  0.0616
  450TMC3    C2 6700   2.085   3.077  13.356  0.2016  0.5580  0.2898
  450TMC3    C3 6701   2.029   3.031  13.234 -0.2921  0.1108  0.0075
  450TMC3    C4 6702   1.911   2.959  13.468 -0.3590 -0.5786  0.3379
  450TMC3    C5 6703   1.862   2.919  13.350 -0.1698 -0.4311  1.0972
  450TMC3    C6 6704   1.918   2.953  13.229  0.6718  0.3968 -0.1433
  450TMC3     C 6705   2.072   3.104  13.596  0.0521  0.7644  0.0620
  450TMC3     O 6706   2.188   3.127  13.620  0.2082  0.4337 -0.2112
  450TMC3     H 6707   2.166   3.148  13.368  1.1918 -0.5716  0.2844
  450TMC3    H1 6708   1.864   2.922  13.559  1.8801 -1.1367  1.2796
  450TMC3    H2 6709   1.889   2.909  13.134 -1.4820 -1.0514  1.1974
  450TMC3    C7 6710   1.735   2.844  13.350 -0.2279 -0.7287  0.0426
  450TMC3    C8 6711   2.089   3.056  13.106 -0.1943  0.3118 -0.1563
  450TMC3    O1 6712   1.725   2.741  13.281  0.9018  0.4870 -0.1419
  450TMC3    O2 6713   2.029   3.057  13.000 -0.3387  0.2637  0.6731
  451MPD2     C 6714   3.677   2.439   1.982 -0.3257  0.1762  0.0991
  451MPD2    C1 6715   3.653   2.468   1.849  0.0692  0.2468  0.1745
  451MPD2    C2 6716   3.751   2.518   1.767 -0.5411 -0.1948 -0.3873
  451MPD2    C3 6717   3.880   2.532   1.812 -0.3428 -0.1408  0.0642
  451MPD2    C4 6718   3.904   2.494   1.942  0.3843  0.0618 -0.0715
  451MPD2    C5 6719   3.803   2.457   2.032  0.4396 -0.1992 -0.2884
  451MPD2     H 6720   3.727   2.551   1.666 -1.1162 -2.1280 -0.8923
  451MPD2    H1 6721   4.003   2.500   1.986 -0.5277 -1.0015  2.1231
  451MPD2    H2 6722   3.600   2.402   2.050 -0.8169  1.8317  0.4637
  451MPD2    H3 6723   3.822   2.438   2.137  0.3993  1.7806  0.0697
  451MPD2     N 6724   3.990   2.577   1.734  0.4489 -0.1895 -0.3303
  451MPD2    H5 6725   4.079   2.588   1.781 -0.2681 -0.7873  1.1534
  451MPD2    N1 6726   3.521   2.452   1.803 -0.2221  1.1693 -0.3619
  451MPD2    H7 6727   3.450   2.457   1.876  1.1065 -1.0059  1.1015
  452TMC3    C1 6728   4.092   2.674   1.545 -0.1803  0.1786 -0.4540
  452TMC3    C2 6729   4.193   2.716   1.623 -0.9813 -0.0652 -0.1408
  452TMC3    C3 6730   4.297   2.776   1.557 -0.7477  0.1085  0.0011
  452TMC3    C4 6731   4.094   2.686   1.404  0.0435  0.0600  1.0642
  452TMC3    C5 6732   4.202   2.748   1.348  0.1476  0.6680  0.4351
  452TMC3    C6 6733   4.306   2.799   1.421  0.4574 -0.5994 -0.3651
  452TMC3     C 6734   3.980   2.612   1.599  0.4148  1.1052  0.6690
  452TMC3     O 6735   3.904   2.564   1.519 -0.0821 -0.2977  0.0362
  452TMC3     H 6736   4.195   2.711   1.731 -1.8165 -1.8017 -0.2067
  452TMC3    H1 6737   4.004   2.652   1.354  2.4025 -1.4670 -2.0672
  452TMC3    H2 6738   4.386   2.853   1.371 -2.6762  3.7452 -0.6971
  452TMC3    C7 6739   4.208   2.774   1.204 -0.9385 -0.3015 -1.3648
  452TMC3    C8 6740   4.422   2.810   1.629  0.0918 -0.1462  0.1253
  452TMC3    O1 6741   4.168   2.688   1.127 -0.2313  0.5912  0.4351
  452TMC3    O2 6742   4.486   2.913   1.603  0.8582  0.0998 -0.3475
  453TMC3    C1 6743   0.105   4.475  11.982  0.5035  0.7043  0.0713
  453TMC3    C2 6744   0.083   4.365  12.056 -0.3366  0.5067  0.3893
  453TMC3    C3 6745   4.713   4.272  12.007 -0.0329  0.9555 -0.3740
  453TMC3    C4 6746   0.039   4.495  11.859  0.4675 -0.2215 -1.0814
  453TMC3    C5 6747   4.674   4.398  11.810 -0.3239  0.1143 -0.5722
  453TMC3    C6 6748   4.641   4.290  11.888  0.5345  0.1261  0.3601
  453TMC3     C 6749   0.210   4.571  12.003 -0.5392  0.1022 -0.0983
  453TMC3     O 6750   0.245   4.622  11.896  0.0364  0.0346  0.4408
  453TMC3     H 6751   0.144   4.356  12.145 -0.5872  0.3762  0.5457
  453TMC3    H1 6752   0.060   4.585  11.801 -0.8178  1.0320  0.3977
  453TMC3    H2 6753   4.578   4.210  11.851  0.0892 -0.4802  2.4194
  453TMC3    C7 6754   4.671   4.387  11.668  0.7165  0.9312  0.5217
  453TMC3    C8 6755   4.684   4.139  12.074  0.2543 -0.5061 -0.3366
  453TMC3    O1 6756   4.685   4.488  11.598  0.9297 -0.2900  0.0424
  453TMC3    O2 6757   4.589   4.072  12.037  0.0377 -0.3609  0.1465
  454MPD2     C 6758   3.737   3.355  16.393 -0.6240 -0.2455  0.7580
  454MPD2    C1 6759   3.656   3.461  16.362 -0.2298 -0.1599  0.3266
  454MPD2    C2 6760   3.552   3.502  16.441 -0.1061  0.0287 -0.1979
  454MPD2    C3 6761   3.512   3.436  16.552  0.2268 -0.2296 -0.1507
  454MPD2    C4 6762   3.604   3.341  16.590 -0.1407  0.3657 -0.4713
  454MPD2    C5 6763   3.706   3.297  16.511  0.2353 -0.2639  0.1840
  454MPD2     H 6764   3.499   3.586  16.398  2.6853  1.8637 -0.0007
  454MPD2    H1 6765   3.603   3.288  16.685  0.0600 -0.1379 -0.7496
  454MPD2    H2 6766   3.825   3.318  16.341  0.5058 -1.7259  3.7430
  454MPD2    H3 6767   3.767   3.214  16.545  0.3019 -0.5706 -0.6925
  454MPD2     N 6768   3.396   3.465  16.626  0.3105  0.0823  0.0738
  454MPD2    H5 6769   3.375   3.397  16.699 -0.6006  0.3863  0.1005
  454MPD2    N1 6770   3.676   3.546  16.243  0.1686 -0.0404  0.4695
  454MPD2    H7 6771   3.611   3.623  16.233  1.0413  1.0058  2.9669
  455TMC3    C1 6772   3.225   3.590  16.712 -0.2678  0.3113  0.0853
  455TMC3    C2 6773   3.172   3.716  16.739 -0.1557 -0.4798  0.3511
  455TMC3    C3 6774   3.055   3.720  16.815 -0.9383  0.4285 -0.1835
  455TMC3    C4 6775   3.157   3.480  16.738  0.0673  0.3710 -0.2387
  455TMC3    C5 6776   3.030   3.494  16.794  0.3426  0.0923 -0.3217
  455TMC3    C6 6777   2.980   3.614  16.839  0.1355 -0.5058 -0.2241
  455TMC3     C 6778   3.331   3.587  16.620  0.4472  0.2453 -0.7338
  455TMC3     O 6779   3.358   3.684  16.548 -0.3767  0.5623 -0.5453
  455TMC3     H 6780   3.223   3.806  16.707 -0.7089 -0.7796 -1.3323
  455TMC3    H1 6781   3.192   3.384  16.703 -1.5657 -0.5206  0.5470
  455TMC3    H2 6782   2.887   3.616  16.894  1.5899  0.5848  2.2124
  455TMC3    C7 6783   2.962   3.375  16.810 -0.1723  0.3582 -0.3707
  455TMC3    C8 6784   3.023   3.849  16.872  0.0767  0.2342 -0.4653
  455TMC3    O1 6785   2.887   3.358  16.906  0.1094 -0.2540  0.4564
  455TMC3    O2 6786   3.115   3.930  16.872 -0.0933 -0.0241 -0.4418
  456MPD2     C 6787   1.147   4.014  16.836 -0.2619 -0.3406 -0.6928
  456MPD2    C1 6788   1.271   4.067  16.866  0.7148 -0.7371  0.5833
  456MPD2    C2 6789   1.281   4.172  16.960 -0.3552  0.2086  0.1520
  456MPD2    C3 6790   1.165   4.214  17.012 -0.2530 -0.2473 -0.0438
  456MPD2    C4 6791   1.039   4.160  16.987  0.4407  0.3027 -0.0409
  456MPD2    C5 6792   1.038   4.052  16.899 -1.0452 -0.1529 -1.0449
  456MPD2     H 6793   1.376   4.218  16.983 -0.3061 -0.3111  0.9658
  456MPD2    H1 6794   0.944   4.182  17.032  0.1619 -1.5938  0.2907
  456MPD2    H2 6795   1.136   3.935  16.762 -1.8240  0.9578 -1.8361
  456MPD2    H3 6796   0.945   4.004  16.871 -1.9350 -0.1912  1.9578
  456MPD2     N 6797   1.180   4.312  17.110 -0.1925  0.2237 -0.0063
  456MPD2    H5 6798   1.275   4.347  17.110 -0.1987  0.2926 -2.4070
  456MPD2    N1 6799   1.387   4.024  16.794  0.6297 -0.2058  0.0106
  456MPD2    H7 6800   1.370   3.962  16.715 -0.8903 -1.2309  1.1413
  457TMC3    C1 6801   1.131   4.443  17.301 -0.3219  0.0915  0.2686
  457TMC3    C2 6802   1.061   4.560  17.313 -0.0125 -0.2910  0.2633
  457TMC3    C3 6803   1.110   4.657  17.393  0.2882 -0.0724  0.2060
  457TMC3    C4 6804   1.247   4.427  17.370  0.4112  0.2562 -0.2641
  457TMC3    C5 6805   1.307   4.528  17.428 -0.7503  0.4319  0.2342
  457TMC3    C6 6806   1.234   4.643  17.446 -0.2142 -0.7133  0.4861
  457TMC3     C 6807   1.084   4.358  17.196  0.1974  0.3368  0.9746
  457TMC3     O 6808   0.962   4.349  17.185  0.2459 -0.5039  0.1649
  457TMC3     H 6809   0.956   4.558  17.285  0.1028  1.1134 -0.2508
  457TMC3    H1 6810   1.299   4.332  17.379  0.4392  0.4735  2.0268
  457TMC3    H2 6811   1.265   0.003  17.509  1.4750 -1.5968  0.8155
  457TMC3    C7 6812   1.435   4.518  17.495 -0.0179  0.5507 -0.3323
  457TMC3    C8 6813   1.032   0.046  17.437  0.4136  0.8770  0.0486
  457TMC3    O1 6814   1.497   4.415  17.483 -0.5022 -0.3547 -0.0174
  457TMC3    O2 6815   1.083   0.122  17.517 -0.7462  0.0929 -0.0440
  458MPD2     C 6816   4.287   3.293  12.033  0.2335 -0.8788  0.3588
  458MPD2    C1 6817   4.215   3.227  12.131  0.1241  0.1168  0.0757
  458MPD2    C2 6818   4.118   3.136  12.084 -0.2457  0.9298 -0.0560
  458MPD2    C3 6819   4.113   3.097  11.955 -1.8109  0.4589 -0.4201
  458MPD2    C4 6820   4.192   3.162  11.860 -0.0488  0.1023 -0.5982
  458MPD2    C5 6821   4.273   3.268  11.898  0.1139  0.7020  0.4314
  458MPD2     H 6822   4.059   3.076  12.152 -0.4976  2.9118  1.5076
  458MPD2    H1 6823   4.206   3.140  11.755  0.9748 -1.9096 -0.0346
  458MPD2    H2 6824   4.353   3.373  12.064  0.2959 -2.0058  3.1318
  458MPD2    H3 6825   4.335   3.329  11.833  2.5539 -1.8163  0.3514
  458MPD2     N 6826   4.030   2.988  11.928  1.1345 -0.5945 -0.1694
  458MPD2    H5 6827   3.985   2.951  12.011  1.0710  1.8930  0.8881
  458MPD2    N1 6828   4.229   3.275  12.264 -0.1545  0.0599 -0.2463
  458MPD2    H7 6829   4.308   3.336  12.283  1.7754 -1.5673 -3.0373
  459TMC3    C1 6830   4.215   3.271  12.499  0.6146 -0.2410 -0.0254
  459TMC3    C2 6831   4.314   3.365  12.511 -0.4011  0.4269 -0.3188
  459TMC3    C3 6832   4.379   3.372  12.627  0.4828  0.3599  0.5822
  459TMC3    C4 6833   4.190   3.182  12.598  0.2140 -0.5781  0.3094
  459TMC3    C5 6834   4.253   3.199  12.719 -0.3721 -0.3741  0.2172
  459TMC3    C6 6835   4.355   3.290  12.734  0.8462 -1.3439 -0.2031
  459TMC3     C 6836   4.149   3.244  12.372 -0.3882  0.1786  0.7749
  459TMC3     O 6837   4.050   3.173  12.369  0.1300  0.3853 -0.5149
  459TMC3     H 6838   4.337   3.441  12.437  0.7690  1.2736  0.9064
  459TMC3    H1 6839   4.114   3.108  12.576 -0.3991 -0.1136  0.8958
  459TMC3    H2 6840   4.415   3.301  12.823 -0.5328  1.4890  0.3704
  459TMC3    C7 6841   4.213   3.114  12.836 -0.6463 -0.0928  1.3676
  459TMC3    C8 6842   4.482   3.466  12.642 -0.0860  0.0979  0.4042
  459TMC3    O1 6843   4.145   3.017  12.804  0.0327  0.1941 -0.1163
  459TMC3    O2 6844   4.581   3.437  12.707 -0.1156  0.0622  0.1138
  460MPD2     C 6845   3.586   0.351  10.869  0.3637 -0.1029 -0.4397
  460MPD2    C1 6846   3.496   0.452  10.859  0.2486  0.0117 -0.0873
  460MPD2    C2 6847   3.437   0.477  10.735  0.3918  0.1414 -0.1566
  460MPD2    C3 6848   3.464   0.402  10.627 -0.6780 -0.1103  0.2431
  460MPD2    C4 6849   3.550   0.294  10.634  0.4522 -0.3908  0.3793
  460MPD2    C5 6850   3.614   0.266  10.755  1.5725  0.1101  0.1819
  460MPD2     H 6851   3.365   0.558  10.728  1.2761  0.8424 -0.9732
  460MPD2    H1 6852   3.579   0.239  10.546  0.2019 -2.0414  1.3189
  460MPD2    H2 6853   3.630   0.322  10.964 -0.4718  0.4933  0.1261
  460MPD2    H3 6854   3.670   0.174  10.766 -0.2487 -1.0540 -0.2240
  460MPD2     N 6855   3.408   0.451  10.503 -0.7298 -0.2094 -0.5251
  460MPD2    H5 6856   3.335   0.520  10.513  0.6538  0.9870  1.4435
  460MPD2    N1 6857   3.448   0.509  10.980 -0.4684  0.1509 -0.1423
  460MPD2    H7 6858   3.490   0.485  11.069 -0.1442  2.0608  0.2215
  461TMC3    C1 6859   3.381   0.462  10.268 -0.1942 -1.4861  0.3263
  461TMC3    C2 6860   3.383   0.376  10.160 -0.6463 -0.1727 -0.2044
  461TMC3    C3 6861   3.384   0.438  10.036 -0.5155 -0.5415 -0.0955
  461TMC3    C4 6862   3.389   0.597  10.262  0.5781 -0.1487 -0.7261
  461TMC3    C5 6863   3.380   0.655  10.141  0.1204  0.8262  0.3696
  461TMC3    C6 6864   3.372   0.577  10.028  1.1162 -0.1173 -0.3086
  461TMC3     C 6865   3.452   0.400  10.381 -0.5431  0.0583 -0.7199
  461TMC3     O 6866   3.519   0.303  10.350 -0.7610 -0.2461 -0.2703
  461TMC3     H 6867   3.365   0.269  10.171 -0.7057 -0.1052  0.3270
  461TMC3    H1 6868   3.389   0.652  10.356 -0.1927 -1.3545 -0.0189
  461TMC3    H2 6869   3.364   0.616   9.927 -1.1233 -1.8722 -0.8182
  461TMC3    C7 6870   3.385   0.797  10.128  0.5013 -0.2134 -0.0071
  461TMC3    C8 6871   3.388   0.347   9.922 -0.4899 -0.0958  0.0347
  461TMC3    O1 6872   3.329   0.851  10.035  0.0951 -0.0133  0.6354
  461TMC3    O2 6873   3.465   0.254   9.935 -0.3390 -0.2173  0.1296
  462TMC3    C1 6874   3.484   1.737   0.554 -0.4869 -0.5734  0.1414
  462TMC3    C2 6875   3.577   1.663   0.475  0.6732  0.6545  0.5167
  462TMC3    C3 6876   3.524   1.575   0.376  0.0698  0.6048  0.2281
  462TMC3    C4 6877   3.346   1.736   0.531 -0.0331 -0.0620 -0.7815
  462TMC3    C5 6878   3.312   1.649   0.425  0.5100 -0.2634 -0.2836
  462TMC3    C6 6879   3.389   1.572   0.342  0.2468  0.1282  0.3008
  462TMC3     C 6880   3.543   1.802   0.672  0.0995  0.7572  0.0784
  462TMC3     O 6881   3.661   1.823   0.679 -0.3731  0.4985  0.0974
  462TMC3     H 6882   3.677   1.674   0.513  1.9114  0.1483 -2.5772
  462TMC3    H1 6883   3.288   1.825   0.551  0.1614  0.1970 -1.3806
  462TMC3    H2 6884   3.345   1.489   0.288  1.9044 -2.4075  2.8508
  462TMC3    C7 6885   3.181   1.680   0.369 -0.3268  0.1224 -0.0707
  462TMC3    C8 6886   3.622   1.483   0.314  0.4107 -0.4097 -0.4915
  462TMC3    O1 6887   3.093   1.723   0.440  0.5139  0.3256 -0.0346
  462TMC3    O2 6888   3.728   1.477   0.377 -0.0629 -0.0929  0.2316
  463MPD2     C 6889   3.622   1.281   2.126  0.3298  0.0635 -0.0800
  463MPD2    C1 6890   3.695   1.214   2.034  0.0908 -0.8577  0.6165
  463MPD2    C2 6891   3.809   1.140   2.074  0.5231 -0.0439 -0.3302
  463MPD2    C3 6892   3.849   1.143   2.209  0.2113 -0.2471 -0.2029
  463MPD2    C4 6893   3.785   1.218   2.302 -0.3882  0.5212 -0.0035
  463MPD2    C5 6894   3.669   1.282   2.258  0.0568  0.2555 -0.4329
  463MPD2     H 6895   3.863   1.079   2.002  1.2906  0.7925 -0.4487
  463MPD2    H1 6896   3.807   1.227   2.408 -1.0213 -0.9411  0.2470
  463MPD2    H2 6897   3.524   1.324   2.111  0.0070 -0.6458 -0.0348
  463MPD2    H3 6898   3.612   1.332   2.335 -0.2170 -1.5034  0.5101
  463MPD2     N 6899   3.960   1.075   2.259 -0.0307  0.3763 -0.1869
  463MPD2    H5 6900   3.983   1.082   2.357  0.7108  0.5625 -0.3742
  463MPD2    N1 6901   3.657   1.206   1.900 -0.4371 -0.1242  0.0377
  463MPD2    H7 6902   3.724   1.157   1.842 -1.6658  0.0106 -1.5161
  464TMC3    C1 6903   3.568   1.245   1.684 -0.1500 -0.9141  0.6837
  464TMC3    C2 6904   3.455   1.233   1.606 -0.3112 -0.0229 -0.3717
  464TMC3    C3 6905   3.475   1.187   1.477  0.4204 -0.7278 -0.0737
  464TMC3    C4 6906   3.694   1.237   1.634 -0.2551 -0.1865  0.2507
  464TMC3    C5 6907   3.706   1.210   1.499 -0.3760 -0.1232  0.0195
  464TMC3    C6 6908   3.595   1.186   1.416 -0.0065  0.3023  0.3670
  464TMC3     C 6909   3.546   1.260   1.832  0.1944  0.2302  0.2055
  464TMC3     O 6910   3.454   1.323   1.884  0.1111  0.1585  0.2527
  464TMC3     H 6911   3.359   1.238   1.655 -0.2094 -1.0544 -0.0549
  464TMC3    H1 6912   3.780   1.243   1.700  2.7080 -0.7783 -3.5655
  464TMC3    H2 6913   3.615   1.144   1.318 -1.8959 -1.0150  0.5523
  464TMC3    C7 6914   3.824   1.138   1.478 -0.4469 -0.5906 -0.5300
  464TMC3    C8 6915   3.368   1.182   1.386 -0.9583  0.9708  0.4528
  464TMC3    O1 6916   3.932   1.176   1.522  0.0578 -0.1176 -0.4430
  464TMC3    O2 6917   3.399   1.177   1.271  0.4142  0.6320  0.5528
  465MPD2     C 6918   0.731   3.834  16.831 -0.3623  0.2952  0.0110
  465MPD2    C1 6919   0.637   3.908  16.906  0.1965  0.0826 -1.0001
  465MPD2    C2 6920   0.537   3.976  16.844 -0.6327 -0.1335  0.3356
  465MPD2    C3 6921   0.526   3.977  16.710 -0.1322 -0.1776 -0.7724
  465MPD2    C4 6922   0.622   3.917  16.630 -0.9528 -0.2317  0.9964
  465MPD2    C5 6923   0.721   3.845  16.694  0.5460  0.4397 -0.1918
  465MPD2     H 6924   0.461   4.021  16.906 -1.0407 -1.4545  0.8017
  465MPD2    H1 6925   0.628   3.924  16.522 -1.0096  0.6955  1.0583
  465MPD2    H2 6926   0.809   3.775  16.877  2.4293  1.6891 -3.0148
  465MPD2    H3 6927   0.789   3.793  16.626 -0.0612  2.1557 -2.1043
  465MPD2     N 6928   0.402   4.028  16.659  0.8691 -0.1918 -0.0367
  465MPD2    H5 6929   0.338   4.071  16.726  1.7218 -1.3050  1.4948
  465MPD2    N1 6930   0.642   3.917  17.051  0.6635  0.2844 -0.1529
  465MPD2    H7 6931   0.569   3.970  17.098 -0.3300 -0.1924 -1.1644
  466TMC3    C1 6932   0.029   4.120  16.609  0.5976 -0.1677  0.2856
  466TMC3    C2 6933   0.001   4.231  16.536 -0.3512  0.4164  1.4288
  466TMC3    C3 6934   0.101   4.283  16.455 -0.7558 -0.7891  0.6199
  466TMC3    C4 6935   0.149   4.054  16.602  0.3645 -0.0581  0.0257
  466TMC3    C5 6936   0.243   4.110  16.518  0.2254 -1.0066  0.1194
  466TMC3    C6 6937   0.219   4.216  16.438 -0.0041 -0.2180 -0.0346
  466TMC3     C 6938   4.678   4.101  16.731 -0.4861 -0.4014 -0.2810
  466TMC3     O 6939   0.025   4.082  16.832 -0.2266 -0.4185  0.1070
  466TMC3     H 6940   4.634   4.286  16.562 -1.1655 -0.3158  0.1631
  466TMC3    H1 6941   0.170   3.973  16.671  0.5939 -0.5103 -0.5787
  466TMC3    H2 6942   0.297   4.260  16.377 -0.8062 -1.8307 -2.2139
  466TMC3    C7 6943   0.372   4.051  16.526 -0.5061  0.3480 -0.7669
  466TMC3    C8 6944   0.077   4.405  16.380 -0.7846  0.4235  0.5781
  466TMC3    O1 6945   0.441   4.041  16.425  0.1305 -0.6259 -0.2338
  466TMC3    O2 6946   0.156   4.422  16.285  0.6050 -0.8546 -0.4612
  467TMC3    C1 6947   1.121   2.511  14.017 -1.0641 -0.0470  0.2584
  467TMC3    C2 6948   1.071   2.638  14.042  0.8241 -0.5626 -1.1548
  467TMC3    C3 6949   0.953   2.673  13.985  0.3281  0.4153 -0.1088
  467TMC3    C4 6950   1.058   2.426  13.931  0.8844  0.2238 -0.5455
  467TMC3    C5 6951   0.943   2.466  13.870  0.5238  0.0342 -0.0432
  467TMC3    C6 6952   0.887   2.585  13.896 -0.1318  0.1485  0.0739
  467TMC3     C 6953   1.262   2.499  14.023 -0.1501  0.0039  0.3710
  467TMC3     O 6954   1.321   2.563  14.111 -0.0956 -0.2643 -0.9051
  467TMC3     H 6955   1.134   2.710  14.094 -0.5845  0.0987 -0.3579
  467TMC3    H1 6956   1.092   2.323  13.939  0.7851  0.1825 -0.6567
  467TMC3    H2 6957   0.792   2.612  13.852  0.3306 -1.4983 -1.8976
  467TMC3    C7 6958   0.857   2.362  13.812 -0.4118 -0.1438 -0.0426
  467TMC3    C8 6959   0.952   2.812  13.955 -0.1150  0.0178  0.3754
  467TMC3    O1 6960   0.908   2.256  13.772 -0.2500 -0.2696 -0.1170
  467TMC3    O2 6961   1.060   2.867  13.933 -0.8125  1.0029 -0.4491
  468MPD2     C 6962   4.588   0.963  10.446 -0.3961 -0.5813 -0.3583
  468MPD2    C1 6963   4.686   0.948  10.546 -0.1312 -0.6648  0.5801
  468MPD2    C2 6964   4.718   0.828  10.605 -0.3932 -0.6568  0.1594
  468MPD2    C3 6965   4.651   0.712  10.568  0.3661 -0.3411 -0.2985
  468MPD2    C4 6966   4.546   0.721  10.474  0.5269  0.1457 -0.1457
  468MPD2    C5 6967   4.518   0.847  10.417  0.6282  0.4364  0.5181
  468MPD2     H 6968   0.058   0.825  10.694 -1.4566  0.4825  0.9369
  468MPD2    H1 6969   4.494   0.630  10.445  1.8373 -0.4788 -0.5562
  468MPD2    H2 6970   4.552   1.054  10.399 -1.3448 -1.0051 -0.4596
  468MPD2    H3 6971   4.433   0.855  10.350  0.1284 -0.1065  1.0936
  468MPD2     N 6972   4.675   0.584  10.628 -0.0072 -0.2492 -0.5633
  468MPD2    H5 6973   4.607   0.514  10.599 -0.6676  0.4611 -0.7107
  468MPD2    N1 6974   0.046   1.051  10.582 -0.0580  0.1054  0.2864
  468MPD2    H7 6975   0.115   1.037  10.654  1.6564 -0.1837 -1.4029
  469TMC3    C1 6976   0.117   1.257  10.641 -0.2019  0.2127  0.4654
  469TMC3    C2 6977   0.241   1.203  10.660 -0.0025  0.3970 -0.2256
  469TMC3    C3 6978   0.306   1.214  10.780 -0.1030 -0.1081  0.0331
  469TMC3    C4 6979   0.068   1.348  10.739 -0.2165 -0.0486 -0.6112
  469TMC3    C5 6980   0.139   1.350  10.857  0.5546  0.0683 -0.7092
  469TMC3    C6 6981   0.254   1.286  10.884 -0.1444  0.3901  0.2739
  469TMC3     C 6982   0.030   1.178  10.556  0.7370  0.7862 -0.4881
  469TMC3     O 6983   4.663   1.236  10.492  0.1111  0.0872  0.0551
  469TMC3     H 6984   0.289   1.147  10.581  0.8393  1.8601 -0.7568
  469TMC3    H1 6985   4.693   1.396  10.734  1.3175  3.1361  0.0379
  469TMC3    H2 6986   0.309   1.304  10.976  0.1139  1.7406 -0.1381
  469TMC3    C7 6987   0.076   1.428  10.961  0.3768 -0.3375 -0.0280
  469TMC3    C8 6988   0.372   1.091  10.823  0.0199  0.0830  0.1501
  469TMC3    O1 6989   4.699   1.493  10.938 -0.2435 -0.5097 -0.4911
  469TMC3    O2 6990   0.309   0.989  10.804 -0.3936  0.7390 -0.2282
  470TMC3    C1 6991   2.752   2.298   0.796 -0.1342  0.5418 -0.9589
  470TMC3    C2 6992   2.677   2.383   0.865 -0.0466  0.3200  0.0452
  470TMC3    C3 6993   2.647   2.351   0.997  0.8394  0.2351  0.2480
  470TMC3    C4 6994   2.799   2.178   0.848  0.1900  0.0704 -0.1057
  470TMC3    C5 6995   2.784   2.161   0.987  0.3643  0.3818 -0.9092
  470TMC3    C6 6996   2.706   2.241   1.060  0.6268 -1.0449  0.6765
  470TMC3     C 6997   2.816   2.340   0.672  0.6076  0.2203  0.3403
  470TMC3     O 6998   2.861   2.244   0.615  0.8527 -0.3364  0.4309
  470TMC3     H 6999   2.624   2.467   0.819 -1.0365 -0.0196  0.5622
  470TMC3    H1 7000   2.855   2.102   0.794 -1.3823 -2.5099  1.8771
  470TMC3    H2 7001   2.692   2.229   1.167  0.8389  1.2062  0.9529
  470TMC3    C7 7002   2.865   2.058   1.050  0.5343  0.0820 -0.6122
  470TMC3    C8 7003   2.542   2.410   1.078 -0.3122  0.3924 -0.0696
  470TMC3    O1 7004   2.933   1.989   0.973 -0.3151  0.9710  0.4677
  470TMC3    O2 7005   2.564   2.415   1.198  0.2013 -0.3557 -0.0857
  471MPD2     C 7006   2.490   3.055  16.332 -0.9459  0.4253  0.3506
  471MPD2    C1 7007   2.514   2.919  16.323 -0.3671  0.2470  0.2706
  471MPD2    C2 7008   2.552   2.855  16.438  0.0251  0.7187  0.1435
  471MPD2    C3 7009   2.573   2.924  16.561 -0.3960  0.4160  0.2832
  471MPD2    C4 7010   2.561   3.057  16.563  0.0861 -0.1998 -0.2311
  471MPD2    C5 7011   2.514   3.120  16.451 -0.2311  0.2151  0.4210
  471MPD2     H 7012   2.564   2.748  16.437  0.4003  0.7591  0.8629
  471MPD2    H1 7013   2.577   3.125  16.646  1.1542  0.0784 -0.6651
  471MPD2    H2 7014   2.471   3.107  16.239 -0.5466 -1.2878 -0.6904
  471MPD2    H3 7015   2.494   3.226  16.463  0.7328  0.3992  0.3637
  471MPD2     N 7016   2.613   2.845  16.674  0.0778  0.0138 -0.1483
  471MPD2    H5 7017   2.645   2.751  16.652 -0.1214 -0.2630  0.7493
  471MPD2    N1 7018   2.512   2.836  16.205 -0.1443  0.5572 -0.4677
  471MPD2    H7 7019   2.556   2.746  16.219  0.0071  0.7026 -0.0235
  472TMC3    C1 7020   2.424   2.755  16.000  0.9855 -0.2934  0.0586
  472TMC3    C2 7021   2.317   2.768  15.916 -0.1526  0.9083 -0.1928
  472TMC3    C3 7022   2.287   2.661  15.842  0.9849  0.0949 -0.7048
  472TMC3    C4 7023   2.499   2.642  16.006 -0.9294  0.4819  1.1414
  472TMC3    C5 7024   2.455   2.531  15.935  0.1049  0.2316 -1.3352
  472TMC3    C6 7025   2.349   2.543  15.852 -0.2878 -0.2169  0.3218
  472TMC3     C 7026   2.427   2.861  16.100 -0.0881 -0.2448  0.1561
  472TMC3     O 7027   2.355   2.959  16.084 -0.1746  0.4024 -0.4726
  472TMC3     H 7028   2.257   2.857  15.902 -0.0335  0.6327 -2.4622
  472TMC3    H1 7029   2.589   2.637  16.066 -0.7595 -0.2387  0.8245
  472TMC3    H2 7030   2.324   2.464  15.783 -2.1221  1.8213 -1.3615
  472TMC3    C7 7031   2.462   2.411  16.012 -0.2780 -0.2520 -0.8610
  472TMC3    C8 7032   2.142   2.665  15.822 -0.3805  0.6268 -0.1084
  472TMC3    O1 7033   2.467   2.440  16.133 -0.7828 -0.1646 -0.2892
  472TMC3    O2 7034   2.081   2.771  15.797  0.2302 -0.5720 -0.0959
  473MPD2     C 7035   2.594   0.158  13.690  0.4010  0.4119 -0.3590
  473MPD2    C1 7036   2.607   0.261  13.600  0.1109 -0.1584 -0.2151
  473MPD2    C2 7037   2.639   0.387  13.645 -0.1534  0.3460  0.1312
  473MPD2    C3 7038   2.670   0.412  13.778  0.4125  1.0906  0.1145
  473MPD2    C4 7039   2.659   0.309  13.866  0.2674 -0.4435  0.5942
  473MPD2    C5 7040   2.616   0.183  13.823 -0.2183 -0.4461  0.5772
  473MPD2     H 7041   2.636   0.468  13.573 -0.3910  1.1373  1.0324
  473MPD2    H1 7042   2.689   0.316  13.970  3.1047  0.6141 -0.2961
  473MPD2    H2 7043   2.574   0.054  13.668 -0.1562  0.4806 -0.1675
  473MPD2    H3 7044   2.597   0.107  13.898 -1.2505 -1.7293 -1.0081
  473MPD2     N 7045   2.694   0.535  13.844 -0.4610 -0.3690  0.4570
  473MPD2    H5 7046   2.711   0.527  13.944  1.0019  0.4535  0.2849
  473MPD2    N1 7047   2.572   0.248  13.460 -0.3585  0.1170  0.3165
  473MPD2    H7 7048   2.560   0.334  13.406 -1.0938 -1.4153 -1.9656
  474TMC3    C1 7049   2.688   0.768  13.874  0.2165 -0.0755  0.1362
  474TMC3    C2 7050   2.641   0.881  13.818  0.3538  0.7029  0.5243
  474TMC3    C3 7051   2.677   1.002  13.878 -0.3521 -0.5068 -0.7653
  474TMC3    C4 7052   2.781   0.762  13.977 -0.2181  0.1569  0.5355
  474TMC3    C5 7053   2.828   0.884  14.009  0.5217 -0.7255 -0.4221
  474TMC3    C6 7054   2.778   1.006  13.965  0.1609  0.4769  0.3402
  474TMC3     C 7055   2.670   0.660  13.784 -1.2835  0.1632 -0.1347
  474TMC3     O 7056   2.643   0.679  13.664  0.5955 -0.0744 -0.3687
  474TMC3     H 7057   2.563   0.886  13.743  0.3586 -0.3503  0.4593
  474TMC3    H1 7058   2.824   0.673  14.022 -3.1971 -1.6283 -0.1451
  474TMC3    H2 7059   2.819   1.103  13.992 -0.0386  0.1975  1.6420
  474TMC3    C7 7060   2.934   0.885  14.096  0.0075  0.6236 -0.2741
  474TMC3    C8 7061   2.657   1.124  13.799 -0.4092  0.4536  0.7937
  474TMC3    O1 7062   3.026   0.799  14.081  0.3147  0.4288  0.1290
  474TMC3    O2 7063   2.624   1.106  13.681  0.2937 -0.4868  0.1956
  475MPD2     C 7064   2.035   4.202   9.978  0.1706 -0.0324  0.0294
  475MPD2    C1 7065   2.021   4.112   9.871  1.0426  0.2857  0.0078
  475MPD2    C2 7066   1.905   4.045   9.870 -0.2383  0.0996  0.7743
  475MPD2    C3 7067   1.806   4.049   9.969  0.1299  0.4291  0.1957
  475MPD2    C4 7068   1.816   4.143  10.066 -0.0625 -0.5501 -0.1347
  475MPD2    C5 7069   1.931   4.216  10.070  0.0867 -0.6728 -0.2915
  475MPD2     H 7070   1.881   3.967   9.799  0.2558 -0.4405  1.1978
  475MPD2    H1 7071   1.735   4.161  10.135 -1.0379  0.2701 -1.4846
  475MPD2    H2 7072   2.124   4.263   9.995 -1.7115  2.7136  0.1444
  475MPD2    H3 7073   1.953   4.279  10.155  3.2261 -0.5081 -1.2308
  475MPD2     N 7074   1.694   3.958   9.955 -0.0199  0.0974 -0.4375
  475MPD2    H5 7075   1.703   3.883   9.886 -1.2520  0.2848 -0.8023
  475MPD2    N1 7076   2.134   4.085   9.781  0.0732  0.8346 -0.2253
  475MPD2    H7 7077   2.228   4.115   9.803  0.1309  0.5805 -0.1169
  476TMC3    C1 7078   2.246   3.972   9.596  0.8359 -0.5867  0.2707
  476TMC3    C2 7079   2.215   3.901   9.491 -0.3955  0.0188 -0.4333
  476TMC3    C3 7080   2.301   3.804   9.449  0.6883 -0.6151  0.1505
  476TMC3    C4 7081   2.351   3.933   9.672  0.3168  0.1334  0.3528
  476TMC3    C5 7082   2.439   3.833   9.628 -0.3132 -0.5302 -0.4673
  476TMC3    C6 7083   2.419   3.760   9.515  0.2165 -0.3738  0.0359
  476TMC3     C 7084   2.123   4.003   9.668  0.2540  0.1810  0.3333
  476TMC3     O 7085   2.023   3.954   9.612  0.2161 -0.2077 -0.0408
  476TMC3     H 7086   2.131   3.924   9.427 -1.8189 -1.7711  0.7965
  476TMC3    H1 7087   2.355   3.960   9.777  1.4596  0.4407  0.2366
  476TMC3    H2 7088   2.486   3.680   9.484 -1.6286 -1.8207 -0.2061
  476TMC3    C7 7089   2.572   3.816   9.694 -0.2889 -0.6382 -0.1101
  476TMC3    C8 7090   2.252   3.728   9.340  0.3490  0.3698 -0.6447
  476TMC3    O1 7091   2.624   3.703   9.690  0.3677  0.3842  0.3451
  476TMC3    O2 7092   2.204   3.791   9.250 -0.3714 -0.3574 -0.0441
  477MPD2     C 7093   3.102   4.409  11.786 -0.5040  1.1284 -0.0617
  477MPD2    C1 7094   3.138   4.534  11.841  0.0067  0.0186 -0.0960
  477MPD2    C2 7095   3.237   4.539  11.936  0.1313 -0.3276  0.0739
  477MPD2    C3 7096   3.307   4.423  11.973 -0.1603  0.3054 -0.3545
  477MPD2    C4 7097   3.265   4.300  11.922  0.3387 -0.2113 -0.0601
  477MPD2    C5 7098   3.164   4.293  11.830 -0.3500 -0.3396 -0.9339
  477MPD2     H 7099   3.273   4.632  11.979  0.5706 -0.0511 -0.8849
  477MPD2    H1 7100   3.306   4.206  11.955  1.6597  0.6392  0.7574
  477MPD2    H2 7101   3.027   4.408  11.708  0.3838 -0.8338 -0.9052
  477MPD2    H3 7102   3.146   4.196  11.786  0.1220 -0.7629 -0.2094
  477MPD2     N 7103   3.415   4.436  12.064  0.5013  0.0567 -0.5763
  477MPD2    H5 7104   3.417   4.532  12.098 -1.8937  0.1203 -0.5719
  477MPD2    N1 7105   3.058   4.646  11.803  0.0235  0.5408  0.3569
  477MPD2    H7 7106   2.987   4.625  11.733  0.5893 -0.6252  0.1323
  478TMC3    C1 7107   2.997   0.154  11.751 -0.8162 -0.2995  1.2457
  478TMC3    C2 7108   2.978   0.274  11.814 -0.5240  0.4036  0.1569
  478TMC3    C3 7109   2.944   0.376  11.736 -0.1965 -0.1837  0.7615
  478TMC3    C4 7110   2.985   0.138  11.616  0.4901  0.7204  0.5434
  478TMC3    C5 7111   2.945   0.250  11.532 -0.4378 -0.7736  0.0451
  478TMC3    C6 7112   2.923   0.367  11.600  0.3162  0.1514  0.6018
  478TMC3     C 7113   3.079   0.057  11.831 -0.3839  0.1253  0.1101
  478TMC3     O 7114   3.153   0.108  11.910 -0.7366  0.1289 -0.0499
  478TMC3     H 7115   3.011   0.280  11.917  1.3431 -2.2558 -0.2752
  478TMC3    H1 7116   3.008   0.046  11.563 -0.4817 -0.2396  1.7885
  478TMC3    H2 7117   2.900   0.456  11.543  1.0600  0.7488  1.2423
  478TMC3    C7 7118   3.018   0.269  11.408  0.4182  0.7813 -0.9051
  478TMC3    C8 7119   2.913   0.489  11.815  0.1548 -0.3574 -0.2217
  478TMC3    O1 7120   3.139   0.283  11.426  0.4423 -0.4570 -0.3426
  478TMC3    O2 7121   2.906   0.475  11.939 -0.3864 -0.0273 -0.1917
  479MPD2     C 7122   2.253   2.211  14.868 -0.5989 -0.2917  0.1068
  479MPD2    C1 7123   2.167   2.182  14.974  0.0931 -0.4725  0.5028
  479MPD2    C2 7124   2.217   2.125  15.087 -0.4362 -0.7165  0.2019
  479MPD2    C3 7125   2.358   2.118  15.112 -0.2976  0.1559  0.2107
  479MPD2    C4 7126   2.444   2.139  15.004  0.0896  0.4127  0.1273
  479MPD2    C5 7127   2.386   2.185  14.880  0.5473 -0.2908  0.2947
  479MPD2     H 7128   2.153   2.097  15.169  1.1344 -1.4535  1.1830
  479MPD2    H1 7129   2.551   2.126  15.015 -0.2195 -2.6406 -0.6464
  479MPD2    H2 7130   2.210   2.236  14.771  0.4849 -0.2600 -0.3688
  479MPD2    H3 7131   2.460   2.203  14.803  1.2626 -0.6440  0.8906
  479MPD2     N 7132   2.412   2.091  15.241 -0.6299  0.0656  0.5395
  479MPD2    H5 7133   2.512   2.073  15.241 -0.4209  1.2325  2.2067
  479MPD2    N1 7134   2.025   2.193  14.951  0.0184 -0.0325  0.1151
  479MPD2    H7 7135   1.985   2.218  14.861  0.8832 -1.2506 -0.6162
  480TMC3    C1 7136   2.075   2.204  15.555 -0.3505 -0.5033 -0.9115
  480TMC3    C2 7137   2.043   2.326  15.502 -0.1035  0.2627 -0.1873
  480TMC3    C3 7138   2.116   2.364  15.395  0.9382  0.6441  0.3119
  480TMC3    C4 7139   2.162   2.114  15.494  0.4160  1.1805 -0.5420
  480TMC3    C5 7140   2.230   2.159  15.386  0.9217  0.8149  0.0754
  480TMC3    C6 7141   2.217   2.286  15.341 -0.0955  0.6652 -0.5919
  480TMC3     C 7142   2.007   2.147  15.671  0.6715 -0.0515  0.0018
  480TMC3     O 7143   2.067   2.069  15.741  0.2397 -0.2003  0.5445
  480TMC3     H 7144   1.996   2.406  15.557  0.1182  0.5573 -0.4221
  480TMC3    H1 7145   2.160   2.013  15.534  2.5888  0.7385 -1.5636
  480TMC3    H2 7146   2.268   2.321  15.252 -0.2610 -3.1018 -2.1714
  480TMC3    C7 7147   2.351   2.079  15.363 -0.8427  0.8065  0.4945
  480TMC3    C8 7148   2.050   2.489  15.323 -0.4895  0.1448  0.4086
  480TMC3    O1 7149   2.401   2.034  15.469 -0.0487  0.2643  0.3214
  480TMC3    O2 7150   1.964   2.550  15.386  0.2824 -0.1348 -0.0645
  481MPD2     C 7151   3.912   1.519  14.038 -1.0014  0.5682  0.3784
  481MPD2    C1 7152   3.794   1.494  14.106  0.5083 -0.8119 -0.1553
  481MPD2    C2 7153   3.804   1.437  14.231 -0.6201 -0.2909  0.2201
  481MPD2    C3 7154   3.922   1.418  14.293  0.0312 -0.2569  0.1342
  481MPD2    C4 7155   4.041   1.444  14.218 -0.4874  0.1529  0.2092
  481MPD2    C5 7156   4.034   1.481  14.087 -0.3130 -0.6853  0.4782
  481MPD2     H 7157   3.718   1.421  14.295 -0.7578  0.4591  0.2301
  481MPD2    H1 7158   4.139   1.410  14.247 -1.0932 -1.7356  0.0618
  481MPD2    H2 7159   3.924   1.566  13.941  2.5048 -0.7526  0.1703
  481MPD2    H3 7160   4.123   1.490  14.026  0.5454  0.9303  1.9447
  481MPD2     N 7161   3.934   1.370  14.428 -1.0504 -0.3111  0.2125
  481MPD2    H5 7162   4.030   1.354  14.456 -1.6496 -2.4058  1.0656
  481MPD2    N1 7163   3.675   1.537  14.040 -0.2885 -0.2039 -0.3811
  481MPD2    H7 7164   3.693   1.579  13.950  2.7792  0.1170  0.4072
  482TMC3    C1 7165   3.463   1.531  13.973 -0.4113  0.1454 -0.4213
  482TMC3    C2 7166   3.414   1.439  13.880  0.6163 -0.0323  0.2559
  482TMC3    C3 7167   3.377   1.489  13.756  0.0122  0.3236  0.4067
  482TMC3    C4 7168   3.468   1.663  13.952 -0.3926  0.4492  0.1115
  482TMC3    C5 7169   3.429   1.705  13.828  0.9069  0.4567  0.8151
  482TMC3    C6 7170   3.380   1.623  13.731  0.8155 -0.8690  0.7545
  482TMC3     C 7171   3.553   1.484  14.073  0.3158  0.5390  0.5951
  482TMC3     O 7172   3.503   1.408  14.155  0.0063 -0.0456  0.2689
  482TMC3     H 7173   3.433   1.335  13.902  1.4280 -0.3228 -1.7692
  482TMC3    H1 7174   3.512   1.732  14.023  1.1154 -0.3806  0.0017
  482TMC3    H2 7175   3.355   1.653  13.630  0.4990 -0.2546  1.0189
  482TMC3    C7 7176   3.435   1.845  13.801  0.3646 -0.0599 -0.6443
  482TMC3    C8 7177   3.399   1.395  13.645 -0.1981  0.3725  0.6307
  482TMC3    O1 7178   3.420   1.924  13.891 -0.7161 -0.3957  0.6376
  482TMC3    O2 7179   3.456   1.290  13.671 -0.4972  0.0230 -0.5654
  483TMC3    C1 7180   1.589   1.110   0.801  0.3810 -0.1518  0.1148
  483TMC3    C2 7181   1.625   1.239   0.780 -0.1212  0.1004 -0.1774
  483TMC3    C3 7182   1.706   1.303   0.868 -0.8041  0.1301 -0.1175
  483TMC3    C4 7183   1.646   1.046   0.911  0.1183  0.0737  0.5367
  483TMC3    C5 7184   1.717   1.118   1.003  0.5788  0.6223  0.5956
  483TMC3    C6 7185   1.740   1.249   0.989 -0.1874 -0.0068  0.0376
  483TMC3     C 7186   1.552   1.029   0.690 -0.3757 -0.4118 -0.4926
  483TMC3     O 7187   1.450   1.065   0.634  0.3579 -0.5217  0.5582
  483TMC3     H 7188   1.593   1.278   0.685 -0.1705 -0.1827 -0.2775
  483TMC3    H1 7189   1.617   0.943   0.930 -2.2576  0.0691 -3.2036
  483TMC3    H2 7190   1.816   1.291   1.054 -0.0152 -0.5168  0.1627
  483TMC3    C7 7191   1.790   1.028   1.096 -0.4887 -0.4349 -0.2941
  483TMC3    C8 7192   1.807   1.386   0.796  0.1336  0.1121  0.4364
  483TMC3    O1 7193   1.797   0.911   1.063 -0.8154  0.0663 -0.0036
  483TMC3    O2 7194   1.799   1.371   0.676 -1.0830  0.6062 -0.4798
  484MPD2     C 7195   4.506   3.794  12.478 -1.0796  0.4243 -0.0898
  484MPD2    C1 7196   4.549   3.690  12.562 -0.2776  0.0442 -0.0818
  484MPD2    C2 7197   4.685   3.680  12.598 -1.0878 -0.1911 -0.0739
  484MPD2    C3 7198   0.051   3.784  12.564  0.0958  0.3884  0.1049
  484MPD2    C4 7199   0.003   3.896  12.494 -0.0542  0.3606 -0.2646
  484MPD2    C5 7200   4.598   3.894  12.455  0.1524  0.2904 -0.0277
  484MPD2     H 7201   0.001   3.596  12.655 -0.9881 -0.3412 -0.3621
  484MPD2    H1 7202   0.054   3.986  12.464 -2.0009  1.6307  0.2095
  484MPD2    H2 7203   4.404   3.810  12.446 -1.1417 -3.0814 -1.5753
  484MPD2    H3 7204   4.565   3.976  12.392  1.3953 -0.1499 -1.2538
  484MPD2     N 7205   0.183   3.782  12.593  0.5403  0.3448  0.3012
  484MPD2    H5 7206   0.228   3.871  12.577 -3.0772  1.9512 -1.1110
  484MPD2    N1 7207   4.451   3.589  12.585 -0.0109  0.0733  0.1105
  484MPD2    H7 7208   4.360   3.610  12.544  1.3143  0.4760 -2.6371
  485TMC3    C1 7209   0.395   3.688  12.651  0.0603 -0.0493  0.0302
  485TMC3    C2 7210   0.488   3.596  12.607 -0.0491  0.4081 -0.1683
  485TMC3    C3 7211   0.619   3.622  12.633 -0.1664 -0.6881 -0.0020
  485TMC3    C4 7212   0.430   3.811  12.702  0.0399  0.3204  0.0950
  485TMC3    C5 7213   0.559   3.835  12.721  0.4267 -0.4009  0.3036
  485TMC3    C6 7214   0.649   3.730  12.707 -0.0661  0.1857 -0.1106
  485TMC3     C 7215   0.254   3.663  12.626  0.2117 -0.0131  0.3622
  485TMC3     O 7216   0.213   3.544  12.630 -0.5185 -0.1385 -0.5633
  485TMC3     H 7217   0.460   3.494  12.583 -1.0964  0.7236 -0.2920
  485TMC3    H1 7218   0.356   3.888  12.720  2.2378  2.0641  1.5897
  485TMC3    H2 7219   0.743   3.748  12.756 -0.5332 -1.4278  1.3628
  485TMC3    C7 7220   0.595   3.969  12.666 -0.9360 -0.3114 -0.3553
  485TMC3    C8 7221   0.724   3.585  12.535  0.2336  0.0366  0.0328
  485TMC3    O1 7222   0.521   4.068  12.675  0.0558 -0.0603  0.4600
  485TMC3    O2 7223   0.811   3.671  12.532  0.2234 -0.5245  0.0400
  486MPD2     C 7224   1.485   2.477  12.738  0.5751  0.4973  0.1035
  486MPD2    C1 7225   1.544   2.469  12.616 -0.2223  0.2410  0.1167
  486MPD2    C2 7226   1.575   2.578  12.542  0.1837 -0.2642  0.2503
  486MPD2    C3 7227   1.533   2.706  12.580  0.3123 -1.0755 -0.3192
  486MPD2    C4 7228   1.449   2.707  12.692 -0.1562 -0.0904  0.0670
  486MPD2    C5 7229   1.428   2.597  12.772  0.0043  0.4007 -0.4298
  486MPD2     H 7230   1.619   2.558  12.445 -2.1349  0.2900 -0.9313
  486MPD2    H1 7231   1.397   2.796  12.724 -0.2942  0.7872 -2.5990
  486MPD2    H2 7232   1.475   2.395  12.809  0.1777  1.2307  0.8956
  486MPD2    H3 7233   1.366   2.589  12.860 -0.7704  0.1287 -1.0049
  486MPD2     N 7234   1.543   2.812  12.491 -0.0745 -0.3456 -0.1548
  486MPD2    H5 7235   1.602   2.803  12.409  0.7455  0.2659  0.3678
  486MPD2    N1 7236   1.588   2.340  12.586 -0.4968  0.6011  0.0500
  486MPD2    H7 7237   1.558   2.267  12.649 -0.3480  0.7411  0.2824
  487TMC3    C1 7238   1.671   2.155  12.470 -0.0055  0.1642  0.5655
  487TMC3    C2 7239   1.688   2.099  12.350  0.3077 -0.0445  0.0756
  487TMC3    C3 7240   1.722   1.966  12.354 -0.3436  0.1571 -0.4461
  487TMC3    C4 7241   1.696   2.097  12.591  0.8640 -0.1899 -0.4758
  487TMC3    C5 7242   1.745   1.971  12.587 -0.1311  0.4108 -0.7228
  487TMC3    C6 7243   1.751   1.904  12.468  0.2014 -0.0952  0.3590
  487TMC3     C 7244   1.652   2.298  12.468 -0.0083 -0.2790  0.8525
  487TMC3     O 7245   1.681   2.353  12.365  0.6419 -0.5628 -0.3508
  487TMC3     H 7246   1.686   2.156  12.258  0.4541  0.6556  0.5062
  487TMC3    H1 7247   1.679   2.139  12.689 -0.8171 -1.1484 -0.3446
  487TMC3    H2 7248   1.794   1.805  12.467 -2.2401 -1.1757  2.0543
  487TMC3    C7 7249   1.717   1.893  12.704 -0.2179 -0.5207  0.7698
  487TMC3    C8 7250   1.765   1.897  12.231  1.2477 -0.7689  0.8896
  487TMC3    O1 7251   1.710   1.952  12.812 -0.1057  0.1269 -0.0124
  487TMC3    O2 7252   1.803   1.975  12.140  0.0423  0.1023  0.3651
  488MPD2     C 7253   2.330   4.226  16.757 -0.2913  0.0997 -0.1738
  488MPD2    C1 7254   2.231   4.320  16.729  0.4559  0.2464  1.2611
  488MPD2    C2 7255   2.123   4.312  16.813 -0.6124  0.6793 -0.1862
  488MPD2    C3 7256   2.095   4.200  16.892 -0.6592 -0.5920 -0.0247
  488MPD2    C4 7257   2.188   4.106  16.909  0.8569 -0.0239 -0.2316
  488MPD2    C5 7258   2.309   4.125  16.851  0.1265 -0.4275 -0.2191
  488MPD2     H 7259   2.044   4.385  16.800  0.7123  2.0384 -0.5703
  488MPD2    H1 7260   2.170   4.010  16.956  0.6029  0.4370  0.6057
  488MPD2    H2 7261   2.418   4.217  16.695  0.9125  0.7437  1.4558
  488MPD2    H3 7262   2.374   4.038  16.856 -1.2676 -1.5186 -0.7327
  488MPD2     N 7263   1.965   4.187  16.946 -0.2089  0.0400 -0.3662
  488MPD2    H5 7264   1.904   4.267  16.934 -2.6336 -1.4156  2.3119
  488MPD2    N1 7265   2.238   4.421  16.637  0.0886 -0.6105 -0.5708
  488MPD2    H7 7266   2.167   4.494  16.639 -0.9697 -1.6108 -1.4866
  489TMC3    C1 7267   1.808   4.121  17.113  0.5305  0.1686 -0.4607
  489TMC3    C2 7268   1.758   4.245  17.079 -0.0949  0.7498  0.0924
  489TMC3    C3 7269   1.715   4.329  17.176  0.8545 -0.4481  0.1022
  489TMC3    C4 7270   1.811   4.077  17.243  0.2958 -0.3788  0.7208
  489TMC3    C5 7271   1.769   4.160  17.344 -0.0168  0.4170  0.2342
  489TMC3    C6 7272   1.719   4.288  17.308  0.2068 -0.3585 -0.0565
  489TMC3     C 7273   1.937   4.096  17.047  0.4843  0.3990 -0.1405
  489TMC3     O 7274   2.012   4.020  17.108 -0.3593  0.1211  0.8168
  489TMC3     H 7275   1.733   4.272  16.977  0.1755 -1.5909 -0.5788
  489TMC3    H1 7276   1.844   3.975  17.258  1.1197 -0.3891 -1.1237
  489TMC3    H2 7277   1.706   4.369  17.378 -3.0586 -1.4402  0.5684
  489TMC3    C7 7278   1.758   4.118  17.487  0.5518 -0.3605 -0.1726
  489TMC3    C8 7279   1.764   4.459  17.141 -0.2180  0.2085  1.4699
  489TMC3    O1 7280   1.818   4.013  17.515 -0.5356 -0.0322 -0.7138
  489TMC3    O2 7281   1.838   4.461  17.048 -0.1613 -0.2316  0.2180
  490MPD2     C 7282   3.053   4.042   0.049 -0.0375 -0.0008  0.4051
  490MPD2    C1 7283   3.129   3.928   0.012  0.2274  0.3183 -1.3548
  490MPD2    C2 7284   3.270   3.936   0.021 -0.8085  0.7830 -0.0898
  490MPD2    C3 7285   3.336   4.048   0.077  0.1354  0.1140 -0.2061
  490MPD2    C4 7286   3.256   4.155   0.117  0.8036  0.4744 -0.3405
  490MPD2    C5 7287   3.124   4.154   0.096  1.1425 -0.4470 -0.1872
  490MPD2     H 7288   3.325   3.846  17.683 -0.0973  1.7121 -1.6643
  490MPD2    H1 7289   3.293   4.247   0.161 -0.4536  0.9398 -0.2685
  490MPD2    H2 7290   2.945   4.035   0.049 -0.0358 -0.0677 -0.4935
  490MPD2    H3 7291   3.066   4.241   0.123  3.6819  0.7135  1.4953
  490MPD2     N 7292   3.472   4.060   0.085 -0.1560 -0.1536 -0.2036
  490MPD2    H5 7293   3.503   4.153   0.112 -0.0468 -0.5907  1.1735
  490MPD2    N1 7294   3.088   3.809  17.645 -0.5938  0.3490  0.0439
  490MPD2    H7 7295   3.159   3.748  17.606  1.5081  1.1217  2.6922
  491TMC3    C1 7296   2.946   3.629  17.597  0.1856 -0.2741 -0.0883
  491TMC3    C2 7297   3.026   3.546  17.664 -0.5961 -0.3735  0.6764
  491TMC3    C3 7298   3.004   3.413  17.648 -0.7095 -0.2308  0.1473
  491TMC3    C4 7299   2.835   3.585  17.531  0.2994 -0.6653  0.6859
  491TMC3    C5 7300   2.812   3.447  17.521 -0.0303 -0.1052  0.5742
  491TMC3    C6 7301   2.903   3.362  17.575  0.2211 -0.0728 -0.2072
  491TMC3     C 7302   2.958   3.772  17.646 -0.6301 -0.1672 -0.8354
  491TMC3     O 7303   2.857   3.839  17.677  0.1033 -0.7237  0.2891
  491TMC3     H 7304   3.111   3.575   0.034  0.6456 -1.7210 -0.4219
  491TMC3    H1 7305   2.775   3.655  17.474 -0.2745 -1.7269 -0.0074
  491TMC3    H2 7306   2.902   3.255  17.558  0.0737  0.0927 -1.1916
  491TMC3    C7 7307   2.678   3.399  17.486  0.3990  0.0143 -0.6644
  491TMC3    C8 7308   3.019   3.340   0.085  0.3677  0.6814  0.2884
  491TMC3    O1 7309   2.672   3.277  17.496  0.0177  0.5590 -0.5737
  491TMC3    O2 7310   3.018   3.415   0.179  0.2805  0.1498  1.1444
  492MPD2     C 7311   3.541   3.473  11.072 -0.0228 -0.3648 -0.1254
  492MPD2    C1 7312   3.403   3.457  11.050  0.4092  0.6193 -0.1080
  492MPD2    C2 7313   3.319   3.442  11.165  0.5783  1.0559 -0.8292
  492MPD2    C3 7314   3.377   3.446  11.295  0.2894  0.2413 -0.6703
  492MPD2    C4 7315   3.515   3.460  11.313 -0.6275 -0.1888  0.5440
  492MPD2    C5 7316   3.592   3.466  11.198 -0.0121  0.0005 -0.2488
  492MPD2     H 7317   3.212   3.442  11.148  0.6015  1.8706 -0.9630
  492MPD2    H1 7318   3.568   3.468  11.407  1.2489  1.6337 -0.6756
  492MPD2    H2 7319   3.615   3.474  10.993  1.5654 -1.3986  1.3452
  492MPD2    H3 7320   3.700   3.472  11.205 -0.1000  0.7514  0.4428
  492MPD2     N 7321   3.303   3.425  11.415 -0.0026 -0.0639 -0.1504
  492MPD2    H5 7322   3.347   3.456  11.501 -0.4823  0.1430  0.0175
  492MPD2    N1 7323   3.365   3.449  10.914 -0.3201  0.3826  0.2284
  492MPD2    H7 7324   3.436   3.473  10.846 -0.5930 -1.5775 -0.7452
  493TMC3    C1 7325   3.233   3.404  10.725 -1.0072  0.2754 -0.5232
  493TMC3    C2 7326   3.313   3.477  10.644 -0.1632  0.5533  0.2959
  493TMC3    C3 7327   3.272   3.500  10.520  0.7188  1.2801  0.8074
  493TMC3    C4 7328   3.105   3.372  10.683 -0.3812  0.1256  0.1286
  493TMC3    C5 7329   3.064   3.395  10.560  0.2890 -0.0382 -0.1045
  493TMC3    C6 7330   3.145   3.460  10.473 -0.5656  0.7110 -0.3308
  493TMC3     C 7331   3.255   3.395  10.870 -0.3556  0.3139 -0.2244
  493TMC3     O 7332   3.163   3.351  10.936  0.1429  0.4672  0.1329
  493TMC3     H 7333   3.409   3.513  10.679  1.0344 -2.2656 -0.0978
  493TMC3    H1 7334   3.036   3.326  10.753 -1.0083  0.2844 -0.3868
  493TMC3    H2 7335   3.104   3.484  10.376  1.0756  0.0541 -1.1966
  493TMC3    C7 7336   2.937   3.356  10.511 -0.0239 -0.4205  0.3689
  493TMC3    C8 7337   3.343   3.600  10.446 -0.3201  0.9995 -0.3392
  493TMC3    O1 7338   2.919   3.360  10.391 -0.3599  0.4603 -0.2434
  493TMC3    O2 7339   3.324   3.583  10.327 -0.3263  0.4825  0.0671
  494TMC3    C1 7340   3.715   0.934   0.460 -0.7960  1.0102  0.6576
  494TMC3    C2 7341   3.806   0.899   0.557 -0.1244  0.4796 -0.2168
  494TMC3    C3 7342   3.880   0.787   0.533 -0.1659  0.8332  0.1336
  494TMC3    C4 7343   3.704   0.871   0.341 -0.5638  0.1017  0.1795
  494TMC3    C5 7344   3.781   0.767   0.311 -1.0657  0.6846  0.1694
  494TMC3    C6 7345   3.869   0.731   0.408 -0.2194 -0.3545 -0.4314
  494TMC3     C 7346   3.630   1.049   0.485  0.7405 -0.0089  0.1150
  494TMC3     O 7347   3.530   1.060   0.420 -0.1822 -0.3048 -0.5360
  494TMC3     H 7348   3.797   0.937   0.658 -0.7483  1.7329 -0.7454
  494TMC3    H1 7349   3.621   0.899   0.277 -1.1989 -1.1233  0.4624
  494TMC3    H2 7350   3.939   0.653   0.381  1.4157  1.0955 -0.3295
  494TMC3    C7 7351   3.770   0.696   0.185 -0.7155 -0.0038 -0.1476
  494TMC3    C8 7352   3.975   0.720   0.632  0.3179  0.0228 -0.7057
  494TMC3    O1 7353   3.738   0.758   0.088 -0.6528 -0.5630  0.4596
  494TMC3    O2 7354   4.024   0.610   0.609 -0.3357 -0.7138  0.1702
  495TMC3    C1 7355   2.307   2.509  14.365 -0.2556  0.2388 -0.3367
  495TMC3    C2 7356   2.207   2.543  14.274  0.0428  0.2840  0.8424
  495TMC3    C3 7357   2.085   2.563  14.330  0.3738 -0.3497 -0.1167
  495TMC3    C4 7358   2.292   2.525  14.494 -0.4281  1.0535  0.3821
  495TMC3    C5 7359   2.175   2.572  14.540 -0.1046 -0.3923  0.2010
  495TMC3    C6 7360   2.064   2.586  14.464  0.1874  0.2771 -0.3055
  495TMC3     C 7361   2.353   2.377  14.319 -0.4973  0.1617  0.0809
  495TMC3     O 7362   2.328   2.349  14.204  0.4929  0.4909 -0.5991
  495TMC3     H 7363   2.225   2.535  14.167 -1.4151  1.2700  0.5279
  495TMC3    H1 7364   2.387   2.530  14.548  0.1658  0.7397 -0.6405
  495TMC3    H2 7365   1.972   2.621  14.510 -0.5439 -2.5271  0.4075
  495TMC3    C7 7366   2.166   2.556  14.681  0.2005 -0.4384 -0.2192
  495TMC3    C8 7367   1.967   2.529  14.262  0.5662 -0.3086  0.3772
  495TMC3    O1 7368   2.246   2.487  14.737 -0.5249  0.2085  0.0623
  495TMC3    O2 7369   1.861   2.557  14.321 -0.2294  0.1350  0.4044
  496MPD2     C 7370   4.194   2.762  15.239  0.0694  1.0794 -0.0226
  496MPD2    C1 7371   4.255   2.703  15.346 -0.2283 -0.5536  0.3568
  496MPD2    C2 7372   4.190   2.708  15.471  0.1588  0.0576  0.1378
  496MPD2    C3 7373   4.062   2.757  15.488 -0.4784 -0.2860  0.1403
  496MPD2    C4 7374   4.002   2.815  15.378 -0.0295 -0.3584  0.2495
  496MPD2    C5 7375   4.070   2.820  15.259 -0.2114 -0.1772  0.2666
  496MPD2     H 7376   4.232   2.658  15.558  0.0466  1.7115  1.1557
  496MPD2    H1 7377   3.897   2.842  15.388  0.2728  0.1861  1.9011
  496MPD2    H2 7378   4.233   2.753  15.138 -3.4106 -0.2431 -1.2395
  496MPD2    H3 7379   4.016   2.850  15.171  0.5949  0.1135 -0.1320
  496MPD2     N 7380   3.997   2.757  15.612  0.1064 -0.6439 -0.0186
  496MPD2    H5 7381   3.895   2.753  15.611  0.1430  0.6710 -5.8537
  496MPD2    N1 7382   4.375   2.630  15.316 -0.1974 -0.1652 -0.0008
  496MPD2    H7 7383   4.402   2.610  15.221  3.1103 -0.2569  0.9583
  497TMC3    C1 7384   3.975   2.638  15.813  0.3282 -0.1060 -0.8001
  497TMC3    C2 7385   3.900   2.538  15.751 -0.0489 -0.1098 -0.4947
  497TMC3    C3 7386   3.866   2.430  15.815 -0.2587  0.2180 -0.1611
  497TMC3    C4 7387   4.013   2.621  15.945 -0.1553  0.4140  0.6337
  497TMC3    C5 7388   3.979   2.499  16.006  0.1230 -0.2186  0.3291
  497TMC3    C6 7389   3.914   2.399  15.938  0.5050 -0.0303  0.7776
  497TMC3     C 7390   4.056   2.730  15.733 -0.3476 -0.2987  0.5687
  497TMC3     O 7391   4.176   2.720  15.762 -0.3489  0.0294  0.0253
  497TMC3     H 7392   3.886   2.539  15.643  0.9987  1.0439 -0.6168
  497TMC3    H1 7393   4.067   2.701  15.994  1.9156 -0.0321 -0.9214
  497TMC3    H2 7394   3.882   2.303  15.978  0.2472 -0.0536  0.5159
  497TMC3    C7 7395   3.981   2.493  16.148  0.3164  0.1667  0.3697
  497TMC3    C8 7396   3.797   2.330  15.732  0.6275  0.1404  0.1924
  497TMC3    O1 7397   3.889   2.423  16.182 -0.0687 -0.0420  0.0182
  497TMC3    O2 7398   3.822   2.321  15.614  0.1855  0.1634 -0.1402
  498MPD2     C 7399   1.116   3.064   9.064 -0.1565 -0.3404 -0.4938
  498MPD2    C1 7400   1.200   2.987   9.140  0.0917  0.2756  0.9820
  498MPD2    C2 7401   1.145   2.890   9.219  0.0099 -0.2107  0.1690
  498MPD2    C3 7402   1.009   2.869   9.229 -0.5361  0.5271 -0.6169
  498MPD2    C4 7403   0.926   2.945   9.151  0.6098 -0.1403  0.1051
  498MPD2    C5 7404   0.977   3.042   9.071  0.1609 -0.1774  0.1921
  498MPD2     H 7405   1.211   2.824   9.274 -0.7573 -2.9475 -2.1933
  498MPD2    H1 7406   0.818   2.936   9.157  0.3976  1.3903 -1.3764
  498MPD2    H2 7407   1.147   3.143   8.996 -0.8708 -0.3025 -0.7817
  498MPD2    H3 7408   0.905   3.103   9.017 -1.3024 -3.0370 -1.0663
  498MPD2     N 7409   0.958   2.772   9.314  0.3144 -0.0724  0.4664
  498MPD2    H5 7410   1.024   2.723   9.374  1.0047 -2.1164 -1.9466
  498MPD2    N1 7411   1.340   2.985   9.128  0.7402 -0.6163  0.3195
  498MPD2    H7 7412   1.382   2.916   9.190 -0.5288 -0.6204  1.1676
  499TMC3    C1 7413   1.549   3.022   9.051  0.2599  0.3928  0.5594
  499TMC3    C2 7414   1.595   2.939   9.147  0.5673  0.3476  0.7642
  499TMC3    C3 7415   1.727   2.909   9.146  0.4337 -0.4931 -0.4039
  499TMC3    C4 7416   1.628   3.067   8.954  0.2325  0.4154  0.7359
  499TMC3    C5 7417   1.756   3.025   8.959  0.1093  0.1580  0.8035
  499TMC3    C6 7418   1.813   2.950   9.058  0.2153 -0.0855 -0.2810
  499TMC3     C 7419   1.410   3.066   9.044 -0.4668 -0.5158 -0.0370
  499TMC3     O 7420   1.375   3.149   8.960  0.0637 -0.2663 -0.6343
  499TMC3     H 7421   1.536   2.909   9.234  0.5241 -0.3983  0.4772
  499TMC3    H1 7422   1.597   3.133   8.874  2.3804  0.5869  0.0328
  499TMC3    H2 7423   1.912   2.906   9.051  0.2747 -0.1043  0.6489
  499TMC3    C7 7424   1.851   3.094   8.874 -0.0954 -0.2616 -0.4952
  499TMC3    C8 7425   1.775   2.799   9.227 -0.5045 -0.1829 -0.4422
  499TMC3    O1 7426   1.964   3.099   8.920  0.4297 -0.2991 -0.2793
  499TMC3    O2 7427   1.893   2.789   9.239 -0.5984  0.0265 -0.1183
  500MPD2     C 7428   3.085   4.252   9.697 -0.1041 -0.1846 -0.2475
  500MPD2    C1 7429   3.087   4.385   9.716 -0.4489  0.8257  0.1576
  500MPD2    C2 7430   3.030   4.475   9.625 -0.0931 -0.3110  0.1448
  500MPD2    C3 7431   2.988   4.426   9.504 -0.4521 -0.0381 -0.7522
  500MPD2    C4 7432   2.994   4.293   9.479 -0.3911 -0.3508  0.6932
  500MPD2    C5 7433   3.040   4.212   9.576  0.0449  0.2909  0.0293
  500MPD2     H 7434   3.031   4.582   9.641  0.4307 -0.2122 -0.5593
  500MPD2    H1 7435   2.956   4.246   9.389 -1.5367  2.3171 -0.2012
  500MPD2    H2 7436   3.134   4.177   9.759 -1.9349 -1.1179  0.0693
  500MPD2    H3 7437   3.040   4.108   9.549 -4.3795  0.2134  0.3985
  500MPD2     N 7438   2.944   4.507   9.394 -0.1581  0.0304  0.0459
  500MPD2    H5 7439   2.933   4.455   9.307 -3.0245  1.0667 -0.2272
  500MPD2    N1 7440   3.149   4.438   9.833  0.5345 -0.0738 -0.6098
  500MPD2    H7 7441   3.150   4.538   9.854 -1.7824 -0.2419  0.3042
  501TMC3    C1 7442   3.241   4.447  10.049  0.2123  0.7360  0.0536
  501TMC3    C2 7443   3.184   4.570  10.058  0.5775  0.2630  0.1965
  501TMC3    C3 7444   3.228   4.649  10.163 -0.0132  0.7144 -0.2360
  501TMC3    C4 7445   3.330   4.396  10.131 -1.0051  0.7124  0.1553
  501TMC3    C5 7446   3.374   4.472  10.235 -1.0940 -0.1244 -0.0676
  501TMC3    C6 7447   3.321   4.602  10.255  0.3595 -0.2834 -0.1546
  501TMC3     C 7448   3.214   4.362   9.932  1.0687 -0.6308 -0.1871
  501TMC3     O 7449   3.266   4.251   9.926 -0.6381  0.6617 -0.3536
  501TMC3     H 7450   3.105   4.612   9.997  0.0305  0.8773  1.3329
  501TMC3    H1 7451   3.373   4.297  10.118 -1.1461  0.3117  2.8029
  501TMC3    H2 7452   3.355   4.657  10.342 -0.0848  1.1329 -0.8822
  501TMC3    C7 7453   3.433   4.390  10.342 -0.5263 -0.1493 -0.0861
  501TMC3    C8 7454   3.164   0.058  10.200  0.5175 -0.2196  0.2148
  501TMC3    O1 7455   3.411   4.269  10.341  0.4051 -0.3524 -0.1976
  501TMC3    O2 7456   3.155   0.084  10.315  0.2152  0.1381  0.1219
  502TMC3    C1 7457   1.428   3.639  15.870 -0.6204 -0.2516  0.6277
  502TMC3    C2 7458   1.406   3.724  15.767  0.1942  0.3636 -0.0552
  502TMC3    C3 7459   1.285   3.720  15.703  0.0079  0.0581 -0.0570
  502TMC3    C4 7460   1.335   3.550  15.910  0.6004 -0.1682 -0.7264
  502TMC3    C5 7461   1.218   3.540  15.843 -0.5497  0.0856  0.0672
  502TMC3    C6 7462   1.189   3.629  15.740 -0.4718  0.1604  0.5932
  502TMC3     C 7463   1.548   3.653  15.950 -0.8561  0.2990  0.2098
  502TMC3     O 7464   1.606   3.761  15.956 -0.4532 -0.3117  0.4731
  502TMC3     H 7465   1.485   3.794  15.739 -0.1767  0.7592 -0.1033
  502TMC3    H1 7466   1.353   3.494  16.002  1.5256 -2.5870 -2.3699
  502TMC3    H2 7467   1.101   3.634  15.676 -1.1574  2.9057  1.7401
  502TMC3    C7 7468   1.125   3.439  15.883  0.1151  0.3689 -0.0967
  502TMC3    C8 7469   1.271   3.788  15.583 -0.4213 -0.3302 -0.5650
  502TMC3    O1 7470   1.132   3.399  15.996 -0.4159  0.1088 -0.4347
  502TMC3    O2 7471   1.371   3.781  15.513  0.0703 -0.7423  0.6438
  503MPD2     C 7472   3.812   4.112  16.883 -0.3110  0.0211  0.4849
  503MPD2    C1 7473   3.857   4.173  16.994 -0.2734 -0.2614 -0.4201
  503MPD2    C2 7474   3.948   4.109  17.073 -0.3734 -0.5514  0.2318
  503MPD2    C3 7475   3.997   3.985  17.042  0.6840 -0.1827  0.2484
  503MPD2    C4 7476   3.951   3.923  16.928 -0.0571 -0.5819 -0.7070
  503MPD2    C5 7477   3.868   3.987  16.846  0.6262  0.1642 -0.2487
  503MPD2     H 7478   3.968   4.152  17.171  0.1773 -0.6158  0.1480
  503MPD2    H1 7479   3.984   3.828  16.888  1.2687 -0.1185 -0.7251
  503MPD2    H2 7480   3.753   4.163  16.808  0.2128 -0.0905  0.0044
  503MPD2    H3 7481   3.838   3.946  16.750 -0.6159  3.1342 -1.1233
  503MPD2     N 7482   4.095   3.933  17.127 -0.2684  0.0809 -0.1296
  503MPD2    H5 7483   4.112   3.990  17.210 -1.8504 -0.9129  0.8691
  503MPD2    N1 7484   3.826   4.304  17.040 -0.2115  0.2007 -0.1922
  503MPD2    H7 7485   3.846   4.336  17.134 -0.0538 -0.6931  0.0780
  504TMC3    C1 7486   4.302   3.835  17.183 -0.6647 -0.4491  0.3632
  504TMC3    C2 7487   4.274   3.796  17.313  0.0077 -0.8481 -0.6478
  504TMC3    C3 7488   4.367   3.730  17.392 -0.7504  0.3751 -0.3278
  504TMC3    C4 7489   4.423   3.804  17.133 -0.1097 -1.4188  0.0769
  504TMC3    C5 7490   4.517   3.738  17.219 -0.0191 -0.2100  0.0855
  504TMC3    C6 7491   4.490   3.700  17.351  0.6542  1.0844  0.2261
  504TMC3     C 7492   4.198   3.850  17.087  0.1165  0.6840 -0.3483
  504TMC3     O 7493   4.202   3.784  16.987  0.2718  0.6055  1.0622
  504TMC3     H 7494   4.169   3.785  17.337 -0.2807  2.0091 -0.5886
  504TMC3    H1 7495   4.442   3.826  17.028 -2.9846 -0.3467 -0.2195
  504TMC3    H2 7496   4.561   3.639  17.406  2.2187  1.1732 -1.6752
  504TMC3    C7 7497   4.655   3.724  17.172  0.1810  0.1075 -0.8732
  504TMC3    C8 7498   4.306   3.654  17.503  0.0492  1.1793  0.5368
  504TMC3    O1 7499   4.679   3.720  17.054  0.2644  0.9151 -0.2899
  504TMC3    O2 7500   4.206   3.702  17.550 -0.4367  0.0279 -0.0604
  505MPD2     C 7501   4.697   2.863  10.252  0.0932  0.1032 -0.0517
  505MPD2    C1 7502   0.014   2.744  10.308  0.4422  0.0929  0.5731
  505MPD2    C2 7503   0.123   2.745  10.394 -0.2586  0.0422  0.3045
  505MPD2    C3 7504   0.192   2.861  10.427 -0.9477 -0.0302 -0.3310
  505MPD2    C4 7505   0.133   2.974  10.392  0.2886 -0.7661 -0.5926
  505MPD2    C5 7506   0.036   2.977  10.301  0.2694 -0.5439  0.5477
  505MPD2     H 7507   0.167   2.654  10.435 -2.2298 -1.2196 -0.3642
  505MPD2    H1 7508   0.172   3.071  10.419 -0.1241  0.2456 -3.6554
  505MPD2    H2 7509   4.626   2.872  10.171  0.2668  1.5964 -0.0399
  505MPD2    H3 7510   0.001   3.077  10.277  0.4838  0.2349  3.4837
  505MPD2     N 7511   0.308   2.861  10.508 -0.1492 -0.1429 -0.2545
  505MPD2    H5 7512   0.331   2.766  10.536  2.5510  0.4684 -0.4596
  505MPD2    N1 7513   4.684   2.625  10.254  0.2854 -0.5338 -0.0196
  505MPD2    H7 7514   4.615   2.628  10.179  0.0207 -2.1596  0.1527
  506TMC3    C1 7515   4.622   2.398  10.241 -0.0661  0.0659 -0.4478
  506TMC3    C2 7516   4.665   2.400  10.108 -0.3482  0.1437  0.1743
  506TMC3    C3 7517   4.710   2.289  10.050 -0.5744  0.3136 -0.1924
  506TMC3    C4 7518   4.625   2.282  10.312  0.7336 -0.9481 -0.5431
  506TMC3    C5 7519   4.667   2.167  10.255  0.6096  0.9672 -1.0123
  506TMC3    C6 7520   4.707   2.168  10.124 -0.4387  0.6442  0.0272
  506TMC3     C 7521   4.684   2.507  10.318 -0.3413 -0.2359  0.5252
  506TMC3     O 7522   0.023   2.467  10.415 -0.2577 -0.3159 -0.2746
  506TMC3     H 7523   4.673   2.490  10.049  0.6458  0.2611  0.4883
  506TMC3    H1 7524   4.584   2.284  10.412 -1.1451  0.2494 -1.3332
  506TMC3    H2 7525   0.042   2.080  10.094 -1.3040 -0.4016  1.5194
  506TMC3    C7 7526   0.039   2.095  10.336 -0.6472 -0.4623  0.1552
  506TMC3    C8 7527   0.084   2.308   9.935 -0.6672  0.4915 -0.4875
  506TMC3    O1 7528   0.056   1.977  10.315  0.1202 -0.1977  0.0968
  506TMC3    O2 7529   0.107   2.420   9.897 -0.1678  0.1697 -0.6938
  507TMC3    C1 7530   0.116   3.353  15.002 -0.4118 -0.1879  0.2960
  507TMC3    C2 7531   0.121   3.229  14.950  0.5981  0.0576 -0.2228
  507TMC3    C3 7532   0.208   3.204  14.847 -0.0512 -0.8304 -0.4335
  507TMC3    C4 7533   0.198   3.452  14.961  0.3432  0.6413  0.2606
  507TMC3    C5 7534   0.286   3.430  14.857  0.2248 -0.5925 -0.0090
  507TMC3    C6 7535   0.298   3.304  14.813 -0.1048 -0.2690 -0.6570
  507TMC3     C 7536   0.012   3.392  15.090 -0.0838  0.4789  0.0116
  507TMC3     O 7537   0.029   3.495  15.160 -0.4147  0.1478 -0.7574
  507TMC3     H 7538   0.047   3.157  14.985  1.2907  0.3745  1.9162
  507TMC3    H1 7539   0.184   3.552  15.002 -1.7552  0.2185  0.5485
  507TMC3    H2 7540   0.361   3.289  14.726  1.3036  0.1489  0.2835
  507TMC3    C7 7541   0.270   3.515  14.749 -0.1644  0.4535  0.0589
  507TMC3    C8 7542   0.147   3.138  14.731 -0.3462 -0.0700  0.3912
  507TMC3    O1 7543   0.264   3.471  14.632  0.4850 -0.0332 -0.4082
  507TMC3    O2 7544   0.070   3.045  14.755 -0.2511  0.4167  0.4224
  508MPD2     C 7545   1.099   0.632  15.945  0.0515 -0.6398 -0.2388
  508MPD2    C1 7546   1.033   0.738  16.010 -0.1233  0.8329 -0.0391
  508MPD2    C2 7547   1.012   0.865  15.943 -0.2773  0.2669 -0.0091
  508MPD2    C3 7548   1.054   0.871  15.809  0.4150  0.3381 -0.5058
  508MPD2    C4 7549   1.109   0.762  15.740 -0.3673  0.7887  0.1776
  508MPD2    C5 7550   1.135   0.646  15.810 -0.3744 -0.6638 -0.3744
  508MPD2     H 7551   0.968   0.950  15.994  1.3580  0.8504  0.4068
  508MPD2    H1 7552   1.146   0.767  15.639  0.7552 -1.9130  0.4636
  508MPD2    H2 7553   1.121   0.535  15.989  0.4899 -0.1092  0.6808
  508MPD2    H3 7554   1.176   0.559  15.760 -0.9171  0.1648 -2.2472
  508MPD2     N 7555   1.026   0.997  15.750  0.4750 -0.3840  0.4423
  508MPD2    H5 7556   0.992   1.072  15.810  1.6997  0.4922  0.0389
  508MPD2    N1 7557   1.014   0.724  16.150 -0.1323  0.2957 -0.8764
  508MPD2    H7 7558   1.063   0.645  16.189 -0.3492  1.2931  1.3971
  509TMC3    C1 7559   0.915   1.363  15.633  0.0004  0.1052 -0.1382
  509TMC3    C2 7560   0.991   1.424  15.544 -0.2807 -0.1324  0.0162
  509TMC3    C3 7561   1.085   1.354  15.475 -0.5120 -0.1295 -0.0094
  509TMC3    C4 7562   0.922   1.227  15.660 -0.2468  0.2262 -0.2421
  509TMC3    C5 7563   1.011   1.157  15.582  0.3143 -0.8310 -0.5601
  509TMC3    C6 7564   1.096   1.217  15.490  0.0180 -0.7222 -0.6642
  509TMC3     C 7565   0.837   1.431  15.727  0.1208  0.0505 -0.0998
  509TMC3     O 7566   0.846   1.398  15.844  0.6439 -0.2365 -0.1542
  509TMC3     H 7567   0.976   1.525  15.509  0.7626  0.6023  1.6947
  509TMC3    H1 7568   0.846   1.178  15.719 -1.1746  0.3195 -1.3677
  509TMC3    H2 7569   1.177   1.163  15.442  0.4403 -1.0775  0.4339
  509TMC3    C7 7570   1.058   1.026  15.623 -0.5665  0.1313 -0.4274
  509TMC3    C8 7571   1.199   1.417  15.413 -0.8974 -0.1781 -0.2607
  509TMC3    O1 7572   1.126   0.960  15.543  0.7975  0.5229  0.4361
  509TMC3    O2 7573   1.250   1.369  15.313 -0.0880 -0.3836  0.5781
  510MPD2     C 7574   3.564   2.616  14.771  0.0632 -0.7696  0.1889
  510MPD2    C1 7575   3.626   2.525  14.849 -0.3343  0.0867 -0.0666
  510MPD2    C2 7576   3.744   2.478  14.792  0.2597  0.1530  0.3355
  510MPD2    C3 7577   3.805   2.517  14.673  0.1598  0.3761 -1.2038
  510MPD2    C4 7578   3.743   2.622  14.611  0.7495  0.2138 -0.2450
  510MPD2    C5 7579   3.626   2.676  14.662 -0.4639 -0.2295  0.1947
  510MPD2     H 7580   3.803   2.402  14.843  0.6449  0.7439  0.7687
  510MPD2    H1 7581   3.796   2.675  14.533  0.9635 -0.9849 -0.9023
  510MPD2    H2 7582   3.477   2.675  14.796  1.1809  0.8156  0.3435
  510MPD2    H3 7583   3.582   2.762  14.611 -0.6847 -0.4133  0.0770
  510MPD2     N 7584   3.930   2.459  14.640  0.2435 -0.0550 -0.5046
  510MPD2    H5 7585   3.960   2.385  14.703  0.5369  1.5464  1.2390
  510MPD2    N1 7586   3.560   2.477  14.965 -0.7127 -0.2714 -0.6498
  510MPD2    H7 7587   3.468   2.513  14.989 -0.7460 -1.3473  0.8003
  511TMC3    C1 7588   3.502   2.308  15.124  0.3571 -0.3752  0.5351
  511TMC3    C2 7589   3.425   2.380  15.212  0.2437 -0.0434  0.2007
  511TMC3    C3 7590   3.314   2.320  15.269 -0.7351 -0.5342  0.1732
  511TMC3    C4 7591   3.465   2.188  15.072 -0.0859  0.5079 -0.2029
  511TMC3    C5 7592   3.348   2.139  15.118 -0.1087 -0.5969 -0.2002
  511TMC3    C6 7593   3.281   2.194  15.227  0.1665 -0.1447  0.1067
  511TMC3     C 7594   3.604   2.371  15.041  0.3494  0.1027  0.3948
  511TMC3     O 7595   3.711   2.310  15.032  0.3645 -0.3495  0.0869
  511TMC3     H 7596   3.461   2.476  15.245 -0.0816  0.0789  0.2002
  511TMC3    H1 7597   3.533   2.139  15.003 -1.5251  0.0947 -1.3201
  511TMC3    H2 7598   3.201   2.138  15.274  1.5965 -2.7314 -0.5666
  511TMC3    C7 7599   3.311   2.015  15.064 -0.1755 -0.0942 -0.9669
  511TMC3    C8 7600   3.289   2.361  15.407 -0.2274 -1.1937 -0.0023
  511TMC3    O1 7601   3.375   1.986  14.962 -0.3123  0.2247 -0.6532
  511TMC3    O2 7602   3.176   2.360  15.454  0.3479  0.5900  0.0144
  512TMC3    C1 7603   3.016   1.965  13.672  0.1463 -0.3451 -0.5462
  512TMC3    C2 7604   3.061   2.040  13.780  0.2385 -0.7549  0.1360
  512TMC3    C3 7605   3.085   1.975  13.901  0.0162  0.0149  0.4205
  512TMC3    C4 7606   2.997   1.831  13.678  0.1634 -0.1845  0.7972
  512TMC3    C5 7607   3.026   1.771  13.796 -0.1811 -0.2570  0.4629
  512TMC3    C6 7608   3.068   1.840  13.911 -0.6351  0.0220  0.4147
  512TMC3     C 7609   3.034   2.015  13.536  0.8268 -0.9647 -0.2732
  512TMC3     O 7610   3.041   1.932  13.448  0.3058 -0.0925 -0.5447
  512TMC3     H 7611   3.097   2.142  13.770 -1.0128 -0.3588 -0.4028
  512TMC3    H1 7612   2.943   1.787  13.595 -0.8074  1.5460  0.5186
  512TMC3    H2 7613   3.104   1.790  14.000 -0.5675  0.3306  0.5591
  512TMC3    C7 7614   3.028   1.626  13.816  0.6479 -0.5537 -0.9257
  512TMC3    C8 7615   3.089   2.044  14.034 -0.1818  0.0305 -0.1857
  512TMC3    O1 7616   3.053   1.585  13.929 -0.0535  0.1660  0.3660
  512TMC3    O2 7617   3.105   1.974  14.133  0.4997 -0.1139  0.1761
  513MPD2     C 7618   3.911   2.424  12.937 -0.2150 -0.3089 -0.5198
  513MPD2    C1 7619   3.986   2.311  12.892 -0.0252  0.2523  0.7124
  513MPD2    C2 7620   4.027   2.226  12.993 -0.2489 -0.2088 -0.5583
  513MPD2    C3 7621   3.974   2.228  13.124 -0.1683  0.2061 -0.2765
  513MPD2    C4 7622   3.898   2.334  13.165 -0.2763  0.3591 -0.6476
  513MPD2    C5 7623   3.869   2.431  13.065  0.1907  0.4009  0.5643
  513MPD2     H 7624   4.096   2.146  12.971  0.0940 -0.8572  2.8142
  513MPD2    H1 7625   3.849   2.344  13.261  1.3392 -0.4192  0.2632
  513MPD2    H2 7626   3.879   2.500  12.866 -0.1782  0.9896  0.8493
  513MPD2    H3 7627   3.811   2.519  13.092 -2.8492 -1.1828 -0.7663
  513MPD2     N 7628   4.018   2.128  13.209  0.1460  0.2330 -0.2908
  513MPD2    H5 7629   4.060   2.052  13.157 -2.4103 -2.3003  1.3320
  513MPD2    N1 7630   4.025   2.303  12.757  0.3612 -0.5205  0.3041
  513MPD2    H7 7631   4.013   2.384  12.697 -1.2207 -1.7320 -1.0097
  514TMC3    C1 7632   4.104   2.190  12.557  0.0009 -0.5509  0.5294
  514TMC3    C2 7633   4.179   2.296  12.523  0.1489  0.1024 -0.1597
  514TMC3    C3 7634   4.279   2.273  12.426 -0.0427  0.1233 -0.3015
  514TMC3    C4 7635   4.120   2.068  12.511 -0.1257 -0.1005  0.4842
  514TMC3    C5 7636   4.216   2.044  12.422  0.7371  0.0118  0.1404
  514TMC3    C6 7637   4.302   2.145  12.380  0.1031  0.8731  0.0905
  514TMC3     C 7638   4.073   2.184  12.703 -0.4899  0.5734 -0.1492
  514TMC3     O 7639   4.097   2.077  12.761  0.5577  0.7734 -0.9597
  514TMC3     H 7640   4.175   2.389  12.578 -1.4967 -0.9174  1.4374
  514TMC3    H1 7641   4.049   1.994  12.545 -0.8836  0.4234  0.0313
  514TMC3    H2 7642   4.384   2.110  12.318 -0.0540  2.4812 -1.0445
  514TMC3    C7 7643   4.285   1.928  12.461  0.3386 -0.2797 -0.2205
  514TMC3    C8 7644   4.368   2.387  12.394 -0.1283  0.5137 -0.3455
  514TMC3    O1 7645   4.392   1.896  12.407 -0.8845 -0.0785  0.0837
  514TMC3    O2 7646   4.368   2.483  12.468 -0.5406  0.1699  0.3145
  515MPD2     C 7647   2.595   4.058  14.601  0.5665  0.7457  0.4165
  515MPD2    C1 7648   2.542   3.958  14.692 -0.2825  0.0924  0.2545
  515MPD2    C2 7649   2.554   3.979  14.827  0.2295  0.5757  0.5192
  515MPD2    C3 7650   2.633   4.082  14.868 -0.2938 -0.6210  0.2959
  515MPD2    C4 7651   2.692   4.171  14.780  0.6031 -0.0169 -0.3194
  515MPD2    C5 7652   2.665   4.163  14.649 -0.2189  0.0760 -0.2734
  515MPD2     H 7653   2.500   3.919  14.900 -1.0536  1.8988  0.6565
  515MPD2    H1 7654   2.754   4.252  14.814 -0.4451  0.1257  1.2391
  515MPD2    H2 7655   2.557   4.054  14.499  0.7189  0.4093  0.3750
  515MPD2    H3 7656   2.696   4.244  14.585 -2.0030  0.1567 -1.0307
  515MPD2     N 7657   2.667   4.111  15.003 -0.0820  0.5032  0.2601
  515MPD2    H5 7658   2.724   4.194  15.022 -0.2699  0.8773 -0.8587
  515MPD2    N1 7659   2.474   3.849  14.631  0.2045  0.1853 -0.0085
  515MPD2    H7 7660   2.434   3.789  14.703  2.1571 -0.7159  0.3267
  516TMC3    C1 7661   2.387   3.694  14.465 -0.1874 -0.7501 -0.5914
  516TMC3    C2 7662   2.331   3.682  14.343 -0.0658 -0.0033  0.7484
  516TMC3    C3 7663   2.271   3.564  14.315  0.5396 -0.2432  0.4230
  516TMC3    C4 7664   2.384   3.599  14.563 -0.7362 -1.0852 -0.5643
  516TMC3    C5 7665   2.320   3.489  14.530  0.2692 -0.4918  0.2649
  516TMC3    C6 7666   2.257   3.464  14.410 -0.2390  0.1441  0.1467
  516TMC3     C 7667   2.453   3.824  14.497  0.8248 -0.1311  0.1568
  516TMC3     O 7668   2.472   3.893  14.398  0.0594  0.4813 -0.5531
  516TMC3     H 7669   2.328   3.760  14.268 -0.5286 -0.6786  0.0689
  516TMC3    H1 7670   2.434   3.614  14.659  0.3670  1.1059 -1.4773
  516TMC3    H2 7671   2.222   3.367  14.375  0.1867 -0.2576  0.8501
  516TMC3    C7 7672   2.334   3.372  14.617  0.0614  0.4639 -0.2037
  516TMC3    C8 7673   2.169   3.558  14.213  0.1157  0.4763 -0.3991
  516TMC3    O1 7674   2.332   3.396  14.735 -0.0068 -0.3676  0.0748
  516TMC3    O2 7675   2.064   3.502  14.232 -0.2359  0.1778 -0.0848
  517MPD2     C 7676   1.953   0.833   0.099 -0.0491 -0.6924  0.7264
  517MPD2    C1 7677   2.085   0.827   0.067 -0.1761 -0.5990  0.3609
  517MPD2    C2 7678   2.169   0.934   0.106 -0.0223 -1.2157  0.0339
  517MPD2    C3 7679   2.120   1.041   0.182  0.3844 -0.9343  0.3827
  517MPD2    C4 7680   1.983   1.042   0.216  0.2522 -0.1557 -0.2972
  517MPD2    C5 7681   1.904   0.943   0.170  0.0332 -0.4094  0.8372
  517MPD2     H 7682   2.272   0.939   0.071  0.2302  1.3378  1.1252
  517MPD2    H1 7683   1.928   1.123   0.262  1.6165  0.2485  0.6152
  517MPD2    H2 7684   1.881   0.757   0.071  3.2489 -3.1447 -1.1782
  517MPD2    H3 7685   1.797   0.949   0.184  0.4137  0.9571  3.0170
  517MPD2     N 7686   2.193   1.160   0.212 -0.2784  0.1206 -0.0078
  517MPD2    H5 7687   2.149   1.222   0.279 -1.2238 -0.0194 -0.4936
  517MPD2    N1 7688   2.144   0.729  17.682  0.2438  0.1141 -0.4771
  517MPD2    H7 7689   2.240   0.757  17.667 -0.1725  1.7405 -0.1329
  518TMC3    C1 7690   2.165   0.537  17.552 -0.8787 -0.4032 -0.2268
  518TMC3    C2 7691   2.118   0.411  17.525  0.4922  0.3002  0.2676
  518TMC3    C3 7692   2.208   0.338  17.459  0.8701 -0.0325 -0.3575
  518TMC3    C4 7693   2.291   0.589  17.520 -0.4582  0.0925 -0.3139
  518TMC3    C5 7694   2.374   0.511  17.445  0.0806 -0.2003 -0.0250
  518TMC3    C6 7695   2.330   0.382  17.417  0.5760 -0.0340 -0.3091
  518TMC3     C 7696   2.079   0.619  17.632  0.5099 -0.1585 -0.5183
  518TMC3     O 7697   1.965   0.581  17.652  0.5936 -0.2608 -0.2700
  518TMC3     H 7698   2.026   0.379  17.572  0.6685 -2.1382 -1.0424
  518TMC3    H1 7699   2.316   0.694  17.531  1.9459 -0.6287  1.1448
  518TMC3    H2 7700   2.381   0.318  17.346  2.0935  1.6892 -0.7655
  518TMC3    C7 7701   2.507   0.559  17.420 -0.1409 -0.8287 -0.0763
  518TMC3    C8 7702   2.193   0.192  17.453  0.5665 -0.3121  0.1182
  518TMC3    O1 7703   2.536   0.677  17.431  0.9441 -0.0434 -0.6197
  518TMC3    O2 7704   2.288   0.125  17.411  0.3121  1.2527  0.5158
  519MPD2     C 7705   3.776   3.667  14.488 -0.1884  0.0737 -0.2180
  519MPD2    C1 7706   3.737   3.671  14.357 -1.0215 -0.4407 -0.1657
  519MPD2    C2 7707   3.821   3.622  14.258  0.4268  0.3103 -0.7787
  519MPD2    C3 7708   3.941   3.555  14.288  0.4383 -0.7276  0.8276
  519MPD2    C4 7709   3.980   3.552  14.420 -0.0400  0.6267  0.9455
  519MPD2    C5 7710   3.903   3.611  14.514  0.2316  0.0544 -0.4069
  519MPD2     H 7711   3.788   3.629  14.155 -1.5192 -0.4259 -0.1964
  519MPD2    H1 7712   4.077   3.511  14.445  0.3216  1.4982  0.9990
  519MPD2    H2 7713   3.710   3.702  14.566 -1.9009 -2.2247 -0.6067
  519MPD2    H3 7714   3.944   3.605  14.615  0.8246  0.3661 -0.6327
  519MPD2     N 7715   4.016   3.477  14.195 -0.6435 -0.0769  0.3435
  519MPD2    H5 7716   4.086   3.419  14.239  0.5377  0.4930 -0.8089
  519MPD2    N1 7717   3.617   3.731  14.314  0.2030  0.3165 -0.0552
  519MPD2    H7 7718   3.602   3.737  14.214 -0.7803 -0.5268  0.0408
  520TMC3    C1 7719   4.094   3.393  13.995  0.0948 -0.5316  0.2158
  520TMC3    C2 7720   4.058   3.374  13.867 -1.1450  0.4631  0.2204
  520TMC3    C3 7721   4.109   3.257  13.806  0.0938  0.0394  0.2566
  520TMC3    C4 7722   4.171   3.308  14.064 -0.0795 -0.3845  0.2609
  520TMC3    C5 7723   4.237   3.210  13.992 -0.9079  0.0951 -0.1117
  520TMC3    C6 7724   4.216   3.193  13.860 -0.5695  0.3770  0.1944
  520TMC3     C 7725   3.995   3.478  14.062  0.0538  0.1516  0.6712
  520TMC3     O 7726   3.912   3.528  13.991 -0.4248  0.2959 -0.1065
  520TMC3     H 7727   3.979   3.434  13.823  0.1540  1.4875 -0.7053
  520TMC3    H1 7728   4.198   3.330  14.167 -1.8604 -1.6511  0.9945
  520TMC3    H2 7729   4.251   3.100  13.817 -2.1983 -0.6422  1.0405
  520TMC3    C7 7730   4.334   3.123  14.055  0.2511  0.3143 -0.2985
  520TMC3    C8 7731   4.024   3.182  13.713  0.4045  0.2109 -0.4159
  520TMC3    O1 7732   4.331   3.127  14.176 -0.4408 -0.4069 -0.0601
  520TMC3    O2 7733   4.055   3.068  13.688  0.0105 -0.4486  0.9005
  521MPD2     C 7734   4.339   1.608  17.515  0.6902  0.5553 -1.0923
  521MPD2    C1 7735   4.319   1.597  17.379  0.4041 -0.5180  0.2677
  521MPD2    C2 7736   4.426   1.557  17.305  0.3924 -0.4534 -0.2626
  521MPD2    C3 7737   4.535   1.495  17.362  0.5439 -0.5169  0.0009
  521MPD2    C4 7738   4.553   1.502  17.496 -0.2099 -0.0173 -0.4799
  521MPD2    C5 7739   4.451   1.554  17.573 -0.0274 -0.4192 -0.5151
  521MPD2     H 7740   4.405   1.549  17.199 -0.6610 -0.7021 -0.0455
  521MPD2    H1 7741   4.646   1.474  17.545 -0.9362  1.8403  1.9288
  521MPD2    H2 7742   4.261   1.629  17.588  1.6518  0.8341 -0.1456
  521MPD2    H3 7743   4.474   1.563  17.679  3.2462  0.6248 -1.2837
  521MPD2     N 7744   4.635   1.463  17.267 -0.0276 -0.1167 -0.0661
  521MPD2    H5 7745   4.614   1.500  17.175 -0.3620  1.6999  0.7456
  521MPD2    N1 7746   4.189   1.628  17.328 -0.4370  0.1559 -0.1419
  521MPD2    H7 7747   4.123   1.676  17.387 -0.9165 -0.9625  0.2354
  522TMC3    C1 7748   0.120   1.367  17.183 -0.6298 -0.8187  0.4721
  522TMC3    C2 7749   0.193   1.249  17.193 -0.6313  0.3816  0.0438
  522TMC3    C3 7750   0.282   1.232  17.091  0.0737 -0.6668 -0.3666
  522TMC3    C4 7751   0.122   1.457  17.079  0.1793  0.2977  0.4990
  522TMC3    C5 7752   0.207   1.430  16.975 -0.5636 -0.2443  0.1544
  522TMC3    C6 7753   0.299   1.326  16.992 -0.1404 -0.2132 -0.6036
  522TMC3     C 7754   0.032   1.395  17.299  0.3444  0.3892 -1.0609
  522TMC3     O 7755   0.073   1.356  17.409  0.2893  0.0563 -0.3674
  522TMC3     H 7756   0.183   1.183  17.278  1.3997 -0.6470 -0.5411
  522TMC3    H1 7757   0.054   1.542  17.079 -0.7733 -0.4578  0.5172
  522TMC3    H2 7758   0.381   1.322  16.921  0.2896 -2.6739  0.0529
  522TMC3    C7 7759   0.203   1.507  16.848 -0.0003 -0.3661  0.4827
  522TMC3    C8 7760   0.398   1.158  17.129 -0.7387  0.5721 -0.8376
  522TMC3    O1 7761   0.299   1.494  16.772  0.5486  0.1576 -0.2282
  522TMC3    O2 7762   0.414   1.134  17.248  0.6468 -0.5003 -0.3834
  523MPD2     C 7763   3.607   1.016  10.335 -0.4346 -0.4711 -0.7792
  523MPD2    C1 7764   3.513   0.981  10.239  0.1636  0.5968 -0.2095
  523MPD2    C2 7765   3.449   1.089  10.173 -0.0543 -0.3464 -0.6963
  523MPD2    C3 7766   3.488   1.222  10.195  0.1484  0.2273 -0.3168
  523MPD2    C4 7767   3.582   1.248  10.295  0.4944 -0.7782  0.4945
  523MPD2    C5 7768   3.647   1.142  10.358  0.1849  0.3480 -0.3269
  523MPD2     H 7769   3.364   1.079  10.106 -0.3450  0.7139 -0.4895
  523MPD2    H1 7770   3.610   1.345  10.335 -0.9251 -0.2418  0.1839
  523MPD2    H2 7771   3.659   0.942  10.394  0.5599  1.4897  0.8243
  523MPD2    H3 7772   3.716   1.178  10.434 -2.0658 -0.3914  2.0476
  523MPD2     N 7773   3.430   1.341  10.138  0.0734 -0.3698  0.0924
  523MPD2    H5 7774   3.480   1.429  10.152 -0.3144  0.3139 -2.8787
  523MPD2    N1 7775   3.480   0.843  10.221  0.4108 -0.3469  0.1173
  523MPD2    H7 7776   3.526   0.773  10.278  1.1919 -0.8816 -1.1758
  524TMC3    C1 7777   3.276   1.489  10.027  0.2384  0.6936  0.0430
  524TMC3    C2 7778   3.173   1.512   9.933  0.3673  0.3587 -0.6233
  524TMC3    C3 7779   3.091   1.623   9.946 -0.4878  0.2104  0.1336
  524TMC3    C4 7780   3.314   1.590  10.116  0.2034 -0.0928  0.8189
  524TMC3    C5 7781   3.232   1.703  10.117 -0.9969  1.0359 -0.3384
  524TMC3    C6 7782   3.117   1.720  10.042 -0.1184  0.4296  0.3913
  524TMC3     C 7783   3.313   1.351  10.064 -0.0565  0.2907 -0.4415
  524TMC3     O 7784   3.264   1.265   9.991  0.2638  0.2133 -0.0703
  524TMC3     H 7785   3.148   1.434   9.862  0.7642 -1.9040  1.7456
  524TMC3    H1 7786   3.398   1.582  10.183  0.6492  1.9369  0.4986
  524TMC3    H2 7787   3.049   1.803  10.059 -0.7599 -0.0405  0.1681
  524TMC3    C7 7788   3.283   1.819  10.182 -0.5560 -0.2012  0.1181
  524TMC3    C8 7789   2.977   1.643   9.863  0.4342  0.2558 -0.3340
  524TMC3    O1 7790   3.366   1.797  10.267  0.8240 -0.6731  0.1431
  524TMC3    O2 7791   2.904   1.737   9.895 -0.0987 -0.0657 -0.4459
  525MPD2     C 7792   0.386   2.955  14.571 -0.3038  0.0882  0.0284
  525MPD2    C1 7793   0.503   2.971  14.637 -0.2067 -0.3707  0.6591
  525MPD2    C2 7794   0.592   3.070  14.596  0.1420  0.0503  0.4442
  525MPD2    C3 7795   0.559   3.166  14.504 -0.5200 -0.1169  0.9139
  525MPD2    C4 7796   0.435   3.149  14.443 -0.1983  0.3539  0.7162
  525MPD2    C5 7797   0.352   3.045  14.468 -0.2538  0.1507  0.6423
  525MPD2     H 7798   0.682   3.076  14.656 -0.5290  0.3593  1.4226
  525MPD2    H1 7799   0.406   3.221  14.368 -1.4568  0.3705  1.2098
  525MPD2    H2 7800   0.334   2.861  14.587 -2.0527  0.6074 -2.5491
  525MPD2    H3 7801   0.253   3.040  14.423 -0.3518  1.9865  0.6622
  525MPD2     N 7802   0.638   3.278  14.473  0.1130  0.4082 -0.4236
  525MPD2    H5 7803   0.597   3.352  14.417  2.3837  1.3185 -0.8945
  525MPD2    N1 7804   0.527   2.887  14.743  0.2023 -0.4048  0.7605
  525MPD2    H7 7805   0.625   2.878  14.769  0.5257 -0.7509 -0.5620
  526TMC3    C1 7806   0.493   2.740  14.919 -0.1216  0.0740  0.0859
  526TMC3    C2 7807   0.432   2.731  15.038 -0.2531 -0.0166  0.0281
  526TMC3    C3 7808   0.499   2.680  15.145  0.8892  0.0416 -0.3026
  526TMC3    C4 7809   0.628   2.705  14.905  0.0053  0.0306  0.3158
  526TMC3    C5 7810   0.693   2.664  15.015  0.4542 -0.6874  0.9158
  526TMC3    C6 7811   0.636   2.661  15.139  0.0024  0.4875 -0.0497
  526TMC3     C 7812   0.436   2.821  14.816 -0.0859 -0.4525 -0.6572
  526TMC3     O 7813   0.313   2.810  14.819  0.1909  0.5651  0.2136
  526TMC3     H 7814   0.339   2.785  15.048 -0.0405  0.0802  1.5432
  526TMC3    H1 7815   0.667   2.683  14.806  0.9434 -2.5611  1.2473
  526TMC3    H2 7816   0.697   2.640  15.227 -1.3988  3.6995  1.6859
  526TMC3    C7 7817   0.832   2.604  15.006  0.7227  0.0951 -0.0179
  526TMC3    C8 7818   0.440   2.697  15.269 -0.5511  0.4923 -0.3376
  526TMC3    O1 7819   0.880   2.586  15.117 -0.4156  0.0985  0.0750
  526TMC3    O2 7820   0.515   2.741  15.359  0.2246 -0.2461 -0.0443
  527MPD2     C 7821   4.362   1.019   1.602  0.3974 -0.4395  1.3001
  527MPD2    C1 7822   4.352   1.114   1.501 -0.0394 -0.0177 -0.0688
  527MPD2    C2 7823   4.384   1.077   1.368  0.2856  0.0333  1.3076
  527MPD2    C3 7824   4.420   0.946   1.335 -0.3725  0.5683 -0.0432
  527MPD2    C4 7825   4.450   0.864   1.433 -0.4186 -0.7394  0.1517
  527MPD2    C5 7826   4.413   0.893   1.566 -0.2622  0.3710 -0.2379
  527MPD2     H 7827   4.364   1.148   1.289 -0.0504 -0.7929  0.6543
  527MPD2    H1 7828   4.458   0.759   1.407  0.3019 -1.7295  4.3119
  527MPD2    H2 7829   4.343   1.028   1.709 -0.2018 -0.0052  1.1607
  527MPD2    H3 7830   4.410   0.826   1.651 -0.5574 -0.1582 -0.6659
  527MPD2     N 7831   4.446   0.915   1.196 -0.0615 -0.0882  0.5559
  527MPD2    H5 7832   4.419   0.986   1.129  0.1604  0.3446  0.9238
  527MPD2    N1 7833   4.315   1.246   1.530 -0.2431  0.4599 -0.0381
  527MPD2    H7 7834   4.296   1.313   1.456  1.6029  1.5902  0.5170
  528TMC3    C1 7835   4.268   1.438   1.652  0.4988  0.1391 -0.4607
  528TMC3    C2 7836   4.287   1.514   1.763 -0.6456  1.1194  0.5500
  528TMC3    C3 7837   4.213   1.627   1.778 -0.0132  0.4873  0.3733
  528TMC3    C4 7838   4.175   1.466   1.563 -0.9838 -0.2541  0.3801
  528TMC3    C5 7839   4.099   1.581   1.590 -0.9921  0.1446 -0.4189
  528TMC3    C6 7840   4.113   1.666   1.701 -0.7552 -1.3819 -0.3553
  528TMC3     C 7841   4.300   1.301   1.658  0.1501  0.1194  0.3763
  528TMC3     O 7842   4.330   1.248   1.762  0.3022  0.8814 -0.0828
  528TMC3     H 7843   4.366   1.485   1.831 -1.5002 -1.4888  0.4406
  528TMC3    H1 7844   4.151   1.389   1.491 -0.8345  0.7626 -0.7530
  528TMC3    H2 7845   4.063   1.761   1.714  2.2419  0.6205 -3.2628
  528TMC3    C7 7846   3.965   1.589   1.524 -0.2293 -0.0218  0.1598
  528TMC3    C8 7847   4.222   1.699   1.903  0.3249  0.1312 -0.0453
  528TMC3    O1 7848   3.882   1.672   1.555  0.0311 -0.5876 -0.5072
  528TMC3    O2 7849   4.199   1.822   1.895 -0.2983  0.1859  0.2798
  529MPD2     C 7850   2.113   4.466   1.089  0.4377 -0.6069 -0.5353
  529MPD2    C1 7851   2.032   4.548   1.168 -0.4260  0.5138  0.0573
  529MPD2    C2 7852   1.942   4.631   1.098 -0.3662 -0.5039  0.0619
  529MPD2    C3 7853   1.945   4.644   0.956  0.2060 -0.1885  0.3807
  529MPD2    C4 7854   2.027   4.558   0.885 -0.3057 -0.5717  0.4094
  529MPD2    C5 7855   2.108   4.477   0.957  0.6734  0.7600 -0.3913
  529MPD2     H 7856   1.895   4.709   1.155  1.2923  0.2169  0.4530
  529MPD2    H1 7857   2.046   4.568   0.779 -0.0477  0.6821  0.5705
  529MPD2    H2 7858   2.175   4.385   1.126 -2.0317 -2.3488 -0.2292
  529MPD2    H3 7859   2.163   4.400   0.902 -0.0529  0.3393 -0.5258
  529MPD2     N 7860   1.853   0.008   0.888  0.5970 -0.0318  0.2285
  529MPD2    H5 7861   1.862   0.003   0.787 -0.4852  0.2823  0.1147
  529MPD2    N1 7862   2.035   4.552   1.308 -0.3724  1.0635  0.0407
  529MPD2    H7 7863   1.976   4.618   1.358  0.6718  1.1544  1.1609
  530TMC3    C1 7864   2.111   4.534   1.532 -0.4788  0.8590 -0.9440
  530TMC3    C2 7865   2.222   4.513   1.607  0.4187 -0.4914 -0.4409
  530TMC3    C3 7866   2.212   4.551   1.738 -0.4677 -0.1928  0.4112
  530TMC3    C4 7867   1.991   4.584   1.578 -0.0365 -0.2810  0.0277
  530TMC3    C5 7868   1.981   4.605   1.709  0.5078 -0.1484  0.3415
  530TMC3    C6 7869   2.095   4.605   1.787  0.3947  0.2555 -0.1438
  530TMC3     C 7870   2.121   4.490   1.389 -0.3677 -0.0555 -0.3567
  530TMC3     O 7871   2.199   4.403   1.357 -0.0735  0.1704 -0.1744
  530TMC3     H 7872   2.311   4.479   1.555  1.0128 -1.4096  1.2076
  530TMC3    H1 7873   1.902   4.602   1.519  1.6706  0.4310 -2.2881
  530TMC3    H2 7874   2.090   4.655   1.883 -0.3037 -0.4139  0.1693
  530TMC3    C7 7875   1.853   4.655   1.763  0.6781 -0.2029  0.0404
  530TMC3    C8 7876   2.324   4.607   1.796  0.6960 -0.3119 -0.3492
  530TMC3    O1 7877   1.865   0.017   1.851  0.0378  0.4501 -0.1227
  530TMC3    O2 7878   2.315   4.702   1.874  0.2881 -0.2138  0.1723
  531MPD2     C 7879   4.434   1.651  12.888  1.0302  0.5108 -0.5297
  531MPD2    C1 7880   4.345   1.750  12.925  0.5778  0.4586 -0.1931
  531MPD2    C2 7881   4.288   1.830  12.828 -0.6084 -0.0017 -0.1138
  531MPD2    C3 7882   4.315   1.807  12.693 -0.4478  0.3352 -0.5946
  531MPD2    C4 7883   4.408   1.707  12.660 -0.9757 -0.0619  0.3972
  531MPD2    C5 7884   4.460   1.625  12.759 -0.0039  0.1631  0.7318
  531MPD2     H 7885   4.219   1.912  12.847 -0.3339  0.0477  0.6594
  531MPD2    H1 7886   4.428   1.694  12.554 -0.2181  2.1935  0.2538
  531MPD2    H2 7887   4.481   1.589  12.963 -1.3264 -0.4315  0.1743
  531MPD2    H3 7888   4.540   1.557  12.734 -0.7358  0.0403 -1.2861
  531MPD2     N 7889   4.252   1.897  12.595 -0.0975  0.1976  0.0539
  531MPD2    H5 7890   4.188   1.964  12.637  1.4617  1.3732  0.5479
  531MPD2    N1 7891   4.305   1.759  13.065  0.0014  0.5224  0.4721
  531MPD2    H7 7892   4.358   1.699  13.127  0.0564 -1.5487 -1.5793
  532TMC3    C1 7893   4.191   1.844  13.261 -0.3684  0.1804  0.3155
  532TMC3    C2 7894   4.073   1.906  13.292  0.0184 -0.4813 -0.2517
  532TMC3    C3 7895   4.069   1.993  13.394  0.1468 -0.1247 -0.7826
  532TMC3    C4 7896   4.306   1.880  13.321  0.0774 -0.0915  0.1670
  532TMC3    C5 7897   4.302   1.964  13.426 -0.1846 -0.5006  1.0549
  532TMC3    C6 7898   4.185   2.020  13.464 -0.1522 -0.3526 -0.1373
  532TMC3     C 7899   4.201   1.829  13.118 -0.0447 -0.6681 -0.3423
  532TMC3     O 7900   4.104   1.878  13.061 -0.6379 -0.3089  0.2645
  532TMC3     H 7901   3.979   1.869  13.252 -0.7018  0.5458  0.4757
  532TMC3    H1 7902   4.396   1.826  13.295 -0.7564 -1.3381 -0.1653
  532TMC3    H2 7903   4.183   2.094  13.543 -1.4792  0.9990 -1.4250
  532TMC3    C7 7904   4.415   2.037  13.479  0.4640 -0.2866  0.2995
  532TMC3    C8 7905   4.012   2.118  13.346  0.3387  0.3535  1.1099
  532TMC3    O1 7906   4.403   2.106  13.579 -0.2152  0.3513 -0.4406
  532TMC3    O2 7907   3.968   2.197  13.431  0.5750 -0.2589  0.3892
  533TMC3    C1 7908   0.772   3.448  14.517  0.4221 -0.1013 -0.2493
  533TMC3    C2 7909   0.893   3.495  14.535 -0.1725 -0.1166 -0.8912
  533TMC3    C3 7910   0.901   3.587  14.637  0.7056  0.0978 -0.3818
  533TMC3    C4 7911   0.669   3.508  14.579  0.2736  0.3576  0.0717
  533TMC3    C5 7912   0.683   3.595  14.685 -0.0166  0.5015 -0.9543
  533TMC3    C6 7913   0.805   3.633  14.720 -0.0602  0.2293 -0.0683
  533TMC3     C 7914   0.766   3.306  14.513 -0.6630  1.1748  0.0998
  533TMC3     O 7915   0.854   3.232  14.557 -0.5121  0.1304 -0.3921
  533TMC3     H 7916   0.975   3.452  14.479  0.0049  1.2393 -1.6801
  533TMC3    H1 7917   0.569   3.487  14.544 -0.2318 -0.1242  1.7756
  533TMC3    H2 7918   0.820   3.723  14.780 -2.1574  1.4188 -1.2980
  533TMC3    C7 7919   0.596   3.559  14.799 -0.7865  0.2223  0.2580
  533TMC3    C8 7920   1.038   3.637  14.666  0.1116 -0.1677  0.8577
  533TMC3    O1 7921   0.594   3.436  14.821 -0.0482  0.2419 -0.3433
  533TMC3    O2 7922   1.068   3.630  14.781 -0.1896 -0.0706  0.3968
  534MPD2     C 7923   4.009   0.905   1.458  0.1513  0.0555  0.2800
  534MPD2    C1 7924   3.875   0.901   1.438 -0.3823 -0.0799  0.1573
  534MPD2    C2 7925   3.817   0.786   1.413  0.0741 -0.6117  0.8227
  534MPD2    C3 7926   3.886   0.673   1.427 -0.1569 -0.4896 -0.1637
  534MPD2    C4 7927   4.019   0.669   1.432  0.1344  0.0558 -0.4499
  534MPD2    C5 7928   4.081   0.795   1.445  0.0595 -0.4204  0.3798
  534MPD2     H 7929   3.713   0.783   1.385  0.5871 -4.1483 -0.7222
  534MPD2    H1 7930   4.081   0.581   1.417 -1.5036 -0.9542 -1.3251
  534MPD2    H2 7931   4.059   1.000   1.475 -1.6274  0.4187  3.4184
  534MPD2    H3 7932   4.189   0.804   1.448 -0.1981  2.9251 -1.2731
  534MPD2     N 7933   3.826   0.546   1.420 -0.7976  0.6521  0.5128
  534MPD2    H5 7934   3.891   0.469   1.432 -0.6293  0.6756 -0.2231
  534MPD2    N1 7935   3.789   1.014   1.443 -0.0454 -0.1025 -0.0469
  534MPD2    H7 7936   3.689   0.998   1.428 -0.1915  0.5224  0.2381
  535TMC3    C1 7937   3.682   0.377   1.373 -0.0974 -0.0543 -0.0354
  535TMC3    C2 7938   3.554   0.327   1.375  0.0250 -0.3246  0.4375
  535TMC3    C3 7939   3.527   0.205   1.317 -0.0876  0.4503  0.1946
  535TMC3    C4 7940   3.781   0.300   1.315  0.3232 -0.4235 -1.3658
  535TMC3    C5 7941   3.751   0.178   1.261 -0.2422  0.3105  0.1436
  535TMC3    C6 7942   3.622   0.132   1.257  0.6695  0.1344  0.1113
  535TMC3     C 7943   3.698   0.519   1.382 -0.8250  0.3741 -0.0958
  535TMC3     O 7944   3.602   0.589   1.355 -0.9451 -0.7981  0.2522
  535TMC3     H 7945   3.470   0.389   1.405  0.3464  0.7644 -0.9159
  535TMC3    H1 7946   3.874   0.351   1.293 -0.1449 -0.0710 -2.5344
  535TMC3    H2 7947   3.598   0.034   1.216 -0.1198  0.1181  0.6177
  535TMC3    C7 7948   3.850   0.077   1.239  0.1696 -0.3645 -0.0040
  535TMC3    C8 7949   3.388   0.182   1.278  0.6461 -0.2933  0.0652
  535TMC3    O1 7950   3.821   4.693   1.195 -0.4593  0.1378  0.3030
  535TMC3    O2 7951   3.300   0.225   1.349  0.0140  0.4009  0.3082
  536MPD2     C 7952   2.356   2.570  16.905  0.1806 -0.0442  0.6338
  536MPD2    C1 7953   2.281   2.691  16.902  0.4080 -0.2437  0.2488
  536MPD2    C2 7954   2.251   2.752  16.785 -0.3490 -0.5088  0.6512
  536MPD2    C3 7955   2.294   2.702  16.661 -0.0514 -0.0683 -0.4724
  536MPD2    C4 7956   2.370   2.586  16.672  0.0669  0.0880  0.0450
  536MPD2    C5 7957   2.410   2.528  16.787  0.5652  0.4553 -0.4489
  536MPD2     H 7958   2.189   2.840  16.797 -0.2352 -0.3000 -0.3237
  536MPD2    H1 7959   2.407   2.551  16.576  2.4382 -0.0548  1.0329
  536MPD2    H2 7960   2.374   2.533  17.005 -0.4314 -1.1427  0.3340
  536MPD2    H3 7961   2.468   2.437  16.779 -0.1360 -0.0371 -0.0092
  536MPD2     N 7962   2.270   2.752  16.540 -0.5357 -0.3186  0.6103
  536MPD2    H5 7963   2.302   2.690  16.466 -0.3351  1.2304 -0.5777
  536MPD2    N1 7964   2.225   2.748  17.019  0.4477 -0.4363  0.0102
  536MPD2    H7 7965   2.158   2.824  17.009  0.4691 -0.5710 -1.1158
  537TMC3    C1 7966   2.180   2.761  17.249  0.0875  0.0192 -0.4730
  537TMC3    C2 7967   2.220   2.891  17.257 -0.1332 -0.0729 -0.2797
  537TMC3    C3 7968   2.238   2.941  17.385 -0.2821 -0.0977 -0.4564
  537TMC3    C4 7969   2.147   2.685  17.359 -0.1063 -0.8327 -0.0397
  537TMC3    C5 7970   2.172   2.742  17.480 -0.1375 -0.2769  0.2352
  537TMC3    C6 7971   2.230   2.867  17.498  0.0497 -0.2394  0.2475
  537TMC3     C 7972   2.228   2.686  17.140 -0.6491 -0.6394  0.2454
  537TMC3     O 7973   2.233   2.566  17.171  0.4012  0.1743  0.1944
  537TMC3     H 7974   2.258   2.942  17.169 -2.4220  1.8725 -0.1432
  537TMC3    H1 7975   2.088   2.596  17.343  1.3454 -1.7332 -0.3637
  537TMC3    H2 7976   2.244   2.911  17.597 -0.9295 -0.4503  0.4830
  537TMC3    C7 7977   2.160   2.667  17.605  0.9905 -0.5390 -0.3024
  537TMC3    C8 7978   2.306   3.069  17.397 -0.2157  0.1571  0.3262
  537TMC3    O1 7979   2.152   2.730   0.018 -0.7546 -0.3921  0.0563
  537TMC3    O2 7980   2.370   3.076  17.495 -0.1009  0.7275  0.0555
  538TMC3    C1 7981   3.450   1.274  10.801 -0.0441  0.8924  0.2156
  538TMC3    C2 7982   3.560   1.347  10.845  0.1531  0.7293 -0.5348
  538TMC3    C3 7983   3.597   1.451  10.766  0.7178  0.3137  0.6126
  538TMC3    C4 7984   3.401   1.285  10.671 -0.2269 -0.2426  0.2117
  538TMC3    C5 7985   3.435   1.399  10.605  0.1445 -0.1402 -0.4225
  538TMC3    C6 7986   3.529   1.477  10.654 -1.0090  0.4091 -0.3159
  538TMC3     C 7987   3.392   1.168  10.879  0.2188  0.3955 -0.1859
  538TMC3     O 7988   3.302   1.108  10.820  0.0339  0.0862 -0.4565
  538TMC3     H 7989   3.598   1.334  10.946  1.2727 -0.5673 -1.1081
  538TMC3    H1 7990   3.316   1.227  10.637 -0.3438  0.5581 -0.8487
  538TMC3    H2 7991   3.552   1.574  10.610  1.1495 -0.3793 -0.9283
  538TMC3    C7 7992   3.344   1.444  10.496  0.2110 -0.7506  0.0903
  538TMC3    C8 7993   3.698   1.537  10.825  0.3852 -0.6447  0.0923
  538TMC3    O1 7994   3.279   1.355  10.446 -0.3805 -0.5808  0.2524
  538TMC3    O2 7995   3.729   1.535  10.945  0.3012  0.3793  0.5489
  539MPD2     C 7996   2.799   0.736  11.942 -0.1092 -0.0392  0.1711
  539MPD2    C1 7997   2.841   0.724  11.811  0.5848 -0.2124 -0.0607
  539MPD2    C2 7998   2.845   0.834  11.733 -0.6296 -0.3548 -0.0405
  539MPD2    C3 7999   2.812   0.956  11.785 -0.3852 -0.3047 -0.2465
  539MPD2    C4 8000   2.777   0.970  11.919  0.2580  0.2852 -0.1995
  539MPD2    C5 8001   2.770   0.861  11.995 -0.0542  0.1960  0.1146
  539MPD2     H 8002   2.865   0.827  11.626 -1.0295 -0.4920 -0.1064
  539MPD2    H1 8003   2.754   1.066  11.964 -2.5471 -0.3281 -0.3451
  539MPD2    H2 8004   2.794   0.657  12.015  1.9061  0.4400  0.8321
  539MPD2    H3 8005   2.730   0.871  12.095 -0.1327 -1.0405  0.2066
  539MPD2     N 8006   2.814   1.078  11.710 -0.6098  1.0518  0.5944
  539MPD2    H5 8007   2.790   1.161  11.763 -0.9643  1.8240 -0.7580
  539MPD2    N1 8008   2.886   0.606  11.746 -0.2665 -0.6580  0.7971
  539MPD2    H7 8009   2.905   0.608  11.646 -1.7785  1.8488  0.5691
  540TMC3    C1 8010   2.821   1.219  11.505 -0.0994 -0.1126 -0.5908
  540TMC3    C2 8011   2.820   1.229  11.362  0.2789  0.4208  0.3632
  540TMC3    C3 8012   2.830   1.349  11.312 -0.3016 -0.8288  0.0688
  540TMC3    C4 8013   2.809   1.331  11.583  0.3348 -0.4339 -0.3557
  540TMC3    C5 8014   2.820   1.449  11.524 -0.1536 -0.3822  0.3009
  540TMC3    C6 8015   2.838   1.462  11.387 -0.4736 -0.1154 -0.0914
  540TMC3     C 8016   2.819   1.085  11.571  0.6814  0.1747 -0.0025
  540TMC3     O 8017   2.821   0.996  11.488  0.5881  0.2201 -0.2495
  540TMC3     H 8018   2.829   1.142  11.298  2.3664  0.7354  0.2213
  540TMC3    H1 8019   2.766   1.329  11.682 -0.1166 -0.3006 -0.5485
  540TMC3    H2 8020   2.817   1.555  11.335  0.6229 -0.4920 -1.2026
  540TMC3    C7 8021   2.744   1.557  11.587 -0.3352  0.1246  0.0326
  540TMC3    C8 8022   2.881   1.363  11.174  0.1899  0.4015  0.4107
  540TMC3    O1 8023   2.651   1.528  11.661 -0.1933  0.1632  0.2107
  540TMC3    O2 8024   2.926   1.474  11.142 -0.4442 -0.1143  0.0833
  541MPD2     C 8025   0.859   2.202  12.787 -0.9675  0.0847 -0.7633
  541MPD2    C1 8026   0.943   2.143  12.689  0.4903  0.8831  0.0036
  541MPD2    C2 8027   1.033   2.223  12.619  0.6078 -0.5337  0.1638
  541MPD2    C3 8028   1.019   2.358  12.621  0.0305  0.4472  0.9942
  541MPD2    C4 8029   0.914   2.408  12.693 -0.0296 -0.4013  1.2028
  541MPD2    C5 8030   0.842   2.339  12.788 -0.3043  0.1827  0.3277
  541MPD2     H 8031   1.121   2.175  12.577 -1.5980 -4.5379  0.0552
  541MPD2    H1 8032   0.892   2.514  12.693 -1.0540 -0.6053  0.8759
  541MPD2    H2 8033   0.808   2.140  12.858  0.3800 -0.4621 -0.2671
  541MPD2    H3 8034   0.769   2.382  12.855 -1.5519 -0.1747 -0.7994
  541MPD2     N 8035   1.115   2.445  12.545 -1.0785 -0.3188 -0.4697
  541MPD2    H5 8036   1.091   2.543  12.555  0.1239 -0.0505 -0.1464
  541MPD2    N1 8037   0.949   2.002  12.685  0.2773 -0.7751 -0.3881
  541MPD2    H7 8038   0.888   1.956  12.753 -2.6503  1.1082 -1.7381
  542TMC3    C1 8039   1.261   2.507  12.373 -0.1613 -0.2275  0.0834
  542TMC3    C2 8040   1.360   2.467  12.281  0.3391 -0.2382 -0.7139
  542TMC3    C3 8041   1.370   2.536  12.160 -0.4126  0.1523  0.1941
  542TMC3    C4 8042   1.174   2.606  12.337 -0.0922 -0.5561 -0.1065
  542TMC3    C5 8043   1.188   2.666  12.222 -0.4786  0.0990 -0.1013
  542TMC3    C6 8044   1.281   2.636  12.122 -0.0298 -0.1850  0.0045
  542TMC3     C 8045   1.222   2.407  12.473 -0.4462 -0.4859  0.4904
  542TMC3     O 8046   1.266   2.293  12.458 -0.0139 -0.0141  0.4850
  542TMC3     H 8047   1.419   2.377  12.295 -0.1190 -0.5539 -0.8042
  542TMC3    H1 8048   1.101   2.644  12.408  0.5215  2.0676 -0.8785
  542TMC3    H2 8049   1.279   2.681  12.024  1.1659 -4.1346 -1.8468
  542TMC3    C7 8050   1.080   2.765  12.199  0.4292 -0.5082 -0.7260
  542TMC3    C8 8051   1.454   2.488  12.050  1.2323  0.1827 -0.1248
  542TMC3    O1 8052   0.974   2.741  12.256  0.3208 -0.4479  0.5275
  542TMC3    O2 8053   1.417   2.509  11.938 -0.0121 -0.1079 -0.0202
  543TMC3    C1 8054   0.978   3.652  17.323 -0.1508  0.4576  0.2766
  543TMC3    C2 8055   0.852   3.604  17.314 -0.4210 -0.2048 -0.0313
  543TMC3    C3 8056   0.782   3.577  17.427  0.3842  0.0021 -0.7343
  543TMC3    C4 8057   1.035   3.691  17.444 -0.1565  0.5615 -0.3158
  543TMC3    C5 8058   0.954   3.680  17.553 -0.2083 -0.0501 -0.4450
  543TMC3    C6 8059   0.824   3.629  17.545 -0.3041  0.1768  0.1237
  543TMC3     C 8060   1.070   3.603  17.222  0.3099 -0.0836  0.5934
  543TMC3     O 8061   1.184   3.568  17.256  0.0724  0.8318 -0.5858
  543TMC3     H 8062   0.812   3.571  17.218 -1.0489  2.3207 -0.6288
  543TMC3    H1 8063   1.136   3.730  17.449  0.6056 -1.3904 -0.4955
  543TMC3    H2 8064   0.768   3.605  17.634  0.5421  2.2661  1.2050
  543TMC3    C7 8065   0.977   3.751  17.680  0.0946  0.1643  0.1255
  543TMC3    C8 8066   0.755   3.439  17.440 -0.1500  0.6173  0.0516
  543TMC3    O1 8067   0.876   3.805   0.036  0.0606  0.5663  0.1428
  543TMC3    O2 8068   0.791   3.389  17.546 -0.0572  0.8133 -0.0692
  544MPD2     C 8069   0.610   2.997  17.253  0.3250  0.8216  0.0443
  544MPD2    C1 8070   0.697   3.019  17.352  0.4928 -0.3410  0.0946
  544MPD2    C2 8071   0.708   3.149  17.393  0.5161 -0.4769  0.2862
  544MPD2    C3 8072   0.651   3.254  17.318 -0.3408 -0.4125 -0.2200
  544MPD2    C4 8073   0.563   3.218  17.219 -0.2582  0.5057  0.0057
  544MPD2    C5 8074   0.534   3.091  17.192  0.2960 -0.2139 -0.1020
  544MPD2     H 8075   0.778   3.171  17.473  1.1300  0.3130 -0.4793
  544MPD2    H1 8076   0.486   3.290  17.193 -0.4031  0.5869  0.6608
  544MPD2    H2 8077   0.602   2.903  17.200 -2.6290 -0.1600  2.2488
  544MPD2    H3 8078   0.457   3.070  17.118  0.2301 -0.3738  0.0127
  544MPD2     N 8079   0.674   3.392  17.343 -0.3496 -0.9273 -0.0411
  544MPD2    H5 8080   0.631   3.459  17.280  0.2846 -0.8670 -0.4154
  544MPD2    N1 8081   0.771   2.910  17.411  0.3438 -0.0398  0.0916
  544MPD2    H7 8082   0.817   2.935  17.498  0.8397 -0.3851 -0.0760
  545TMC3    C1 8083   0.851   2.683  17.455  0.0461  0.1789  0.2894
  545TMC3    C2 8084   0.826   2.549  17.436  0.2695  0.2937  0.2599
  545TMC3    C3 8085   0.908   2.461  17.510  0.5749  0.1531  0.0639
  545TMC3    C4 8086   0.960   2.726  17.526  0.7175  1.0321  0.4143
  545TMC3    C5 8087   1.051   2.635  17.581  0.3713 -0.2742  0.4150
  545TMC3    C6 8088   1.019   2.502  17.575 -0.2339 -0.1074  0.4299
  545TMC3     C 8089   0.778   2.777  17.362  1.0736  0.3148 -0.1382
  545TMC3     O 8090   0.731   2.729  17.259 -0.0676  0.6451 -0.0041
  545TMC3     H 8091   0.732   2.518  17.392  0.8310  1.9179 -2.0697
  545TMC3    H1 8092   0.979   2.831  17.547  4.4082  0.2364  1.1132
  545TMC3    H2 8093   1.091   2.437  17.624  0.6680 -0.1741 -0.9867
  545TMC3    C7 8094   1.173   2.680  17.643  0.2992 -0.0461  0.0474
  545TMC3    C8 8095   0.889   2.324  17.512  0.3940 -0.1526 -0.3214
  545TMC3    O1 8096   1.240   2.762  17.589  0.5512  0.2050 -0.0013
  545TMC3    O2 8097   0.937   2.260  17.605 -0.8009 -0.5260  0.9148
  546MPD2     C 8098   2.577   3.399   0.151 -0.2728  0.6904 -1.1708
  546MPD2    C1 8099   2.452   3.421   0.095  0.4061 -0.6236 -0.2331
  546MPD2    C2 8100   2.422   3.549   0.046  0.5845  0.3645 -0.2807
  546MPD2    C3 8101   2.511   3.654   0.071 -0.5546  0.1957 -0.6275
  546MPD2    C4 8102   2.635   3.628   0.123 -0.2048  0.6591 -0.1071
  546MPD2    C5 8103   2.670   3.498   0.150 -0.0102  0.7319 -0.9030
  546MPD2     H 8104   2.332   3.566  17.679  0.7696  0.5361 -0.5202
  546MPD2    H1 8105   2.714   3.702   0.133 -0.1330  0.5687 -0.0146
  546MPD2    H2 8106   2.606   3.308   0.202 -2.6665 -0.3279 -1.6206
  546MPD2    H3 8107   2.768   3.473   0.189 -0.8791 -3.3284 -1.3617
  546MPD2     N 8108   2.486   3.787   0.022  0.9185  0.1644  0.6250
  546MPD2    H5 8109   2.556   3.854   0.056  0.5294  0.7759  0.2177
  546MPD2    N1 8110   2.363   3.303   0.092 -0.2540  0.2755 -0.4245
  546MPD2    H7 8111   2.402   3.218   0.132  0.3454  1.9327  2.5162
  547TMC3    C1 8112   2.184   3.168   0.038 -0.1226  0.7026 -0.1266
  547TMC3    C2 8113   2.081   3.157  17.642  0.1519 -0.3408 -0.9428
  547TMC3    C3 8114   1.966   3.087  17.682  0.3149  0.0874  0.0892
  547TMC3    C4 8115   2.186   3.101   0.159  0.1988 -0.3152 -0.3836
  547TMC3    C5 8116   2.080   3.024   0.183 -0.4274  0.3294  0.1029
  547TMC3    C6 8117   1.971   3.008   0.105 -0.6643 -0.2569 -0.1428
  547TMC3     C 8118   2.237   3.300   0.032 -0.0097  0.1753 -0.5955
  547TMC3     O 8119   2.176   3.388  17.664 -0.0943 -0.0355  0.4398
  547TMC3     H 8120   2.083   3.212  17.549  2.0774  0.3234 -0.5021
  547TMC3    H1 8121   2.253   3.129   0.239  0.4910  0.6977 -0.9804
  547TMC3    H2 8122   1.884   2.955   0.146  0.0470  0.3912  2.2150
  547TMC3    C7 8123   2.041   3.015   0.323  0.0618 -0.2224 -0.1243
  547TMC3    C8 8124   1.889   3.027  17.581 -0.2500  0.1812  0.5597
  547TMC3    O1 8125   1.927   3.047   0.357  0.2796  0.3809 -0.0851
  547TMC3    O2 8126   1.855   3.100  17.490 -0.1279  0.2529  0.2217
  548MPD2     C 8127   2.139   4.343  11.877  0.8203 -0.5555 -0.0806
  548MPD2    C1 8128   2.096   4.254  11.976  0.9109 -0.1863 -0.3117
  548MPD2    C2 8129   2.189   4.155  12.029  0.0611  0.0671 -0.0620
  548MPD2    C3 8130   2.311   4.141  11.969  0.2276 -0.4920 -0.3329
  548MPD2    C4 8131   2.347   4.234  11.869 -0.2837 -0.2565 -1.1236
  548MPD2    C5 8132   2.265   4.340  11.831 -0.1921 -0.3476  0.1255
  548MPD2     H 8133   2.159   4.096  12.114  2.7409 -2.1388 -0.6491
  548MPD2    H1 8134   2.435   4.219  11.807  1.4972  1.0522  1.0504
  548MPD2    H2 8135   2.074   4.421  11.839  0.7043  0.1373  1.5433
  548MPD2    H3 8136   2.291   4.415  11.757 -1.0235 -1.1474 -0.9800
  548MPD2     N 8137   2.398   4.049  12.031  0.6154  0.7166 -0.0960
  548MPD2    H5 8138   2.361   4.000  12.112  1.6598  0.4483  0.2242
  548MPD2    N1 8139   1.959   4.269  12.020 -0.4920 -0.5180 -0.3863
  548MPD2    H7 8140   1.893   4.323  11.965 -0.3718  0.8586  0.8153
  549TMC3    C1 8141   1.759   4.215  12.140  0.1573 -0.4828 -0.9676
  549TMC3    C2 8142   1.691   4.324  12.085  0.2802 -1.2580 -0.1662
  549TMC3    C3 8143   1.565   4.346  12.134 -0.8934 -0.1366 -0.2452
  549TMC3    C4 8144   1.704   4.123  12.223  0.8382 -0.2635 -0.1602
  549TMC3    C5 8145   1.575   4.145  12.263  0.0600 -0.8000  0.1983
  549TMC3    C6 8146   1.506   4.255  12.220 -0.5131  0.2338 -0.4733
  549TMC3     C 8147   1.905   4.206  12.133  0.1567 -0.1609 -0.4641
  549TMC3     O 8148   1.960   4.139  12.221 -0.0768 -0.4850  0.3242
  549TMC3     H 8149   1.747   4.394  12.023  1.4910 -2.1922 -0.1359
  549TMC3    H1 8150   1.769   4.051  12.270 -1.0218 -1.1848  1.0408
  549TMC3    H2 8151   1.405   4.268  12.258 -0.8882 -3.6601 -0.1270
  549TMC3    C7 8152   1.511   4.041  12.350  0.9090  0.2911  0.2709
  549TMC3    C8 8153   1.481   4.462  12.102 -1.0148 -0.0478 -0.1391
  549TMC3    O1 8154   1.410   4.079  12.408  0.9269  0.9330 -0.9199
  549TMC3    O2 8155   1.362   4.449  12.136 -0.9317  0.6965  0.7868
  550TMC3    C1 8156   0.210   1.727  11.841 -0.6899  0.1753  0.0855
  550TMC3    C2 8157   0.186   1.776  11.965 -0.7018  0.2065 -0.2421
  550TMC3    C3 8158   0.289   1.831  12.035  0.3087 -0.6314  0.1333
  550TMC3    C4 8159   0.341   1.705  11.794  0.2858 -0.3105  0.1346
  550TMC3    C5 8160   0.440   1.763  11.864  0.4450 -0.1045 -0.5244
  550TMC3    C6 8161   0.417   1.820  11.986  0.4579  0.0791 -1.0671
  550TMC3     C 8162   0.123   1.799  11.747  0.6204 -0.8602  0.2144
  550TMC3     O 8163   0.010   1.837  11.777 -0.0547 -0.2010  0.1053
  550TMC3     H 8164   0.085   1.793  11.999 -0.1205  2.5337  0.2756
  550TMC3    H1 8165   0.357   1.656  11.698 -0.3995 -0.9665  0.3575
  550TMC3    H2 8166   0.495   1.867  12.044 -0.4045 -0.0497  0.2065
  550TMC3    C7 8167   0.516   1.845  11.777 -0.4413  0.2998  0.8754
  550TMC3    C8 8168   0.237   1.955  12.086  0.2264 -0.5643  0.4101
  550TMC3    O1 8169   0.556   1.791  11.678 -0.1105 -0.3140 -0.1437
  550TMC3    O2 8170   0.324   2.039  12.081  0.2131 -0.1308  0.1402
  551TMC3    C1 8171   3.181   4.197  13.152  0.0615  0.0932  0.5061
  551TMC3    C2 8172   3.311   4.157  13.141  0.0935 -0.9379  0.2612
  551TMC3    C3 8173   3.403   4.187  13.238 -0.7178 -0.5566  0.0714
  551TMC3    C4 8174   3.143   4.272  13.262 -0.5510 -0.3505  0.5581
  551TMC3    C5 8175   3.235   4.292  13.358  0.5600 -0.3547 -0.3334
  551TMC3    C6 8176   3.365   4.254  13.347  0.0203  0.3158 -0.7339
  551TMC3     C 8177   3.081   4.175  13.043  0.4484  0.1858  0.1979
  551TMC3     O 8178   2.990   4.255  13.032  0.8226 -0.0096 -0.8413
  551TMC3     H 8179   3.341   4.102  13.052 -0.3128 -1.1194  0.2389
  551TMC3    H1 8180   3.040   4.302  13.271 -0.7680 -0.1554 -2.4475
  551TMC3    H2 8181   3.437   4.284  13.421  2.2230 -1.8555 -1.9842
  551TMC3    C7 8182   3.212   4.385  13.468 -0.3227  0.7137  0.6575
  551TMC3    C8 8183   3.527   4.233  13.182  1.7481  0.1517 -0.2863
  551TMC3    O1 8184   3.257   4.359  13.577 -0.0953 -0.2737  0.8367
  551TMC3    O2 8185   3.563   4.167  13.087  0.2098  0.0948  0.0351
  552MPD2     C 8186   4.522   1.371  13.972  0.3329 -0.1115 -0.4517
  552MPD2    C1 8187   4.644   1.422  13.945  0.1978 -0.7362  0.7918
  552MPD2    C2 8188   0.023   1.428  14.048  0.0948 -0.8802  0.1461
  552MPD2    C3 8189   0.013   1.382  14.180  0.0913  0.1251 -0.1511
  552MPD2    C4 8190   4.606   1.326  14.207 -0.1479 -0.6297 -0.4337
  552MPD2    C5 8191   4.504   1.331  14.104 -0.2643  0.0825 -0.5894
  552MPD2     H 8192   0.122   1.445  14.009 -0.3914  0.4495 -0.5159
  552MPD2    H1 8193   4.596   1.285  14.307  0.7746  2.4106  0.8856
  552MPD2    H2 8194   4.445   1.367  13.896 -1.2439 -0.6573  1.1612
  552MPD2    H3 8195   4.410   1.286  14.134  1.0901 -0.8028  2.3222
  552MPD2     N 8196   0.114   1.399  14.276 -0.3060  0.2653  0.5434
  552MPD2    H5 8197   0.092   1.377  14.372  0.2218  2.0063  1.0635
  552MPD2    N1 8198   4.678   1.481  13.817 -0.3598 -0.3627 -0.1487
  552MPD2    H7 8199   0.049   1.509  13.789  0.2136 -2.4716 -0.3488
  553TMC3    C1 8200   4.649   1.619  13.633 -0.1964  0.3369  0.1158
  553TMC3    C2 8201   4.645   1.590  13.502 -0.3188  0.2903  0.2461
  553TMC3    C3 8202   0.024   1.662  13.437  0.1239 -0.4911 -0.7294
  553TMC3    C4 8203   0.026   1.689  13.698  0.0120  0.6507 -0.0657
  553TMC3    C5 8204   0.133   1.734  13.632  0.0595 -0.1406  0.0847
  553TMC3    C6 8205   0.128   1.725  13.499  0.4008  0.0626 -0.8242
  553TMC3     C 8206   4.589   1.518  13.723  0.0616  0.4176 -0.4281
  553TMC3     O 8207   4.471   1.486  13.697 -0.4526  0.4347 -0.8501
  553TMC3     H 8208   4.565   1.541  13.448 -0.1876  0.6569 -0.2802
  553TMC3    H1 8209   0.025   1.719  13.802 -1.1360  1.4351 -0.3013
  553TMC3    H2 8210   0.203   1.787  13.451  1.3612 -0.4453  0.0232
  553TMC3    C7 8211   0.259   1.751  13.695  0.0293  0.1491 -0.4659
  553TMC3    C8 8212   0.039   1.660  13.294 -0.8782 -0.0948  0.0484
  553TMC3    O1 8213   0.349   1.770  13.615 -0.4040  0.2777  0.1188
  553TMC3    O2 8214   0.132   1.719  13.250 -0.3928 -0.6068 -0.0373
  554TMC3    C1 8215   2.227   1.416  11.727  0.4487 -0.4150  0.3785
  554TMC3    C2 8216   2.113   1.343  11.708  0.2740 -0.0286  0.0186
  554TMC3    C3 8217   2.034   1.373  11.602  0.0895 -0.4169  0.9367
  554TMC3    C4 8218   2.271   1.502  11.626 -0.2381 -0.0872 -0.8589
  554TMC3    C5 8219   2.199   1.510  11.508 -0.2224 -0.2351  0.1395
  554TMC3    C6 8220   2.079   1.451  11.499 -0.0928  0.1095  1.0213
  554TMC3     C 8221   2.316   1.398  11.844  0.0504  0.3654  0.3859
  554TMC3     O 8222   2.426   1.453  11.848 -0.0271  0.0370 -0.3053
  554TMC3     H 8223   2.081   1.275  11.786  0.2443  1.2855  1.1529
  554TMC3    H1 8224   2.370   1.546  11.624 -0.7364  1.1581  1.5915
  554TMC3    H2 8225   2.025   1.469  11.407  1.0931  0.6675  0.4382
  554TMC3    C7 8226   2.273   1.506  11.380 -0.3614  0.7490  0.1525
  554TMC3    C8 8227   1.945   1.275  11.541  0.2531  0.5393 -0.3495
  554TMC3    O1 8228   2.228   1.444  11.284 -0.0670  0.3264 -0.1116
  554TMC3    O2 8229   1.881   1.313  11.445 -0.1388 -0.2117  0.3251
  555TMC3    C1 8230   1.040   4.656  14.765  0.3976  0.1169  0.3352
  555TMC3    C2 8231   1.044   0.038  14.852 -0.1512  0.7285 -0.5123
  555TMC3    C3 8232   1.051   0.020  14.983  0.0404  0.0721 -0.6573
  555TMC3    C4 8233   1.025   4.528  14.816 -0.3662 -0.5010  0.3394
  555TMC3    C5 8234   1.029   4.509  14.953 -0.3972  0.8372 -0.2191
  555TMC3    C6 8235   1.046   4.616  15.042 -0.6978 -0.3543  0.7243
  555TMC3     C 8236   1.074   4.680  14.621 -0.7615  0.2019 -0.6224
  555TMC3     O 8237   1.110   4.579  14.552 -0.4468 -0.0412  0.1839
  555TMC3     H 8238   1.061   0.139  14.815  0.9196  0.5463 -0.5368
  555TMC3    H1 8239   1.007   4.443  14.751  0.5468  0.0726 -0.6692
  555TMC3    H2 8240   1.052   4.585  15.146  1.6897  0.1501  0.7460
  555TMC3    C7 8241   0.969   4.389  15.012  0.3610  0.4553  0.3672
  555TMC3    C8 8242   1.026   0.132  15.074 -0.2868 -0.1873 -1.3263
  555TMC3    O1 8243   0.881   4.418  15.094  0.6377  0.6007  0.0318
  555TMC3    O2 8244   0.996   0.233  15.013 -0.5676  0.4434  0.2017
  556MPD2     C 8245   4.361   2.693  10.402  0.3924  0.1315 -0.0171
  556MPD2    C1 8246   4.330   2.601  10.493  0.4979 -0.3045  0.4043
  556MPD2    C2 8247   4.302   2.474  10.448  0.4309  0.2540  0.3071
  556MPD2    C3 8248   4.314   2.430  10.315 -0.0987  0.2217 -0.3662
  556MPD2    C4 8249   4.344   2.523  10.224  0.2061 -0.9532  0.2730
  556MPD2    C5 8250   4.367   2.653  10.270 -0.0345 -0.0744 -0.4146
  556MPD2     H 8251   4.279   2.393  10.516  0.3723 -1.7430 -2.0886
  556MPD2    H1 8252   4.344   2.503  10.118  1.9815 -2.6911  0.6183
  556MPD2    H2 8253   4.396   2.791  10.433  2.0301 -0.6531  0.6035
  556MPD2    H3 8254   4.398   2.731  10.201  1.2387 -0.4776 -0.2979
  556MPD2     N 8255   4.281   2.291  10.291 -0.9967  0.7824 -0.1649
  556MPD2    H5 8256   4.254   2.233  10.370  2.1435 -0.1706  0.2174
  556MPD2    N1 8257   4.340   2.621  10.632 -0.5489  0.2085  0.3604
  556MPD2    H7 8258   4.316   2.541  10.691  2.3383 -0.5378  0.5134
  557TMC3    C1 8259   4.224   2.101  10.164  0.0881 -0.2366  0.3828
  557TMC3    C2 8260   4.183   2.054  10.040 -0.9852 -0.7951 -0.1448
  557TMC3    C3 8261   4.111   1.944  10.015 -0.1466  0.1508 -0.2196
  557TMC3    C4 8262   4.160   2.040  10.275  0.5582  0.7266 -0.1406
  557TMC3    C5 8263   4.072   1.940  10.249  0.2286 -0.3724 -0.1803
  557TMC3    C6 8264   4.050   1.884  10.124 -0.0620  0.0164  0.4284
  557TMC3     C 8265   4.297   2.221  10.168  0.5545  0.5543  0.3934
  557TMC3     O 8266   4.349   2.266  10.068  0.2139 -0.0513  0.0069
  557TMC3     H 8267   4.235   2.096   9.954  0.8989  0.3775  1.5535
  557TMC3    H1 8268   4.189   2.065  10.376 -0.8827 -0.8763  0.6590
  557TMC3    H2 8269   3.973   1.808  10.115 -0.7348  0.8195 -0.5902
  557TMC3    C7 8270   3.991   1.888  10.359 -0.5919 -0.4022  0.6119
  557TMC3    C8 8271   4.058   1.930   9.880 -0.1936  0.6365 -0.3385
  557TMC3    O1 8272   3.891   1.820  10.331 -0.8536 -0.1210 -0.4075
  557TMC3    O2 8273   4.091   2.012   9.796 -0.7727 -0.0159  0.1817
  558TMC3    C1 8274   2.896   4.698   9.262 -0.0239  0.1847 -0.1583
  558TMC3    C2 8275   2.909   0.111   9.270  0.5055  0.2877  0.1136
  558TMC3    C3 8276   2.808   0.186   9.226  1.0134 -0.7046 -0.1517
  558TMC3    C4 8277   2.778   4.635   9.224 -0.2020  0.4003 -0.1756
  558TMC3    C5 8278   2.677   4.716   9.177  0.0649  0.0866 -0.9981
  558TMC3    C6 8279   2.687   0.130   9.183 -0.1718 -0.7335  0.6492
  558TMC3     C 8280   2.954   4.645   9.390  1.0381 -0.0636 -0.2719
  558TMC3     O 8281   2.961   0.004   9.477 -0.1189  0.1866 -0.0837
  558TMC3     H 8282   3.003   0.145   9.311  0.9074  0.4935 -0.9836
  558TMC3    H1 8283   2.793   4.532   9.194 -1.8724 -0.4215  1.8296
  558TMC3    H2 8284   2.608   0.199   9.155  0.8732  0.5546  0.8711
  558TMC3    C7 8285   2.604   4.672   9.058 -0.2615 -0.0361  0.3438
  558TMC3    C8 8286   2.778   0.297   9.318  0.3662  0.5305  0.1007
  558TMC3    O1 8287   2.560   0.034   8.986  0.6530  0.0585  0.0992
  558TMC3    O2 8288   2.692   0.377   9.283 -0.4909  0.6497  0.1776
  559MPD2     C 8289   1.573   0.005  10.976  0.2183  0.8839  0.1842
  559MPD2    C1 8290   1.591   0.134  10.963  0.8759 -0.3605 -0.1683
  559MPD2    C2 8291   1.714   0.187  10.943  1.1383 -0.4417 -0.3572
  559MPD2    C3 8292   1.828   0.107  10.952 -0.6325 -0.3501  0.3741
  559MPD2    C4 8293   1.805   4.693  10.976  0.6901  0.0869 -0.3240
  559MPD2    C5 8294   1.680   4.644  10.983 -0.6430 -0.5550 -0.7500
  559MPD2     H 8295   1.729   0.292  10.924 -0.2433 -0.1351  0.2958
  559MPD2    H1 8296   1.893   4.632  10.990  1.3597  1.2803  0.7098
  559MPD2    H2 8297   1.471   4.691  10.967  0.0724  1.3754 -0.1138
  559MPD2    H3 8298   1.671   4.538  11.006 -1.0482 -0.2607  0.4509
  559MPD2     N 8299   1.964   0.161  10.946  0.4410  0.4321 -0.9120
  559MPD2    H5 8300   1.974   0.261  10.932 -1.4806  0.4477 -2.1047
  559MPD2    N1 8301   1.468   0.210  10.945 -0.2658 -0.1571  0.4925
  559MPD2    H7 8302   1.376   0.168  10.952 -1.5000  1.8561 -3.1642
  560TMC3    C1 8303   2.200   0.163  10.932 -0.1727 -0.1775  0.2481
  560TMC3    C2 8304   2.300   0.095  10.861  0.4996 -0.1255 -0.0495
  560TMC3    C3 8305   2.425   0.135  10.888 -0.2073 -0.8828 -0.5904
  560TMC3    C4 8306   2.220   0.257  11.029 -0.0894  0.2931  0.5587
  560TMC3    C5 8307   2.348   0.290  11.049 -0.2680 -0.2386  0.4680
  560TMC3    C6 8308   2.455   0.236  10.979  0.2869 -0.3009  0.0306
  560TMC3     C 8309   2.076   0.086  10.933  0.3060  0.1127  0.5755
  560TMC3     O 8310   2.092   4.689  10.911  0.0697 -0.1762 -0.2545
  560TMC3     H 8311   2.284   0.002  10.808 -1.7617 -0.7008  1.6184
  560TMC3    H1 8312   2.142   0.294  11.095  0.2577  0.8969  0.6297
  560TMC3    H2 8313   2.555   0.246  11.021  0.3745 -0.2029 -0.1990
  560TMC3    C7 8314   2.374   0.384  11.159 -0.9011 -0.0214 -0.4550
  560TMC3    C8 8315   2.525   0.065  10.824  0.5505 -0.0855  0.3682
  560TMC3    O1 8316   2.281   0.400  11.241 -0.4806  0.1297 -0.2007
  560TMC3    O2 8317   2.486   0.006  10.722  0.8565 -0.4053 -0.3039
  561TMC3    C1 8318   4.319   4.211  11.261  0.4209  0.4765 -0.3305
  561TMC3    C2 8319   4.325   4.163  11.392  0.2750 -0.3390  0.6829
  561TMC3    C3 8320   4.286   4.253  11.490  0.3927 -0.3703  0.3751
  561TMC3    C4 8321   4.276   4.334  11.224 -0.5642  0.1854 -0.1796
  561TMC3    C5 8322   4.244   4.410  11.327 -0.5602 -0.4803  0.4655
  561TMC3    C6 8323   4.237   4.373  11.457 -0.1289 -0.3295 -0.4199
  561TMC3     C 8324   4.314   4.107  11.159 -0.3291 -0.1649  0.2887
  561TMC3     O 8325   4.278   3.997  11.199  0.2857 -0.0861 -0.4148
  561TMC3     H 8326   4.381   4.071  11.407 -0.0508 -0.4032  1.5202
  561TMC3    H1 8327   4.254   4.362  11.122  1.6190 -0.5933 -0.8644
  561TMC3    H2 8328   4.213   4.436  11.542  0.1447 -0.7977  0.0101
  561TMC3    C7 8329   4.217   4.548  11.297 -0.3512  0.3700 -0.5273
  561TMC3    C8 8330   4.294   4.197  11.626 -0.3180 -0.2294  0.0456
  561TMC3    O1 8331   4.143   4.606  11.377  0.1410 -0.1290  0.1955
  561TMC3    O2 8332   4.351   4.088  11.637  0.3053  0.1178  0.0680
  562TMC3    C1 8333   0.616   0.382  16.292  0.2326  0.3526  0.8423
  562TMC3    C2 8334   0.574   0.514  16.275 -0.6903  0.2790 -0.3696
  562TMC3    C3 8335   0.542   0.555  16.150 -0.2051 -0.4946 -0.8709
  562TMC3    C4 8336   0.636   0.298  16.184  0.3277 -0.6063  0.4521
  562TMC3    C5 8337   0.596   0.352  16.060  0.4161 -0.2902  0.6589
  562TMC3    C6 8338   0.554   0.481  16.042  0.0693 -0.1399 -0.6256
  562TMC3     C 8339   0.652   0.345  16.424  0.5120  0.0582 -0.7195
  562TMC3     O 8340   0.649   0.438  16.507 -0.6412  0.5789 -0.1126
  562TMC3     H 8341   0.556   0.579  16.360 -1.2058  1.0187 -1.0465
  562TMC3    H1 8342   0.681   0.200  16.192 -0.7609 -1.2175 -0.8754
  562TMC3    H2 8343   0.513   0.512  15.946 -0.3106  0.2686 -0.3316
  562TMC3    C7 8344   0.596   0.274  15.936 -0.3823  0.6993 -0.1957
  562TMC3    C8 8345   0.427   0.649  16.152  0.1957  0.3254  0.7133
  562TMC3    O1 8346   0.600   0.336  15.827 -0.0625 -0.3128  0.3890
  562TMC3    O2 8347   0.348   0.636  16.243  0.2643  0.6131 -0.6314
  563MPD2     C 8348   3.091   1.658  15.454  0.4572 -0.1586 -0.1873
  563MPD2    C1 8349   3.066   1.720  15.576 -0.5933 -0.2068  0.0921
  563MPD2    C2 8350   3.169   1.734  15.663  0.9287  1.0661  0.2908
  563MPD2    C3 8351   3.298   1.705  15.630  0.1393  0.8237  0.8802
  563MPD2    C4 8352   3.320   1.636  15.513  0.2301  0.4909  0.9189
  563MPD2    C5 8353   3.216   1.614  15.426 -0.1363 -0.5332  0.7245
  563MPD2     H 8354   3.154   1.782  15.759  0.4881 -0.3444  0.9339
  563MPD2    H1 8355   3.421   1.625  15.477 -0.5530  0.4681 -1.2903
  563MPD2    H2 8356   3.018   1.626  15.380 -0.5527 -0.6550  1.0269
  563MPD2    H3 8357   3.237   1.562  15.332 -2.1749 -0.8549  0.4417
  563MPD2     N 8358   3.403   1.723  15.731 -0.0580 -0.4367 -0.3070
  563MPD2    H5 8359   3.365   1.751  15.820 -0.6288 -2.0962 -0.0407
  563MPD2    N1 8360   2.934   1.772  15.610 -0.6264 -0.2526  0.1534
  563MPD2    H7 8361   2.920   1.822  15.698 -0.0241  1.0130 -0.4772
  564TMC3    C1 8362   2.700   1.813  15.590 -1.1573  0.5382  0.2698
  564TMC3    C2 8363   2.592   1.735  15.578 -0.5432 -0.3596  1.0963
  564TMC3    C3 8364   2.495   1.744  15.671 -1.1161 -0.1048 -0.2133
  564TMC3    C4 8365   2.716   1.897  15.701 -1.0340  0.0956  0.2189
  564TMC3    C5 8366   2.620   1.898  15.802  0.5213 -0.1239  0.5840
  564TMC3    C6 8367   2.510   1.823  15.780  0.1008  0.2888 -0.5179
  564TMC3     C 8368   2.823   1.772  15.530 -0.2790 -0.2968 -0.2941
  564TMC3     O 8369   2.812   1.728  15.415  0.2816  0.0073 -0.3936
  564TMC3     H 8370   2.582   1.652  15.509  1.0494 -0.6213  1.1742
  564TMC3    H1 8371   2.797   1.969  15.693 -0.1618 -1.0334 -1.0899
  564TMC3    H2 8372   2.418   1.840  15.834  0.4917  1.2506 -0.1398
  564TMC3    C7 8373   2.665   1.900  15.933  0.0782 -0.3709 -0.3999
  564TMC3    C8 8374   2.409   1.635  15.701  0.1200  0.1318 -1.1917
  564TMC3    O1 8375   2.769   1.962  15.948 -0.2102 -0.2721 -0.2634
  564TMC3    O2 8376   2.397   1.627  15.820 -0.9342  0.2207 -0.6791
  565TMC3    C1 8377   4.585   2.366   9.635 -0.5757  1.0341 -0.7036
  565TMC3    C2 8378   4.488   2.439   9.684  0.9257 -0.1168 -0.5522
  565TMC3    C3 8379   4.383   2.368   9.722 -0.6873  0.4270  0.3079
  565TMC3    C4 8380   4.597   2.230   9.644 -0.3211  0.4369 -1.1501
  565TMC3    C5 8381   4.486   2.162   9.675  0.5305  0.6906  0.6649
  565TMC3    C6 8382   4.376   2.231   9.709 -0.4616  0.0227  0.3065
  565TMC3     C 8383   4.677   2.437   9.539 -0.2567 -0.2852 -0.3169
  565TMC3     O 8384   4.678   2.562   9.528  0.0353  0.0661 -0.7182
  565TMC3     H 8385   4.503   2.546   9.691  2.6180 -0.4305  0.7859
  565TMC3    H1 8386   4.689   2.172   9.641 -1.2244 -1.2154  3.1286
  565TMC3    H2 8387   4.317   2.169   9.776  0.5878 -2.4747 -1.0907
  565TMC3    C7 8388   4.490   2.028   9.729  0.4897  1.3804 -0.8965
  565TMC3    C8 8389   4.293   2.435   9.811 -0.5671  0.3766  0.7195
  565TMC3    O1 8390   4.589   1.992   9.790 -0.4030  0.3757 -0.2270
  565TMC3    O2 8391   4.327   2.533   9.873 -0.3088 -0.8133 -0.4827
  566MPD2     C 8392   0.392   0.568  14.477  0.5039 -0.0961  0.4145
  566MPD2    C1 8393   0.434   0.555  14.347  0.4493  0.2815 -0.6018
  566MPD2    C2 8394   0.354   0.606  14.246  0.3801  0.1121 -0.2089
  566MPD2    C3 8395   0.227   0.642  14.269 -0.1148  0.1667  0.1350
  566MPD2    C4 8396   0.181   0.628  14.398  0.2394  0.2631  0.2272
  566MPD2    C5 8397   0.263   0.598  14.497 -0.1221  0.2309  0.8353
  566MPD2     H 8398   0.387   0.588  14.144  0.9310 -0.7079  0.1106
  566MPD2    H1 8399   0.073   0.633  14.413 -0.0629 -4.4634 -0.1781
  566MPD2    H2 8400   0.457   0.536  14.558 -0.5931 -0.2641  1.2239
  566MPD2    H3 8401   0.226   0.599  14.599  0.3189  2.3131  0.9597
  566MPD2     N 8402   0.138   0.659  14.158  0.3220  0.0500 -0.3153
  566MPD2    H5 8403   0.038   0.647  14.169  0.8416 -0.8892  3.2257
  566MPD2    N1 8404   0.552   0.485  14.325 -0.2269  0.0098 -0.1390
  566MPD2    H7 8405   0.593   0.453  14.412 -1.4732  1.2058  0.8931
  567TMC3    C1 8406   0.703   0.353  14.195  0.0322 -0.5203  0.7384
  567TMC3    C2 8407   0.773   0.340  14.074 -0.0447 -0.2826 -0.4466
  567TMC3    C3 8408   0.818   0.219  14.035 -0.5527  0.1503 -0.0647
  567TMC3    C4 8409   0.703   0.243  14.287  0.0262  0.6849  0.1187
  567TMC3    C5 8410   0.751   0.127  14.240  0.6725 -0.7188 -0.2058
  567TMC3    C6 8411   0.817   0.111  14.121  0.0186  0.1097 -0.5262
  567TMC3     C 8412   0.598   0.453  14.200 -0.2478  0.0803 -0.0588
  567TMC3     O 8413   0.559   0.491  14.090 -0.4441  0.6301  0.2750
  567TMC3     H 8414   0.768   0.427  14.010 -1.0985 -1.6644 -2.2476
  567TMC3    H1 8415   0.643   0.257  14.376 -0.0863  1.3865 -0.0676
  567TMC3    H2 8416   0.860   0.015  14.093  2.3719  0.2841  2.5194
  567TMC3    C7 8417   0.731   0.008  14.322  0.4553  0.3699 -0.2303
  567TMC3    C8 8418   0.858   0.204  13.897 -0.9857 -0.2342 -0.0399
  567TMC3    O1 8419   0.811   4.639  14.312 -0.0057  0.4030  0.6225
  567TMC3    O2 8420   0.848   0.306  13.831  0.1605 -0.1820 -0.2324
  568MPD2     C 8421   2.693   0.517  16.296 -0.4157 -0.2346  0.2164
  568MPD2    C1 8422   2.635   0.584  16.405 -0.0871 -0.1371  0.1041
  568MPD2    C2 8423   2.551   0.691  16.371 -0.0513 -0.1574  0.0789
  568MPD2    C3 8424   2.512   0.713  16.234  0.3637 -0.3828  0.2456
  568MPD2    C4 8425   2.573   0.637  16.134  0.5239 -0.1242  0.0678
  568MPD2    C5 8426   2.663   0.546  16.166 -0.3025 -1.0180  0.6472
  568MPD2     H 8427   2.501   0.749  16.448 -0.1791  0.7662 -0.7090
  568MPD2    H1 8428   2.533   0.648  16.034 -1.3818 -0.6244  0.7713
  568MPD2    H2 8429   2.767   0.440  16.311 -2.0141 -2.0456 -1.2806
  568MPD2    H3 8430   2.710   0.494  16.083  0.5234 -2.8044  2.2378
  568MPD2     N 8431   2.408   0.807  16.207 -0.4813 -0.2898  0.2641
  568MPD2    H5 8432   2.355   0.846  16.285 -0.9016 -0.2493 -0.0445
  568MPD2    N1 8433   2.667   0.539  16.538  0.1858  0.0528  0.4264
  568MPD2    H7 8434   2.723   0.455  16.547  0.5316  0.3108  0.6759
  569TMC3    C1 8435   2.245   0.926  16.088  0.4838 -0.0481  0.8399
  569TMC3    C2 8436   2.211   0.996  16.198  0.4806 -0.4045 -0.5617
  569TMC3    C3 8437   2.123   1.100  16.182 -0.6048 -1.1090  0.9590
  569TMC3    C4 8438   2.185   0.958  15.969 -0.9393 -0.8885 -0.3575
  569TMC3    C5 8439   2.092   1.052  15.962 -0.9845  0.0127 -0.0247
  569TMC3    C6 8440   2.066   1.133  16.067  0.0633  0.2603 -0.7453
  569TMC3     C 8441   2.358   0.834  16.083 -0.2144 -0.1414 -0.2748
  569TMC3     O 8442   2.387   0.785  15.978 -0.6962 -0.5173  0.5756
  569TMC3     H 8443   2.242   0.970  16.299 -0.7832 -1.0380 -0.3324
  569TMC3    H1 8444   2.206   0.898  15.881 -1.3024 -0.6333 -0.6185
  569TMC3    H2 8445   2.005   1.222  16.068 -1.1030 -0.5730  2.7537
  569TMC3    C7 8446   2.061   1.107  15.832 -0.3182  0.0715  0.3704
  569TMC3    C8 8447   2.106   1.200  16.284  0.1145  0.2407 -0.2091
  569TMC3    O1 8448   2.018   1.033  15.742  0.0851  0.1000  0.4268
  569TMC3    O2 8449   1.999   1.238  16.320  0.7032  0.4574 -0.3219
  570TMC3    C1 8450   2.273   4.518  16.428 -0.3452  0.0497  0.1455
  570TMC3    C2 8451   2.366   4.534  16.320 -0.0127  0.4398  0.6922
  570TMC3    C3 8452   2.332   4.630  16.230 -0.2818 -0.7235  0.7164
  570TMC3    C4 8453   2.175   4.613  16.448  0.8732  0.5416 -0.0559
  570TMC3    C5 8454   2.163   4.718  16.359  0.4022  0.3105 -0.2682
  570TMC3    C6 8455   2.246   0.010  16.252  0.7680  0.0521  0.1756
  570TMC3     C 8456   2.293   4.406  16.511  0.3728 -0.4370  0.4591
  570TMC3     O 8457   2.364   4.316  16.470  0.2805  0.6189  0.1924
  570TMC3     H 8458   2.450   4.469  16.299 -0.7955  0.0054 -1.0742
  570TMC3    H1 8459   2.099   4.598  16.525 -0.3421  0.4163 -1.2803
  570TMC3    H2 8460   2.230   0.087  16.177 -1.3930  0.4870  1.0749
  570TMC3    C7 8461   2.125   0.114  16.423 -0.9928  0.3507  1.0218
  570TMC3    C8 8462   2.389   4.641  16.101  0.4879  0.1599 -0.4905
  570TMC3    O1 8463   2.118   0.122  16.544 -0.1186  0.0790 -0.0918
  570TMC3    O2 8464   2.385   0.025  16.039 -0.1608  0.2592  0.1725
  571MPD2     C 8465   4.224   1.261  17.372  0.7934  0.0297 -0.0093
  571MPD2    C1 8466   4.334   1.184  17.399  0.5776 -0.4410 -0.1194
  571MPD2    C2 8467   4.367   1.186  17.535 -0.0682  0.2069 -0.0319
  571MPD2    C3 8468   4.290   1.253  17.630  0.1814 -0.1693 -0.2177
  571MPD2    C4 8469   4.184   1.328  17.594  0.2490  0.1790 -0.2905
  571MPD2    C5 8470   4.146   1.320  17.466 -0.1604 -0.8301 -0.0394
  571MPD2     H 8471   4.450   1.121  17.562  0.6602  0.9936 -0.3759
  571MPD2    H1 8472   4.123   1.384  17.664 -0.6683 -0.9050 -0.2269
  571MPD2    H2 8473   4.187   1.263  17.270 -0.1979 -0.3045  0.3420
  571MPD2    H3 8474   4.069   1.390  17.436 -0.4320 -1.4785 -0.8476
  571MPD2     N 8475   4.308   1.236   0.082  0.6188  0.1706  0.1884
  571MPD2    H5 8476   4.253   1.298   0.141 -3.1323 -1.3837 -1.6388
  571MPD2    N1 8477   4.412   1.136  17.292  0.4252  0.3903 -0.4806
  571MPD2    H7 8478   4.381   1.168  17.201  2.0779  2.0992 -0.4463
  572TMC3    C1 8479   4.429   1.220   0.277  0.0395  0.5270  0.5880
  572TMC3    C2 8480   4.505   1.150   0.361 -0.5880 -0.3201 -0.4918
  572TMC3    C3 8481   4.571   1.216   0.457 -0.2864 -0.2676  0.7808
  572TMC3    C4 8482   4.438   1.362   0.269  0.1699  0.0711 -0.0050
  572TMC3    C5 8483   4.516   1.429   0.367  1.2884 -0.1641  0.1681
  572TMC3    C6 8484   4.575   1.350   0.464 -0.8424 -0.0550 -0.1513
  572TMC3     C 8485   4.390   1.154   0.156  0.5705  0.0262  0.4956
  572TMC3     O 8486   4.478   1.074   0.118 -0.1813  0.1298  0.3937
  572TMC3     H 8487   4.491   1.043   0.373  2.3294 -1.0932 -3.8320
  572TMC3    H1 8488   4.393   1.422   0.191 -1.8251 -1.4808 -0.0410
  572TMC3    H2 8489   4.623   1.399   0.547 -2.5454 -0.4853  1.0884
  572TMC3    C7 8490   4.597   1.539   0.322  0.3634  0.4677 -0.0445
  572TMC3    C8 8491   4.633   1.145   0.567  0.0969  0.5119  0.1946
  572TMC3    O1 8492   4.547   1.596   0.228  0.1942  0.5223 -0.0464
  572TMC3    O2 8493   4.655   1.215   0.669  0.1342  0.4542 -0.7482
  573MPD2     C 8494   1.965   2.231   1.248  0.1350 -0.3180  0.8567
  573MPD2    C1 8495   1.831   2.191   1.261  0.2502 -0.0190  0.1777
  573MPD2    C2 8496   1.752   2.165   1.154 -0.0519 -0.4447  0.1072
  573MPD2    C3 8497   1.805   2.182   1.022  0.9074 -0.6827 -0.0539
  573MPD2    C4 8498   1.932   2.233   1.013  0.0599  0.5305 -0.0459
  573MPD2    C5 8499   2.009   2.264   1.119  0.6243 -0.3566 -0.2023
  573MPD2     H 8500   1.648   2.136   1.165  0.5550 -1.8861  2.1131
  573MPD2    H1 8501   1.976   2.232   0.914  0.4666 -0.5710  0.1343
  573MPD2    H2 8502   2.033   2.255   1.328  1.9662  0.2587 -0.8943
  573MPD2    H3 8503   2.114   2.289   1.119  0.8764 -1.4415 -1.0440
  573MPD2     N 8504   1.733   2.153   0.903  0.6093 -0.4930 -0.9775
  573MPD2    H5 8505   1.784   2.154   0.815  1.7263 -0.8814 -0.3416
  573MPD2    N1 8506   1.791   2.185   1.395  0.2714  0.4517  0.0668
  573MPD2    H7 8507   1.863   2.216   1.460  0.3552  0.1289  0.1278
  574TMC3    C1 8508   1.538   2.133   0.770 -0.3081  0.6669 -0.2065
  574TMC3    C2 8509   1.569   2.241   0.698 -0.3275 -0.1798  0.1429
  574TMC3    C3 8510   1.495   2.253   0.580 -0.2177 -0.6256  0.0787
  574TMC3    C4 8511   1.441   2.047   0.745  0.6001  0.1992 -0.3634
  574TMC3    C5 8512   1.375   2.054   0.628 -0.3526  0.3140 -0.1921
  574TMC3    C6 8513   1.403   2.154   0.543 -0.3554  0.4376 -0.6196
  574TMC3     C 8514   1.597   2.116   0.896  0.3546 -0.2201 -0.2433
  574TMC3     O 8515   1.534   2.058   0.981 -0.2472  0.1403 -0.1590
  574TMC3     H 8516   1.644   2.313   0.729 -0.4115 -0.5172  1.1323
  574TMC3    H1 8517   1.427   1.963   0.813 -0.9268  0.4854 -0.3309
  574TMC3    H2 8518   1.355   2.161   0.446  1.1087 -0.5343 -1.4235
  574TMC3    C7 8519   1.320   1.930   0.585  0.3927 -0.3402 -0.1388
  574TMC3    C8 8520   1.532   2.368   0.501  0.5192  0.1630  0.5594
  574TMC3    O1 8521   1.318   1.838   0.666  0.2874  0.4406 -0.6556
  574TMC3    O2 8522   1.632   2.436   0.526 -0.6866 -0.2741 -0.5697
  575TMC3    C1 8523   4.058   2.991  10.416 -0.0920  0.5238 -0.3573
  575TMC3    C2 8524   4.048   2.920  10.531 -0.0523 -0.4134 -0.0437
  575TMC3    C3 8525   4.004   2.789  10.527  0.8608  0.9270  0.3114
  575TMC3    C4 8526   4.036   2.923  10.289 -0.5786  0.0289  0.0871
  575TMC3    C5 8527   3.992   2.793  10.289  0.5826 -0.3104 -0.2829
  575TMC3    C6 8528   3.978   2.724  10.409  0.0470  0.7058 -0.4914
  575TMC3     C 8529   4.045   3.139  10.409  0.4571  0.6128 -0.3496
  575TMC3     O 8530   4.047   3.196  10.299 -0.1184  0.8307  0.4324
  575TMC3     H 8531   4.064   2.968  10.626  0.5555 -1.0303  0.1652
  575TMC3    H1 8532   4.045   2.983  10.199  0.9768 -0.6045 -0.1695
  575TMC3    H2 8533   3.959   2.618  10.395 -1.3647  0.8639  0.2315
  575TMC3    C7 8534   4.014   2.721  10.167  0.0527  0.2570 -0.3676
  575TMC3    C8 8535   3.989   2.718  10.652  0.0154  0.2998 -0.3185
  575TMC3    O1 8536   4.079   2.776  10.083 -0.2003 -0.0869  0.4568
  575TMC3    O2 8537   4.006   2.795  10.746 -0.3965  0.0861 -0.5579
  576MPD2     C 8538   3.302   4.377  12.712 -0.1541  0.7803 -0.2999
  576MPD2    C1 8539   3.415   4.453  12.692 -0.4256 -0.7703  0.0573
  576MPD2    C2 8540   3.463   4.542  12.791 -0.0274 -0.1741  0.0514
  576MPD2    C3 8541   3.406   4.544  12.920 -0.2207 -0.1434  0.0050
  576MPD2    C4 8542   3.290   4.476  12.939  0.0395  0.6597  0.8776
  576MPD2    C5 8543   3.247   4.385  12.841 -0.1857 -0.2577 -0.0319
  576MPD2     H 8544   3.554   4.597  12.769  0.1452 -1.0408 -1.3990
  576MPD2    H1 8545   3.240   4.465  13.035  0.4704 -0.0966  1.0179
  576MPD2    H2 8546   3.258   4.304  12.646  0.6950 -0.1822  0.1851
  576MPD2    H3 8547   3.163   4.324  12.871 -0.6723  1.8202  2.8321
  576MPD2     N 8548   3.447   4.635  13.014  0.4892  0.2070  0.5008
  576MPD2    H5 8549   3.506   4.709  12.975 -0.6989 -0.4479 -2.5370
  576MPD2    N1 8550   3.488   4.432  12.569  0.5576 -0.0756 -0.5968
  576MPD2    H7 8551   3.440   4.384  12.494 -0.7435  0.7496 -0.2826
  577TMC3    C1 8552   3.666   4.453  12.399  0.0717  0.2092  0.4430
  577TMC3    C2 8553   3.788   4.397  12.391 -0.8935  0.1017 -0.3161
  577TMC3    C3 8554   3.809   4.321  12.279 -0.3923  0.2857  0.5721
  577TMC3    C4 8555   3.579   4.452  12.302 -0.1010  0.5074  0.0207
  577TMC3    C5 8556   3.605   4.376  12.187 -0.0278 -0.7329  0.4801
  577TMC3    C6 8557   3.718   4.303  12.184  0.3053  0.0030 -0.4167
  577TMC3     C 8558   3.618   4.478  12.537 -0.0207 -1.0809 -0.8173
  577TMC3     O 8559   3.707   4.528  12.605 -0.3057 -0.0119 -0.1940
  577TMC3     H 8560   3.854   4.394  12.477 -0.5259  1.7538 -0.5413
  577TMC3    H1 8561   3.484   4.500  12.324  0.0753  0.1979  1.4421
  577TMC3    H2 8562   3.735   4.235  12.101  1.5917 -0.0056 -0.1410
  577TMC3    C7 8563   3.503   4.334  12.097 -0.0927 -0.3230 -0.4882
  577TMC3    C8 8564   3.935   4.265  12.255 -0.1166  0.3440 -1.3319
  577TMC3    O1 8565   3.520   4.231  12.032 -0.2286  0.0542  0.3113
  577TMC3    O2 8566   4.005   4.229  12.345 -0.1332  0.1118 -0.2984
  578MPD2     C 8567   2.047   0.348   0.927  0.2462  0.5297  0.4001
  578MPD2    C1 8568   2.110   0.260   0.838 -0.5790  0.5914 -0.5800
  578MPD2    C2 8569   2.197   0.166   0.895  0.8121  0.6751 -0.3661
  578MPD2    C3 8570   2.221   0.160   1.034  0.6609 -0.1082  0.3162
  578MPD2    C4 8571   2.164   0.251   1.116  0.7448 -0.6368 -0.0312
  578MPD2    C5 8572   2.071   0.334   1.058  0.2153 -0.3122  0.1053
  578MPD2     H 8573   2.241   0.093   0.829 -0.1798 -0.6547  0.4512
  578MPD2    H1 8574   2.186   0.255   1.223 -1.8361  1.8102  0.4059
  578MPD2    H2 8575   1.960   0.411   0.910 -0.6075 -0.3659  1.3837
  578MPD2    H3 8576   2.014   0.398   1.123 -0.5236 -0.2218 -0.6281
  578MPD2     N 8577   2.321   0.070   1.066  0.0181  0.2034 -0.1527
  578MPD2    H5 8578   2.368   0.024   0.989  1.5505 -1.0109  1.5091
  578MPD2    N1 8579   2.077   0.258   0.700  0.4431 -0.2483 -0.2059
  578MPD2    H7 8580   2.009   0.328   0.671 -0.0353 -0.7548 -0.2938
  579TMC3    C1 8581   2.468   4.665   1.196  0.2918 -0.1370 -0.3440
  579TMC3    C2 8582   2.574   4.711   1.127  0.0600 -0.9287 -0.6437
  579TMC3    C3 8583   2.695   4.659   1.159 -0.0651 -0.1297 -0.2833
  579TMC3    C4 8584   2.481   4.562   1.282 -0.5406  0.3175  0.3365
  579TMC3    C5 8585   2.609   4.516   1.314  0.2572 -0.2765 -0.3650
  579TMC3    C6 8586   2.724   4.562   1.248 -0.6289 -0.2145  0.1601
  579TMC3     C 8587   2.348   0.027   1.191 -0.1242 -0.2295 -0.6942
  579TMC3     O 8588   2.282   0.040   1.291 -0.0409 -0.0024 -0.0922
  579TMC3     H 8589   2.561   0.069   1.055 -2.1202 -0.4786  0.2312
  579TMC3    H1 8590   2.398   4.537   1.348 -0.2305  1.3517  1.1145
  579TMC3    H2 8591   2.825   4.524   1.261  0.3774  2.4836  0.3473
  579TMC3    C7 8592   2.622   4.395   1.388  0.6603 -0.2382 -0.0509
  579TMC3    C8 8593   2.794   4.696   1.066 -0.2562  0.3132 -0.4782
  579TMC3    O1 8594   2.738   4.364   1.414  0.5750 -0.4433 -0.2352
  579TMC3    O2 8595   2.767   4.709   0.945 -0.1738 -0.1697 -0.3713
  580TMC3    C1 8596   1.610   3.475  11.180  0.3759  0.6628  0.0893
  580TMC3    C2 8597   1.669   3.434  11.066 -0.2114  0.0828 -0.3978
  580TMC3    C3 8598   1.652   3.300  11.030  0.2707  0.5575  0.4513
  580TMC3    C4 8599   1.546   3.388  11.267 -0.6698  0.5046  0.2126
  580TMC3    C5 8600   1.539   3.253  11.238 -0.8820 -0.5976  0.1446
  580TMC3    C6 8601   1.594   3.212  11.120  1.0111  0.3436 -0.0895
  580TMC3     C 8602   1.640   3.608  11.219  0.6300 -0.3444  0.1608
  580TMC3     O 8603   1.666   3.682  11.125  0.1685  0.2914 -0.0029
  580TMC3     H 8604   1.705   3.511  10.998 -0.3288  0.1892 -0.3389
  580TMC3    H1 8605   1.509   3.427  11.361 -0.0821 -0.9125  1.0355
  580TMC3    H2 8606   1.562   3.113  11.092  1.4480  0.3337 -0.5517
  580TMC3    C7 8607   1.464   3.162  11.316  0.2139 -0.0426 -0.5449
  580TMC3    C8 8608   1.717   3.240  10.910  0.0958 -0.4313 -0.8826
  580TMC3    O1 8609   1.401   3.074  11.253  0.5978  0.2075  0.0204
  580TMC3    O2 8610   1.710   3.118  10.905  0.3771  0.3998 -0.3397
  581MPD2     C 8611   3.794   3.483  15.043  0.5964 -0.1316  0.0212
  581MPD2    C1 8612   3.685   3.448  15.109  0.2224 -0.0007  0.4246
  581MPD2    C2 8613   3.565   3.524  15.105 -0.7557  0.7420  0.1976
  581MPD2    C3 8614   3.552   3.634  15.026  0.0189 -0.2564 -0.4497
  581MPD2    C4 8615   3.669   3.669  14.957  0.0837  0.0608  0.0015
  581MPD2    C5 8616   3.781   3.584  14.954 -0.4252 -0.1901 -0.2538
  581MPD2     H 8617   3.488   3.488  15.172 -0.2942 -0.7501 -0.0633
  581MPD2    H1 8618   3.676   3.755  14.893  0.7104  0.9164  1.2264
  581MPD2    H2 8619   3.889   3.431  15.055  0.3229 -0.6392 -0.0198
  581MPD2    H3 8620   3.863   3.598  14.884 -1.8359  0.8110 -1.6978
  581MPD2     N 8621   3.437   3.714  15.036  0.2443  0.5590 -0.4910
  581MPD2    H5 8622   3.365   3.675  15.096 -0.4732  1.2002 -0.9367
  581MPD2    N1 8623   3.679   3.343  15.199 -0.0934  0.0763 -0.2343
  581MPD2    H7 8624   3.590   3.340  15.246  0.5698  1.8366  1.1272
  582TMC3    C1 8625   3.724   3.180  15.350 -0.5858  0.6082  0.5376
  582TMC3    C2 8626   3.806   3.192  15.459 -0.5085 -1.0163  0.0738
  582TMC3    C3 8627   3.749   3.177  15.586 -0.4600  0.1860 -0.0060
  582TMC3    C4 8628   3.588   3.182  15.366 -0.0120  0.2404  0.6786
  582TMC3    C5 8629   3.534   3.167  15.491 -0.2522 -0.3441 -0.1466
  582TMC3    C6 8630   3.611   3.178  15.605  0.2626  0.2578 -0.3497
  582TMC3     C 8631   3.774   3.263  15.239  0.1830  0.1950 -0.0681
  582TMC3     O 8632   3.894   3.279  15.219  0.1970  0.7237  0.3501
  582TMC3     H 8633   3.913   3.210  15.449 -0.8100  1.3171  1.0877
  582TMC3    H1 8634   3.517   3.194  15.285  0.8042 -0.6842 -0.1734
  582TMC3    H2 8635   3.567   3.156  15.701  2.8018  1.1983  1.0170
  582TMC3    C7 8636   3.422   3.256  15.489 -0.6077  0.2805 -0.2929
  582TMC3    C8 8637   3.823   3.180  15.717 -0.2110  1.0424  0.3874
  582TMC3    O1 8638   3.314   3.210  15.461 -0.1678  0.6421  0.1544
  582TMC3    O2 8639   3.758   3.198  15.817  0.1389  0.0679 -0.0467
  583MPD2     C 8640   4.220   0.048  16.647  0.0744  0.2610  0.0405
  583MPD2    C1 8641   4.159   0.151  16.579 -0.4501  0.0732  0.7692
  583MPD2    C2 8642   4.056   0.221  16.639 -0.0223  0.0680  0.5045
  583MPD2    C3 8643   4.011   0.181  16.769  0.8885 -0.1566  0.2458
  583MPD2    C4 8644   4.077   0.075  16.838  0.1274 -0.1886 -0.5223
  583MPD2    C5 8645   4.179   0.012  16.775 -0.2238 -0.2742  0.3910
  583MPD2     H 8646   4.020   0.309  16.586  0.7296  0.1991  0.2067
  583MPD2    H1 8647   4.040   0.024  16.926 -1.4440  0.7006 -0.6782
  583MPD2    H2 8648   4.308   0.012  16.597 -0.6370 -0.6754 -0.5412
  583MPD2    H3 8649   4.230   4.662  16.836  1.1723 -0.2205 -0.7217
  583MPD2     N 8650   3.910   0.257  16.838  0.6200  0.2034 -0.6652
  583MPD2    H5 8651   3.870   0.332  16.781 -1.2837 -1.6100 -1.7145
  583MPD2    N1 8652   4.197   0.190  16.449 -0.1125 -0.2935  0.1671
  583MPD2    H7 8653   4.178   0.285  16.419 -1.1259 -0.5872 -0.1239
  584TMC3    C1 8654   3.784   0.349  17.026  0.7365  0.4069 -0.3607
  584TMC3    C2 8655   3.737   0.448  16.945 -0.5698 -0.4453 -0.5449
  584TMC3    C3 8656   3.700   0.557  17.015  0.2057  0.0267  0.5540
  584TMC3    C4 8657   3.773   0.349  17.161 -0.6958 -0.0371  0.3180
  584TMC3    C5 8658   3.731   0.464  17.224 -1.0575  0.0909  0.0809
  584TMC3    C6 8659   3.685   0.573  17.151 -0.6634 -0.3996  0.2716
  584TMC3     C 8660   3.880   0.247  16.972 -0.4416  0.8266  0.3348
  584TMC3     O 8661   3.898   0.158  17.050 -0.1181  0.5419 -0.3592
  584TMC3     H 8662   3.746   0.455  16.838  3.6761  0.1096 -0.1529
  584TMC3    H1 8663   3.824   0.275  17.222  1.5439  2.8757  2.0477
  584TMC3    H2 8664   3.639   0.658  17.199 -3.9082 -2.1341  0.2798
  584TMC3    C7 8665   3.751   0.482  17.367  0.4049 -0.2564 -0.2494
  584TMC3    C8 8666   3.672   0.672  16.930 -0.0464 -0.2358  0.2182
  584TMC3    O1 8667   3.746   0.594  17.411 -0.2693 -0.2684 -0.2807
  584TMC3    O2 8668   3.668   0.666  16.808  0.1084 -0.6361  0.3172
  585MPD2     C 8669   3.801   4.172   0.865  0.5592 -0.1578  0.0834
  585MPD2    C1 8670   3.917   4.134   0.798  0.1646 -0.1561  0.4033
  585MPD2    C2 8671   3.907   4.081   0.670 -0.5034 -0.2303 -0.1447
  585MPD2    C3 8672   3.781   4.073   0.609  0.7901  0.1558  0.0180
  585MPD2    C4 8673   3.664   4.120   0.674  0.4842 -0.6109  0.7590
  585MPD2    C5 8674   3.676   4.174   0.799 -0.0493  0.1726 -0.0911
  585MPD2     H 8675   3.993   4.043   0.616 -2.1032  0.4280 -3.1177
  585MPD2    H1 8676   3.575   4.138   0.615  1.6261  2.0990 -0.1147
  585MPD2    H2 8677   3.813   4.216   0.963  2.3940  0.4310 -0.3997
  585MPD2    H3 8678   3.599   4.218   0.862  0.0502  1.0923 -0.5984
  585MPD2     N 8679   3.763   4.027   0.478  0.4374  0.7990 -0.0505
  585MPD2    H5 8680   3.673   4.035   0.432 -0.0599 -1.5404  0.5354
  585MPD2    N1 8681   4.039   4.161   0.864  0.8690 -0.4671  0.1703
  585MPD2    H7 8682   4.027   4.210   0.952 -3.1256  0.8491 -1.1051
  586TMC3    C1 8683   3.826   3.950   0.253  0.3265 -0.2539 -0.5004
  586TMC3    C2 8684   3.898   3.863   0.181  0.4396  0.0084  0.1753
  586TMC3    C3 8685   3.873   3.846   0.045 -0.6140 -0.3642  0.6204
  586TMC3    C4 8686   3.733   4.026   0.193 -0.0448  0.2631  0.2623
  586TMC3    C5 8687   3.695   3.997   0.064 -0.2499 -0.4663  0.0124
  586TMC3    C6 8688   3.775   3.919  17.678 -0.0498 -0.5883 -0.2974
  586TMC3     C 8689   3.858   3.964   0.399  0.5093  0.6933  0.2869
  586TMC3     O 8690   3.956   3.900   0.436  0.0439 -0.0002  0.0206
  586TMC3     H 8691   3.969   3.798   0.232 -0.6536 -1.4298 -0.1409
  586TMC3    H1 8692   3.658   4.074   0.255 -1.8850 -1.3622 -0.7234
  586TMC3    H2 8693   3.748   3.894  17.576 -0.6701 -2.3759  0.3033
  586TMC3    C7 8694   3.559   3.964   0.040 -0.1175 -0.0288  0.2009
  586TMC3    C8 8695   3.899   3.711  17.689  0.2122  0.3321 -0.5686
  586TMC3    O1 8696   3.543   3.863  17.666  0.1138 -0.5690 -0.5664
  586TMC3    O2 8697   3.905   3.619   0.077 -0.0258 -0.0824 -0.1574
  587TMC3    C1 8698   0.914   2.535  17.047  0.5760  0.3851  0.5663
  587TMC3    C2 8699   0.940   2.606  16.933  0.4405 -0.0932  0.0273
  587TMC3    C3 8700   1.074   2.632  16.905 -0.3123 -0.2605  0.3303
  587TMC3    C4 8701   1.012   2.513  17.134  0.4554  0.7226 -0.2031
  587TMC3    C5 8702   1.145   2.544  17.100 -0.3929 -0.4984 -0.1581
  587TMC3    C6 8703   1.179   2.602  16.982 -0.6935  0.3617  0.7817
  587TMC3     C 8704   0.789   2.459  17.061 -0.2946 -0.5992 -0.0171
  587TMC3     O 8705   0.809   2.358  17.131 -0.1680 -0.5570 -0.0677
  587TMC3     H 8706   0.868   2.627  16.855 -1.0930 -1.2004  1.1331
  587TMC3    H1 8707   0.983   2.469  17.229 -1.6166  0.5880 -0.8820
  587TMC3    H2 8708   1.280   2.617  16.946 -1.3052  0.3228 -0.9622
  587TMC3    C7 8709   1.246   2.515  17.203  1.0058  0.0581 -0.0561
  587TMC3    C8 8710   1.097   2.732  16.793  0.1450 -0.3955 -0.8346
  587TMC3    O1 8711   1.346   2.585  17.213  0.5620 -0.8464 -0.6330
  587TMC3    O2 8712   1.193   2.705  16.722  0.1671 -0.1645  0.3806
  588TMC3    C1 8713   3.975   0.179   9.806 -0.3331 -0.4168 -0.5044
  588TMC3    C2 8714   4.005   0.053   9.785 -0.1144  0.3105  0.5272
  588TMC3    C3 8715   4.096   4.720   9.878  0.4038 -0.4774  0.7826
  588TMC3    C4 8716   4.042   0.254   9.894  0.8905  0.4833  0.0052
  588TMC3    C5 8717   4.143   0.199   9.971  0.0370  0.7282  1.8674
  588TMC3    C6 8718   4.176   0.066   9.963 -0.3581 -1.5562  0.3191
  588TMC3     C 8719   3.863   0.239   9.740  0.1657 -0.2089  0.4853
  588TMC3     O 8720   3.774   0.170   9.685 -0.6650  0.1824 -0.6087
  588TMC3     H 8721   3.948   4.716   9.713  2.3371  1.1555 -2.0955
  588TMC3    H1 8722   3.990   0.340   9.934 -0.9828  0.0483 -1.4825
  588TMC3    H2 8723   4.264   0.028  10.013 -0.6323  1.7452  3.3298
  588TMC3    C7 8724   4.191   0.264  10.092  0.1658 -0.1246 -0.7875
  588TMC3    C8 8725   4.125   4.582   9.853 -0.1373 -0.5486 -0.1693
  588TMC3    O1 8726   4.232   0.199  10.186  0.5481  0.4802 -0.2553
  588TMC3    O2 8727   4.117   4.548   9.736  0.0469  0.0699 -0.6090
  589TMC3    C1 8728   2.019   2.778   1.769 -0.3291  0.0256  0.0718
  589TMC3    C2 8729   2.102   2.745   1.872  0.5799 -0.2655  0.3494
  589TMC3    C3 8730   2.226   2.698   1.844 -0.1564  0.2857 -0.6692
  589TMC3    C4 8731   2.050   2.748   1.635  0.4151 -0.3815  0.4903
  589TMC3    C5 8732   2.175   2.693   1.607 -0.0331  0.4039 -0.0444
  589TMC3    C6 8733   2.258   2.668   1.717  0.4739  0.1895  0.4548
  589TMC3     C 8734   1.914   2.872   1.791  0.4551  0.2927  0.9019
  589TMC3     O 8735   1.894   2.941   1.688 -0.4062 -0.1698 -0.0052
  589TMC3     H 8736   2.077   2.766   1.975 -1.2794  0.1147 -0.1789
  589TMC3    H1 8737   1.974   2.765   1.559 -1.3354 -2.1408  1.8457
  589TMC3    H2 8738   2.354   2.620   1.704  0.1814 -0.4140  0.4837
  589TMC3    C7 8739   2.232   2.641   1.480  0.2712 -0.4928 -0.2199
  589TMC3    C8 8740   2.319   2.673   1.954  0.0570  1.0727  0.2436
  589TMC3    O1 8741   2.347   2.601   1.490 -0.1011 -0.0112 -0.1562
  589TMC3    O2 8742   2.275   2.681   2.070 -0.2846 -0.1162 -0.1235
  590MPD2     C 8743   1.447   1.126  16.750 -0.2468  0.4725  0.2086
  590MPD2    C1 8744   1.419   1.086  16.617 -0.9577  0.0599 -0.7268
  590MPD2    C2 8745   1.485   1.158  16.511 -0.2702  0.3449  0.3228
  590MPD2    C3 8746   1.567   1.265  16.544 -0.3145  0.4704  0.2337
  590MPD2    C4 8747   1.587   1.302  16.677  0.6565  0.4572  0.0144
  590MPD2    C5 8748   1.526   1.230  16.779 -0.1796 -0.3780 -0.0498
  590MPD2     H 8749   1.481   1.121  16.409 -0.8424  4.4884 -1.1487
  590MPD2    H1 8750   1.654   1.384  16.699 -3.0105  3.7398 -1.1228
  590MPD2    H2 8751   1.392   1.071  16.826  1.9727 -1.5952  0.3051
  590MPD2    H3 8752   1.546   1.262  16.880  1.5013  0.2599 -0.5833
  590MPD2     N 8753   1.628   1.329  16.435 -0.0567  0.4249 -0.4235
  590MPD2    H5 8754   1.606   1.287  16.345  0.0030  1.1628 -0.7843
  590MPD2    N1 8755   1.334   0.973  16.596  0.1392 -0.1347 -0.3246
  590MPD2    H7 8756   1.290   0.931  16.677 -0.3959 -0.5084 -0.8089
  591TMC3    C1 8757   1.713   1.504  16.301  0.1203  0.0184 -0.4708
  591TMC3    C2 8758   1.743   1.409  16.203 -0.6591 -0.4240 -0.2124
  591TMC3    C3 8759   1.750   1.456  16.070 -0.6417  0.0353  0.0429
  591TMC3    C4 8760   1.675   1.636  16.270 -0.0287 -0.5438  0.6907
  591TMC3    C5 8761   1.681   1.677  16.140  0.2530  0.6590  0.5385
  591TMC3    C6 8762   1.717   1.587  16.040  0.5930 -0.0330 -0.9453
  591TMC3     C 8763   1.681   1.454  16.434 -0.0654  0.0860 -0.1252
  591TMC3     O 8764   1.685   1.536  16.524 -0.0493 -0.0184 -0.0460
  591TMC3     H 8765   1.761   1.305  16.230  0.3100  0.0378  0.9320
  591TMC3    H1 8766   1.662   1.711  16.348  0.1358 -0.2355  0.4200
  591TMC3    H2 8767   1.716   1.619  15.936  1.9386  1.7110 -0.4121
  591TMC3    C7 8768   1.646   1.815  16.107 -0.3081 -0.3051  0.0216
  591TMC3    C8 8769   1.734   1.354  15.967 -0.4425  0.7176 -0.4407
  591TMC3    O1 8770   1.547   1.865  16.151  0.2893 -0.1746  0.1422
  591TMC3    O2 8771   1.758   1.240  15.991 -0.3758  0.4485  0.2796
  592MPD2     C 8772   2.413   3.116  11.260  0.0131 -0.3152 -0.4829
  592MPD2    C1 8773   2.364   3.210  11.349 -0.0141 -0.9816  0.5340
  592MPD2    C2 8774   2.299   3.174  11.461 -0.1238  0.2718 -0.5292
  592MPD2    C3 8775   2.251   3.045  11.476  0.7291  0.6617 -0.0567
  592MPD2    C4 8776   2.291   2.948  11.378 -0.4602  0.2817  0.2201
  592MPD2    C5 8777   2.371   2.988  11.277  0.0139  0.4111  0.3885
  592MPD2     H 8778   2.295   3.247  11.541  1.9620 -0.0085 -0.1522
  592MPD2    H1 8779   2.281   2.842  11.397  0.6277 -0.0795 -1.1904
  592MPD2    H2 8780   2.480   3.133  11.176 -1.7139  0.5543 -1.6845
  592MPD2    H3 8781   2.398   2.907  11.210  1.8216 -1.1187  2.9853
  592MPD2     N 8782   2.188   3.017  11.596  0.1572 -0.2235  0.3181
  592MPD2    H5 8783   2.165   3.097  11.654 -0.1549 -0.0882  0.0073
  592MPD2    N1 8784   2.396   3.339  11.326 -0.1492 -0.1947  0.0960
  592MPD2    H7 8785   2.469   3.348  11.256 -1.2349  3.5587 -0.5545
  593TMC3    C1 8786   2.425   3.558  11.397 -0.4201 -0.0418  0.3560
  593TMC3    C2 8787   2.443   3.602  11.524 -0.0606  0.1575  0.1960
  593TMC3    C3 8788   2.566   3.614  11.575  0.3115  0.1951  0.8178
  593TMC3    C4 8789   2.532   3.556  11.307 -0.6282 -0.2485  0.5967
  593TMC3    C5 8790   2.650   3.599  11.364  0.4445 -0.3621  0.2824
  593TMC3    C6 8791   2.676   3.614  11.495 -0.1726  0.0929  0.1365
  593TMC3     C 8792   2.333   3.452  11.376  0.2940 -0.1685 -0.2327
  593TMC3     O 8793   2.230   3.460  11.443  0.4105  0.6771  0.8235
  593TMC3     H 8794   2.365   3.622  11.596 -0.6126 -0.0258 -0.3458
  593TMC3    H1 8795   2.517   3.532  11.203  2.2416 -1.2516  0.4203
  593TMC3    H2 8796   2.780   3.622  11.525  0.0880  0.1864 -0.7696
  593TMC3    C7 8797   2.763   3.626  11.278 -0.5873 -0.2347 -0.2468
  593TMC3    C8 8798   2.576   3.519  11.688  0.3759  0.7060 -0.6556
  593TMC3    O1 8799   2.879   3.635  11.325 -0.0161  0.2989  0.1448
  593TMC3    O2 8800   2.473   3.450  11.712  0.2677 -0.3825 -0.5392
  594MPD2     C 8801   0.844   1.538  14.089  0.1672 -0.1603  0.1466
  594MPD2    C1 8802   0.816   1.609  14.204  0.2043  0.5900  0.2361
  594MPD2    C2 8803   0.890   1.715  14.245  0.4540  1.1324 -0.6126
  594MPD2    C3 8804   1.006   1.748  14.181 -0.8019 -0.0293  0.5221
  594MPD2    C4 8805   1.043   1.677  14.066 -0.0013  0.1990  0.5054
  594MPD2    C5 8806   0.954   1.578  14.020 -0.3171 -0.2548  0.2284
  594MPD2     H 8807   0.863   1.779  14.328  1.5663  1.4596 -0.5063
  594MPD2    H1 8808   1.128   1.703  14.005 -1.6450  1.1226 -1.3963
  594MPD2    H2 8809   0.766   1.475  14.047 -1.1541  1.2912  0.4636
  594MPD2    H3 8810   0.985   1.527  13.929  1.8903  1.1085  0.2003
  594MPD2     N 8811   1.074   1.863  14.234 -0.3752  0.1650 -0.2173
  594MPD2    H5 8812   1.039   1.909  14.318 -0.4598 -0.3513  0.0313
  594MPD2    N1 8813   0.694   1.575  14.258  0.3425 -0.0528  0.1646
  594MPD2    H7 8814   0.637   1.496  14.230 -1.2259  0.6741  1.2853
  595TMC3    C1 8815   1.393   2.203  14.266  0.1589 -0.0370 -0.4332
  595TMC3    C2 8816   1.343   2.100  14.190 -0.3267 -0.1337 -0.4799
  595TMC3    C3 8817   1.212   2.059  14.219 -1.0853 -0.3801  0.2077
  595TMC3    C4 8818   1.320   2.264  14.362 -1.1713 -0.3670 -0.9601
  595TMC3    C5 8819   1.194   2.206  14.397 -0.4402 -0.0502  0.0152
  595TMC3    C6 8820   1.132   2.125  14.308  0.1643  0.1487 -0.0962
  595TMC3     C 8821   1.508   2.269  14.219  0.6652  0.2487 -0.7191
  595TMC3     O 8822   1.520   2.385  14.265 -0.0078  0.1061  0.4558
  595TMC3     H 8823   1.410   2.042  14.127 -0.1223 -1.2030  0.7228
  595TMC3    H1 8824   1.356   2.348  14.420 -3.4407 -1.1844  1.6562
  595TMC3    H2 8825   1.028   2.100  14.325  0.1427 -0.4226 -1.0843
  595TMC3    C7 8826   1.129   2.286  14.497 -0.3249 -0.2054  0.6676
  595TMC3    C8 8827   1.173   1.928  14.162 -0.8120  0.4409 -0.4861
  595TMC3    O1 8828   1.006   2.299  14.484 -0.0420 -0.6546 -0.1322
  595TMC3    O2 8829   1.236   1.893  14.059  0.2083 -0.7902  0.2245
  596MPD2     C 8830   0.367   0.135  16.379 -0.3155 -0.0502 -0.5172
  596MPD2    C1 8831   0.309   0.256  16.335 -0.1800  1.4439  0.4347
  596MPD2    C2 8832   0.285   0.274  16.199  0.5050 -0.2145 -0.3640
  596MPD2    C3 8833   0.296   0.175  16.109  0.3411 -0.3738 -0.5357
  596MPD2    C4 8834   0.354   0.056  16.154  0.8333  0.0338  0.3074
  596MPD2    C5 8835   0.397   0.042  16.286  0.1433 -0.1530 -0.0127
  596MPD2     H 8836   0.243   0.372  16.183 -0.1051 -0.1943  1.3505
  596MPD2    H1 8837   0.370   4.691  16.091 -0.2720  0.0418  0.0078
  596MPD2    H2 8838   0.391   0.114  16.483  1.0190  1.9424 -0.4306
  596MPD2    H3 8839   0.436   4.670  16.324 -0.3695 -0.5878 -0.5632
  596MPD2     N 8840   0.225   0.187  15.988  0.2404  0.2072 -0.1282
  596MPD2    H5 8841   0.232   0.108  15.926 -0.6064  0.0134  0.0269
  596MPD2    N1 8842   0.265   0.358  16.420  0.5276  0.6217 -0.7133
  596MPD2    H7 8843   0.240   0.449  16.383 -1.2575  0.4464  0.1064
  597TMC3    C1 8844   0.198   0.474  16.604 -0.4322  0.1742 -0.3453
  597TMC3    C2 8845   0.230   0.586  16.543  0.7854 -0.0807  0.1002
  597TMC3    C3 8846   0.162   0.705  16.570  0.3164 -0.7891  0.6761
  597TMC3    C4 8847   0.113   0.473  16.711  0.5336 -0.1271  0.1707
  597TMC3    C5 8848   0.040   0.588  16.732 -0.2550 -0.5790 -0.2442
  597TMC3    C6 8849   0.061   0.699  16.661  0.0937 -0.4421  0.0096
  597TMC3     C 8850   0.250   0.348  16.559  0.3987  0.4588  0.0169
  597TMC3     O 8851   0.269   0.254  16.637  0.2469 -0.0351  0.4442
  597TMC3     H 8852   0.324   0.596  16.490  1.4077  1.9625  1.5837
  597TMC3    H1 8853   0.079   0.381  16.758 -2.1352 -0.9290 -3.2823
  597TMC3    H2 8854   0.025   0.792  16.704  0.5005 -0.7541  1.0104
  597TMC3    C7 8855   4.666   0.593  16.847 -0.6946  0.4722 -0.2452
  597TMC3    C8 8856   0.217   0.837  16.538 -0.9589 -0.0462 -0.4428
  597TMC3    O1 8857   4.678   0.513  16.935 -0.4744  0.1043 -0.3681
  597TMC3    O2 8858   0.156   0.930  16.594 -0.4005  0.2308  0.9191
  598TMC3    C1 8859   2.659   1.408  15.413 -0.2260  0.3153  0.5454
  598TMC3    C2 8860   2.533   1.369  15.380  0.4316  0.6708 -0.2352
  598TMC3    C3 8861   2.495   1.394  15.249 -0.7255 -0.3521  0.5695
  598TMC3    C4 8862   2.753   1.451  15.321  0.2478 -0.2498 -0.0009
  598TMC3    C5 8863   2.708   1.460  15.188  0.2159  1.0080  0.2914
  598TMC3    C6 8864   2.579   1.429  15.145  0.2792 -1.0951 -0.3787
  598TMC3     C 8865   2.690   1.394  15.556 -0.2468  0.2930 -0.1372
  598TMC3     O 8866   2.602   1.410  15.637 -0.8796 -0.4989  0.0588
  598TMC3     H 8867   2.463   1.327  15.452  2.9493 -1.3526  1.0230
  598TMC3    H1 8868   2.857   1.456  15.351  0.4182  1.5785 -0.8856
  598TMC3    H2 8869   2.557   1.431  15.039 -1.5131  2.0856  0.0558
  598TMC3    C7 8870   2.807   1.494  15.100 -0.2554 -1.3307 -0.1515
  598TMC3    C8 8871   2.359   1.379  15.206 -0.0928  0.0672 -0.5447
  598TMC3    O1 8872   2.788   1.457  14.988  0.1104 -0.4864  0.2015
  598TMC3    O2 8873   2.335   1.451  15.111 -0.1550  0.2019  0.1044
  599MPD2     C 8874   3.560   4.090  16.357  0.6201  0.3067 -0.0009
  599MPD2    C1 8875   3.474   3.992  16.305 -0.1971 -0.2103  0.2075
  599MPD2    C2 8876   3.346   3.986  16.368 -0.0523 -0.7459  0.3231
  599MPD2    C3 8877   3.302   4.058  16.478 -0.2840 -0.0068  0.5962
  599MPD2    C4 8878   3.395   4.151  16.527 -0.4756 -0.0781  0.5792
  599MPD2    C5 8879   3.520   4.175  16.459  0.3306  0.4380 -0.0063
  599MPD2     H 8880   3.282   3.910  16.324 -0.8335 -1.3635  2.5469
  599MPD2    H1 8881   3.364   4.203  16.617  0.0150  1.6445 -0.2575
  599MPD2    H2 8882   3.662   4.104  16.323  1.7245 -0.4021  2.9525
  599MPD2    H3 8883   3.587   4.244  16.508 -0.7299  0.1286  1.8514
  599MPD2     N 8884   3.175   4.056  16.536  1.1015  0.2951  0.1848
  599MPD2    H5 8885   3.164   4.130  16.604 -1.8869  1.3926 -1.4671
  599MPD2    N1 8886   3.520   3.916  16.196  0.1822 -0.2118  0.6271
  599MPD2    H7 8887   3.620   3.916  16.182  0.0831  0.0896 -0.0788
  600TMC3    C1 8888   2.947   4.021  16.551  0.5948 -0.3091 -0.2965
  600TMC3    C2 8889   2.867   3.915  16.568  0.1545 -0.5455 -0.0443
  600TMC3    C3 8890   2.735   3.937  16.614 -0.3111  0.1690 -0.9755
  600TMC3    C4 8891   2.910   4.146  16.602 -0.2171 -0.3495 -0.1664
  600TMC3    C5 8892   2.781   4.164  16.648  0.1751  0.0148  0.2922
  600TMC3    C6 8893   2.691   4.062  16.652 -0.0770  0.0609 -0.7532
  600TMC3     C 8894   3.066   3.991  16.482  0.2087  0.9481  0.5997
  600TMC3     O 8895   3.060   3.905  16.393 -0.4353 -0.1540 -0.1246
  600TMC3     H 8896   2.893   3.811  16.549 -0.4042 -1.0633  2.0439
  600TMC3    H1 8897   2.977   4.231  16.596 -0.2750 -0.4090 -1.7324
  600TMC3    H2 8898   2.587   4.076  16.682  0.0312  0.8436 -0.7344
  600TMC3    C7 8899   2.724   4.292  16.667  0.4724  0.1588 -0.5810
  600TMC3    C8 8900   2.659   3.824  16.664 -0.3922  0.3450  0.4574
  600TMC3    O1 8901   2.638   4.308  16.756 -0.3670  0.5017  0.0229
  600TMC3    O2 8902   2.721   3.743  16.736 -0.0294  0.1207 -0.7306
  601MPD2     C 8903   0.308   1.788   0.214 -1.1461 -0.0238 -0.1974
  601MPD2    C1 8904   0.187   1.782   0.141  0.5548  0.6646 -0.2135
  601MPD2    C2 8905   0.097   1.692   0.193  0.6066 -0.4661 -0.4763
  601MPD2    C3 8906   0.110   1.631   0.317  0.3820 -0.4116  0.8141
  601MPD2    C4 8907   0.226   1.641   0.385  0.4927  0.3691  0.1158
  601MPD2    C5 8908   0.326   1.714   0.332  0.5606 -0.3207  0.0504
  601MPD2     H 8909   0.006   1.676   0.136  0.6944  2.0319 -1.2784
  601MPD2    H1 8910   0.257   1.588   0.475 -1.6552 -0.0837  0.5855
  601MPD2    H2 8911   0.392   1.852   0.190 -0.7057 -0.4315  0.2899
  601MPD2    H3 8912   0.420   1.720   0.386 -0.3108 -0.5551  1.6043
  601MPD2     N 8913   0.002   1.553   0.378  0.0880  0.2211  0.8572
  601MPD2    H5 8914   0.010   1.520   0.474  1.6534 -0.4063  0.5110
  601MPD2    N1 8915   0.166   1.849   0.016 -0.6115 -0.3839 -0.2717
  601MPD2    H7 8916   0.076   1.837  17.660 -0.4350 -1.3714 -0.3467
  602TMC3    C1 8917   0.218   1.997  17.519 -0.2992 -0.0991 -0.0868
  602TMC3    C2 8918   0.292   2.101  17.472 -0.4586  0.0636  0.2275
  602TMC3    C3 8919   0.240   2.187  17.378 -0.5688 -0.1950  0.5920
  602TMC3    C4 8920   0.089   1.975  17.466  0.4131  0.8027 -0.0669
  602TMC3    C5 8921   0.043   2.066  17.367 -0.0434 -0.5773  0.6354
  602TMC3    C6 8922   0.122   2.168  17.318 -0.5090  0.7736  0.5757
  602TMC3     C 8923   0.258   1.933  17.644  0.1394  0.0891 -0.5540
  602TMC3     O 8924   0.369   1.974  17.688  0.3694  0.5295 -0.5872
  602TMC3     H 8925   0.393   2.111  17.511 -1.0184 -1.0512  1.9669
  602TMC3    H1 8926   0.035   1.884  17.489 -2.0878  1.6797 -2.5113
  602TMC3    H2 8927   0.090   2.242  17.245  0.0105 -1.6220 -2.1079
  602TMC3    C7 8928   4.624   2.059  17.311  0.7330  0.0852  0.0958
  602TMC3    C8 8929   0.294   2.322  17.383 -0.0905  0.2008  0.0169
  602TMC3    O1 8930   4.569   1.953  17.291  0.3169 -0.5143  0.5357
  602TMC3    O2 8931   0.403   2.344  17.433  0.0982  0.0961  0.3533
  603TMC3    C1 8932   3.632   2.705  10.510  0.4350 -0.3772  0.0713
  603TMC3    C2 8933   3.645   2.714  10.646 -0.5614  0.1695 -0.4413
  603TMC3    C3 8934   3.624   2.844  10.697 -0.3202 -0.2976  0.4165
  603TMC3    C4 8935   3.642   2.822  10.429 -0.0146 -0.4713  0.0827
  603TMC3    C5 8936   3.635   2.937  10.491 -0.1138 -0.2680 -0.2604
  603TMC3    C6 8937   3.616   2.954  10.620 -0.1803  0.1768 -0.4576
  603TMC3     C 8938   3.668   2.573  10.440  0.5597  0.3151 -1.1743
  603TMC3     O 8939   3.723   2.572  10.329 -0.3202  0.0718  0.2199
  603TMC3     H 8940   3.638   2.631  10.714  2.1802  0.8507  0.6793
  603TMC3    H1 8941   3.660   2.816  10.322 -0.4168 -2.0828  0.1026
  603TMC3    H2 8942   3.653   3.041  10.673 -2.1264 -0.1238  1.4021
  603TMC3    C7 8943   3.670   3.057  10.415  0.5575  0.2351 -0.0998
  603TMC3    C8 8944   3.593   2.851  10.837 -0.0597  0.2095 -0.4015
  603TMC3    O1 8945   3.714   3.157  10.472  0.0327  0.0391  0.6843
  603TMC3    O2 8946   3.644   2.762  10.909  0.2267  0.1976  0.0650
  604MPD2     C 8947   3.695   1.214  16.252 -0.1505 -0.6553  0.2257
  604MPD2    C1 8948   3.604   1.283  16.166  0.6697  0.7385 -0.4394
  604MPD2    C2 8949   3.595   1.244  16.030 -0.2362  0.5125 -0.5491
  604MPD2    C3 8950   3.669   1.133  15.985 -0.4796 -0.1288  0.6891
  604MPD2    C4 8951   3.751   1.070  16.074 -0.2587  0.2215 -0.1589
  604MPD2    C5 8952   3.769   1.113  16.200 -0.2574 -0.7287 -0.2658
  604MPD2     H 8953   3.535   1.296  15.956 -1.2076 -0.8533 -0.7292
  604MPD2    H1 8954   3.831   1.006  16.041  0.9725  2.2339 -1.0676
  604MPD2    H2 8955   3.706   1.251  16.353 -2.5411 -1.7697  0.8989
  604MPD2    H3 8956   3.853   1.074  16.255 -0.5205  3.2808  2.9678
  604MPD2     N 8957   3.651   1.099  15.846  0.4262 -0.1846  0.1705
  604MPD2    H5 8958   3.595   1.161  15.789  2.3918  2.4776  1.1277
  604MPD2    N1 8959   3.529   1.391  16.219 -0.4918  0.0365 -0.5677
  604MPD2    H7 8960   3.538   1.397  16.320  0.9526 -0.2437 -0.6738
  605TMC3    C1 8961   3.384   1.573  16.226 -0.2955 -0.0386  0.4909
  605TMC3    C2 8962   3.461   1.646  16.306  0.0709  0.1844 -0.4344
  605TMC3    C3 8963   3.411   1.758  16.365 -0.2551  0.3520  0.0279
  605TMC3    C4 8964   3.257   1.612  16.196 -0.5093  1.0753 -0.1272
  605TMC3    C5 8965   3.210   1.713  16.269  0.2037 -0.0383  0.1877
  605TMC3    C6 8966   3.276   1.793  16.348  0.0156  0.3769  0.6200
  605TMC3     C 8967   3.435   1.465  16.152  0.6011  0.8471  0.2580
  605TMC3     O 8968   3.400   1.456  16.034 -0.2034 -0.5042  0.2196
  605TMC3     H 8969   3.564   1.620  16.329 -0.7794 -2.9075 -0.1474
  605TMC3    H1 8970   3.206   1.560  16.115  1.7973  0.4696 -1.1709
  605TMC3    H2 8971   3.239   1.892  16.372 -0.6755  0.3871 -0.5069
  605TMC3    C7 8972   3.070   1.746  16.256 -0.2417  0.7873 -0.2862
  605TMC3    C8 8973   3.510   1.837  16.443  0.6462  0.3172  0.1922
  605TMC3    O1 8974   3.039   1.866  16.258 -0.0335  0.4071  0.2191
  605TMC3    O2 8975   3.627   1.810  16.427 -0.3038  0.3192 -0.3213
  606TMC3    C1 8976   0.781   0.104   0.129 -0.3689  1.0987  0.5704
  606TMC3    C2 8977   0.909   0.144   0.152  0.1312 -0.1460 -0.6810
  606TMC3    C3 8978   1.000   0.041   0.133  0.1703  0.9459  0.3839
  606TMC3    C4 8979   0.739   4.712   0.065  0.0912  0.9408  0.0148
  606TMC3    C5 8980   0.840   4.631   0.026 -0.5633 -0.1770  0.4014
  606TMC3    C6 8981   0.970   4.646   0.068  0.4332  0.5564 -0.2313
  606TMC3     C 8982   0.674   0.199   0.162 -0.3075  0.1566  0.0340
  606TMC3     O 8983   0.570   0.209   0.102  0.2015  0.2679  0.1554
  606TMC3     H 8984   0.945   0.242   0.179  0.3939 -0.0343 -1.4550
  606TMC3    H1 8985   0.636   4.707   0.033  0.2340 -1.1681 -0.1513
  606TMC3    H2 8986   1.031   4.557   0.060 -0.5520 -0.0190 -1.3783
  606TMC3    C7 8987   0.822   4.527  17.616  0.4332 -0.1100 -0.3979
  606TMC3    C8 8988   1.129   0.070   0.167 -0.2902 -1.0202 -0.4162
  606TMC3    O1 8989   0.920   4.479  17.564  0.3686 -0.0646 -0.1296
  606TMC3    O2 8990   1.155   0.181   0.210  0.2181 -0.0212  0.0396
  607MPD2     C 8991   2.573   3.030  11.702 -0.2198  0.7335  0.0437
  607MPD2    C1 8992   2.691   3.038  11.773 -0.2523  0.1492  0.0384
  607MPD2    C2 8993   2.699   2.979  11.899  1.1596  0.1144 -0.0795
  607MPD2    C3 8994   2.590   2.907  11.944  0.2087 -0.1631 -0.6340
  607MPD2    C4 8995   2.478   2.889  11.869 -0.1672  0.2366  0.2291
  607MPD2    C5 8996   2.468   2.947  11.746  0.2692  0.0465  0.0652
  607MPD2     H 8997   2.790   2.997  11.956  0.1061  0.5667  1.4435
  607MPD2    H1 8998   2.405   2.818  11.906 -0.0221  0.2942  0.6307
  607MPD2    H2 8999   2.557   3.084  11.609 -0.1488  1.7128  0.5942
  607MPD2    H3 9000   2.389   2.911  11.682  1.0604  0.9698 -1.4332
  607MPD2     N 9001   2.604   2.849  12.069  0.1069  0.0251  0.2718
  607MPD2    H5 9002   2.683   2.879  12.126  2.7696 -2.4231 -2.1462
  607MPD2    N1 9003   2.801   3.115  11.727  0.3647 -0.4772  0.7325
  607MPD2    H7 9004   2.890   3.098  11.772  1.1888 -0.3668 -0.8240
  608TMC3    C1 9005   2.922   3.301  11.641  0.0687  0.1396 -0.3247
  608TMC3    C2 9006   2.980   3.300  11.763  0.2553  0.0899 -0.0942
  608TMC3    C3 9007   3.117   3.337  11.764 -0.3978  0.7352  0.8221
  608TMC3    C4 9008   2.970   3.351  11.528 -0.7044  0.7522 -0.2568
  608TMC3    C5 9009   3.101   3.400  11.540  0.1239  0.1201 -0.4542
  608TMC3    C6 9010   3.172   3.387  11.655 -0.0109  0.0204 -0.6900
  608TMC3     C 9011   2.810   3.206  11.622 -1.1350  0.1190  0.1607
  608TMC3     O 9012   2.738   3.233  11.526 -1.2248 -0.3572  0.6514
  608TMC3     H 9013   2.932   3.265  11.854  1.1969 -0.6694  0.1152
  608TMC3    H1 9014   2.922   3.344  11.431  0.8436  1.7900 -1.1147
  608TMC3    H2 9015   3.276   3.418  11.662  0.0500 -0.1700 -0.7612
  608TMC3    C7 9016   3.173   3.384  11.419 -0.2785 -0.6380 -0.3171
  608TMC3    C8 9017   3.202   3.256  11.844  0.1533  0.2335 -0.0145
  608TMC3    O1 9018   3.104   3.353  11.322 -0.7212  0.2049  0.3641
  608TMC3    O2 9019   3.319   3.253  11.816  0.2224 -0.0587 -0.1617
  609TMC3    C1 9020   1.983   1.960   9.252  0.4752  0.2599  0.4533
  609TMC3    C2 9021   2.034   2.047   9.154  0.7105 -0.2665  0.1025
  609TMC3    C3 9022   2.161   2.011   9.111  0.5169 -0.3679 -0.0930
  609TMC3    C4 9023   2.051   1.855   9.302 -0.1235 -0.0387  0.5139
  609TMC3    C5 9024   2.171   1.819   9.243  0.3077 -0.1228  0.5848
  609TMC3    C6 9025   2.227   1.892   9.143 -0.1678 -0.3114 -0.9040
  609TMC3     C 9026   1.856   1.998   9.307 -0.1618 -0.2671  0.1819
  609TMC3     O 9027   1.794   2.070   9.231 -0.3381 -0.0105  0.3289
  609TMC3     H 9028   1.976   2.136   9.134  1.5255 -0.1970 -1.9022
  609TMC3    H1 9029   2.006   1.794   9.380 -1.2227  0.2780  0.1252
  609TMC3    H2 9030   2.330   1.874   9.114  0.2158 -0.3915  0.5556
  609TMC3    C7 9031   2.242   1.697   9.296 -0.6963 -0.1571 -0.8354
  609TMC3    C8 9032   2.230   2.105   9.024  0.1035  0.1061  1.0582
  609TMC3    O1 9033   2.187   1.651   9.398 -0.2429  0.3097 -0.2037
  609TMC3    O2 9034   2.352   2.084   9.023  0.2048 -0.0987  0.1414
  610TMC3    C1 9035   3.019   3.070  12.611 -0.1882  0.3317  0.3094
  610TMC3    C2 9036   3.125   3.158  12.590 -0.0254 -0.0158 -0.4612
  610TMC3    C3 9037   3.254   3.127  12.626 -0.2976  0.4028  0.7926
  610TMC3    C4 9038   3.051   2.956  12.685  0.6936  0.3110 -0.0667
  610TMC3    C5 9039   3.181   2.925  12.713  0.3539  0.2378  0.0367
  610TMC3    C6 9040   3.287   3.007  12.687 -0.6664 -0.1731 -0.8747
  610TMC3     C 9041   2.884   3.120  12.639 -1.4463  0.7047 -0.4081
  610TMC3     O 9042   2.823   3.069  12.733  0.3909  0.0133 -0.1026
  610TMC3     H 9043   3.107   3.251  12.537 -0.4218  0.6471  0.8382
  610TMC3    H1 9044   2.965   2.893  12.707  0.7301  0.0706 -0.6290
  610TMC3    H2 9045   3.387   2.967  12.705 -1.1572 -0.3563  1.5324
  610TMC3    C7 9046   3.203   2.797  12.775  0.1674 -0.0960  0.5391
  610TMC3    C8 9047   3.355   3.211  12.554 -0.2257 -0.2475  0.6611
  610TMC3    O1 9048   3.309   2.779  12.839  0.2164 -0.6302  0.6666
  610TMC3    O2 9049   3.331   3.279  12.457  0.5277  0.5095 -0.3503
  611MPD2     C 9050   2.684   2.791   9.377 -0.0572 -0.3845  0.3040
  611MPD2    C1 9051   2.730   2.791   9.503  0.1998 -0.5163 -0.5146
  611MPD2    C2 9052   2.856   2.843   9.524  0.5123 -0.4823  0.4624
  611MPD2    C3 9053   2.935   2.884   9.421  0.3453 -0.0272  0.3800
  611MPD2    C4 9054   2.893   2.875   9.291 -0.4872  0.1577  0.3398
  611MPD2    C5 9055   2.762   2.844   9.279 -0.6124 -0.4187  0.5070
  611MPD2     H 9056   2.890   2.854   9.627  2.2600 -0.1729 -0.1447
  611MPD2    H1 9057   2.948   2.908   9.204  0.1498 -1.4570  0.1426
  611MPD2    H2 9058   2.587   2.748   9.356  0.5325 -0.4667 -2.2505
  611MPD2    H3 9059   2.717   2.833   9.181  0.4724  0.6869 -0.1074
  611MPD2     N 9060   3.065   2.940   9.434 -0.0120  0.4718  0.1098
  611MPD2    H5 9061   3.110   2.990   9.358  0.0242  0.6726  0.2649
  611MPD2    N1 9062   2.652   2.741   9.609 -0.2296  0.8531  0.3770
  611MPD2    H7 9063   2.556   2.726   9.580  0.6452 -1.3729 -1.4015
  612TMC3    C1 9064   3.259   3.040   9.529  0.6715 -0.4130 -1.3188
  612TMC3    C2 9065   3.314   3.102   9.636 -0.2044 -0.1745 -0.1459
  612TMC3    C3 9066   3.407   3.194   9.622 -0.0948  0.2341 -0.3523
  612TMC3    C4 9067   3.292   3.079   9.402  0.3498 -0.6146 -0.6659
  612TMC3    C5 9068   3.377   3.182   9.394  0.3278 -0.5953 -0.3375
  612TMC3    C6 9069   3.436   3.244   9.501  0.7096  0.2433  0.0940
  612TMC3     C 9070   3.144   2.952   9.548  0.7957  0.4797  0.5053
  612TMC3     O 9071   3.112   2.917   9.658 -0.0451 -0.7307 -0.4269
  612TMC3     H 9072   3.277   3.074   9.734  1.2976  0.5294  0.6255
  612TMC3    H1 9073   3.250   3.029   9.316 -2.0416  0.5424 -0.1551
  612TMC3    H2 9074   3.509   3.322   9.482  2.2878 -2.0772 -3.4560
  612TMC3    C7 9075   3.420   3.242   9.270  0.4607  0.2840  0.2203
  612TMC3    C8 9076   3.475   3.261   9.729  0.1052 -0.2670 -0.3278
  612TMC3    O1 9077   3.443   3.363   9.271  0.0794 -0.1771 -0.3089
  612TMC3    O2 9078   3.543   3.356   9.709  0.0115  0.1618  0.4136
  613MPD2     C 9079   0.922   4.416  16.467  0.7508 -0.3638  0.7071
  613MPD2    C1 9080   0.874   4.467  16.354  0.0665 -0.1363 -0.1558
  613MPD2    C2 9081   0.755   4.424  16.305 -0.5551  0.2044  0.7568
  613MPD2    C3 9082   0.692   4.312  16.365  0.4358 -0.7940 -0.0994
  613MPD2    C4 9083   0.746   4.262  16.479  0.5526 -1.1500  0.1258
  613MPD2    C5 9084   0.862   4.310  16.526  0.6994  0.3167  0.9042
  613MPD2     H 9085   0.703   4.468  16.221 -2.9311 -1.2992  1.4227
  613MPD2    H1 9086   0.687   4.183  16.523 -0.1258  0.5020  2.1792
  613MPD2    H2 9087   1.010   4.455  16.516  1.8723 -1.6232 -0.2733
  613MPD2    H3 9088   0.900   4.273  16.621 -0.9287 -4.4200 -0.2762
  613MPD2     N 9089   0.578   4.251  16.307 -0.7421  0.4058  0.2423
  613MPD2    H5 9090   0.553   4.161  16.347 -0.6285  0.5109  0.5485
  613MPD2    N1 9091   0.937   4.579  16.303  0.1205  0.1736 -0.2225
  613MPD2    H7 9092   1.033   4.595  16.332 -0.5622  0.8916  1.5936
  614TMC3    C1 9093   0.985   0.002  16.127  0.2049 -0.3675  0.0107
  614TMC3    C2 9094   1.087   4.634  16.103  0.5159 -0.2629 -0.2575
  614TMC3    C3 9095   1.134   4.609  15.981 -0.0993  0.1983  0.5177
  614TMC3    C4 9096   0.934   0.073  16.021 -0.6211  0.8413 -0.6001
  614TMC3    C5 9097   0.991   0.051  15.895 -0.3026  0.6392  0.3947
  614TMC3    C6 9098   1.085   4.675  15.872  0.5302 -0.6351 -1.1094
  614TMC3     C 9099   0.882   4.670  16.213  0.6567  0.3200  0.1537
  614TMC3     O 9100   0.762   4.702  16.195  0.2086  0.0079  0.1633
  614TMC3     H 9101   1.137   4.579  16.181  0.9733  1.7813  0.8996
  614TMC3    H1 9102   0.869   0.159  16.036 -0.2505  1.0255 -0.0546
  614TMC3    H2 9103   1.130   4.669  15.774 -0.8655 -0.5754 -1.7623
  614TMC3    C7 9104   0.966   0.155  15.797 -0.1800  0.1900  0.1543
  614TMC3    C8 9105   1.129   4.465  15.952  0.6656  0.0864  1.1624
  614TMC3    O1 9106   0.913   0.260  15.824 -0.1287  0.7158  0.0463
  614TMC3    O2 9107   1.069   4.432  15.853  0.1457  0.0101  0.3289
  615MPD2     C 9108   0.837   1.584  16.349 -0.0439 -0.3498 -0.7073
  615MPD2    C1 9109   0.714   1.645  16.363 -0.6087  0.7721 -0.5024
  615MPD2    C2 9110   0.607   1.605  16.287 -0.5859 -0.4396  0.0065
  615MPD2    C3 9111   0.620   1.498  16.199  0.0239 -0.1104 -0.3227
  615MPD2    C4 9112   0.745   1.443  16.176 -0.1444  0.1334  0.4381
  615MPD2    C5 9113   0.852   1.488  16.255 -0.8395 -0.0192  0.4692
  615MPD2     H 9114   0.512   1.656  16.282 -0.4855 -0.1561  1.0459
  615MPD2    H1 9115   0.757   1.383  16.086  2.5113  0.9732  0.2299
  615MPD2    H2 9116   0.924   1.614  16.407 -1.0504 -0.9515  1.1237
  615MPD2    H3 9117   0.947   1.440  16.233  0.0166  1.7240  0.3552
  615MPD2     N 9118   0.513   1.445  16.123  0.3489 -0.1325  0.1121
  615MPD2    H5 9119   0.529   1.379  16.047 -1.7035  2.5711 -2.6862
  615MPD2    N1 9120   0.710   1.761  16.433  0.1627  0.1468  0.0248
  615MPD2    H7 9121   0.797   1.802  16.465  0.7076 -1.4145  0.5588
  616TMC3    C1 9122   0.600   1.950  16.523 -0.3331 -0.7241  0.4243
  616TMC3    C2 9123   0.704   2.023  16.470  0.1693 -0.1642 -0.1904
  616TMC3    C3 9124   0.695   2.159  16.481  0.0887  0.1305 -0.5984
  616TMC3    C4 9125   0.493   2.001  16.585 -0.2749 -0.3909 -0.2924
  616TMC3    C5 9126   0.486   2.137  16.597  0.7045  0.4918  0.2220
  616TMC3    C6 9127   0.584   2.222  16.544 -0.1453  0.1482 -0.6017
  616TMC3     C 9128   0.591   1.813  16.483  0.1784  0.1781  0.0825
  616TMC3     O 9129   0.482   1.759  16.503 -0.3897  0.1031  0.1491
  616TMC3     H 9130   0.765   1.977  16.393  1.2164 -0.0321  0.5577
  616TMC3    H1 9131   0.424   1.933  16.634  1.3833 -0.0512  2.5001
  616TMC3    H2 9132   0.581   2.330  16.558  1.5283  0.0447  0.6487
  616TMC3    C7 9133   0.366   2.213  16.620  0.0499  0.2717  0.3365
  616TMC3    C8 9134   0.775   2.251  16.409 -0.1474  0.3152 -0.1608
  616TMC3    O1 9135   0.354   2.320  16.558 -0.2245 -0.1215  0.1837
  616TMC3    O2 9136   0.742   2.371  16.397  0.1754  0.5353 -0.1990
  617MPD2     C 9137   3.737   4.490  13.780  0.8248 -0.2678  0.2751
  617MPD2    C1 9138   3.709   4.451  13.908  0.3151 -0.0777 -0.5173
  617MPD2    C2 9139   3.588   4.385  13.928 -0.0075 -0.1454 -0.0520
  617MPD2    C3 9140   3.504   4.348  13.823 -0.2136  0.0868 -0.2202
  617MPD2    C4 9141   3.539   4.384  13.695  0.3370 -0.0615  0.3485
  617MPD2    C5 9142   3.654   4.459  13.676 -0.1735  0.0868 -0.6644
  617MPD2     H 9143   3.549   4.365  14.027 -0.6744 -3.0225 -0.8937
  617MPD2    H1 9144   3.474   4.358  13.612 -0.4728  0.6640  0.7646
  617MPD2    H2 9145   3.830   4.538  13.751  0.3930 -0.6693 -1.7840
  617MPD2    H3 9146   3.684   4.473  13.573 -1.1812 -2.1690 -1.2765
  617MPD2     N 9147   3.376   4.298  13.831  0.2557 -0.5891  0.6345
  617MPD2    H5 9148   3.325   4.313  13.745  0.8158 -3.3599 -0.1792
  617MPD2    N1 9149   3.807   4.480  14.006 -0.7163 -0.2084 -0.2794
  617MPD2    H7 9150   3.898   4.517  13.980 -0.3420 -1.0665 -0.2039
  618TMC3    C1 9151   3.915   4.439  14.208 -0.4989  0.0784  0.0134
  618TMC3    C2 9152   3.968   4.312  14.219 -0.4465 -0.1688  0.2292
  618TMC3    C3 9153   4.099   4.301  14.189  0.0427  0.2424  0.2783
  618TMC3    C4 9154   3.992   4.547  14.173  0.4344  0.1039  0.7787
  618TMC3    C5 9155   4.125   4.539  14.146  0.3918  0.5819  0.0466
  618TMC3    C6 9156   4.178   4.414  14.161  0.6638 -0.1968  0.1186
  618TMC3     C 9157   3.794   4.425  14.136 -0.5500 -0.0747 -0.1840
  618TMC3     O 9158   3.709   4.360  14.189 -0.3268 -0.5276  0.0695
  618TMC3     H 9159   3.900   4.229  14.209  0.0798 -0.5091 -0.5352
  618TMC3    H1 9160   3.945   4.642  14.152 -0.3915 -0.3844  0.4179
  618TMC3    H2 9161   4.278   4.391  14.126  0.4363 -0.5351 -0.2993
  618TMC3    C7 9162   4.148   4.593  14.014  1.2980 -0.1344 -0.9994
  618TMC3    C8 9163   4.105   4.202  14.078  0.6364 -0.1887 -0.4331
  618TMC3    O1 9164   4.054   4.617  13.936  0.5565 -0.0049 -0.7392
  618TMC3    O2 9165   4.001   4.209  14.015  0.2079  0.0908  0.3391
  619MPD2     C 9166   0.445   1.327  13.377  0.8205  0.5586  0.2615
  619MPD2    C1 9167   0.332   1.381  13.316  0.1635  1.3061  0.1162
  619MPD2    C2 9168   0.207   1.321  13.332  0.1304  0.0604 -0.2744
  619MPD2    C3 9169   0.198   1.205  13.407  0.0753 -0.2390  0.1391
  619MPD2    C4 9170   0.314   1.152  13.462  0.3143  0.3259 -0.1765
  619MPD2    C5 9171   0.433   1.209  13.443  0.1718 -0.2035 -0.3205
  619MPD2     H 9172   0.118   1.367  13.289  1.3550  1.7664 -1.0010
  619MPD2    H1 9173   0.302   1.055  13.510  1.4484 -0.1947 -0.9461
  619MPD2    H2 9174   0.542   1.374  13.365  1.2834 -0.2716  0.7695
  619MPD2    H3 9175   0.520   1.163  13.489 -0.2411 -1.0983 -0.4270
  619MPD2     N 9176   0.077   1.135  13.423 -0.3092  0.0097  0.5737
  619MPD2    H5 9177   0.078   1.037  13.452  0.5562 -0.4865 -1.1284
  619MPD2    N1 9178   0.334   1.500  13.235  0.8572 -0.1313  0.3390
  619MPD2    H7 9179   0.249   1.540  13.198  2.0808  2.3608  0.2619
  620TMC3    C1 9180   0.438   1.674  13.114 -0.4768  0.2621 -0.3577
  620TMC3    C2 9181   0.384   1.640  12.992 -0.0422 -0.7089  0.4939
  620TMC3    C3 9182   0.320   1.739  12.920 -0.7099 -0.1171  0.1773
  620TMC3    C4 9183   0.416   1.794  13.170 -0.3999 -0.5593  0.9924
  620TMC3    C5 9184   0.347   1.888  13.092 -0.0546  0.4761  0.8563
  620TMC3    C6 9185   0.313   1.864  12.963  0.1744 -0.1316 -0.2693
  620TMC3     C 9186   0.452   1.567  13.207 -0.7479  0.4039  0.4688
  620TMC3     O 9187   0.571   1.544  13.226 -0.2605 -0.0711 -0.7558
  620TMC3     H 9188   0.396   1.537  12.959 -1.4605  0.0363 -2.3043
  620TMC3    H1 9189   0.415   1.802  13.278  1.2656  1.9140  0.8284
  620TMC3    H2 9190   0.242   1.927  12.909  1.0925  0.0191 -1.3068
  620TMC3    C7 9191   0.246   1.966  13.165  0.0273 -0.2544 -0.6210
  620TMC3    C8 9192   0.255   1.703  12.789  0.4997  0.2204  0.0909
  620TMC3    O1 9193   0.139   1.991  13.106  0.0892  0.5698 -0.3621
  620TMC3    O2 9194   0.277   1.770  12.690  0.7957 -0.5233  0.0493
  621MPD2     C 9195   0.792   1.588  10.578  0.1696  0.1614 -0.4071
  621MPD2    C1 9196   0.869   1.516  10.488  0.0421 -0.4559 -0.1815
  621MPD2    C2 9197   0.888   1.562  10.355  0.2725  0.1325  0.4441
  621MPD2    C3 9198   0.834   1.691  10.320 -0.3309  0.0625 -0.0548
  621MPD2    C4 9199   0.761   1.763  10.414 -0.1754 -0.6741 -0.0914
  621MPD2    C5 9200   0.748   1.710  10.536 -0.2194  0.1585  0.5019
  621MPD2     H 9201   0.927   1.493  10.281 -1.1370  0.2342 -0.3866
  621MPD2    H1 9202   0.711   1.857  10.394 -1.3166 -1.3312 -0.3516
  621MPD2    H2 9203   0.790   1.564  10.684  1.2193 -2.1892 -0.9205
  621MPD2    H3 9204   0.693   1.773  10.605 -0.1279 -1.3371  1.9396
  621MPD2     N 9205   0.853   1.741  10.188  0.6502  0.5249 -0.5678
  621MPD2    H5 9206   0.902   1.683  10.120 -0.3738 -1.5671  0.4731
  621MPD2    N1 9207   0.928   1.393  10.525 -0.3912 -0.0952  0.3553
  621MPD2    H7 9208   0.986   1.347  10.455  0.7738 -0.4176  1.5461
  622TMC3    C1 9209   0.938   1.192  10.649 -0.0379  0.1220  0.2972
  622TMC3    C2 9210   0.837   1.120  10.695  0.1176  0.0489  0.2611
  622TMC3    C3 9211   0.819   0.991  10.644  0.4769  0.3145  0.3105
  622TMC3    C4 9212   1.033   1.136  10.568 -0.3841 -0.4399  0.6944
  622TMC3    C5 9213   1.023   1.003  10.530 -0.3124  0.4687  0.1924
  622TMC3    C6 9214   0.910   0.933  10.565  0.2156  0.6913  0.1257
  622TMC3     C 9215   0.927   1.341  10.654  0.1915 -0.6522 -0.3498
  622TMC3     O 9216   0.878   1.383  10.759 -0.3109 -0.2548 -0.0540
  622TMC3     H 9217   0.753   1.162  10.750 -0.1187 -0.7772  0.5340
  622TMC3    H1 9218   1.125   1.191  10.552 -0.3115 -0.3050  1.6077
  622TMC3    H2 9219   0.905   0.829  10.533  1.9145  0.5249  0.4062
  622TMC3    C7 9220   1.142   0.926  10.504  0.2800  0.6013  0.6991
  622TMC3    C8 9221   0.684   0.951  10.606 -0.5260  0.8568 -0.1882
  622TMC3    O1 9222   1.137   0.805  10.518  0.0767 -0.3237  0.6205
  622TMC3    O2 9223   0.665   0.836  10.568  0.5926 -0.2927  0.2665
  623MPD2     C 9224   4.124   2.136  15.974 -0.3643  0.1868  0.4930
  623MPD2    C1 9225   4.038   2.072  16.061  0.3378  0.3411  0.1256
  623MPD2    C2 9226   4.057   2.094  16.191  0.4190 -0.5005  0.2687
  623MPD2    C3 9227   4.152   2.185  16.241  0.2587  0.1278 -0.1219
  623MPD2    C4 9228   4.229   2.253  16.148  0.0935  0.4807  0.2396
  623MPD2    C5 9229   4.220   2.219  16.019 -0.2175  0.4036 -0.3352
  623MPD2     H 9230   3.990   2.056  16.267 -1.3827 -1.0001 -1.5958
  623MPD2    H1 9231   4.302   2.332  16.166  0.1795  0.1581  1.2940
  623MPD2    H2 9232   4.122   2.125  15.866 -1.0440  0.0517  0.5159
  623MPD2    H3 9233   4.286   2.272  15.951  0.1360  0.2212 -0.1368
  623MPD2     N 9234   4.149   2.212  16.380 -0.6042  0.5223  0.1908
  623MPD2    H5 9235   4.066   2.177  16.427 -0.6992 -0.0480 -0.4196
  623MPD2    N1 9236   3.932   1.985  16.026 -0.3840  0.1019  0.1552
  623MPD2    H7 9237   3.877   1.953  16.105 -0.4458 -0.9404 -0.3183
  624TMC3    C1 9238   4.305   2.012  16.667 -0.2800 -0.9285 -0.8963
  624TMC3    C2 9239   4.178   1.983  16.706  0.8601 -0.1196  0.6290
  624TMC3    C3 9240   4.078   2.074  16.675  0.3633 -0.8363 -0.2415
  624TMC3    C4 9241   4.338   2.126  16.606  0.4164  0.4089 -0.3894
  624TMC3    C5 9242   4.237   2.220  16.583  0.4162  0.7066  0.1045
  624TMC3    C6 9243   4.107   2.192  16.618  0.0761 -0.5892 -0.0786
  624TMC3     C 9244   4.414   1.928  16.729  0.4771 -0.0712 -0.7236
  624TMC3     O 9245   4.397   1.871  16.837 -0.1340  0.0342 -0.2279
  624TMC3     H 9246   4.159   1.886  16.751  0.6155 -0.5597 -0.4205
  624TMC3    H1 9247   4.432   2.145  16.556  2.0132 -1.0163  2.0327
  624TMC3    H2 9248   4.028   2.263  16.596  1.1948  0.7408  0.2014
  624TMC3    C7 9249   4.247   2.269  16.452 -0.1798  0.0128  0.2440
  624TMC3    C8 9250   3.933   2.024  16.665  0.4193 -0.2367 -0.2171
  624TMC3    O1 9251   4.356   2.309  16.420  0.0349  0.4481 -0.2715
  624TMC3    O2 9252   3.916   1.915  16.624  0.1360  0.1628  0.0047
  625MPD2     C 9253   0.395   2.655   0.343  0.1279  0.2050  0.0886
  625MPD2    C1 9254   0.406   2.773   0.416  0.1935  0.4088  0.1413
  625MPD2    C2 9255   0.519   2.783   0.499 -0.6021 -0.4750  0.3099
  625MPD2    C3 9256   0.608   2.676   0.522 -0.5728  0.3261  0.5104
  625MPD2    C4 9257   0.594   2.562   0.446  0.1971  0.3718 -0.3080
  625MPD2    C5 9258   0.492   2.556   0.356 -0.6184  0.3357  0.0509
  625MPD2     H 9259   0.536   2.877   0.550 -1.5625  0.3145 -0.8217
  625MPD2    H1 9260   0.659   2.476   0.447 -1.1469 -0.6393 -0.6576
  625MPD2    H2 9261   0.312   2.633   0.277  0.9389 -2.2470 -0.1343
  625MPD2    H3 9262   0.492   2.470   0.291 -2.0973  1.7604 -1.8617
  625MPD2     N 9263   0.715   2.697   0.619 -0.1447  0.1082  0.0203
  625MPD2    H5 9264   0.724   2.790   0.658  2.1259 -0.4911  0.9277
  625MPD2    N1 9265   0.311   2.876   0.406 -0.1383  0.1928 -1.0833
  625MPD2    H7 9266   0.322   2.953   0.471 -1.4917  0.8174 -1.5844
  626TMC3    C1 9267   0.113   2.994   0.354 -0.2356  0.0517  0.5670
  626TMC3    C2 9268   0.007   3.032   0.274 -0.8211 -0.1142 -0.1688
  626TMC3    C3 9269   4.637   3.125   0.315  0.9881  0.2802 -0.8896
  626TMC3    C4 9270   0.113   3.044   0.476 -0.6486 -0.0990 -0.2841
  626TMC3    C5 9271   0.012   3.130   0.524  0.3654  0.1008  0.2202
  626TMC3    C6 9272   4.633   3.180   0.439  0.2800  0.6792 -0.3993
  626TMC3     C 9273   0.203   2.882   0.322 -0.3666  0.0289 -0.4243
  626TMC3     O 9274   0.153   2.795   0.255  0.6389 -0.3399  0.2299
  626TMC3     H 9275   4.713   2.986   0.178  0.9451  2.5125 -1.7252
  626TMC3    H1 9276   0.171   2.995   0.554 -2.5276  0.8656  1.7222
  626TMC3    H2 9277   4.554   3.246   0.472 -0.0569 -0.4247  1.0060
  626TMC3    C7 9278   0.025   3.173   0.662 -0.3028 -0.1926  0.4974
  626TMC3    C8 9279   4.577   3.199   0.212 -0.0713 -0.3247  0.2040
  626TMC3    O1 9280   0.118   3.128   0.722  0.2910 -0.0828  0.3030
  626TMC3    O2 9281   4.657   3.250   0.135 -0.2235 -0.6898 -0.6970
  627MPD2     C 9282   2.768   3.702  14.636 -0.1820  0.3410 -1.0175
  627MPD2    C1 9283   2.820   3.649  14.753  0.5287  0.0063  0.0264
  627MPD2    C2 9284   2.797   3.520  14.795  0.3864 -0.4031  0.1228
  627MPD2    C3 9285   2.753   3.434  14.697  0.7203  0.7533 -0.0941
  627MPD2    C4 9286   2.714   3.483  14.572 -0.2429  1.0568  0.0172
  627MPD2    C5 9287   2.710   3.615  14.547  0.0299 -0.1681  0.3565
  627MPD2     H 9288   2.814   3.477  14.893 -1.6672 -3.0291 -0.6724
  627MPD2    H1 9289   2.653   3.421  14.508  2.2803 -0.9435 -0.4424
  627MPD2    H2 9290   2.771   3.808  14.615  1.5574  0.1920 -1.5004
  627MPD2    H3 9291   2.682   3.647  14.447 -0.7629  3.5866  1.7587
  627MPD2     N 9292   2.744   3.296  14.733 -0.7438 -0.8666  0.4022
  627MPD2    H5 9293   2.763   3.267  14.828  0.7027 -1.6015 -0.1186
  627MPD2    N1 9294   2.893   3.741  14.833 -1.2208  0.3682  0.1630
  627MPD2    H7 9295   2.913   3.826  14.782 -0.6968  0.5835  0.7336
  628TMC3    C1 9296   3.046   3.820  14.988  0.2956 -0.1039 -0.3327
  628TMC3    C2 9297   3.174   3.782  15.016 -0.5528 -0.7124 -0.2815
  628TMC3    C3 9298   3.273   3.874  14.984 -0.2764 -0.3298  0.2424
  628TMC3    C4 9299   3.014   3.943  14.936 -0.0633 -0.2044  0.1352
  628TMC3    C5 9300   3.118   4.028  14.905 -0.1073 -0.6536  0.1918
  628TMC3    C6 9301   3.247   4.001  14.945 -0.3175 -0.4886  0.4154
  628TMC3     C 9302   2.954   3.720  14.954 -0.1673 -0.1095 -0.3051
  628TMC3     O 9303   2.958   3.626  15.032  0.1633 -0.2942 -0.6786
  628TMC3     H 9304   3.190   3.677  15.038  0.4729 -0.7926 -1.4114
  628TMC3    H1 9305   2.916   3.974  14.900 -0.3916 -2.2039 -0.6561
  628TMC3    H2 9306   3.324   4.068  14.910 -1.6783  0.0837 -1.4653
  628TMC3    C7 9307   3.089   4.162  14.851 -0.1814  0.4543 -0.0718
  628TMC3    C8 9308   3.410   3.827  14.968  0.1859 -0.6937  0.1297
  628TMC3    O1 9309   3.110   4.256  14.930  0.4757  0.1252 -0.3561
  628TMC3    O2 9310   3.478   3.888  14.886 -0.4466 -0.6504 -0.3935
  629MPD2     C 9311   1.250   2.409  16.313 -1.0910  0.1788  0.0542
  629MPD2    C1 9312   1.258   2.277  16.341 -0.0287  0.0481 -0.2037
  629MPD2    C2 9313   1.140   2.205  16.357 -0.3333 -0.2844 -0.1582
  629MPD2    C3 9314   1.015   2.266  16.361 -0.3706 -0.4770 -1.1669
  629MPD2    C4 9315   1.017   2.399  16.329 -0.2574  0.1731 -0.1854
  629MPD2    C5 9316   1.128   2.474  16.305 -0.3054 -0.1456 -0.2142
  629MPD2     H 9317   1.150   2.104  16.395 -0.9898  0.8819  3.1505
  629MPD2    H1 9318   0.926   2.458  16.322 -0.0504  0.6885  1.4243
  629MPD2    H2 9319   1.338   2.467  16.290 -1.5568  0.4558 -1.0758
  629MPD2    H3 9320   1.119   2.579  16.281  0.5360  0.0194  0.1972
  629MPD2     N 9321   0.898   2.196  16.390 -0.1808  0.7974  0.2680
  629MPD2    H5 9322   0.913   2.100  16.418  1.6573  0.2777 -2.4597
  629MPD2    N1 9323   1.386   2.223  16.348 -0.7049 -0.2678 -0.7244
  629MPD2    H7 9324   1.465   2.286  16.335 -0.4085 -0.4688  0.1054
  630TMC3    C1 9325   1.567   2.087  16.397  0.9390  0.9271 -0.6022
  630TMC3    C2 9326   1.628   2.150  16.291  0.7948  0.2916  0.8466
  630TMC3    C3 9327   1.765   2.158  16.308 -0.1995  0.0914 -0.8457
  630TMC3    C4 9328   1.628   2.031  16.506 -0.2133  0.0671 -0.0779
  630TMC3    C5 9329   1.763   2.049  16.516  0.2395 -0.1123  0.2597
  630TMC3    C6 9330   1.831   2.124  16.421 -0.3297 -0.0521  0.3709
  630TMC3     C 9331   1.421   2.101  16.391 -0.6976 -0.2147  0.0869
  630TMC3     O 9332   1.352   2.020  16.453 -0.3650 -0.5053  0.3078
  630TMC3     H 9333   1.582   2.182  16.198  0.5598 -3.8082 -0.4520
  630TMC3    H1 9334   1.568   2.021  16.595 -0.8735 -1.3453 -0.6891
  630TMC3    H2 9335   1.938   2.143  16.429 -0.2949 -1.2795  2.7624
  630TMC3    C7 9336   1.820   2.038  16.646 -0.1072  0.4871 -0.0684
  630TMC3    C8 9337   1.849   2.235  16.213 -0.6391 -1.1289 -0.2417
  630TMC3    O1 9338   1.736   2.003  16.731  0.0144  0.3219  0.1455
  630TMC3    O2 9339   1.969   2.228  16.219  0.3280  0.0875  0.4963
  631MPD2     C 9340   4.409   2.001  15.756  0.4431 -0.1766  0.2127
  631MPD2    C1 9341   4.515   2.005  15.673  0.1466 -0.2589 -0.0471
  631MPD2    C2 9342   4.620   1.915  15.690 -0.0208 -0.1231  0.2369
  631MPD2    C3 9343   4.597   1.799  15.765 -0.7591  0.0551 -0.1332
  631MPD2    C4 9344   4.486   1.798  15.849 -0.7801  0.1473 -0.4530
  631MPD2    C5 9345   4.395   1.900  15.842  0.1755  0.9695 -0.7092
  631MPD2     H 9346   4.717   1.928  15.643 -0.0539 -1.4002 -0.1837
  631MPD2    H1 9347   4.454   1.715  15.912 -0.1973  1.3667  1.4680
  631MPD2    H2 9348   4.324   2.066  15.744 -0.0568 -0.5720  1.5844
  631MPD2    H3 9349   4.309   1.892  15.908 -0.1077 -1.2535 -1.3551
  631MPD2     N 9350   4.704   1.705  15.777  0.1657  0.3597 -0.1291
  631MPD2    H5 9351   0.059   1.728  15.715  0.2633  1.9087  0.5478
  631MPD2    N1 9352   4.513   2.105  15.579 -0.6100 -0.3481 -0.1879
  631MPD2    H7 9353   4.434   2.169  15.577 -0.9175 -0.6890  1.1171
  632TMC3    C1 9354   4.576   2.239  15.387  0.7214 -0.4212 -0.1522
  632TMC3    C2 9355   4.547   2.352  15.450  0.2439  0.1086 -0.7330
  632TMC3    C3 9356   4.544   2.469  15.373  0.3427  0.2602 -0.0533
  632TMC3    C4 9357   4.582   2.225  15.249  0.2131  0.5879 -0.3442
  632TMC3    C5 9358   4.574   2.343  15.180  0.3647 -0.3301  0.2072
  632TMC3    C6 9359   4.564   2.468  15.240 -0.2524  0.0023  0.3051
  632TMC3     C 9360   4.599   2.119  15.469 -0.0514  0.7087 -0.3996
  632TMC3     O 9361   4.680   2.035  15.428  0.1949  0.6836  0.0856
  632TMC3     H 9362   4.535   2.359  15.557 -1.6715 -3.1661 -0.7478
  632TMC3    H1 9363   4.606   2.132  15.198 -3.0769 -0.3076 -0.2847
  632TMC3    H2 9364   4.577   2.551  15.171 -1.0321  0.1033  0.2712
  632TMC3    C7 9365   4.646   2.344  15.049 -0.3266 -0.0446  0.3171
  632TMC3    C8 9366   4.443   2.562  15.417 -0.3300 -0.5927 -0.3732
  632TMC3    O1 9367   4.635   2.438  14.973  0.2833 -0.1748  0.3542
  632TMC3    O2 9368   4.442   2.578  15.541 -0.1407 -0.0078 -0.2394
  633MPD2     C 9369   4.441   0.291  17.378 -0.4737  0.5377  0.1609
  633MPD2    C1 9370   4.422   0.183  17.291 -0.6858  0.2814 -0.4237
  633MPD2    C2 9371   4.440   0.054  17.329  0.6417  0.1691 -0.0164
  633MPD2    C3 9372   4.483   0.033  17.467  0.3114 -0.2209 -0.2216
  633MPD2    C4 9373   4.505   0.141  17.554  0.1104 -0.5877  0.4500
  633MPD2    C5 9374   4.489   0.272  17.507 -0.0576 -0.5684 -0.0785
  633MPD2     H 9375   4.471   4.692  17.268 -1.4265 -1.0712  0.6329
  633MPD2    H1 9376   4.547   0.123  17.652  0.5325 -0.6819  0.2514
  633MPD2    H2 9377   4.412   0.390  17.344  0.9979  1.0086  0.2827
  633MPD2    H3 9378   4.493   0.366  17.562 -2.1648 -0.4717 -0.0879
  633MPD2     N 9379   4.515   4.632  17.515 -0.2162 -0.3391 -0.1286
  633MPD2    H5 9380   4.558   4.628  17.607 -0.6931  1.8038  0.1953
  633MPD2    N1 9381   4.388   0.199  17.156 -0.2300  0.5160 -0.3273
  633MPD2    H7 9382   4.412   0.122  17.095 -0.0323  0.4998 -0.2314
  634TMC3    C1 9383   4.330   0.302  16.954 -0.3898 -0.4658  0.3832
  634TMC3    C2 9384   4.441   0.245  16.899 -0.2983 -0.9099  0.1645
  634TMC3    C3 9385   4.483   0.278  16.772  1.0838 -0.2369  0.4696
  634TMC3    C4 9386   4.251   0.386  16.876 -0.5796  0.2112 -0.2001
  634TMC3    C5 9387   4.295   0.415  16.746  0.1975  0.3951  0.4078
  634TMC3    C6 9388   4.415   0.369  16.701  0.0310  0.7593  0.0610
  634TMC3     C 9389   4.328   0.307  17.099 -0.8451  0.1776 -0.3252
  634TMC3     O 9390   4.281   0.412  17.140  0.4972  0.0049  0.2056
  634TMC3     H 9391   4.484   0.160  16.952  0.3346 -1.4807 -1.2695
  634TMC3    H1 9392   4.157   0.421  16.916 -0.2132  0.8036  0.1485
  634TMC3    H2 9393   4.448   0.394  16.601 -0.3594  1.9581  0.2434
  634TMC3    C7 9394   4.236   0.517  16.660 -0.1042 -0.5932 -0.5862
  634TMC3    C8 9395   4.570   0.184  16.702 -0.1713  0.2079 -0.6100
  634TMC3    O1 9396   4.273   0.530  16.545 -0.5347  0.6636 -0.0094
  634TMC3    O2 9397   4.600   0.083  16.760  0.2877  0.0025  0.1169
  635TMC3    C1 9398   4.606   1.072  17.187  0.6624 -0.1451  0.8162
  635TMC3    C2 9399   4.576   1.156  17.083 -0.2791  0.4303  0.4611
  635TMC3    C3 9400   4.640   1.127  16.969 -0.0417  0.5508 -0.3269
  635TMC3    C4 9401   4.710   0.978  17.182  0.2311  0.2421  0.0346
  635TMC3    C5 9402   0.057   0.968  17.066  0.2284 -0.1079 -0.9856
  635TMC3    C6 9403   0.027   1.046  16.963  0.1826  0.0620  0.5937
  635TMC3     C 9404   4.532   1.072  17.309 -0.7103 -0.4093  0.6046
  635TMC3     O 9405   4.584   1.030  17.409 -0.7462  0.1006  0.0441
  635TMC3     H 9406   4.506   1.237  17.097 -2.0471 -0.6564 -2.1917
  635TMC3    H1 9407   0.010   0.912  17.265 -0.9184  0.8137  0.8084
  635TMC3    H2 9408   0.082   1.036  16.870 -1.4235  0.5973 -0.4097
  635TMC3    C7 9409   0.137   0.850  17.044  0.2539 -0.3033  0.8389
  635TMC3    C8 9410   4.606   1.216  16.850  0.4169  0.2036  0.3909
  635TMC3    O1 9411   0.110   0.754  17.113 -0.1506 -0.5546  0.3637
  635TMC3    O2 9412   4.690   1.244  16.767  0.4766 -0.5045 -0.0280
  636MPD2     C 9413   0.651   0.066  15.747  0.1430 -0.0503 -0.0993
  636MPD2    C1 9414   0.621   0.039  15.877  0.2004  0.0934  0.6495
  636MPD2    C2 9415   0.599   4.628  15.909 -1.0499  0.2109 -0.6531
  636MPD2    C3 9416   0.583   4.530  15.810 -0.3589 -0.8951 -0.4138
  636MPD2    C4 9417   0.608   4.562  15.680  0.6659 -0.7230  0.1098
  636MPD2    C5 9418   0.651   4.688  15.655 -0.3795  1.0002 -0.2148
  636MPD2     H 9419   0.573   4.603  16.011  2.1102 -2.5973 -0.5420
  636MPD2    H1 9420   0.605   4.489  15.600  3.4655  0.7954 -1.3812
  636MPD2    H2 9421   0.693   0.160  15.715 -0.2098  0.1842  0.1264
  636MPD2    H3 9422   0.662   4.717  15.551 -1.7012  1.5947 -0.1953
  636MPD2     N 9423   0.537   4.404  15.849  0.3490 -0.1911  0.2415
  636MPD2    H5 9424   0.545   4.382  15.947 -0.1488  0.1227  0.3543
  636MPD2    N1 9425   0.597   0.141  15.964  0.5122  0.3932  0.7135
  636MPD2    H7 9426   0.577   0.116  16.060 -2.3613 -1.0219 -0.2640
  637TMC3    C1 9427   0.496   4.172  15.865  0.3159  0.2628  0.0997
  637TMC3    C2 9428   0.436   4.212  15.983  0.2366  0.3882  0.2876
  637TMC3    C3 9429   0.487   4.168  16.103  0.3081  0.2109 -0.3425
  637TMC3    C4 9430   0.599   4.087  15.856 -1.0541  0.2603 -0.4730
  637TMC3    C5 9431   0.653   4.057  15.981  0.0273 -0.1799 -0.8348
  637TMC3    C6 9432   0.588   4.073  16.103 -0.3753  0.3308 -0.1328
  637TMC3     C 9433   0.523   4.287  15.775 -0.1914  0.2806 -0.0320
  637TMC3     O 9434   0.541   4.272  15.657 -0.1677  0.2803  1.0179
  637TMC3     H 9435   0.351   4.279  15.978 -0.3182 -0.5817 -2.8989
  637TMC3    H1 9436   0.651   4.077  15.761 -0.6532  2.2440 -0.4606
  637TMC3    H2 9437   0.639   4.039  16.193  3.8704 -0.7661 -2.9225
  637TMC3    C7 9438   0.790   4.088  15.976  0.1878  0.0507  0.8039
  637TMC3    C8 9439   0.526   4.281  16.184  0.3660 -1.0680 -0.3115
  637TMC3    O1 9440   0.840   4.135  15.874  0.6013  0.2211  0.1045
  637TMC3    O2 9441   0.525   4.383  16.121 -0.2671  0.2135 -0.2826
  638MPD2     C 9442   0.484   3.797  15.047  0.7914 -0.1036 -0.2609
  638MPD2    C1 9443   0.506   3.674  14.998  0.0412  0.4614 -0.2504
  638MPD2    C2 9444   0.471   3.563  15.070 -0.0643 -0.5390  0.5431
  638MPD2    C3 9445   0.405   3.580  15.198  0.2327 -0.0640 -0.5384
  638MPD2    C4 9446   0.363   3.707  15.242 -0.1166 -0.3676  0.2220
  638MPD2    C5 9447   0.408   3.808  15.161 -0.0921  0.0984  0.0585
  638MPD2     H 9448   0.506   3.464  15.041  2.3796  0.2862  0.6311
  638MPD2    H1 9449   0.312   3.727  15.335 -1.2442 -3.5201  0.3034
  638MPD2    H2 9450   0.511   3.881  14.983  1.3168 -0.2651 -0.2510
  638MPD2    H3 9451   0.375   3.910  15.175 -0.2191 -0.1191  1.2908
  638MPD2     N 9452   0.379   3.468  15.286  0.4282  0.2547  0.3122
  638MPD2    H5 9453   0.402   3.377  15.248 -0.8097 -0.5241  1.4309
  638MPD2    N1 9454   0.571   3.675  14.872  0.0796 -0.2975 -0.0814
  638MPD2    H7 9455   0.585   3.765  14.829 -0.5216  0.4265  1.2561
  639TMC3    C1 9456   0.317   3.334  15.457 -0.1984  0.1248 -0.6336
  639TMC3    C2 9457   0.244   3.254  15.378  0.7715 -0.2526  0.3610
  639TMC3    C3 9458   0.267   3.123  15.383  0.6145 -0.8548  0.8137
  639TMC3    C4 9459   0.396   3.292  15.552  0.3717 -0.3877 -0.8491
  639TMC3    C5 9460   0.416   3.154  15.564 -0.3422 -0.1947  0.2421
  639TMC3    C6 9461   0.362   3.070  15.472  0.3520  0.2201 -0.4444
  639TMC3     C 9462   0.335   3.472  15.412 -0.0726 -0.3497  1.1308
  639TMC3     O 9463   0.319   3.568  15.489  0.3821 -0.3860  0.2682
  639TMC3     H 9464   0.186   3.293  15.295  2.1588 -1.5456 -1.1984
  639TMC3    H1 9465   0.444   3.368  15.613  0.6771 -1.5961  0.4463
  639TMC3    H2 9466   0.387   2.965  15.462 -3.5310 -0.5726 -1.8028
  639TMC3    C7 9467   0.530   3.104  15.627  0.3913 -0.0429  0.0797
  639TMC3    C8 9468   0.218   3.040  15.276  0.2638  1.0573 -0.4915
  639TMC3    O1 9469   0.538   2.988  15.660 -0.2109  0.3058 -0.5720
  639TMC3    O2 9470   0.300   2.990  15.202  0.4705 -0.9861 -0.1423
  640MPD2     C 9471   2.041   2.455  10.043  0.8390 -0.1194  0.3581
  640MPD2    C1 9472   2.097   2.467   9.913 -0.0374 -0.6735  0.5899
  640MPD2    C2 9473   2.054   2.569   9.836 -0.0349 -0.5398 -0.1650
  640MPD2    C3 9474   1.947   2.648   9.875  0.5057 -0.4289  0.1012
  640MPD2    C4 9475   1.910   2.644  10.003 -0.4144  0.1641  0.3724
  640MPD2    C5 9476   1.961   2.560  10.093  0.4743  0.5744 -0.1135
  640MPD2     H 9477   2.095   2.584   9.736 -1.0673  1.9525 -0.2134
  640MPD2    H1 9478   1.837   2.715  10.040 -0.3547 -0.0308  0.8658
  640MPD2    H2 9479   2.061   2.386  10.124 -2.3733 -0.2224  1.0928
  640MPD2    H3 9480   1.937   2.558  10.198  0.7182 -0.0088 -0.0672
  640MPD2     N 9481   1.882   2.746   9.795  0.5348  0.0496  0.2240
  640MPD2    H5 9482   1.804   2.798   9.834 -0.5696 -0.6193 -1.0822
  640MPD2    N1 9483   2.208   2.382   9.888 -0.1990 -0.1775 -0.1452
  640MPD2    H7 9484   2.228   2.300   9.944 -0.9167  1.1870  2.0923
  641TMC3    C1 9485   2.386   2.272   9.770  0.4562 -0.1416  0.1569
  641TMC3    C2 9486   2.366   2.153   9.840 -0.5007 -0.4440  0.0545
  641TMC3    C3 9487   2.449   2.048   9.824  0.3718 -0.6799  0.5471
  641TMC3    C4 9488   2.495   2.279   9.686  0.5138  0.2390 -0.6358
  641TMC3    C5 9489   2.585   2.173   9.691  1.1227 -0.0737  0.1084
  641TMC3    C6 9490   2.568   2.061   9.761 -0.3765 -0.3914 -0.5401
  641TMC3     C 9491   2.290   2.388   9.778  0.9183 -0.1071 -1.0576
  641TMC3     O 9492   2.285   2.474   9.691 -0.1985  0.6162  0.0218
  641TMC3     H 9493   2.272   2.136   9.890 -0.7212 -1.8883 -0.8732
  641TMC3    H1 9494   2.514   2.371   9.631 -1.6774  0.6088 -0.7993
  641TMC3    H2 9495   2.634   1.978   9.743 -1.5224 -1.1690 -1.2247
  641TMC3    C7 9496   2.670   2.169   9.573  0.2759  0.7455  0.3187
  641TMC3    C8 9497   2.414   1.913   9.862 -0.2082  0.1064 -0.1185
  641TMC3    O1 9498   2.620   2.222   9.474 -0.5249 -0.1097  0.5514
  641TMC3    O2 9499   2.503   1.830   9.851  0.2906  0.1714  0.3581
  642TMC3    C1 9500   2.583   3.926  12.070 -0.1135 -0.2738  0.1841
  642TMC3    C2 9501   2.709   3.923  12.122  0.4868 -0.3632  0.4871
  642TMC3    C3 9502   2.761   3.802  12.154  0.1806 -0.8330 -0.2511
  642TMC3    C4 9503   2.505   3.816  12.068  0.3971  0.3252  0.2380
  642TMC3    C5 9504   2.551   3.705  12.130 -0.6277 -0.2674  0.1315
  642TMC3    C6 9505   2.683   3.694  12.166  0.4790  0.4846  0.5886
  642TMC3     C 9506   2.534   4.042  12.001 -0.5879 -0.1491 -0.0278
  642TMC3     O 9507   2.616   4.099  11.929 -0.5321 -0.9986  0.2514
  642TMC3     H 9508   2.761   4.018  12.121 -0.3455  0.0866 -0.9462
  642TMC3    H1 9509   2.413   3.813  12.010  2.2939 -0.9859 -2.7129
  642TMC3    H2 9510   2.732   3.608  12.209  0.0011  0.0006  0.1680
  642TMC3    C7 9511   2.467   3.584  12.145  0.3060 -0.9041 -0.7211
  642TMC3    C8 9512   2.880   3.794  12.237  0.5160 -0.6713  0.2067
  642TMC3    O1 9513   2.369   3.582  12.073 -0.4774 -0.0056  0.7071
  642TMC3    O2 9514   2.878   3.729  12.341 -0.1271 -0.2426 -0.3502
  643TMC3    C1 9515   1.938   3.459   1.016  0.3222  0.7133  0.3799
  643TMC3    C2 9516   1.813   3.510   1.010 -0.0226  0.0613  0.5023
  643TMC3    C3 9517   1.706   3.429   0.985 -0.3964  0.4387  0.4733
  643TMC3    C4 9518   1.961   3.333   0.983 -0.6286 -0.3065 -0.5631
  643TMC3    C5 9519   1.854   3.259   0.939 -0.3442 -0.4120 -0.0070
  643TMC3    C6 9520   1.725   3.304   0.940 -0.1234 -0.4609 -0.3100
  643TMC3     C 9521   2.046   3.557   1.031  0.4515 -0.1940  0.2061
  643TMC3     O 9522   2.013   3.675   1.017 -0.2833  0.0112  0.0153
  643TMC3     H 9523   1.791   3.606   1.056 -2.1103  0.6560 -1.7758
  643TMC3    H1 9524   2.060   3.290   0.974 -0.1562  0.4181  1.3165
  643TMC3    H2 9525   1.642   3.248   0.897  0.3822  0.7909 -2.9367
  643TMC3    C7 9526   1.875   3.156   0.844  0.2906 -0.6608 -0.0651
  643TMC3    C8 9527   1.598   3.496   0.922 -0.0995 -0.5744  1.2926
  643TMC3    O1 9528   1.791   3.144   0.759 -0.3659 -0.0674 -0.0115
  643TMC3    O2 9529   1.484   3.452   0.935 -0.1182 -0.1227  0.2523
  644MPD2     C 9530   3.008   2.528   9.124 -0.5231 -0.4557  0.3107
  644MPD2    C1 9531   2.983   2.499   9.256  0.0710 -0.1358 -0.8106
  644MPD2    C2 9532   2.854   2.465   9.291  0.7910  0.7346 -0.6486
  644MPD2    C3 9533   2.751   2.465   9.193 -0.9909  0.3766 -0.0765
  644MPD2    C4 9534   2.780   2.484   9.058  0.1888  0.7163 -0.2790
  644MPD2    C5 9535   2.907   2.525   9.022 -0.2981 -0.3280  0.3453
  644MPD2     H 9536   2.832   2.432   9.392 -0.0699  2.1700 -0.3577
  644MPD2    H1 9537   2.710   2.462   8.978 -0.2918  0.5367  0.1998
  644MPD2    H2 9538   3.112   2.549   9.099 -0.5769  1.4487  1.6583
  644MPD2    H3 9539   2.937   2.545   8.920 -0.8187  0.2724  0.3108
  644MPD2     N 9540   2.619   2.432   9.230 -0.2130 -0.1309 -0.0830
  644MPD2    H5 9541   2.602   2.386   9.319  0.9452  0.5880  0.4978
  644MPD2    N1 9542   3.094   2.513   9.345  0.5462  0.0131 -0.3788
  644MPD2    H7 9543   3.179   2.548   9.302  1.7271  0.2289  2.1650
  645TMC3    C1 9544   2.378   2.435   9.203  0.0235 -0.1562 -0.7197
  645TMC3    C2 9545   2.268   2.499   9.146 -0.0071  0.3403  0.4019
  645TMC3    C3 9546   2.149   2.475   9.200 -0.0325 -0.5705 -0.0193
  645TMC3    C4 9547   2.364   2.350   9.307  0.5152  0.4018  1.0784
  645TMC3    C5 9548   2.239   2.324   9.356  0.2838  0.6046 -0.4280
  645TMC3    C6 9549   2.128   2.392   9.306  0.1015  0.5901  0.7733
  645TMC3     C 9550   2.510   2.479   9.158  0.3854 -0.0136 -0.2536
  645TMC3     O 9551   2.505   2.552   9.060 -0.0165  0.2901  0.3924
  645TMC3     H 9552   2.275   2.562   9.058  1.4354  0.3525  0.5133
  645TMC3    H1 9553   2.449   2.298   9.348  0.9194 -1.2432 -1.8956
  645TMC3    H2 9554   2.029   2.386   9.349 -0.5704 -0.0145 -0.8708
  645TMC3    C7 9555   2.235   2.210   9.446 -0.6218 -0.0005  0.6557
  645TMC3    C8 9556   2.025   2.497   9.119 -0.3717 -0.5847  0.0095
  645TMC3    O1 9557   2.319   2.120   9.448  0.2480 -0.3269 -0.7266
  645TMC3    O2 9558   1.943   2.406   9.118 -0.0861 -0.2586 -0.4752
  646MPD2     C 9559   0.722   2.289  14.880  0.8639 -1.0003  0.2534
  646MPD2    C1 9560   0.618   2.331  14.968  0.1870 -0.9019 -0.1736
  646MPD2    C2 9561   0.507   2.390  14.919 -0.3068 -0.4586 -0.6273
  646MPD2    C3 9562   0.492   2.412  14.780  0.3330 -0.3217  0.2816
  646MPD2    C4 9563   0.594   2.369  14.700  0.1919  0.2789  0.6754
  646MPD2    C5 9564   0.706   2.306  14.750  0.8628  0.2526  0.0242
  646MPD2     H 9565   0.431   2.428  14.986  1.0127  2.5560 -0.8390
  646MPD2    H1 9566   0.590   2.388  14.594 -1.1099  1.0736  0.8644
  646MPD2    H2 9567   0.810   2.238  14.918  1.1983 -0.1142  0.6465
  646MPD2    H3 9568   0.776   2.274  14.674  0.0129  0.5615 -0.8923
  646MPD2     N 9569   0.367   2.470  14.731  0.5269  0.1153  0.0135
  646MPD2    H5 9570   0.282   2.460  14.786  0.0215  1.6158 -0.5062
  646MPD2    N1 9571   0.649   2.318  15.107 -0.3770 -0.1648  0.2680
  646MPD2    H7 9572   0.742   2.289  15.134  0.7259  1.3622 -1.8860
  647TMC3    C1 9573   0.616   2.311  15.334 -0.2198 -0.0831 -0.3321
  647TMC3    C2 9574   0.566   2.204  15.412 -0.1536  0.0623 -0.8314
  647TMC3    C3 9575   0.646   2.159  15.511 -0.0435 -0.6603 -0.3159
  647TMC3    C4 9576   0.738   2.371  15.351  0.0935 -0.0238  0.3676
  647TMC3    C5 9577   0.816   2.314  15.455  0.3093 -0.3883  0.6998
  647TMC3    C6 9578   0.770   2.212  15.531 -0.0291 -0.1661 -0.0376
  647TMC3     C 9579   0.550   2.326  15.201  0.2812  0.1371  0.2709
  647TMC3     O 9580   0.429   2.308  15.196 -0.1643  0.2598  0.1019
  647TMC3     H 9581   0.471   2.167  15.376 -0.0039 -2.1416  1.0188
  647TMC3    H1 9582   0.771   2.450  15.286 -0.8972 -0.2136 -0.3606
  647TMC3    H2 9583   0.836   2.162  15.601 -0.0617 -0.6426 -0.3480
  647TMC3    C7 9584   0.957   2.317  15.434  0.2611  0.0588 -0.3892
  647TMC3    C8 9585   0.643   2.023  15.544 -0.0310 -0.6236  0.7987
  647TMC3    O1 9586   1.026   2.214  15.422  0.2844  0.4488  0.0999
  647TMC3    O2 9587   0.666   1.946  15.450  0.5214  0.1400  0.3808
  648TMC3    C1 9588   0.087   0.266  15.801 -0.2591  0.2703  0.1234
  648TMC3    C2 9589   0.069   0.136  15.759  0.9407  0.3433  0.1279
  648TMC3    C3 9590   4.706   0.110  15.657  0.3013  0.1750  0.0488
  648TMC3    C4 9591   0.024   0.371  15.746 -0.7960 -0.2801  0.3287
  648TMC3    C5 9592   4.657   0.342  15.644  1.0431 -0.5592 -0.8492
  648TMC3    C6 9593   4.637   0.213  15.596 -0.0491 -0.0101 -0.2836
  648TMC3     C 9594   0.150   0.294  15.937 -0.6273  0.8025 -0.3695
  648TMC3     O 9595   0.140   0.408  15.989  0.1176 -0.3417 -0.7836
  648TMC3     H 9596   0.118   0.054  15.811  0.0535 -0.5631 -0.4624
  648TMC3    H1 9597   0.028   0.471  15.788 -0.4597 -0.3424  0.4476
  648TMC3    H2 9598   4.565   0.189  15.518  0.9613  0.7477 -1.4521
  648TMC3    C7 9599   4.567   0.440  15.587  0.3516 -0.1361 -0.1215
  648TMC3    C8 9600   4.659   4.689  15.629 -0.4858 -0.6177  0.4741
  648TMC3    O1 9601   4.550   0.428  15.465 -0.3956  0.1648  0.5864
  648TMC3    O2 9602   4.552   4.671  15.571 -0.3118 -0.4443 -0.5648
  649TMC3    C1 9603   3.876   1.381  12.090 -0.5469  0.5015  0.2805
  649TMC3    C2 9604   3.979   1.432  12.015 -0.4827 -0.4100  0.2869
  649TMC3    C3 9605   4.101   1.449  12.077 -0.9042  0.5263 -0.1140
  649TMC3    C4 9606   3.891   1.350  12.225  0.2458  0.0999  0.0997
  649TMC3    C5 9607   4.013   1.354  12.277 -0.0676 -0.0166  0.2568
  649TMC3    C6 9608   4.118   1.407  12.202  0.5586 -0.4720 -0.0726
  649TMC3     C 9609   3.741   1.412  12.052  0.3110  0.0688  0.4864
  649TMC3     O 9610   3.655   1.438  12.132  0.0107  0.2524  0.0339
  649TMC3     H 9611   3.963   1.476  11.917 -0.0944 -1.0421 -0.0567
  649TMC3    H1 9612   3.803   1.313  12.276  0.9367 -0.6517  0.7613
  649TMC3    H2 9613   4.212   1.435  12.249  0.6992 -0.1120 -0.5702
  649TMC3    C7 9614   4.020   1.305  12.409 -0.2754 -0.0395  0.2462
  649TMC3    C8 9615   4.200   1.534  12.009  0.3817 -0.0027 -0.0140
  649TMC3    O1 9616   3.920   1.280  12.473 -0.5937 -0.0443 -0.0001
  649TMC3    O2 9617   4.258   1.604  12.092  0.0855 -0.4936 -0.1416
  650TMC3    C1 9618   1.520   3.017  12.378  0.7913  0.0859  0.2013
  650TMC3    C2 9619   1.515   3.155  12.388 -0.0374  0.7225 -0.0471
  650TMC3    C3 9620   1.545   3.231  12.275  1.0622 -0.2779  0.2887
  650TMC3    C4 9621   1.521   2.955  12.260 -0.1668 -0.0028  0.5044
  650TMC3    C5 9622   1.549   3.035  12.147 -0.6833 -0.0791  0.5191
  650TMC3    C6 9623   1.559   3.170  12.152 -0.2054 -0.1301  0.0508
  650TMC3     C 9624   1.485   2.939  12.496 -0.0468  0.2468 -0.4565
  650TMC3     O 9625   1.424   2.997  12.586 -0.1533  0.1307  0.2540
  650TMC3     H 9626   1.506   3.193  12.489 -0.7742  1.4669 -0.3944
  650TMC3    H1 9627   1.487   2.853  12.247 -0.4797  0.2156 -0.3871
  650TMC3    H2 9628   1.562   3.233  12.064  1.3639 -1.9230 -1.1745
  650TMC3    C7 9629   1.495   2.982  12.026 -0.4543  0.0050 -0.1320
  650TMC3    C8 9630   1.532   3.376  12.271  0.1828 -0.6849 -0.0959
  650TMC3    O1 9631   1.405   2.905  12.052 -0.2164 -0.1382  0.3454
  650TMC3    O2 9632   1.585   3.439  12.180 -0.2733  0.1978  0.3683
  651MPD2     C 9633   0.585   0.048  10.588 -1.0841 -0.1479 -0.1254
  651MPD2    C1 9634   0.560   0.161  10.657 -0.2476  0.3487  1.2868
  651MPD2    C2 9635   0.675   0.239  10.688  0.0702  0.3484 -0.3728
  651MPD2    C3 9636   0.804   0.201  10.656 -1.3323  0.2552 -0.7873
  651MPD2    C4 9637   0.823   0.084  10.583 -1.0888 -0.2132  0.2225
  651MPD2    C5 9638   0.710   0.004  10.561  0.4857 -1.0958  0.4805
  651MPD2     H 9639   0.660   0.330  10.743  3.1975 -1.5069  3.5262
  651MPD2    H1 9640   0.918   0.060  10.536 -2.4146 -3.4723 -0.7893
  651MPD2    H2 9641   0.506   4.711  10.543 -1.0889  0.3533 -0.7642
  651MPD2    H3 9642   0.725   4.638  10.500 -0.8304  0.4169 -2.0171
  651MPD2     N 9643   0.909   0.282  10.696 -0.1157  0.6775  0.1603
  651MPD2    H5 9644   0.880   0.361  10.752 -1.1053 -0.4612  1.2425
  651MPD2    N1 9645   0.433   0.213  10.692 -0.2996 -0.2054 -0.1966
  651MPD2    H7 9646   0.433   0.301  10.742  0.6968 -0.8371  0.9277
  652TMC3    C1 9647   1.320   0.379  10.908 -0.1059 -0.6681  0.8158
  652TMC3    C2 9648   1.245   0.302  10.820 -0.1023 -0.7359 -0.6070
  652TMC3    C3 9649   1.123   0.349  10.777 -1.0814  0.2387  0.2978
  652TMC3    C4 9650   1.282   0.505  10.932 -0.3811 -0.1943  0.1399
  652TMC3    C5 9651   1.158   0.550  10.888  0.4885  0.3499  0.1354
  652TMC3    C6 9652   1.084   0.478  10.798 -0.4064  0.3205  0.2035
  652TMC3     C 9653   1.453   0.346  10.941  0.3359  0.2716  0.2023
  652TMC3     O 9654   1.524   0.432  10.984  0.3051  0.0174 -0.7664
  652TMC3     H 9655   1.274   0.200  10.799  0.9555 -0.2471 -1.5244
  652TMC3    H1 9656   1.341   0.574  10.992 -0.6605  2.1915 -2.3611
  652TMC3    H2 9657   0.992   0.525  10.763 -0.1355  1.4177  0.9794
  652TMC3    C7 9658   1.123   0.689  10.912 -0.2506 -0.6053 -0.1301
  652TMC3    C8 9659   1.041   0.248  10.701  0.3901  0.2537  0.0488
  652TMC3    O1 9660   1.005   0.702  10.951  0.2402  0.0917  0.2696
  652TMC3    O2 9661   1.092   0.141  10.668  0.2894 -0.6387  0.1033
  653MPD2     C 9662   4.133   0.029  17.665 -0.2886 -0.5886  0.5957
  653MPD2    C1 9663   4.093   0.125  17.577 -0.3318 -0.0954 -1.0331
  653MPD2    C2 9664   3.988   0.091  17.486  0.1106  0.4519 -0.3466
  653MPD2    C3 9665   3.951   4.683  17.482 -0.2836 -0.7814 -0.2764
  653MPD2    C4 9666   4.001   4.584  17.558 -0.1650 -0.4271  0.9823
  653MPD2    C5 9667   4.088   4.624  17.661 -0.1694 -0.3589 -0.6042
  653MPD2     H 9668   3.947   0.159  17.413 -0.3940  0.5215 -0.0047
  653MPD2    H1 9669   3.967   4.482  17.554  0.7958 -0.7130  0.1809
  653MPD2    H2 9670   4.209   0.043   0.050  0.6413 -1.3521 -0.2100
  653MPD2    H3 9671   4.119   4.543   0.035  1.6466  0.6706 -0.2006
  653MPD2     N 9672   3.859   4.633  17.390  0.2467  0.2192 -0.0048
  653MPD2    H5 9673   3.859   4.531  17.390 -1.2918  0.2148  0.1067
  653MPD2    N1 9674   4.145   0.256  17.582 -0.1197  0.6069  0.3325
  653MPD2    H7 9675   4.224   0.280  17.641  0.4272 -2.9871  1.0639
  654TMC3    C1 9676   3.708   4.641  17.212  0.6378 -0.7740  0.0840
  654TMC3    C2 9677   3.601   4.706  17.157 -0.6102 -0.1319 -1.0468
  654TMC3    C3 9678   3.546   4.669  17.041 -0.5226 -0.1697  0.4178
  654TMC3    C4 9679   3.785   4.553  17.140  0.6537 -0.2020  0.0914
  654TMC3    C5 9680   3.733   4.521  17.020  0.0785 -0.8212 -0.0986
  654TMC3    C6 9681   3.611   4.576  16.970 -0.1770 -0.7781  0.1690
  654TMC3     C 9682   3.768   4.710  17.324  0.3730  0.5072 -0.1759
  654TMC3     O 9683   3.722   0.097  17.348 -0.2599  0.6000  0.7321
  654TMC3     H 9684   3.545   0.057  17.215  0.2863 -0.5207  0.3184
  654TMC3    H1 9685   3.886   4.525  17.165  0.7811 -0.5929 -0.8695
  654TMC3    H2 9686   3.571   4.543  16.875  0.7929  3.1678 -1.6048
  654TMC3    C7 9687   3.760   4.394  16.962 -0.5044 -0.7740 -0.5848
  654TMC3    C8 9688   3.414   0.006  17.003  0.4196  0.3572  0.8605
  654TMC3    O1 9689   3.727   4.377  16.844  0.4492  0.2002 -0.2567
  654TMC3    O2 9690   3.388   0.115  17.051 -0.2399  0.2786 -0.5391
  655MPD2     C 9691   0.416   0.526  15.357 -0.0146 -0.5374  0.7156
  655MPD2    C1 9692   0.285   0.557  15.316  0.5657 -0.7593 -0.6094
  655MPD2    C2 9693   0.221   0.463  15.242 -0.1146 -0.8160  0.0954
  655MPD2    C3 9694   0.284   0.343  15.213 -0.0316  0.3896  0.2725
  655MPD2    C4 9695   0.416   0.320  15.256  0.0328  0.3708  0.8449
  655MPD2    C5 9696   0.479   0.415  15.322  0.6058 -0.0756  0.0420
  655MPD2     H 9697   0.122   0.497  15.214 -0.0082  0.4921  1.2992
  655MPD2    H1 9698   0.472   0.229  15.237 -0.4323 -0.3867  3.0523
  655MPD2    H2 9699   0.471   0.600  15.414  1.4292  0.3518 -1.8361
  655MPD2    H3 9700   0.576   0.396  15.366  1.2108 -0.1841 -1.3134
  655MPD2     N 9701   0.212   0.234  15.153  0.5009 -0.2934 -0.2175
  655MPD2    H5 9702   0.266   0.151  15.131  0.0083 -0.8879  0.8183
  655MPD2    N1 9703   0.218   0.681  15.349 -0.5289  0.2335 -0.2079
  655MPD2    H7 9704   0.118   0.684  15.334 -0.1685  5.8074 -1.5435
  656TMC3    C1 9705   0.170   0.873  15.475 -0.7996  0.1235  0.1228
  656TMC3    C2 9706   0.142   0.861  15.607 -1.0745 -0.2950  0.3452
  656TMC3    C3 9707   0.019   0.898  15.654  0.2881  0.1555  0.0116
  656TMC3    C4 9708   0.074   0.916  15.387 -0.0366 -0.5207 -0.8587
  656TMC3    C5 9709   4.673   0.951  15.436  0.1796  0.1827 -0.5598
  656TMC3    C6 9710   4.644   0.945  15.573 -0.1390 -0.4820  0.2730
  656TMC3     C 9711   0.276   0.785  15.416 -0.4883 -0.5684  1.0606
  656TMC3     O 9712   0.383   0.797  15.470 -0.7233  0.4601  0.4628
  656TMC3     H 9713   0.232   0.831  15.659 -0.0206  0.2298 -1.1689
  656TMC3    H1 9714   0.105   0.940  15.286  1.5951 -2.5241 -0.8191
  656TMC3    H2 9715   4.548   0.976  15.613 -0.2924  0.3004 -0.7243
  656TMC3    C7 9716   4.582   0.973  15.327 -0.0218 -0.7690 -0.8250
  656TMC3    C8 9717   4.700   0.823  15.774 -0.3846  0.2961  0.2508
  656TMC3    O1 9718   4.627   0.949  15.214 -0.0328  0.2529  0.0608
  656TMC3    O2 9719   0.030   0.714  15.791  0.6086 -0.9568  0.4977
  657TMC3    C1 9720   3.705   4.650  14.816  0.2458  0.5261  0.9107
  657TMC3    C2 9721   3.739   4.676  14.949 -0.3624 -0.1371 -0.2664
  657TMC3    C3 9722   3.650   0.025  15.015 -0.4045  0.1540  0.1099
  657TMC3    C4 9723   3.613   0.005  14.757  0.2685  0.1787 -0.0304
  657TMC3    C5 9724   3.532   0.092  14.825 -0.5105  0.4516 -0.5168
  657TMC3    C6 9725   3.552   0.108  14.963  0.6020 -0.0598  0.0430
  657TMC3     C 9726   3.774   4.559  14.733  0.0618 -0.4591  0.3927
  657TMC3     O 9727   3.758   4.563  14.612  0.2511 -0.1269 -0.6446
  657TMC3     H 9728   3.819   4.618  14.995 -0.1184  1.2978  1.0979
  657TMC3    H1 9729   3.601   0.001  14.649  2.0038 -1.9635 -0.1358
  657TMC3    H2 9730   3.480   0.163  15.022  1.8372  1.0670  0.5216
  657TMC3    C7 9731   3.472   0.196  14.748 -0.5498  0.6515  0.2862
  657TMC3    C8 9732   3.684   0.056  15.150  0.2126 -0.0561 -0.3799
  657TMC3    O1 9733   3.468   0.182  14.627 -0.5517 -0.9932  0.3639
  657TMC3    O2 9734   3.653   0.170  15.191 -0.6636 -0.2335  0.1587
  658MPD2     C 9735   0.528   4.532  14.752 -0.4718  0.1622 -0.2844
  658MPD2    C1 9736   0.435   4.623  14.708 -1.3369  0.6238  1.5885
  658MPD2    C2 9737   0.462   4.688  14.587 -0.5511 -0.0069 -0.2744
  658MPD2    C3 9738   0.590   4.677  14.522 -0.1764 -0.2471  0.4200
  658MPD2    C4 9739   0.679   4.598  14.589 -0.7107  0.9783 -0.5806
  658MPD2    C5 9740   0.652   4.533  14.700  0.2883  0.5623 -0.0909
  658MPD2     H 9741   0.382   0.026  14.545 -0.6717  1.0178  1.4035
  658MPD2    H1 9742   0.785   4.591  14.567 -0.7475  1.6249 -0.9812
  658MPD2    H2 9743   0.517   4.465  14.836  1.1911  2.0135  1.4040
  658MPD2    H3 9744   0.738   4.489  14.751 -1.8822 -1.6209  1.6955
  658MPD2     N 9745   0.614   0.020  14.392  0.0374 -0.4309 -0.7821
  658MPD2    H5 9746   0.546   0.075  14.341  1.1517  0.8502 -0.9094
  658MPD2    N1 9747   0.317   4.643  14.784 -0.6261  0.3834  0.3957
  658MPD2    H7 9748   0.314   4.611  14.880  2.0247  0.6199  0.5621
  659TMC3    C1 9749   0.098   4.722  14.834 -0.3103  0.4240 -0.7543
  659TMC3    C2 9750   0.141   0.066  14.947  0.1633 -0.1907  1.3101
  659TMC3    C3 9751   0.044   0.127  15.026  0.0864  0.5264 -0.6280
  659TMC3    C4 9752   4.685   0.006  14.795  0.0913  0.0877 -0.6407
  659TMC3    C5 9753   4.597   0.085  14.867  0.4611  1.2601 -1.1483
  659TMC3    C6 9754   4.631   0.135  14.988  0.5242 -0.3361  0.1031
  659TMC3     C 9755   0.198   4.689  14.735  0.4149  0.1193 -0.4711
  659TMC3     O 9756   0.162   4.690  14.616 -0.3158 -0.5488 -0.1074
  659TMC3     H 9757   0.247   0.074  14.966  0.2855 -1.4943  1.2255
  659TMC3    H1 9758   4.656   4.672  14.706  2.3484  0.3195 -1.5051
  659TMC3    H2 9759   4.565   0.189  15.055  0.0623 -0.9306  0.1247
  659TMC3    C7 9760   4.463   0.115  14.820 -0.0373 -0.3802  0.2569
  659TMC3    C8 9761   0.083   0.240  15.110  0.7888 -0.2781 -0.3625
  659TMC3    O1 9762   4.419   0.218  14.868  0.1584 -0.0888 -0.1903
  659TMC3    O2 9763   0.015   0.338  15.107  0.1543 -0.0590  0.0072
  660MPD2     C 9764   3.563   3.514  12.882 -0.2918  0.0902 -0.7931
  660MPD2    C1 9765   3.443   3.484  12.815 -0.0990 -0.0016 -0.3127
  660MPD2    C2 9766   3.367   3.376  12.866  0.5939 -0.1276  0.3001
  660MPD2    C3 9767   3.396   3.313  12.980 -0.1049  0.0054 -0.1586
  660MPD2    C4 9768   3.522   3.331  13.045 -0.2196  0.4568 -0.1312
  660MPD2    C5 9769   3.596   3.434  12.995  0.5872 -0.3968 -0.0539
  660MPD2     H 9770   3.281   3.345  12.809  0.3377  2.3135 -0.6265
  660MPD2    H1 9771   3.533   3.299  13.148 -2.7133  0.6222  0.1721
  660MPD2    H2 9772   3.635   3.587  12.847  1.3621 -0.7477  0.8579
  660MPD2    H3 9773   3.681   3.466  13.053  0.2889 -0.6709  0.5380
  660MPD2     N 9774   3.307   3.215  13.033 -0.4940 -0.0739 -0.5440
  660MPD2    H5 9775   3.339   3.176  13.121  1.9840  1.1745 -0.8856
  660MPD2    N1 9776   3.408   3.547  12.697  0.4350 -0.0996  0.5665
  660MPD2    H7 9777   3.481   3.596  12.646  2.0991 -1.5098  1.5912
  661TMC3    C1 9778   3.255   3.588  12.510 -0.6020  0.4508 -0.1289
  661TMC3    C2 9779   3.356   3.642  12.431  0.7735 -0.1860 -0.2554
  661TMC3    C3 9780   3.344   3.633  12.298 -0.3606 -0.2388  0.2218
  661TMC3    C4 9781   3.132   3.545  12.455 -0.3169 -0.3563 -0.2104
  661TMC3    C5 9782   3.131   3.537  12.321 -0.3358 -0.1601  0.0302
  661TMC3    C6 9783   3.237   3.574  12.240  0.7364 -0.2477  0.2005
  661TMC3     C 9784   3.276   3.561  12.656 -0.4565  0.3442  0.3670
  661TMC3     O 9785   3.171   3.538  12.717 -0.5492 -0.3365  0.1127
  661TMC3     H 9786   3.443   3.685  12.480 -0.7535  2.3234  0.2982
  661TMC3    H1 9787   3.053   3.522  12.526 -0.1294 -0.2297  0.0416
  661TMC3    H2 9788   3.237   3.533  12.139  0.5817  2.2818 -0.8297
  661TMC3    C7 9789   3.032   3.449  12.258 -0.1446 -0.7184 -0.5711
  661TMC3    C8 9790   3.454   3.659  12.205 -0.2706 -0.2986 -0.1456
  661TMC3    O1 9791   2.989   3.364  12.333  0.0169 -0.2066 -0.1242
  661TMC3    O2 9792   3.444   3.612  12.093  0.0205 -0.1309  0.0035
  662MPD2     C 9793   3.915   3.363  17.329  0.2575  0.0317  0.2085
  662MPD2    C1 9794   3.867   3.346  17.455 -0.3376  0.0761 -0.3930
  662MPD2    C2 9795   3.852   3.463  17.529 -0.9217 -0.4269 -0.0343
  662MPD2    C3 9796   3.883   3.588  17.477 -0.1892 -0.2934 -0.2920
  662MPD2    C4 9797   3.916   3.600  17.346 -0.4834  0.2764 -0.0424
  662MPD2    C5 9798   3.942   3.484  17.276 -0.3055 -0.2947 -0.1055
  662MPD2     H 9799   3.808   3.456  17.628 -1.5450  0.3792 -0.2512
  662MPD2    H1 9800   3.946   3.689  17.292  0.7500  0.7110  1.3560
  662MPD2    H2 9801   3.930   3.278  17.264 -0.8653  1.4115 -1.8347
  662MPD2    H3 9802   3.994   3.488  17.181  1.8924 -1.4012  1.0366
  662MPD2     N 9803   3.886   3.705  17.552 -0.2723 -0.1765 -0.0854
  662MPD2    H5 9804   3.881   3.793  17.502 -2.2310 -0.3610 -0.2284
  662MPD2    N1 9805   3.838   3.221  17.511  0.7284  0.2337  0.4773
  662MPD2    H7 9806   3.818   3.232  17.610  0.1543  0.8215  0.2947
  663TMC3    C1 9807   3.779   2.997  17.533 -0.3070  0.5540 -0.6070
  663TMC3    C2 9808   3.746   3.035  17.663 -0.4273 -0.2349 -0.1993
  663TMC3    C3 9809   3.652   2.963   0.040  0.3202 -0.0039 -0.0378
  663TMC3    C4 9810   3.709   2.909  17.464  0.1715  0.3465  0.5742
  663TMC3    C5 9811   3.609   2.842  17.530  0.5783  0.2167  0.0186
  663TMC3    C6 9812   3.586   2.862  17.667  0.1451  0.2767  0.3536
  663TMC3     C 9813   3.863   3.092  17.464  0.2815 -0.1100 -0.0330
  663TMC3     O 9814   3.909   3.052  17.360  0.3370  0.0893 -0.1028
  663TMC3     H 9815   3.816   3.092   0.033  0.6481 -2.0157  0.2501
  663TMC3    H1 9816   3.735   2.890  17.361  0.7545 -1.4555  1.0571
  663TMC3    H2 9817   3.548   2.783   0.041  0.2582 -0.5488 -0.6006
  663TMC3    C7 9818   3.550   2.721  17.471  0.7281  0.0357  0.0385
  663TMC3    C8 9819   3.702   2.918   0.163  0.2303 -0.1949  1.0416
  663TMC3    O1 9820   3.590   2.683  17.364 -0.0090 -0.5632 -0.5067
  663TMC3    O2 9821   3.812   2.871   0.168 -0.8163 -0.3381  0.2723
  664MPD2     C 9822   1.626   1.578   0.088  0.0560 -0.9279  0.3547
  664MPD2    C1 9823   1.667   1.703   0.111  0.1320 -0.5372  0.0957
  664MPD2    C2 9824   1.659   1.758   0.240 -0.0948 -1.0257  0.2718
  664MPD2    C3 9825   1.613   1.676   0.341 -0.3731  0.3263 -0.6719
  664MPD2    C4 9826   1.569   1.546   0.321  0.4036 -0.8343 -0.1233
  664MPD2    C5 9827   1.578   1.503   0.196 -0.1907 -0.0965 -0.3045
  664MPD2     H 9828   1.710   1.852   0.256 -0.6968 -0.7497  0.6014
  664MPD2    H1 9829   1.536   1.471   0.392  1.9670 -0.2999  1.1678
  664MPD2    H2 9830   1.650   1.536  17.682 -0.5892 -1.6325  0.4918
  664MPD2    H3 9831   1.554   1.401   0.171  1.2453  0.3511 -3.5318
  664MPD2     N 9832   1.619   1.723   0.472  0.1903  0.1535  0.0508
  664MPD2    H5 9833   1.661   1.815   0.480 -0.4725  0.3348  1.4699
  664MPD2    N1 9834   1.736   1.777   0.009 -0.5119 -0.2962 -0.1037
  664MPD2    H7 9835   1.774   1.864   0.045 -2.1487 -0.6437  2.4887
  665TMC3    C1 9836   1.644   1.713   0.701  0.0026 -0.3576 -0.0159
  665TMC3    C2 9837   1.592   1.707   0.830  0.3542 -0.0900 -0.2200
  665TMC3    C3 9838   1.653   1.786   0.934  0.3097  0.2094 -0.0883
  665TMC3    C4 9839   1.765   1.776   0.683  0.2235  0.1249  0.0023
  665TMC3    C5 9840   1.827   1.845   0.793  0.3384  0.1887  0.1407
  665TMC3    C6 9841   1.772   1.843   0.912 -0.4054 -0.2952  0.4340
  665TMC3     C 9842   1.579   1.655   0.586 -0.0003 -0.6140 -0.3716
  665TMC3     O 9843   1.497   1.569   0.608  0.2807 -0.7645  0.0674
  665TMC3     H 9844   1.491   1.670   0.846 -0.5131  2.1447 -0.4749
  665TMC3    H1 9845   1.833   1.744   0.605  1.0686  2.0492 -0.0452
  665TMC3    H2 9846   1.810   1.912   0.987  3.1566 -0.9237 -0.7575
  665TMC3    C7 9847   1.966   1.880   0.786 -0.1014 -0.6826  0.3483
  665TMC3    C8 9848   1.631   1.763   1.073 -0.0774  0.4910  0.3969
  665TMC3    O1 9849   2.017   1.900   0.679 -0.1551 -0.2587  0.2194
  665TMC3    O2 9850   1.720   1.785   1.152 -0.0210  0.5847 -0.5011
  666TMC3    C1 9851   0.836   1.891  10.002 -0.0579 -0.2871 -0.3982
  666TMC3    C2 9852   0.898   1.789   9.939  0.0510 -0.0025 -0.1475
  666TMC3    C3 9853   1.022   1.810   9.881  0.0672 -0.1998  0.8269
  666TMC3    C4 9854   0.896   2.012  10.005  0.1215 -0.5681 -0.1183
  666TMC3    C5 9855   1.016   2.032   9.943 -0.0429  0.5998 -0.0414
  666TMC3    C6 9856   1.086   1.930   9.879  0.2172 -0.0277  0.2491
  666TMC3     C 9857   0.806   1.859  10.139  0.0366  0.4702 -0.2172
  666TMC3     O 9858   0.742   1.945  10.190 -0.0768 -0.8066  0.3371
  666TMC3     H 9859   0.855   1.690   9.929  1.9379 -1.0391  1.9927
  666TMC3    H1 9860   0.851   2.095  10.058  1.0081 -0.5189  0.5602
  666TMC3    H2 9861   1.186   1.933   9.838  0.2838 -0.6933  0.3569
  666TMC3    C7 9862   1.094   2.121  10.028 -0.6552  0.3847 -0.7753
  666TMC3    C8 9863   1.100   1.689   9.901  0.8153 -0.9578 -0.1691
  666TMC3    O1 9864   1.051   2.154  10.137  0.0115 -0.4320 -0.0682
  666TMC3    O2 9865   1.065   1.627  10.003  0.0996 -0.6745  0.3390
  667MPD2     C 9866   2.394   1.530  14.584 -0.0660 -0.2089  0.6533
  667MPD2    C1 9867   2.344   1.652  14.616  0.0358  0.1694 -0.0453
  667MPD2    C2 9868   2.258   1.705  14.528  0.3341 -0.2905 -0.0323
  667MPD2    C3 9869   2.209   1.638  14.413  0.8342 -0.0932 -0.4342
  667MPD2    C4 9870   2.252   1.516  14.388  0.3248  1.0096  0.1192
  667MPD2    C5 9871   2.353   1.467  14.466 -0.0539 -0.3477  0.0896
  667MPD2     H 9872   2.212   1.801  14.546  0.6511 -0.1107 -0.1707
  667MPD2    H1 9873   2.202   1.464  14.307 -0.8510  2.9401 -0.3791
  667MPD2    H2 9874   2.463   1.470  14.643 -0.3291 -2.0879 -0.9230
  667MPD2    H3 9875   2.382   1.364  14.449  0.0908 -0.2376 -0.3352
  667MPD2     N 9876   2.114   1.684  14.321  0.5737 -1.0184 -0.3790
  667MPD2    H5 9877   2.085   1.634  14.237 -0.5907 -1.6910  0.4214
  667MPD2    N1 9878   2.375   1.728  14.733  0.4066 -0.2276  0.0644
  667MPD2    H7 9879   2.313   1.805  14.755  0.6770 -0.1313  0.4762
  668TMC3    C1 9880   2.501   1.780  14.918  0.3917  1.5937  0.4114
  668TMC3    C2 9881   2.624   1.813  14.959  0.4967  0.7550 -0.0920
  668TMC3    C3 9882   2.640   1.829  15.096 -0.3968  0.1214 -0.0822
  668TMC3    C4 9883   2.396   1.761  15.005 -0.0695 -0.4447 -0.2838
  668TMC3    C5 9884   2.417   1.772  15.139 -0.5862 -0.0337 -0.1728
  668TMC3    C6 9885   2.538   1.803  15.185 -0.1506  0.6349 -0.0767
  668TMC3     C 9886   2.497   1.711  14.794 -0.2891  0.7784 -0.9702
  668TMC3     O 9887   2.591   1.635  14.762 -0.5340  0.2908  0.6864
  668TMC3     H 9888   2.700   1.825  14.883 -1.3927 -2.8788 -2.5250
  668TMC3    H1 9889   2.306   1.718  14.965  0.2879 -1.9366  0.5219
  668TMC3    H2 9890   2.556   1.813  15.292  0.6646 -0.7438 -0.0773
  668TMC3    C7 9891   2.319   1.759  15.240  0.1198  0.2056  1.4206
  668TMC3    C8 9892   2.713   1.948  15.138  0.4498  0.4362 -0.1333
  668TMC3    O1 9893   2.352   1.725  15.352 -0.2009  0.4503  0.2676
  668TMC3    O2 9894   2.677   2.007  15.239 -0.1807 -0.3843  0.1199
  669TMC3    C1 9895   0.427   1.412  14.559 -0.1263  0.3360 -0.6023
  669TMC3    C2 9896   0.331   1.380  14.464  0.4564  0.3228 -0.2244
  669TMC3    C3 9897   0.338   1.449  14.344  0.2394 -0.2400  0.6162
  669TMC3    C4 9898   0.526   1.495  14.531 -0.0375 -0.2156  0.2878
  669TMC3    C5 9899   0.529   1.561  14.416  0.0880  0.2028  0.5820
  669TMC3    C6 9900   0.443   1.534  14.314  0.4444  0.2225 -0.1279
  669TMC3     C 9901   0.424   1.345  14.685  0.1828 -0.0197  0.6473
  669TMC3     O 9902   0.317   1.297  14.722 -0.4273  0.1486  0.3113
  669TMC3     H 9903   0.250   1.312  14.489  0.4238  1.3541  2.4288
  669TMC3    H1 9904   0.602   1.522  14.604  0.4812  0.7189 -0.5959
  669TMC3    H2 9905   0.454   1.588  14.221 -0.0245  3.1746  1.5300
  669TMC3    C7 9906   0.651   1.626  14.377 -0.0045  0.5070  0.1794
  669TMC3    C8 9907   0.235   1.460  14.242  0.6456  1.4016 -0.2627
  669TMC3    O1 9908   0.698   1.687  14.475  0.5277  0.3628 -0.7280
  669TMC3    O2 9909   0.257   1.530  14.144 -0.0560 -0.2593 -0.4891
  670MPD2     C 9910   3.501   3.981  13.511  0.8812 -0.3471  0.6288
  670MPD2    C1 9911   3.595   4.012  13.605 -0.1408 -0.5053 -0.6131
  670MPD2    C2 9912   3.569   3.996  13.739 -0.3693  0.4728  0.5030
  670MPD2    C3 9913   3.445   3.956  13.782 -0.7568 -0.1131 -0.0958
  670MPD2    C4 9914   3.348   3.933  13.689  0.6110 -0.1536  0.1394
  670MPD2    C5 9915   3.374   3.954  13.553  0.8061 -0.5880 -0.1667
  670MPD2     H 9916   3.653   4.014  13.806 -1.7079 -0.9585  2.5421
  670MPD2    H1 9917   3.254   3.892  13.723 -0.0485 -0.1162 -1.6223
  670MPD2    H2 9918   3.513   3.989  13.404  2.8862 -4.9812  0.5226
  670MPD2    H3 9919   3.298   3.918  13.484  0.1524 -1.0658  0.7953
  670MPD2     N 9920   3.420   3.948  13.925 -0.2019  0.2730 -0.1995
  670MPD2    H5 9921   3.480   3.996  13.991 -0.4070  3.3913 -2.2175
  670MPD2    N1 9922   3.714   4.071  13.568  0.4189  0.1630 -0.8131
  670MPD2    H7 9923   3.777   4.107  13.640 -2.2669 -0.8044  2.0142
  671TMC3    C1 9924   3.307   3.902  14.127 -0.2827 -0.2734  0.4382
  671TMC3    C2 9925   3.414   3.885  14.209 -0.2172 -0.6544 -0.1937
  671TMC3    C3 9926   3.403   3.804  14.314  1.1720  0.1493 -0.6186
  671TMC3    C4 9927   3.183   3.870  14.176  0.4319 -0.0617 -1.2141
  671TMC3    C5 9928   3.171   3.814  14.299 -0.4176 -0.2014  0.0941
  671TMC3    C6 9929   3.275   3.781  14.367  0.1155 -0.6423 -0.0620
  671TMC3     C 9930   3.316   3.886  13.981  0.1769  0.2362 -0.1298
  671TMC3     O 9931   3.238   3.806  13.931 -0.1304  0.3973  0.1587
  671TMC3     H 9932   3.509   3.912  14.163  0.8614 -1.2792  1.6864
  671TMC3    H1 9933   3.088   3.888  14.127 -1.1119 -0.8087  1.4951
  671TMC3    H2 9934   3.260   3.731  14.462 -0.4447  0.4997  0.4510
  671TMC3    C7 9935   3.075   3.710  14.297 -0.5461  0.4405 -0.6582
  671TMC3    C8 9936   3.510   3.764  14.395 -0.7685 -0.5060  0.1175
  671TMC3    O1 9937   3.035   3.682  14.410  0.4398  0.1087 -0.6062
  671TMC3    O2 9938   3.496   3.762  14.517 -0.1793 -0.4333  0.0020
  672MPD2     C 9939   0.292   0.166   1.280  0.3826  0.2702 -0.1228
  672MPD2    C1 9940   0.245   0.150   1.151  0.7200  0.2099 -0.2372
  672MPD2    C2 9941   0.328   0.089   1.051  0.7649 -1.0356 -0.3638
  672MPD2    C3 9942   0.462   0.063   1.093  0.2764 -0.2987 -0.2167
  672MPD2    C4 9943   0.508   0.086   1.224 -0.1322  0.1659 -0.0548
  672MPD2    C5 9944   0.423   0.138   1.314  0.5111  0.1184  0.8805
  672MPD2     H 9945   0.290   0.076   0.951  1.2784  1.8615 -0.9335
  672MPD2    H1 9946   0.610   0.058   1.250 -0.6248 -1.7085 -0.1212
  672MPD2    H2 9947   0.223   0.189   1.360 -0.4145  0.1652 -0.7785
  672MPD2    H3 9948   0.449   0.138   1.419 -1.2158 -0.4732  1.2971
  672MPD2     N 9949   0.566   0.030   1.001 -0.4196  0.4554  0.1788
  672MPD2    H5 9950   0.652   0.082   1.018 -1.2235  2.0910 -0.7155
  672MPD2    N1 9951   0.115   0.174   1.113 -0.3030  0.1662 -0.3282
  672MPD2    H7 9952   0.092   0.157   1.015  0.6921 -0.4809 -0.4522
  673TMC3    C1 9953   4.619   0.241   1.124  0.2003  0.5772  0.1319
  673TMC3    C2 9954   4.580   0.129   1.057  0.4414  0.3220 -1.2902
  673TMC3    C3 9955   4.460   0.136   0.995  0.1047 -0.2861 -0.1461
  673TMC3    C4 9956   4.541   0.355   1.142  0.3300  0.9574 -0.5828
  673TMC3    C5 9957   4.424   0.356   1.073 -0.2154 -0.7641  0.1407
  673TMC3    C6 9958   4.374   0.246   1.006 -0.6909 -0.4793  0.0538
  673TMC3     C 9959   0.027   0.242   1.189  0.3168  0.0826  0.1525
  673TMC3     O 9960   0.050   0.313   1.285  0.4552 -0.1401  0.0981
  673TMC3     H 9961   4.638   0.037   1.057  0.6456  0.4447  0.3603
  673TMC3    H1 9962   4.572   0.443   1.198 -0.3264 -0.6309  2.2779
  673TMC3    H2 9963   4.275   0.248   0.964 -0.0140 -2.1970 -1.6260
  673TMC3    C7 9964   4.323   0.461   1.108  0.0472  0.0070  0.4595
  673TMC3    C8 9965   4.420   0.037   0.892 -0.0228 -0.1915  0.6201
  673TMC3    O1 9966   4.314   0.479   1.229 -0.2870 -1.2805  0.2277
  673TMC3    O2 9967   4.312   0.053   0.840  0.2998 -0.2238 -0.5328
  674MPD2     C 9968   0.174   3.617   0.981 -0.4400  0.2758 -0.3062
  674MPD2    C1 9969   0.090   3.634   0.872 -0.2002  0.3375  0.5402
  674MPD2    C2 9970   4.691   3.704   0.894  0.1250 -0.4104 -0.0266
  674MPD2    C3 9971   4.667   3.767   1.016  0.3272 -0.4320  0.2410
  674MPD2    C4 9972   0.033   3.756   1.117 -0.1323  0.3472  0.4574
  674MPD2    C5 9973   0.140   3.677   1.100 -1.0121  0.2136 -0.2622
  674MPD2     H 9974   4.618   3.712   0.814  0.4252  0.5494 -0.2055
  674MPD2    H1 9975   0.018   3.804   1.213 -2.9876 -0.1605  0.2834
  674MPD2    H2 9976   0.273   3.574   0.968  0.0619  1.3352  0.0465
  674MPD2    H3 9977   0.205   3.650   1.183 -1.9787  0.5837  0.6109
  674MPD2     N 9978   4.559   3.853   1.018  0.1279  0.0040 -0.4151
  674MPD2    H5 9979   4.504   3.862   0.933  0.6120  0.8005 -0.6395
  674MPD2    N1 9980   0.125   3.595   0.742  0.0433  0.5825 -0.7072
  674MPD2    H7 9981   0.215   3.551   0.732  0.3054  0.7224  1.0675
  675TMC3    C1 9982   0.139   3.614   0.513  0.0185 -0.0172  0.1587
  675TMC3    C2 9983   0.084   3.682   0.407 -0.3272  0.6095 -0.0145
  675TMC3    C3 9984   0.070   3.624   0.289  1.3187  0.2052 -0.2536
  675TMC3    C4 9985   0.196   3.486   0.499 -0.3925  0.4755 -0.6746
  675TMC3    C5 9986   0.194   3.438   0.371 -0.2317  0.1721 -0.4207
  675TMC3    C6 9987   0.124   3.499   0.280 -0.3633  0.3855  0.1296
  675TMC3     C 9988   0.057   3.628   0.634  0.2580 -0.5126  0.8086
  675TMC3     O 9989   4.668   3.672   0.611  0.6462 -0.4716 -0.1242
  675TMC3     H 9990   0.053   3.784   0.423 -0.5751  0.3635  1.0967
  675TMC3    H1 9991   0.225   3.422   0.582 -1.8230 -2.1266 -2.1974
  675TMC3    H2 9992   0.116   3.443   0.188 -1.0772  1.5827 -0.5436
  675TMC3    C7 9993   0.281   3.328   0.337 -0.0123 -0.4012  0.2532
  675TMC3    C8 9994   4.659   3.635   0.245  0.3745 -0.3291 -0.5122
  675TMC3    O1 9995   0.251   3.255   0.246  0.2211 -0.3988 -0.5473
  675TMC3    O2 9996   4.641   3.609   0.126 -0.8819  0.3756  0.1607
  676MPD2     C 9997   2.204   2.897  10.723  0.7346  0.0857 -0.3379
  676MPD2    C1 9998   2.130   2.852  10.824  0.1027  0.1417  0.1876
  676MPD2    C2 9999   2.104   2.717  10.832  0.0952  0.0644 -0.5165
  676MPD2    C310000   2.139   2.634  10.732 -0.4018  0.1393  0.1961
  676MPD2    C410001   2.231   2.681  10.637 -0.0007  0.4653  0.5131
  676MPD2    C510002   2.260   2.818  10.628  0.0656 -0.3705 -0.6721
  676MPD2     H10003   2.032   2.682  10.905  1.1259  1.9207  1.4065
  676MPD2    H110004   2.280   2.609  10.572  0.5929  0.5925  0.8203
  676MPD2    H210005   2.231   3.002  10.716 -0.9434  0.7020  2.5272
  676MPD2    H310006   2.332   2.865  10.563  1.2994  0.2750  1.1563
  676MPD2     N10007   2.109   2.492  10.725  0.7057  0.7047 -0.2032
  676MPD2    H510008   2.148   2.440  10.647 -1.4672 -1.8712  0.4277
  676MPD2    N110009   2.073   2.947  10.914 -0.1317  1.1584 -0.0594
  676MPD2    H710010   2.106   3.043  10.915  1.1689  0.7257 -1.1772
  677TMC3    C110011   1.966   3.017  11.117  0.3649  0.7489  0.0401
  677TMC3    C210012   1.920   2.971  11.235 -0.4045 -0.8973  0.8796
  677TMC3    C310013   1.884   3.057  11.332 -0.5946  0.0326  0.5234
  677TMC3    C410014   2.014   3.144  11.106 -0.5484 -0.1016 -0.9712
  677TMC3    C510015   1.992   3.228  11.215 -0.1384  0.3445 -0.2003
  677TMC3    C610016   1.932   3.184  11.330 -0.0328 -0.4072  0.1493
  677TMC3     C10017   1.969   2.924  11.011 -0.2487 -0.4182 -0.3757
  677TMC3     O10018   1.894   2.825  11.019 -0.1338  0.4098  0.3278
  677TMC3     H10019   1.891   2.866  11.238 -0.1373 -1.0050 -0.2044
  677TMC3    H110020   2.053   3.181  11.012 -0.6367  1.1768 -0.5014
  677TMC3    H210021   1.898   3.254  11.405 -0.5011  0.0358 -0.4708
  677TMC3    C710022   1.988   3.368  11.194 -0.7715 -0.6815 -0.3586
  677TMC3    C810023   1.814   3.002  11.445  0.1654  0.8484 -0.0224
  677TMC3    O110024   1.922   3.433  11.265 -0.3111  1.0507 -0.1374
  677TMC3    O210025   1.816   3.056  11.554  0.2302  0.6959 -0.7793
  678MPD2     C10026   2.814   2.601   2.094 -0.1347  0.3696  0.3351
  678MPD2    C110027   2.804   2.629   1.955 -0.6388 -0.7350  0.3793
  678MPD2    C210028   2.680   2.667   1.904 -0.2910  0.3807 -0.6327
  678MPD2    C310029   2.557   2.668   1.977 -0.2255  0.0509  0.2625
  678MPD2    C410030   2.562   2.628   2.109  0.1783  0.8458 -0.3512
  678MPD2    C510031   2.689   2.593   2.160 -0.4084  0.3043  0.3646
  678MPD2     H10032   2.675   2.678   1.796  1.0862 -0.4225 -0.7727
  678MPD2    H110033   2.482   2.617   2.181  1.6636  2.7474  1.6065
  678MPD2    H210034   2.909   2.579   2.142 -0.0235 -2.8885 -1.3790
  678MPD2    H310035   2.687   2.557   2.262 -0.8309 -0.7778 -0.0255
  678MPD2     N10036   2.440   2.688   1.898  0.1142  0.0639 -0.1599
  678MPD2    H510037   2.450   2.710   1.800  1.5801 -1.0976 -0.2687
  678MPD2    N110038   2.912   2.622   1.863  0.5105 -0.0186 -0.3023
  678MPD2    H710039   2.891   2.645   1.766  0.7431 -1.5099 -0.7081
  679TMC3    C110040   3.330   2.487   1.675  0.8963 -0.5302  0.7691
  679TMC3    C210041   3.252   2.518   1.788 -0.8196 -0.0670 -0.1002
  679TMC3    C310042   3.116   2.542   1.775  0.2457 -0.2280 -0.3086
  679TMC3    C410043   3.270   2.457   1.554  0.0713  0.3467 -0.0904
  679TMC3    C510044   3.135   2.482   1.550 -1.0016 -0.3526  0.9258
  679TMC3    C610045   3.058   2.533   1.654  0.2893 -0.4357 -0.7979
  679TMC3     C10046   3.477   2.485   1.677 -0.6898  0.3214  0.8679
  679TMC3     O10047   3.540   2.460   1.573  0.5711 -0.7353  0.5899
  679TMC3     H10048   3.301   2.539   1.883 -1.6620 -0.3029  0.3898
  679TMC3    H110049   3.333   2.449   1.466  0.6320  2.0746  0.1687
  679TMC3    H210050   2.950   2.529   1.644  0.2084  1.7445 -0.8150
  679TMC3    C710051   3.078   2.486   1.420 -0.1007  0.5971 -0.3460
  679TMC3    C810052   3.045   2.584   1.893 -0.0006  0.3142 -0.0000
  679TMC3    O110053   2.981   2.562   1.412 -0.1108 -0.2637  0.8631
  679TMC3    O210054   3.110   2.581   1.996 -0.4152  0.0095 -0.0094
  680MPD2     C10055   3.407   1.301  13.133 -0.0212 -0.2300  0.4092
  680MPD2    C110056   3.480   1.239  13.235  0.2830 -0.4573  0.5254
  680MPD2    C210057   3.444   1.267  13.365 -0.7472 -0.4863  0.2298
  680MPD2    C310058   3.356   1.370  13.398 -0.5021  0.7340  0.0303
  680MPD2    C410059   3.285   1.425  13.291 -0.4647 -1.2717  0.7306
  680MPD2    C510060   3.293   1.373  13.160 -0.2546  0.1065  0.0113
  680MPD2     H10061   3.502   1.213  13.439  1.3057  0.1430 -0.9115
  680MPD2    H110062   3.219   1.510  13.306  1.7851  0.9150 -1.6187
  680MPD2    H210063   3.438   1.284  13.030 -1.6934  0.6060 -0.2393
  680MPD2    H310064   3.232   1.422  13.085  0.3062  0.9754  0.1224
  680MPD2     N10065   3.342   1.435  13.528  0.0641  0.7376  0.3554
  680MPD2    H510066   3.273   1.509  13.535  0.8206  1.5875 -1.1759
  680MPD2    N110067   3.588   1.148  13.217 -0.2462 -0.0657  0.1630
  680MPD2    H710068   3.610   1.102  13.305  1.7158 -0.0975 -0.3520
  681TMC3    C110069   3.782   1.049  13.115 -0.1848 -0.0331 -0.1805
  681TMC3    C210070   3.782   0.953  13.209 -0.7781 -0.2229  0.4316
  681TMC3    C310071   3.898   0.884  13.226  0.5430 -0.2426 -0.1461
  681TMC3    C410072   3.889   1.083  13.047 -0.2956 -0.0536 -0.1352
  681TMC3    C510073   4.006   1.017  13.079  0.0404  0.0971 -0.0697
  681TMC3    C610074   4.015   0.912  13.166 -0.2357  0.1488  0.5024
  681TMC3     C10075   3.666   1.133  13.099 -0.4139 -0.4465  0.2844
  681TMC3     O10076   3.668   1.203  12.998 -0.1961 -0.3399 -0.0864
  681TMC3     H10077   3.692   0.915  13.256 -0.5074 -2.1135 -0.5909
  681TMC3    H110078   3.905   1.181  13.003 -1.4637 -0.4333 -1.3879
  681TMC3    H210079   4.103   0.862  13.203  0.1806 -0.2100 -0.9484
  681TMC3    C710080   4.126   1.067  13.010 -0.7138 -0.7822  1.5541
  681TMC3    C810081   3.912   0.803  13.348  0.0705  0.2216 -0.0418
  681TMC3    O110082   4.229   1.061  13.075  0.0352  0.1586  0.0006
  681TMC3    O210083   4.000   0.718  13.348 -0.4488 -0.0853  0.3551
  682MPD2     C10084   1.162   3.365  10.501 -0.1797  0.0222  0.7354
  682MPD2    C110085   1.124   3.247  10.558  0.1888  0.2112 -0.4017
  682MPD2    C210086   1.064   3.256  10.684  0.4906  0.4411 -0.2098
  682MPD2    C310087   1.040   3.380  10.739  0.6069 -0.6077  0.0359
  682MPD2    C410088   1.084   3.501  10.686  1.1486 -0.6562  0.0423
  682MPD2    C510089   1.147   3.492  10.561  0.1560 -0.3003  0.3601
  682MPD2     H10090   1.036   3.161  10.727  2.4417  0.9326  2.1170
  682MPD2    H110091   1.066   3.599  10.730  0.3383 -1.1642  0.8298
  682MPD2    H210092   1.221   3.358  10.410  0.1528  1.1628  0.8641
  682MPD2    H310093   1.182   3.585  10.517 -1.6190 -0.1238 -0.6775
  682MPD2     N10094   0.969   3.388  10.863 -0.0818  0.5173 -0.1856
  682MPD2    H510095   0.974   3.472  10.920 -0.4783  0.1352  0.4128
  682MPD2    N110096   1.154   3.121  10.507 -0.4631 -0.5321 -0.1075
  682MPD2    H710097   1.126   3.043  10.566 -0.4757 -0.8322 -0.5122
  683TMC3    C110098   0.860   3.447  11.238  0.0871  0.0442 -0.4082
  683TMC3    C210099   0.740   3.395  11.272 -0.2421 -1.2703  0.3973
  683TMC3    C310100   0.684   3.291  11.201 -0.3081 -0.2885 -0.1071
  683TMC3    C410101   0.913   3.412  11.117 -0.2573  0.1880 -0.3432
  683TMC3    C510102   0.853   3.309  11.047 -1.2442 -0.0215  0.0422
  683TMC3    C610103   0.738   3.252  11.086  0.3760  0.5541 -0.2399
  683TMC3     C10104   0.932   3.522  11.338  0.5650 -0.2534  0.4828
  683TMC3     O10105   0.883   3.517  11.449 -0.0892 -0.1660 -0.1366
  683TMC3     H10106   0.687   3.433  11.359  1.8049  0.9639  0.6746
  683TMC3    H110107   1.014   3.447  11.097 -1.0480  2.6252 -0.0171
  683TMC3    H210108   0.681   3.189  11.019 -0.0131  1.6653 -0.9695
  683TMC3    C710109   0.902   3.277  10.912  0.0924 -0.6147 -0.0297
  683TMC3    C810110   0.591   3.210  11.275 -0.4798 -0.2446 -0.3105
  683TMC3    O110111   0.847   3.183  10.860  0.3915 -0.1635  0.3793
  683TMC3    O210112   0.522   3.265  11.356  0.5188 -0.6546  0.0786
  684MPD2     C10113   3.243   2.128  16.160  0.0131  0.1409 -0.5057
  684MPD2    C110114   3.381   2.143  16.170 -0.2856  0.5893 -0.2032
  684MPD2    C210115   3.427   2.252  16.230  0.4047 -0.2819 -0.1249
  684MPD2    C310116   3.345   2.348  16.287  0.9399  0.3212 -0.1475
  684MPD2    C410117   3.209   2.337  16.273  0.0926 -1.0918 -0.1677
  684MPD2    C510118   3.160   2.224  16.210 -0.1856 -0.5176 -0.1185
  684MPD2     H10119   3.534   2.266  16.243 -0.1984  2.5945  1.8465
  684MPD2    H110120   3.142   2.413  16.313 -1.0543 -1.9655 -0.4261
  684MPD2    H210121   3.198   2.041  16.114  1.7917 -1.2368  0.3713
  684MPD2    H310122   3.053   2.210  16.195  0.2336 -1.7854 -2.0245
  684MPD2     N10123   3.394   2.470  16.350 -0.2166 -0.0522 -0.3550
  684MPD2    H510124   3.333   2.543  16.385  1.8866  0.5661  2.0571
  684MPD2    N110125   3.470   2.043  16.128  0.4306  0.2117 -0.4089
  684MPD2    H710126   3.560   2.046  16.175  0.3766 -0.3574 -0.2670
  685TMC3    C110127   3.562   1.848  16.023  0.2398 -0.1566 -0.2186
  685TMC3    C210128   3.531   1.748  15.935 -0.2167  0.3148 -0.3043
  685TMC3    C310129   3.617   1.728  15.835  0.4891 -0.0910  0.8376
  685TMC3    C410130   3.677   1.926  16.011 -0.1379 -0.1117 -0.6164
  685TMC3    C510131   3.756   1.899  15.904  0.1016  0.2184  0.3791
  685TMC3    C610132   3.729   1.797  15.815 -1.1615  0.2876 -0.0842
  685TMC3     C10133   3.446   1.938  16.045 -0.0000 -0.2906 -0.1659
  685TMC3     O10134   3.349   1.888  15.987  0.4570  0.0574 -0.3036
  685TMC3     H10135   3.457   1.673  15.960  0.7581  0.3759  2.7605
  685TMC3    H110136   3.697   2.018  16.066 -0.7152 -1.8207  2.4269
  685TMC3    H210137   3.787   1.777  15.726  0.8773 -0.7693  1.4827
  685TMC3    C710138   3.885   1.968  15.897  0.4514 -0.5319 -0.1746
  685TMC3    C810139   3.540   1.697  15.714  0.1644  0.3710 -0.4514
  685TMC3    O110140   3.936   1.990  15.786  0.0520  0.0165  0.6329
  685TMC3    O210141   3.602   1.650  15.620 -0.1493  0.3184  0.1654
  686MPD2     C10142   0.255   2.025  15.594  0.2054  0.0150  0.4362
  686MPD2    C110143   0.280   1.962  15.708  0.1569  0.0380  0.2501
  686MPD2    C210144   0.327   1.828  15.702 -0.1064  0.5481  0.7459
  686MPD2    C310145   0.344   1.762  15.587  0.2006  0.1458  0.6896
  686MPD2    C410146   0.316   1.836  15.469 -0.5260  0.4391  0.8624
  686MPD2    C510147   0.265   1.964  15.472 -0.2675 -0.0967 -0.0667
  686MPD2     H10148   0.369   1.785  15.792 -0.2543 -0.1941  0.4571
  686MPD2    H110149   0.322   1.784  15.374 -0.1850 -0.5314  1.4100
  686MPD2    H210150   0.221   2.128  15.597 -0.0004 -0.0457  0.0846
  686MPD2    H310151   0.252   2.022  15.381  0.1162 -1.0992 -0.7654
  686MPD2     N10152   0.384   1.627  15.560 -0.9337  0.2615  0.0908
  686MPD2    H510153   0.406   1.604  15.463  1.8151  0.6947  0.6153
  686MPD2    N110154   0.240   2.030  15.828  0.2886 -0.3771 -0.2981
  686MPD2    H710155   0.212   2.127  15.816  0.4193 -0.5449 -2.0416
  687TMC3    C110156   0.326   1.524  15.779  0.8795  0.6952  0.5549
  687TMC3    C210157   0.195   1.565  15.773  0.5308 -0.1630  0.2293
  687TMC3    C310158   0.121   1.541  15.883 -0.2610  1.1135  0.3479
  687TMC3    C410159   0.378   1.464  15.884 -0.7765  0.2882  1.1267
  687TMC3    C510160   0.308   1.459  15.999  0.5421  0.0784  0.4266
  687TMC3    C610161   0.183   1.500  16.001  0.2016 -0.4259 -0.6385
  687TMC3     C10162   0.404   1.528  15.655 -0.1396 -0.5628 -0.0411
  687TMC3     O10163   0.459   1.424  15.626  0.1154  0.5908 -0.8731
  687TMC3     H10164   0.166   1.589  15.671  2.6159  2.9311  0.3913
  687TMC3    H110165   0.476   1.416  15.882 -0.7068  0.5251 -0.6144
  687TMC3    H210166   0.132   1.491  16.097  1.1008  1.6829  0.0298
  687TMC3    C710167   0.374   1.475  16.134  0.0070 -0.5198  0.4981
  687TMC3    C810168   4.716   1.610  15.883 -0.0937  0.4371  0.3887
  687TMC3    O110169   0.301   1.521  16.221  0.1506 -0.4744 -1.0214
  687TMC3    O210170   4.644   1.607  15.983  0.0498 -0.8398 -0.4580
  688MPD2     C10171   4.316   0.879  17.083  0.7491 -0.5037 -0.2146
  688MPD2    C110172   4.370   0.764  17.130 -0.1455  0.1688  0.3120
  688MPD2    C210173   4.447   0.685  17.040 -0.0649 -0.4499  0.3465
  688MPD2    C310174   4.461   0.723  16.910  0.2093  0.3283 -0.1537
  688MPD2    C410175   4.390   0.835  16.866 -0.4244  0.3171 -0.0791
  688MPD2    C510176   4.327   0.911  16.955 -0.2660  0.0543  0.5960
  688MPD2     H10177   4.499   0.597  17.075 -1.0533 -0.8227  0.8979
  688MPD2    H110178   4.383   0.866  16.762 -1.2882  4.3487  1.1739
  688MPD2    H210179   4.258   0.944  17.147  2.0159  1.8930 -1.4984
  688MPD2    H310180   4.269   0.996  16.920  0.5318  1.7723  3.4327
  688MPD2     N10181   4.562   0.682  16.822  0.7571  0.3588 -0.2963
  688MPD2    H510182   4.565   0.729  16.732  0.5385 -0.2100 -0.5952
  688MPD2    N110183   4.363   0.718  17.265 -0.1909 -0.5919 -0.4078
  688MPD2    H710184   4.420   0.637  17.287 -0.4968 -0.9943 -1.1206
  689TMC3    C110185   4.255   0.681  17.471  0.0784  0.4767 -0.2808
  689TMC3    C210186   4.200   0.747  17.577  0.6926  0.1042  0.1099
  689TMC3    C310187   4.134   0.669  17.671 -0.2004 -0.9490  0.3444
  689TMC3    C410188   4.242   0.549  17.441 -0.5912  0.8487  0.1896
  689TMC3    C510189   4.180   0.479  17.538 -0.1518 -0.3367  0.4192
  689TMC3    C610190   4.118   0.538  17.651  0.3112 -0.7740  0.8593
  689TMC3     C10191   4.272   0.767  17.357  0.3926 -0.3180  0.0277
  689TMC3     O10192   4.190   0.856  17.344  0.1403 -0.2777  0.4043
  689TMC3     H10193   4.218   0.851  17.599 -0.2242  0.2401  0.1868
  689TMC3    H110194   4.265   0.507  17.344 -0.6887 -0.6459  0.8162
  689TMC3    H210195   4.055   0.485   0.032 -0.8448 -0.7387 -0.1452
  689TMC3    C710196   4.120   0.354  17.492 -0.1708  0.3398 -0.7312
  689TMC3    C810197   4.137   0.718   0.121 -0.0551 -0.1319 -0.6342
  689TMC3    O110198   4.062   0.361  17.382 -0.2534  0.0867  0.2349
  689TMC3    O210199   4.136   0.641   0.217  0.5911 -0.4125 -0.6876
  690MPD2     C10200   1.511   2.857  15.547 -0.0393  0.7192  0.6459
  690MPD2    C110201   1.576   2.738  15.542  0.2390 -0.1319  0.2274
  690MPD2    C210202   1.708   2.741  15.499  0.0073  0.3130 -0.3644
  690MPD2    C310203   1.775   2.855  15.473 -1.1272  0.2275  0.6880
  690MPD2    C410204   1.713   2.973  15.497  0.4246  0.1800  0.4497
  690MPD2    C510205   1.579   2.970  15.520  0.5249 -0.2088  0.1875
  690MPD2     H10206   1.774   2.658  15.482  1.0877  1.3786 -1.3839
  690MPD2    H110207   1.750   3.073  15.476  2.6282 -0.1044  3.0656
  690MPD2    H210208   1.405   2.872  15.567 -0.2046 -1.4029  1.3442
  690MPD2    H310209   1.525   3.064  15.514  0.3760 -0.3364 -0.5427
  690MPD2     N10210   1.911   2.837  15.426 -0.1250  0.7822  0.6141
  690MPD2    H510211   1.955   2.746  15.434 -2.1495 -0.4626 -2.1940
  690MPD2    N110212   1.519   2.611  15.564  0.4268 -0.2396  0.5252
  690MPD2    H710213   1.581   2.534  15.540 -0.1096 -0.5082  0.0178
  691TMC3    C110214   1.356   2.451  15.650 -0.3700  0.0680  0.4262
  691TMC3    C210215   1.247   2.432  15.733  0.2490 -0.0347 -0.3206
  691TMC3    C310216   1.174   2.316  15.731  0.0480 -0.1213 -0.2757
  691TMC3    C410217   1.407   2.344  15.577  0.4613 -0.1533 -0.5162
  691TMC3    C510218   1.347   2.223  15.594 -0.9758 -0.5446 -0.1389
  691TMC3    C610219   1.228   2.206  15.665 -0.1524 -0.1792 -0.0739
  691TMC3     C10220   1.401   2.594  15.628  0.2265 -0.3428 -0.2861
  691TMC3     O10221   1.323   2.673  15.678  0.1763 -0.8567  0.1928
  691TMC3     H10222   1.216   2.505  15.807 -1.2378  1.1252 -2.0598
  691TMC3    H110223   1.472   2.368  15.493 -1.2582  2.2974 -1.1548
  691TMC3    H210224   1.182   2.108  15.671 -1.3935  0.2985 -1.7619
  691TMC3    C710225   1.390   2.120  15.499  0.0501 -0.2753  0.4397
  691TMC3    C810226   1.046   2.303  15.804 -0.1136 -0.1328 -0.8932
  691TMC3    O110227   1.460   2.149  15.402 -0.2280  0.3387  0.0555
  691TMC3    O210228   1.013   2.187  15.817  0.1869  0.1620 -0.0138
  692TMC3    C110229   3.525   3.745  16.032  0.5596 -0.4705  0.5287
  692TMC3    C210230   3.655   3.726  16.072 -0.3594 -0.2002 -0.1849
  692TMC3    C310231   3.722   3.614  16.032 -0.8992 -0.1056  0.4955
  692TMC3    C410232   3.467   3.677  15.930 -0.4222 -0.1498 -0.1625
  692TMC3    C510233   3.535   3.571  15.879  0.7527 -0.8524  1.0249
  692TMC3    C610234   3.658   3.534  15.942  0.3857 -0.5830 -0.2664
  692TMC3     C10235   3.443   3.827  16.115 -0.8506  1.6405  0.3543
  692TMC3     O10236   3.321   3.815  16.105  0.5940  0.3909  0.6945
  692TMC3     H10237   3.696   3.773  16.160 -1.1693  2.0648 -1.0101
  692TMC3    H110238   3.373   3.698  15.880  0.7149  1.5901 -1.5510
  692TMC3    H210239   3.728   3.462  15.899  3.2466  1.1421  1.4678
  692TMC3    C710240   3.457   3.458  15.834 -1.0228 -0.3365  0.2128
  692TMC3    C810241   3.765   3.532  16.142  0.7286  0.3825  0.1936
  692TMC3    O110242   3.351   3.484  15.775 -0.1468 -0.2508  0.0668
  692TMC3    O210243   3.841   3.440  16.132  0.1304  0.2096  0.0739
  693MPD2     C10244   2.958   1.779  10.386 -0.2341 -0.1696 -0.4761
  693MPD2    C110245   2.960   1.637  10.383 -0.5113 -0.4815 -0.0452
  693MPD2    C210246   3.075   1.572  10.422  0.4744 -0.4075 -0.4170
  693MPD2    C310247   3.185   1.642  10.469 -0.2634  0.2045  0.4941
  693MPD2    C410248   3.170   1.778  10.489 -0.0718 -0.4725 -0.4619
  693MPD2    C510249   3.063   1.847  10.437 -0.7698  0.0980  0.0516
  693MPD2     H10250   3.073   1.464  10.414  0.3409 -0.3235 -1.4523
  693MPD2    H110251   3.252   1.833  10.534 -2.2502 -0.4885  3.5435
  693MPD2    H210252   2.866   1.836  10.378 -0.6380 -0.9061 -1.0118
  693MPD2    H310253   3.050   1.953  10.449 -1.0964  0.1497 -0.7338
  693MPD2     N10254   3.309   1.578  10.501  0.9454 -0.5948 -0.2772
  693MPD2    H510255   3.390   1.634  10.527 -0.7572  2.0335 -0.6216
  693MPD2    N110256   2.830   1.570  10.393 -0.2421 -0.4971  0.1914
  693MPD2    H710257   2.747   1.624  10.413  0.3246  0.0688  0.9682
  694TMC3    C110258   2.708   1.409  10.505  0.0325 -0.3267  0.5635
  694TMC3    C210259   2.649   1.287  10.507 -0.0783  0.0807  0.1696
  694TMC3    C310260   2.591   1.238  10.626 -0.2398  0.0055 -0.8368
  694TMC3    C410261   2.698   1.493  10.616 -0.4918  0.3850 -0.1976
  694TMC3    C510262   2.651   1.447  10.734 -0.6933  1.1426 -0.6908
  694TMC3    C610263   2.589   1.320  10.738 -0.0069  1.1904  0.1194
  694TMC3     C10264   2.814   1.433  10.407 -0.1249  0.3849  0.2395
  694TMC3     O10265   2.873   1.338  10.359  0.0730  0.2286 -0.9400
  694TMC3     H10266   2.634   1.224  10.420  3.0175 -1.2441  0.5743
  694TMC3    H110267   2.761   1.581  10.620 -0.2320  0.0798  2.1343
  694TMC3    H210268   2.569   1.284  10.838 -2.7634  2.0873 -0.1177
  694TMC3    C710269   2.676   1.516  10.859  0.2365 -0.5527 -0.5033
  694TMC3    C810270   2.482   1.137  10.629  0.4537  0.1007  0.1612
  694TMC3    O110271   2.755   1.610  10.845  0.2648  0.1036  0.5864
  694TMC3    O210272   2.430   1.119  10.739 -0.3948 -0.0087 -0.3482
  695MPD2     C10273   3.829   3.066  13.519  0.2603 -0.5680 -0.0766
  695MPD2    C110274   3.805   3.168  13.604 -1.4684  0.0046  0.4835
  695MPD2    C210275   3.688   3.244  13.587  1.1778 -0.0339  0.1409
  695MPD2    C310276   3.593   3.203  13.493 -0.6951 -0.5152  0.1081
  695MPD2    C410277   3.622   3.090  13.409 -0.1612 -0.3769 -0.2929
  695MPD2    C510278   3.740   3.025  13.430 -0.2132  0.0194 -0.5271
  695MPD2     H10279   3.660   3.324  13.655 -1.3339 -0.2061 -0.7026
  695MPD2    H110280   3.565   3.052  13.326 -0.9743 -0.1911  0.1828
  695MPD2    H210281   3.921   3.009  13.526  0.7170  0.0603 -0.9407
  695MPD2    H310282   3.778   2.943  13.371  1.1767  0.8555 -0.7769
  695MPD2     N10283   3.474   3.273  13.488 -0.1522 -0.2357  0.7029
  695MPD2    H510284   3.450   3.332  13.567  1.9268  2.3157 -0.5576
  695MPD2    N110285   3.899   3.228  13.687 -0.5842 -0.2309 -0.0653
  695MPD2    H710286   3.868   3.314  13.732  1.4632  0.6157 -0.2724
  696TMC3    C110287   3.250   3.306  13.455  0.1280 -1.3077  0.5663
  696TMC3    C210288   3.214   3.285  13.583 -0.0502 -0.4373  0.1375
  696TMC3    C310289   3.093   3.321  13.631  0.5670 -0.0649 -0.4538
  696TMC3    C410290   3.167   3.351  13.369  0.8709 -0.2513 -0.4598
  696TMC3    C510291   3.047   3.401  13.416  0.2876  0.1961  0.3954
  696TMC3    C610292   3.002   3.388  13.546  0.1301 -0.0164 -0.0902
  696TMC3     C10293   3.367   3.244  13.405 -0.2398 -0.5226 -0.3913
  696TMC3     O10294   3.357   3.206  13.289  0.1874 -0.4317 -0.1535
  696TMC3     H10295   3.286   3.227  13.640  0.6591  0.8572  0.5670
  696TMC3    H110296   3.182   3.377  13.265  1.1300  1.0782 -0.0981
  696TMC3    H210297   2.908   3.433  13.578 -0.3440 -0.2739 -1.1124
  696TMC3    C710298   3.021   3.532  13.352  0.4029  0.0087  0.5677
  696TMC3    C810299   3.089   3.313  13.778 -0.5807  0.0531 -0.1923
  696TMC3    O110300   3.035   3.529  13.233 -0.3393  0.3074 -0.4586
  696TMC3    O210301   3.189   3.285  13.837 -0.4403  0.3401 -0.4530
  697MPD2     C10302   2.301   0.625  15.190 -0.3892  0.5326  0.1066
  697MPD2    C110303   2.431   0.628  15.231  0.2572 -0.7685  0.2254
  697MPD2    C210304   2.503   0.739  15.189 -0.2505  0.9370 -0.3293
  697MPD2    C310305   2.453   0.849  15.118 -0.4368 -0.2126  0.0222
  697MPD2    C410306   2.317   0.844  15.077 -0.5754 -0.9143  0.2874
  697MPD2    C510307   2.247   0.730  15.120  0.1607 -0.2364 -0.3154
  697MPD2     H10308   2.610   0.738  15.203 -0.3794  1.5229  0.7304
  697MPD2    H110309   2.270   0.924  15.022  1.7725 -1.7579 -2.8948
  697MPD2    H210310   2.225   0.551  15.214 -0.1261 -0.2689 -1.5545
  697MPD2    H310311   2.150   0.709  15.075 -0.9491  0.9499  1.5469
  697MPD2     N10312   2.534   0.954  15.071  0.1860 -0.5950 -0.3579
  697MPD2    H510313   2.493   1.013  15.000 -0.5991  0.4369  0.9520
  697MPD2    N110314   2.504   0.521  15.294  0.3968  0.2106  0.2253
  697MPD2    H710315   2.602   0.542  15.309  0.9758 -0.9658 -1.9874
  698TMC3    C110316   2.723   1.090  15.056  0.2025  0.1450  0.7770
  698TMC3    C210317   2.822   1.149  15.126  0.9438 -0.4416  0.9206
  698TMC3    C310318   2.932   1.204  15.058  0.3136  0.0166 -0.0872
  698TMC3    C410319   2.735   1.075  14.919 -0.1276  0.3642 -0.0985
  698TMC3    C510320   2.846   1.115  14.856 -0.0194  0.2933  0.6673
  698TMC3    C610321   2.942   1.179  14.922 -0.5952  0.1732 -0.2115
  698TMC3     C10322   2.651   0.985  15.131 -0.7070 -0.2844  1.0554
  698TMC3     O10323   2.684   0.952  15.243 -0.0797 -0.1170 -0.1497
  698TMC3     H10324   2.811   1.175  15.231  0.1174 -1.6493  1.1292
  698TMC3    H110325   2.667   1.013  14.861  0.3912  0.5889 -0.9530
  698TMC3    H210326   3.021   1.237  14.875 -1.0030 -0.2475 -1.4114
  698TMC3    C710327   2.853   1.086  14.714 -0.1005 -0.8722 -0.3571
  698TMC3    C810328   3.036   1.244  15.143  0.6204 -0.4279  0.1128
  698TMC3    O110329   2.751   1.074  14.649 -0.3537  0.2530  0.9087
  698TMC3    O210330   3.002   1.278  15.255  0.1802 -0.7530  0.0832
  699TMC3    C110331   3.108   3.083  13.063 -0.9837 -0.2257  0.3186
  699TMC3    C210332   3.169   3.018  13.169  0.1148 -0.4441 -0.3407
  699TMC3    C310333   3.081   2.947  13.253 -0.3409 -0.1733  0.4638
  699TMC3    C410334   2.973   3.063  13.033  0.1725  0.6628 -0.2885
  699TMC3    C510335   2.892   2.996  13.122  0.3073  0.2535 -0.3001
  699TMC3    C610336   2.945   2.945  13.234 -0.3132 -0.9391 -0.8670
  699TMC3     C10337   3.182   3.184  12.985  0.1858 -0.4030 -0.5424
  699TMC3     O10338   3.127   3.224  12.881 -0.3110  0.2436  0.6032
  699TMC3     H10339   3.276   3.022  13.185 -0.0039  1.9769 -0.0376
  699TMC3    H110340   2.931   3.114  12.947 -0.9561  2.9786  1.6500
  699TMC3    H210341   2.883   2.906  13.313  1.3116  0.2908  1.0331
  699TMC3    C710342   2.746   3.022  13.123 -0.1368 -0.0967  0.0808
  699TMC3    C810343   3.119   2.924  13.385  0.3574  0.5626  0.1302
  699TMC3    O110344   2.694   2.995  13.230 -0.0754  0.5680 -0.0167
  699TMC3    O210345   3.029   2.916  13.467  0.4177  0.3064 -0.4605
  700TMC3    C110346   1.941   1.270  17.326  0.2657 -0.3247  0.2780
  700TMC3    C210347   2.004   1.148  17.317 -0.3664 -0.2565 -0.2085
  700TMC3    C310348   2.128   1.126  17.367 -0.8160  0.0291  0.5597
  700TMC3    C410349   2.010   1.376  17.380  0.2574  0.1520 -0.0592
  700TMC3    C510350   2.133   1.354  17.435 -0.8371  0.6962 -0.0906
  700TMC3    C610351   2.193   1.227  17.437 -0.0217 -0.1637  0.5177
  700TMC3     C10352   1.869   1.311  17.204  0.6898 -0.8415 -0.1427
  700TMC3     O10353   1.765   1.259  17.167  0.2949 -0.0533  0.0419
  700TMC3     H10354   1.948   1.070  17.267  0.6049 -1.4474  0.5553
  700TMC3    H110355   1.977   1.479  17.379 -1.3673 -0.3688  0.5761
  700TMC3    H210356   2.296   1.214  17.469  0.3563  0.1507 -0.6019
  700TMC3    C710357   2.172   1.443  17.541 -0.5413 -0.1462 -0.6727
  700TMC3    C810358   2.187   0.993  17.341 -0.3434 -0.0032  0.0084
  700TMC3    O110359   2.274   1.507  17.518  0.1428 -0.7184  0.5662
  700TMC3    O210360   2.309   0.999  17.331 -0.4406  0.5434  0.1226
  701TMC3    C110361   2.132   4.475  15.985  0.6542 -0.2690  0.3042
  701TMC3    C210362   2.148   4.361  15.907 -0.4527 -0.0808 -0.6256
  701TMC3    C310363   2.161   4.368  15.771  0.4712  0.3911  0.5910
  701TMC3    C410364   2.131   4.595  15.927  0.4545  0.2484  0.4234
  701TMC3    C510365   2.152   4.600  15.792 -0.4938 -0.2274 -0.5070
  701TMC3    C610366   2.175   4.493  15.707  0.3544  0.5097  0.2669
  701TMC3     C10367   2.052   4.461  16.104 -0.2314 -0.1283  0.2994
  701TMC3     O10368   1.982   4.557  16.136 -0.2332  0.6514  0.3702
  701TMC3     H10369   2.138   4.264  15.953 -0.9381 -0.2725 -1.1357
  701TMC3    H110370   2.114   4.684  15.986  0.0268 -0.1947  0.9683
  701TMC3    H210371   2.199   4.504  15.602 -3.1663  0.0984 -0.6005
  701TMC3    C710372   2.170   0.015  15.737  0.8816 -0.0418  0.0888
  701TMC3    C810373   2.137   4.247  15.701  0.1295  0.0254  0.4371
  701TMC3    O110374   2.138   0.033  15.621  0.1789 -0.0395  0.4410
  701TMC3    O210375   2.148   4.146  15.765  0.1661 -0.1570  0.2570
  702MPD2     C10376   2.362   2.064  10.293 -0.2294  0.4505  0.7976
  702MPD2    C110377   2.300   2.180  10.320 -1.0129  0.0001  0.2899
  702MPD2    C210378   2.330   2.298  10.253  0.2014  0.1035  0.4568
  702MPD2    C310379   2.432   2.300  10.159 -0.3070 -0.2602  0.4313
  702MPD2    C410380   2.497   2.183  10.133  0.1481  0.1063  0.1733
  702MPD2    C510381   2.466   2.070  10.205  0.0288 -0.0993  0.4344
  702MPD2     H10382   2.274   2.389  10.271  0.4040  0.3266 -0.0416
  702MPD2    H110383   2.580   2.172  10.065  0.7617 -0.5695  1.0260
  702MPD2    H210384   2.332   1.969  10.337 -1.1292 -0.2307 -1.2908
  702MPD2    H310385   2.511   1.977  10.174  2.1755  0.7069  1.1677
  702MPD2     N10386   2.469   2.411  10.086 -0.1147  0.0762  0.4312
  702MPD2    H510387   2.548   2.394  10.024  0.4862  1.2915  0.8546
  702MPD2    N110388   2.191   2.182  10.404  0.0391  0.0787 -0.1286
  702MPD2    H710389   2.149   2.271  10.427 -1.3225  0.1343 -2.8490
  703TMC3    C110390   2.449   2.627  10.007 -0.3409  0.3989  0.0453
  703TMC3    C210391   2.347   2.712   9.989 -0.2376  0.2012  0.5085
  703TMC3    C310392   2.353   2.794   9.880 -0.3100  0.0863 -0.2816
  703TMC3    C410393   2.563   2.619   9.931  0.0730 -0.3437  0.4332
  703TMC3    C510394   2.559   2.698   9.819 -0.2230 -0.3896  0.3595
  703TMC3    C610395   2.456   2.789   9.790  0.7010  0.2134  0.3337
  703TMC3     C10396   2.424   2.534  10.116 -0.3266  0.1921  0.3585
  703TMC3     O10397   2.366   2.581  10.214  0.2508 -0.8169  0.0500
  703TMC3     H10398   2.264   2.704  10.059  0.5369  0.5821  1.4703
  703TMC3    H110399   2.646   2.551   9.942  0.1066 -0.9810 -3.8102
  703TMC3    H210400   2.470   2.877   9.728  1.1711  1.1691  1.7908
  703TMC3    C710401   2.683   2.716   9.740 -0.8372 -0.0341 -0.3948
  703TMC3    C810402   2.250   2.900   9.870 -0.2592 -0.3203 -0.3583
  703TMC3    O110403   2.791   2.695   9.792 -1.1895  0.4672  0.2231
  703TMC3    O210404   2.253   2.967   9.766 -0.3887 -0.2646 -0.0187
  704TMC3    C110405   4.087   0.507  12.597  0.3339  0.1022  0.3247
  704TMC3    C210406   4.206   0.524  12.534  0.3175 -0.3117  0.0479
  704TMC3    C310407   4.323   0.495  12.609  0.2321  1.0254  0.1814
  704TMC3    C410408   4.075   0.470  12.729 -0.7321  0.2710  0.2248
  704TMC3    C510409   4.189   0.425  12.796  0.1932 -0.3230 -0.1932
  704TMC3    C610410   4.314   0.442  12.739  0.1414  0.5980 -0.1210
  704TMC3     C10411   3.962   0.503  12.525 -0.0969 -0.1163 -0.0450
  704TMC3     O10412   3.861   0.533  12.584  0.3056 -0.1317  0.4247
  704TMC3     H10413   4.209   0.564  12.434 -0.2748 -0.9119 -0.2149
  704TMC3    H110414   3.975   0.451  12.765 -0.4319  0.7944  1.3229
  704TMC3    H210415   4.402   0.394  12.780  1.2701  2.7470 -0.0644
  704TMC3    C710416   4.172   0.285  12.842 -0.8331 -0.9236 -0.2611
  704TMC3    C810417   4.433   0.469  12.512 -0.1379 -0.5683  0.3620
  704TMC3    O110418   4.267   0.210  12.819 -0.1863 -0.1212  0.0355
  704TMC3    O210419   4.412   0.484  12.394 -0.2701  0.6075 -0.2460
  705MPD2     C10420   3.936   3.271  16.887 -0.4285  0.2961  0.4801
  705MPD2    C110421   3.893   3.381  16.825  0.2104  0.3788  0.7385
  705MPD2    C210422   3.775   3.441  16.870  0.1956  0.5891  0.0876
  705MPD2    C310423   3.699   3.400  16.976  0.3738 -0.4082  0.2755
  705MPD2    C410424   3.742   3.275  17.032  0.4328  0.3413 -0.1579
  705MPD2    C510425   3.865   3.220  16.992 -0.2573  0.3424  0.3476
  705MPD2     H10426   3.738   3.529  16.819 -1.9632 -0.9857 -1.1094
  705MPD2    H110427   3.683   3.225  17.107 -0.1050  1.4732  0.1630
  705MPD2    H210428   4.018   3.215  16.844 -1.8922 -1.2008 -0.3691
  705MPD2    H310429   3.878   3.120  17.033 -0.7462 -0.7405 -2.0625
  705MPD2     N10430   3.575   3.464  17.012 -0.1681  0.3911 -0.1719
  705MPD2    H510431   3.523   3.412  17.082 -0.1627 -2.0647 -1.9955
  705MPD2    N110432   3.967   3.451  16.722 -0.5309  0.4850  0.3287
  705MPD2    H710433   3.907   3.513  16.668  0.6888  2.9537  1.8384
  706TMC3    C110434   4.130   3.441  16.325  0.3818 -0.1836  0.1215
  706TMC3    C210435   4.074   3.563  16.285  0.0452 -0.2436  0.7328
  706TMC3    C310436   4.036   3.652  16.385 -0.0506  0.4730 -0.9581
  706TMC3    C410437   4.171   3.408  16.453 -0.3014  0.5637  0.4810
  706TMC3    C510438   4.124   3.496  16.549  0.3026  0.2431  1.0442
  706TMC3    C610439   4.059   3.614  16.521 -0.0001  0.4695 -0.5103
  706TMC3     C10440   4.195   3.368  16.224  0.4639 -0.1210 -1.1363
  706TMC3     O10441   4.300   3.313  16.251  0.0322  0.6030  0.2031
  706TMC3     H10442   4.056   3.579  16.179  0.1495  1.6712  1.0056
  706TMC3    H110443   4.222   3.314  16.470 -1.1229  0.6125  3.2238
  706TMC3    H210444   4.032   3.684  16.599  0.6015  1.3630 -1.1113
  706TMC3    C710445   4.092   3.420  16.669 -0.0401 -1.4882 -0.4035
  706TMC3    C810446   4.004   3.779  16.336 -0.0675  0.2423  1.1806
  706TMC3    O110447   4.172   3.334  16.702  0.3483 -0.7291  0.2429
  706TMC3    O210448   3.968   3.791  16.217  0.1000 -0.1714  0.3785
  707TMC3    C110449   0.856   2.054   2.195  0.0307 -0.3623 -0.3048
  707TMC3    C210450   0.913   2.009   2.306 -0.3684  0.2512 -0.8607
  707TMC3    C310451   0.856   1.898   2.362  0.1020  0.5953  0.5150
  707TMC3    C410452   0.744   1.992   2.138 -0.0528 -0.1066  0.9996
  707TMC3    C510453   0.674   1.899   2.218  0.0172  0.4384 -0.0442
  707TMC3    C610454   0.736   1.842   2.329  0.2379  0.2920 -0.3546
  707TMC3     C10455   0.957   2.116   2.110 -0.7404 -0.1484  0.3147
  707TMC3     O10456   1.061   2.057   2.126  0.1711 -0.5384 -0.4106
  707TMC3     H10457   0.995   2.061   2.355 -0.5111 -0.3625  0.0325
  707TMC3    H110458   0.709   2.021   2.039  0.2871 -1.3462  0.5121
  707TMC3    H210459   0.702   1.750   2.375  0.9933 -0.0382 -0.4650
  707TMC3    C710460   0.577   1.814   2.149 -0.3503 -0.0476 -0.7315
  707TMC3    C810461   0.958   1.798   2.403 -0.5570  0.4155  0.1207
  707TMC3    O110462   0.549   1.836   2.033 -0.2193 -0.3667  0.4613
  707TMC3    O210463   0.935   1.698   2.470  0.1683  0.0856 -0.6046
  708MPD2     C10464   1.732   2.152  13.463  0.4365 -0.0176  0.0225
  708MPD2    C110465   1.748   2.019  13.496  0.0354 -0.2743  0.5195
  708MPD2    C210466   1.872   1.971  13.537 -0.0583 -0.4377 -0.1615
  708MPD2    C310467   1.979   2.054  13.554 -0.1118 -0.7896 -0.1611
  708MPD2    C410468   1.960   2.187  13.529  0.4709  0.2715 -0.1001
  708MPD2    C510469   1.835   2.239  13.487 -0.4646  0.1895  0.6528
  708MPD2     H10470   1.865   1.868  13.569 -1.3013 -1.0309 -2.3244
  708MPD2    H110471   2.035   2.264  13.543  1.1705 -0.6225  1.0752
  708MPD2    H210472   1.635   2.195  13.438  0.0758 -1.0339 -0.3325
  708MPD2    H310473   1.824   2.345  13.468 -0.3312 -0.2230 -1.6614
  708MPD2     N10474   2.102   2.004  13.607 -0.0609 -0.3634  0.0149
  708MPD2    H510475   2.178   2.071  13.605  0.1121 -0.6093 -1.1686
  708MPD2    N110476   1.650   1.925  13.497  0.2882  0.7783  0.0013
  708MPD2    H710477   1.662   1.833  13.539  0.5167  0.0987 -1.5415
  709TMC3    C110478   1.464   1.814  13.439 -0.0696 -0.2854 -0.1083
  709TMC3    C210479   1.450   1.737  13.327  0.3112 -0.4763 -0.1278
  709TMC3    C310480   1.458   1.599  13.319  0.0563  0.6891  0.1830
  709TMC3    C410481   1.491   1.730  13.552 -0.0339 -0.1053  0.2112
  709TMC3    C510482   1.519   1.598  13.547  0.1481  0.4096  0.5973
  709TMC3    C610483   1.492   1.528  13.433  0.0464  0.7921  0.3343
  709TMC3     C10484   1.537   1.933  13.421 -0.2268  0.3261  0.9015
  709TMC3     O10485   1.506   2.005  13.327 -0.3051 -0.1492 -0.4313
  709TMC3     H10486   1.424   1.790  13.236  2.6900 -2.2956 -1.8603
  709TMC3    H110487   1.493   1.783  13.647 -1.0484 -0.4817  0.4436
  709TMC3    H210488   1.525   1.425  13.422  1.4810  1.3478 -0.6736
  709TMC3    C710489   1.640   1.569  13.623 -0.7943 -0.6036 -0.1572
  709TMC3    C810490   1.505   1.534  13.197  0.6456  0.3439  0.5182
  709TMC3    O110491   1.693   1.666  13.675  0.3296 -0.2096  0.4924
  709TMC3    O210492   1.494   1.410  13.200  0.0232 -0.1496  0.1650
  710TMC3    C110493   2.961   3.048   0.819  0.2970 -0.2908 -0.3879
  710TMC3    C210494   3.079   3.058   0.761 -0.2507  0.4208 -0.5091
  710TMC3    C310495   3.173   2.961   0.767 -0.2728  0.3030  0.6378
  710TMC3    C410496   2.922   2.928   0.879 -0.5343  0.1936  0.4734
  710TMC3    C510497   3.019   2.824   0.879 -0.1627 -0.3689 -0.2877
  710TMC3    C610498   3.138   2.839   0.819  0.3883 -0.5462  0.1938
  710TMC3     C10499   2.890   3.171   0.858 -0.0488 -0.2690 -0.2371
  710TMC3     O10500   2.778   3.155   0.899 -0.7337 -0.4554  0.3662
  710TMC3     H10501   3.103   3.142   0.697  0.4518  1.7397  1.4869
  710TMC3    H110502   2.824   2.913   0.922 -0.8557 -0.2998 -0.4185
  710TMC3    H210503   3.210   2.759   0.827  2.8442  1.5051 -1.6406
  710TMC3    C710504   2.989   2.704   0.946  0.4002  0.3654 -0.6345
  710TMC3    C810505   3.278   2.953   0.663  0.4519  0.0209  0.3103
  710TMC3    O110506   2.909   2.705   1.036 -0.4764 -0.2739 -0.6274
  710TMC3    O210507   3.261   3.030   0.568 -0.3223  0.5826  0.4738
  711TMC3    C110508   2.704   4.090  15.235 -0.0582  0.7219 -0.0202
  711TMC3    C210509   2.733   3.992  15.331  0.0489 -0.0218 -0.4069
  711TMC3    C310510   2.781   4.042  15.452  0.6719 -0.2606  0.9877
  711TMC3    C410511   2.694   4.225  15.260  0.1572 -0.0669 -0.3807
  711TMC3    C510512   2.730   4.266  15.383 -0.6527 -0.4490 -0.3443
  711TMC3    C610513   2.775   4.178  15.478 -0.3033 -0.0973  0.5849
  711TMC3     C10514   2.649   4.031  15.109 -0.1477  0.2580 -0.1037
  711TMC3     O10515   2.595   3.919  15.122 -1.0640  0.2635 -0.3467
  711TMC3     H10516   2.742   3.889  15.301  2.5016  0.2112 -0.4822
  711TMC3    H110517   2.665   4.299  15.186  0.0408  0.9523  0.6829
  711TMC3    H210518   2.813   4.223  15.569  1.4193  3.3105 -1.8006
  711TMC3    C710519   2.815   4.383  15.381  0.3251 -0.1339 -0.6260
  711TMC3    C810520   2.892   3.971  15.510 -0.3434  0.8288  0.0095
  711TMC3    O110521   2.770   4.499  15.390 -0.0498 -0.6660  0.4754
  711TMC3    O210522   2.914   3.865  15.459 -0.2382  0.0456 -0.6410
  712MPD2     C10523   0.050   0.310  13.262  0.7466 -0.2808 -0.1070
  712MPD2    C110524   4.652   0.321  13.318 -0.5358  0.2637  0.6232
  712MPD2    C210525   4.611   0.449  13.345  0.7593  0.1903  0.9177
  712MPD2    C310526   4.678   0.565  13.327 -0.3735  0.3797 -0.4462
  712MPD2    C410527   0.075   0.548  13.263 -0.7964 -0.0652  0.1489
  712MPD2    C510528   0.123   0.426  13.228  0.6805  0.4374  0.2623
  712MPD2     H10529   4.516   0.453  13.398 -1.5634 -1.3879 -3.1450
  712MPD2    H110530   0.138   0.635  13.247 -2.4787  0.5455 -3.0043
  712MPD2    H210531   0.108   0.220  13.244 -1.0617 -1.5625  0.4568
  712MPD2    H310532   0.221   0.417  13.183  1.8142  0.8179  2.6845
  712MPD2     N10533   4.632   0.693  13.347 -0.0744 -0.2404 -0.4525
  712MPD2    H510534   4.696   0.770  13.333 -1.1857 -0.2448 -5.3967
  712MPD2    N110535   4.581   0.205  13.361 -0.3352  0.2139 -0.1121
  712MPD2    H710536   4.502   0.217  13.423 -0.2187  0.0552  0.0670
  713TMC3    C110537   4.496   0.868  13.430 -0.6770 -1.2350 -0.5498
  713TMC3    C210538   4.603   0.947  13.412 -0.6415  0.4943  0.0892
  713TMC3    C310539   4.569   1.078  13.403 -0.2113 -0.2045 -0.6345
  713TMC3    C410540   4.365   0.917  13.429  0.3708  0.0584  0.3386
  713TMC3    C510541   4.337   1.045  13.393  0.5444 -0.1088  0.0945
  713TMC3    C610542   4.441   1.125  13.382 -0.3873  0.4824 -0.2409
  713TMC3     C10543   4.508   0.722  13.402 -1.0339 -1.1749  0.0173
  713TMC3     O10544   4.420   0.652  13.458 -0.2743 -0.3174 -0.2082
  713TMC3     H10545   4.705   0.911  13.414 -1.2142 -1.1829 -0.7377
  713TMC3    H110546   4.281   0.850  13.434 -0.2944  0.8797  0.1548
  713TMC3    H210547   4.435   1.234  13.382  0.0637  0.5097 -1.0955
  713TMC3    C710548   4.210   1.092  13.422  0.3823 -0.2062 -0.2212
  713TMC3    C810549   4.674   1.182  13.398 -0.6325 -0.5515 -0.3353
  713TMC3    O110550   4.138   1.030  13.502  0.2604  0.4153  0.3686
  713TMC3    O210551   4.646   1.296  13.363 -0.0466  0.4286 -0.6368
  714MPD2     C10552   2.818   4.712   1.754 -0.1044  0.7436  0.3547
  714MPD2    C110553   2.799   4.573   1.740 -0.0673 -0.1405 -0.2629
  714MPD2    C210554   2.672   4.515   1.741 -0.4129  0.8928  0.3151
  714MPD2    C310555   2.568   4.596   1.770  1.1637 -1.1037  0.1565
  714MPD2    C410556   2.590   0.013   1.797 -0.4700  0.5740 -0.0798
  714MPD2    C510557   2.713   0.067   1.787  0.2555  0.0933 -0.9709
  714MPD2     H10558   2.659   4.409   1.724 -1.8294  1.3295 -1.2907
  714MPD2    H110559   2.512   0.083   1.826 -1.1838 -0.6714  0.9574
  714MPD2    H210560   2.915   0.036   1.743  1.1641 -1.8627  0.6450
  714MPD2    H310561   2.735   0.172   1.802  2.5487 -0.4292 -0.7230
  714MPD2     N10562   2.437   4.535   1.773 -0.3219  0.3376  0.4254
  714MPD2    H510563   2.421   4.437   1.753  2.7370 -0.1344  0.1747
  714MPD2    N110564   2.919   4.499   1.711 -0.5145  0.6070 -0.0768
  714MPD2    H710565   2.998   4.558   1.687 -0.0713 -0.0005 -0.1238
  715TMC3    C110566   3.054   4.305   1.661  0.3546  0.6548  0.3076
  715TMC3    C210567   3.050   4.172   1.614 -0.1593 -0.3162 -0.1045
  715TMC3    C310568   3.152   4.134   1.533  0.9096  0.1129  0.4311
  715TMC3    C410569   3.166   4.387   1.655  0.5887  0.1082  0.2001
  715TMC3    C510570   3.256   4.343   1.561  0.1065 -0.3245 -0.1092
  715TMC3    C610571   3.256   4.217   1.503 -0.2869  0.5898 -0.5763
  715TMC3     C10572   2.926   4.361   1.714  1.0163  0.1202 -0.4980
  715TMC3     O10573   2.841   4.295   1.763  0.0931  0.0137 -0.1915
  715TMC3     H10574   2.974   4.099   1.640 -0.1279 -0.2346  0.2104
  715TMC3    H110575   3.171   4.484   1.702  0.8000 -0.0315  0.4654
  715TMC3    H210576   3.326   4.194   1.424 -0.3214  0.6667 -0.6292
  715TMC3    C710577   3.375   4.418   1.552 -0.2839  0.0977  0.5079
  715TMC3    C810578   3.147   4.000   1.477 -0.3388 -0.1649 -0.7980
  715TMC3    O110579   3.471   4.363   1.501  0.2559  0.1585 -0.5148
  715TMC3    O210580   3.041   3.946   1.494 -0.4986  0.4067  0.0646
  716MPD2     C10581   2.152   1.793  10.099  0.6164  0.1332 -1.0827
  716MPD2    C110582   2.248   1.781  10.002  0.2073  0.4781 -0.4575
  716MPD2    C210583   2.290   1.657   9.959  0.2986 -0.6865  0.6743
  716MPD2    C310584   2.230   1.539  10.001  0.0570 -0.1895  1.1586
  716MPD2    C410585   2.131   1.545  10.102 -0.2220  0.1040 -0.2157
  716MPD2    C510586   2.096   1.675  10.148  0.4208  0.0708  0.2991
  716MPD2     H10587   2.370   1.642   9.887  0.1769 -0.2972  0.4560
  716MPD2    H110588   2.077   1.454  10.126 -0.3393  0.1358 -0.3558
  716MPD2    H210589   2.120   1.885  10.147 -0.2840  0.6833 -2.7367
  716MPD2    H310590   2.016   1.689  10.220 -0.3200  1.3486 -0.7699
  716MPD2     N10591   2.269   1.419   9.943 -0.2780  0.1631  0.1833
  716MPD2    H510592   2.329   1.426   9.862 -0.6517  1.3987  0.0125
  716MPD2    N110593   2.306   1.901   9.947 -0.9406  0.2612  0.0282
  716MPD2    H710594   2.261   1.986   9.980  0.2991  0.9912 -0.1917
  717TMC3    C110595   2.309   1.193   9.905  0.5354 -0.1460 -0.3398
  717TMC3    C210596   2.326   1.215   9.777  0.3102  1.2576  0.4616
  717TMC3    C310597   2.391   1.124   9.702  0.7757 -0.5339 -0.5234
  717TMC3    C410598   2.347   1.075   9.963 -0.0717 -0.3977  0.6393
  717TMC3    C510599   2.407   0.978   9.884 -0.7049 -0.0255  0.1304
  717TMC3    C610600   2.439   1.003   9.756 -0.0040  1.5527  0.0211
  717TMC3     C10601   2.239   1.290   9.986  0.2656  0.5333 -0.1583
  717TMC3     O10602   2.189   1.244  10.088 -0.3262 -0.1882 -0.4914
  717TMC3     H10603   2.280   1.302   9.731 -0.0484 -0.4054 -2.3155
  717TMC3    H110604   2.309   1.058  10.063 -0.9450  0.1793  0.4003
  717TMC3    H210605   2.465   0.920   9.691 -0.7423  0.9669  0.4717
  717TMC3    C710606   2.413   0.839   9.932  0.2619  0.2103  0.8030
  717TMC3    C810607   2.403   1.142   9.556  0.0150  0.3500  0.2019
  717TMC3    O110608   2.427   0.756   9.845 -0.2601  0.3178 -0.2518
  717TMC3    O210609   2.435   1.051   9.481 -0.0270  0.2960  0.2281
  718MPD2     C10610   1.677   0.757  12.271  0.1160  0.3117  0.6708
  718MPD2    C110611   1.616   0.733  12.152 -1.1386 -0.4132  0.3603
  718MPD2    C210612   1.494   0.666  12.152  0.3357 -0.1108  0.5959
  718MPD2    C310613   1.437   0.625  12.271 -0.3965 -0.1205 -0.2504
  718MPD2    C410614   1.494   0.647  12.388  0.5267 -0.2465  0.2985
  718MPD2    C510615   1.617   0.710  12.389 -0.5014  0.0220  0.4151
  718MPD2     H10616   1.444   0.644  12.058 -0.3315 -2.3853  1.4938
  718MPD2    H110617   1.451   0.615  12.482  1.3402  1.6235  1.3073
  718MPD2    H210618   1.773   0.807  12.279 -0.0101  0.3613  1.9670
  718MPD2    H310619   1.659   0.723  12.488  0.2508 -0.8222  0.2061
  718MPD2     N10620   1.306   0.579  12.269 -0.2845 -0.0689  0.2160
  718MPD2    H510621   1.256   0.586  12.181 -0.3919 -0.7813  0.2216
  718MPD2    N110622   1.683   0.794  12.043 -0.2001  0.2052 -0.8342
  718MPD2    H710623   1.764   0.853  12.059  0.5806 -0.8813 -0.7541
  719TMC3    C110624   1.659   0.916  11.846 -0.3784 -0.6918  0.7724
  719TMC3    C210625   1.572   0.938  11.742 -0.4294 -0.3143  0.8396
  719TMC3    C310626   1.553   1.069  11.696  0.3855  0.4465 -0.5885
  719TMC3    C410627   1.730   1.014  11.910 -0.0296 -0.0504 -0.5077
  719TMC3    C510628   1.720   1.136  11.848  0.4641  0.7084 -0.4528
  719TMC3    C610629   1.624   1.165  11.751 -0.3413 -0.2582 -0.0211
  719TMC3     C10630   1.620   0.796  11.919 -0.5205  0.1155 -0.5838
  719TMC3     O10631   1.527   0.732  11.871  0.0247  0.0944  0.1307
  719TMC3     H10632   1.535   0.853  11.686  3.0989 -1.4814  0.3148
  719TMC3    H110633   1.818   0.996  11.971  0.6767  0.6723 -1.3270
  719TMC3    H210634   1.631   1.264  11.706  0.7469 -0.0203  0.6780
  719TMC3    C710635   1.788   1.262  11.896  0.6283  0.3042  0.1736
  719TMC3    C810636   1.414   1.111  11.685  0.3276 -0.4942 -0.5016
  719TMC3    O110637   1.767   1.373  11.841 -0.3055 -0.0777 -0.0790
  719TMC3    O210638   1.386   1.229  11.658 -0.6996  0.3010 -0.1810
  720MPD2     C10639   4.101   2.304  13.953  0.3496  0.1196  0.4416
  720MPD2    C110640   4.206   2.283  13.866 -0.0202  0.1499  0.5706
  720MPD2    C210641   4.316   2.208  13.912 -0.6041 -0.5283  0.1266
  720MPD2    C310642   4.327   2.171  14.045 -0.2359 -0.3339 -0.1812
  720MPD2    C410643   4.216   2.190  14.131 -0.0951 -0.1547  0.0516
  720MPD2    C510644   4.108   2.254  14.081 -0.2058  0.0034  0.4664
  720MPD2     H10645   4.391   2.186  13.837 -0.6813 -0.9972  0.1871
  720MPD2    H110646   4.222   2.177  14.239 -1.5386  1.8561  0.3666
  720MPD2    H210647   4.003   2.347  13.938  1.0210  1.3934 -0.2947
  720MPD2    H310648   4.016   2.249  14.138  0.4378 -3.7972  1.1245
  720MPD2     N10649   4.452   2.125  14.082  0.2881  0.6492  0.5141
  720MPD2    H510650   4.516   2.111  14.004 -0.0205 -0.0142  0.3842
  720MPD2    N110651   4.198   2.316  13.729  0.3647  0.0573  0.1160
  720MPD2    H710652   4.282   2.299  13.676  1.3382 -1.8743  2.3194
  721TMC3    C110653   4.635   2.064  14.209  0.1836  0.4146 -0.7323
  721TMC3    C210654   4.695   2.097  14.328  0.7514 -0.4644  0.4685
  721TMC3    C310655   0.097   2.156  14.324 -0.3408  0.2430 -0.6394
  721TMC3    C410656   4.697   2.072  14.087 -0.1577  0.7589  0.7577
  721TMC3    C510657   0.108   2.123  14.085  0.1219 -0.2843  0.2798
  721TMC3    C610658   0.169   2.167  14.208  0.0289  0.6007 -0.0717
  721TMC3     C10659   4.495   2.085  14.207  0.5652 -0.1011  0.4056
  721TMC3     O10660   4.438   2.094  14.315  0.5350 -0.3954  0.1030
  721TMC3     H10661   4.646   2.071  14.421 -0.1075 -1.4621 -0.2676
  721TMC3    H110662   4.657   2.016  14.003  0.4654 -0.8484  1.5504
  721TMC3    H210663   0.272   2.201  14.207 -0.3579  1.7786  0.0172
  721TMC3    C710664   0.177   2.124  13.962 -0.3890  0.0998  0.0473
  721TMC3    C810665   0.169   2.202  14.445  0.7710 -0.1774 -0.1784
  721TMC3    O110666   0.123   2.063  13.871 -0.0188 -0.0137  0.2943
  721TMC3    O210667   0.289   2.213  14.442 -0.0287 -0.3609  0.0532
  722MPD2     C10668   3.426   1.177  12.561  0.2597  0.9143 -0.3784
  722MPD2    C110669   3.472   1.200  12.687 -0.2485 -0.1869  0.4710
  722MPD2    C210670   3.403   1.137  12.787 -0.4950  0.4295 -0.0777
  722MPD2    C310671   3.273   1.087  12.769 -0.2058  0.2127  0.0146
  722MPD2    C410672   3.229   1.071  12.641 -0.4062  0.9141  0.0418
  722MPD2    C510673   3.311   1.109  12.541  0.4418 -0.1921 -0.0350
  722MPD2     H10674   3.449   1.139  12.885  0.5396  0.8706 -0.5812
  722MPD2    H110675   3.144   1.011  12.608 -0.5569  2.6006 -2.6785
  722MPD2    H210676   3.472   1.227  12.476  1.2369  0.4167 -0.1462
  722MPD2    H310677   3.273   1.105  12.439  0.2005  1.3989 -0.0162
  722MPD2     N10678   3.183   1.048  12.872  0.0672 -0.1356  0.0495
  722MPD2    H510679   3.223   1.068  12.963  0.7462  1.3262 -0.5892
  722MPD2    N110680   3.576   1.291  12.720 -0.0559  0.2504 -0.0980
  722MPD2    H710681   3.595   1.300  12.819  0.3707  1.2891 -0.2762
  723TMC3    C110682   2.999   0.981  13.006  0.1896 -0.1403  0.3789
  723TMC3    C210683   2.939   0.857  13.036 -0.2130  0.5184  0.3585
  723TMC3    C310684   2.867   0.861  13.158 -0.1901  0.4010 -0.2292
  723TMC3    C410685   2.995   1.092  13.085  0.7337 -0.5215 -0.2036
  723TMC3    C510686   2.934   1.085  13.205 -0.1012 -0.1635 -0.4587
  723TMC3    C610687   2.875   0.966  13.251 -0.2596 -0.8544 -0.2033
  723TMC3     C10688   3.060   0.988  12.870  0.2590  0.9060  0.3812
  723TMC3     O10689   3.000   0.934  12.777 -0.1226 -0.0091  0.4690
  723TMC3     H10690   2.934   0.768  12.974  2.7587 -0.9654  2.2551
  723TMC3    H110691   3.033   1.188  13.054 -0.3197  0.1489  0.5717
  723TMC3    H210692   2.843   0.949  13.353  1.6118  0.9383  0.6729
  723TMC3    C710693   2.953   1.189  13.297  1.0284 -0.2052  0.0999
  723TMC3    C810694   2.833   0.730  13.221 -0.5604  0.8466  0.0586
  723TMC3    O110695   2.933   1.305  13.269 -0.4945 -0.2449 -0.1883
  723TMC3    O210696   2.831   0.729  13.344  0.1930 -0.1491  0.3496
  724TMC3    C110697   4.250   4.494   9.000 -0.6224 -0.3760  0.3726
  724TMC3    C210698   4.329   4.485   9.111  0.1923 -0.8393  0.4255
  724TMC3    C310699   4.425   4.387   9.105  0.2468  0.0091  0.7775
  724TMC3    C410700   4.268   4.421   8.886 -0.3567 -0.2234 -0.1656
  724TMC3    C510701   4.377   4.334   8.886 -0.4227 -0.1124  0.6606
  724TMC3    C610702   4.453   4.313   8.993 -0.2485  0.9590  0.2486
  724TMC3     C10703   4.164   4.613   9.001 -0.4165 -0.7598  0.1589
  724TMC3     O10704   4.076   4.616   8.914 -0.0542  0.2086 -0.5064
  724TMC3     H10705   4.293   4.520   9.207  0.6007  1.5239 -0.2789
  724TMC3    H110706   4.204   4.441   8.801  0.1611 -1.0408 -0.7501
  724TMC3    H210707   4.535   4.242   8.993 -0.8443  0.2727  0.3890
  724TMC3    C710708   4.397   4.249   8.768 -0.3698 -0.2364  0.5329
  724TMC3    C810709   4.491   4.351   9.226 -0.2176  0.0378 -0.3611
  724TMC3    O110710   4.474   4.161   8.782  0.1791 -0.0847 -0.2111
  724TMC3    O210711   4.545   4.240   9.222  0.5916 -0.4385 -0.0296
  725TMC3    C110712   0.240   2.794  12.351 -0.0608  0.9264 -0.2977
  725TMC3    C210713   0.289   2.874  12.245 -0.1834 -0.6248 -0.6895
  725TMC3    C310714   0.319   2.796  12.133 -0.1171 -0.3469  0.1791
  725TMC3    C410715   0.237   2.655  12.356  0.0731  0.0418 -0.0519
  725TMC3    C510716   0.268   2.591  12.238  0.0535 -0.5807 -0.3250
  725TMC3    C610717   0.310   2.664  12.123 -0.5177  0.3444  1.1597
  725TMC3     C10718   0.242   2.871  12.476 -0.3348 -0.0324 -0.1987
  725TMC3     O10719   0.304   2.978  12.470  0.2974 -0.0224  0.1829
  725TMC3     H10720   0.303   2.982  12.248  1.4670 -0.8380 -0.4104
  725TMC3    H110721   0.242   2.598  12.448  1.0654 -0.9802 -0.7364
  725TMC3    H210722   0.334   2.607  12.034 -1.8334  1.4794  0.0818
  725TMC3    C710723   0.247   2.450  12.233 -0.1626 -0.0759 -0.1474
  725TMC3    C810724   0.384   2.858  12.018  0.4758  0.1584  0.6535
  725TMC3    O110725   0.300   2.403  12.133  0.2775  0.4127  0.2330
  725TMC3    O210726   0.367   2.812  11.905  0.1717  0.0280  0.1044
  726MPD2     C10727   3.860   4.058  10.126 -0.7736  0.1935 -0.7029
  726MPD2    C110728   3.759   4.099  10.036  0.3355 -0.0025  0.1561
  726MPD2    C210729   3.664   4.007   9.995  0.2214  0.2806  0.0182
  726MPD2    C310730   3.672   3.873  10.035  0.2078 -0.0772  0.8861
  726MPD2    C410731   3.767   3.838  10.121  0.2939 -1.0488 -0.3744
  726MPD2    C510732   3.852   3.932  10.179 -0.3687  0.0882  0.1856
  726MPD2     H10733   3.586   4.034   9.925  0.6287 -1.4397 -1.1100
  726MPD2    H110734   3.764   3.734  10.149 -2.5457 -1.6422 -2.8586
  726MPD2    H210735   3.931   4.129  10.166 -0.1178  0.6099 -2.5997
  726MPD2    H310736   3.914   3.890  10.258  1.1966  0.8757 -0.6275
  726MPD2     N10737   3.581   3.774   9.993  0.0320  0.2275 -0.1416
  726MPD2    H510738   3.567   3.694  10.054  0.4827  1.7559  2.0099
  726MPD2    N110739   3.748   4.237   9.996  0.1538 -0.5334  0.2666
  726MPD2    H710740   3.682   4.255   9.921  1.1691 -0.4539 -0.6061
  727TMC3    C110741   3.776   4.466   9.993  0.0334 -0.4519  0.2898
  727TMC3    C210742   3.785   4.576  10.073 -0.1615  0.4250  0.2646
  727TMC3    C310743   3.738   4.693  10.018  0.1724  0.9834  0.4989
  727TMC3    C410744   3.720   4.461   9.871 -0.4805 -0.0458  0.3136
  727TMC3    C510745   3.674   4.582   9.823  0.3762  0.5347  0.2849
  727TMC3    C610746   3.670   4.694   9.902 -0.1138  0.3605 -0.3027
  727TMC3     C10747   3.819   4.340  10.050 -0.0887 -1.3683 -0.2758
  727TMC3     O10748   3.903   4.341  10.141 -0.3037 -0.3285  0.2469
  727TMC3     H10749   3.840   4.566  10.166 -0.4042 -1.1392  0.2378
  727TMC3    H110750   3.737   4.377   9.804 -0.1589  0.9771 -0.8992
  727TMC3    H210751   3.623   0.058   9.856 -0.2567 -0.4046 -1.5898
  727TMC3    C710752   3.582   4.575   9.712  0.4433 -0.5459  0.7946
  727TMC3    C810753   3.793   0.093  10.085  0.6295  0.2077 -0.1370
  727TMC3    O110754   3.487   4.650   9.705  0.0154 -0.7269  0.7577
  727TMC3    O210755   3.891   0.073  10.155  0.5693 -0.3690 -0.4919
  728TMC3    C110756   2.114   2.904  15.327 -0.5292  0.3469  0.0348
  728TMC3    C210757   2.178   2.816  15.409  0.4463  0.1647 -0.5871
  728TMC3    C310758   2.287   2.750  15.350  0.6513 -0.1715 -0.0127
  728TMC3    C410759   2.148   2.924  15.187 -0.1417 -0.1008  0.3231
  728TMC3    C510760   2.256   2.850  15.146 -0.0947  1.0825 -0.2241
  728TMC3    C610761   2.336   2.779  15.229  0.7173  0.2671  0.5982
  728TMC3     C10762   1.974   2.942  15.359 -0.4103 -0.3150 -0.5884
  728TMC3     O10763   1.919   3.039  15.309  0.3676  0.1552 -0.5280
  728TMC3     H10764   2.154   2.804  15.514  1.7542  3.1630  0.0616
  728TMC3    H110765   2.094   2.994  15.125  2.4963 -1.5080 -3.5395
  728TMC3    H210766   2.437   2.750  15.204  0.4252 -1.8521  1.9069
  728TMC3    C710767   2.292   2.840  15.005  0.5447  0.6600 -0.6410
  728TMC3    C810768   2.379   2.685  15.443  0.4338 -0.3555  0.5894
  728TMC3    O110769   2.338   2.740  14.962 -0.0903  0.2223 -0.3873
  728TMC3    O210770   2.389   2.739  15.553  0.0448 -0.0076  0.5597
  729MPD2     C10771   4.316   4.131  16.796  0.7560  0.0622 -0.2385
  729MPD2    C110772   4.451   4.130  16.829  0.0056  0.2895 -0.4726
  729MPD2    C210773   4.493   4.158  16.956 -0.1563  0.3261 -0.1759
  729MPD2    C310774   4.403   4.172  17.061  0.5068  0.2057 -0.0655
  729MPD2    C410775   4.269   4.176  17.024  0.4780 -0.2932  0.5901
  729MPD2    C510776   4.226   4.160  16.894 -0.7730 -0.3358 -0.0998
  729MPD2     H10777   4.600   4.156  16.976  0.3210  0.6200 -2.6598
  729MPD2    H110778   4.194   4.194  17.100 -2.1273 -1.1629 -1.7432
  729MPD2    H210779   4.277   4.123  16.696  0.0361  1.5504 -0.0838
  729MPD2    H310780   4.126   4.182  16.859 -0.6639 -0.4740 -0.5004
  729MPD2     N10781   4.447   4.195  17.196  0.4253  0.9722  0.1322
  729MPD2    H510782   4.377   4.225  17.263  0.6354  0.3565  0.6305
  729MPD2    N110783   4.542   4.127  16.722  0.4504  0.3700  1.4106
  729MPD2    H710784   4.506   4.134  16.628 -0.0706  2.5543  1.7911
  730TMC3    C110785   4.615   4.214  17.353 -0.6875  0.1567 -0.4378
  730TMC3    C210786   0.030   4.239  17.363  0.4555  0.1916  0.4057
  730TMC3    C310787   0.068   4.341  17.449 -0.2264 -0.4848 -0.1819
  730TMC3    C410788   4.518   4.288  17.425 -0.6665  0.2841 -0.1963
  730TMC3    C510789   4.560   4.396  17.498 -0.2618 -0.0081 -0.4564
  730TMC3    C610790   4.698   4.419  17.509  0.2059 -0.0960  0.7899
  730TMC3     C10791   4.578   4.160  17.232  0.2652  0.1484  0.4021
  730TMC3     O10792   4.664   4.094  17.180 -0.5636 -0.1306 -0.4848
  730TMC3     H10793   0.106   4.178  17.315  1.8598  2.4629 -0.2609
  730TMC3    H110794   4.413   4.262  17.436 -0.4592  0.2417  1.7379
  730TMC3    H210795   0.007   4.500  17.574 -0.5541 -0.7821  2.0283
  730TMC3    C710796   4.475   4.513  17.457  0.5954  0.4381 -0.1246
  730TMC3    C810797   0.203   4.368  17.481 -0.1080 -0.0968 -0.3511
  730TMC3    O110798   4.396   4.495  17.366  0.0626  0.5236 -0.2365
  730TMC3    O210799   0.222   4.421  17.589 -0.5966  0.2191  0.1026
  731MPD2     C10800   4.664   2.698  12.111  0.2548 -0.4197  0.6256
  731MPD2    C110801   4.623   2.589  12.037 -0.0852 -0.1363 -0.3807
  731MPD2    C210802   4.552   2.486  12.102  0.1587  0.3743  0.3794
  731MPD2    C310803   4.501   2.498  12.226 -0.4116 -0.3272  0.6557
  731MPD2    C410804   4.556   2.594  12.301 -0.0218  0.7588  0.4127
  731MPD2    C510805   4.631   2.698  12.243  0.4649  0.4659  0.3509
  731MPD2     H10806   4.533   2.401  12.037 -2.7893 -0.4852  2.3903
  731MPD2    H110807   4.541   2.613  12.407  1.7524  3.0630  0.2503
  731MPD2    H210808   4.720   2.780  12.067  0.7825 -0.2922  1.5383
  731MPD2    H310809   4.659   2.779  12.309  1.2528 -1.3398  2.2322
  731MPD2     N10810   4.428   2.386  12.273 -0.2003  0.0849 -0.3214
  731MPD2    H510811   4.416   2.308  12.209  2.3317 -0.2058 -0.4336
  731MPD2    N110812   4.667   2.582  11.900 -0.4565  0.3538  0.7982
  731MPD2    H710813   4.718   2.664  11.868  2.0330 -1.0848  1.0709
  732TMC3    C110814   4.657   2.527  11.678 -0.7679 -0.4745 -0.4954
  732TMC3    C210815   4.565   2.503  11.579 -0.7815  0.0528  0.0818
  732TMC3    C310816   4.612   2.455  11.457 -0.6120  0.3243 -0.3169
  732TMC3    C410817   0.072   2.518  11.649  0.6417 -0.3686  1.3934
  732TMC3    C510818   0.112   2.482  11.525  0.2637  0.4016 -0.3429
  732TMC3    C610819   0.025   2.453  11.425 -0.7042 -0.4618 -0.1839
  732TMC3     C10820   4.609   2.496  11.812  0.1259  0.5538 -0.5867
  732TMC3     O10821   4.530   2.404  11.820  0.6748  0.2935 -0.3384
  732TMC3     H10822   4.460   2.511  11.603 -0.4591  1.5624  0.9274
  732TMC3    H110823   0.149   2.537  11.723  0.8552 -0.7488  1.2685
  732TMC3    H210824   0.060   2.396  11.340 -1.9768 -2.5075  0.6458
  732TMC3    C710825   0.249   2.437  11.516 -0.5190  0.5400  0.4789
  732TMC3    C810826   4.521   2.349  11.399 -0.6834 -0.6738  0.1700
  732TMC3    O110827   0.303   2.453  11.404  0.0980  0.0631  0.6402
  732TMC3    O210828   4.544   2.312  11.283 -0.7856  0.1932  0.2309
  733TMC3    C110829   0.856   0.597  12.380  0.1758  0.8693  0.7436
  733TMC3    C210830   0.978   0.532  12.400 -0.8985  0.1419  0.7419
  733TMC3    C310831   1.087   0.581  12.328 -0.3135 -0.7357 -0.5888
  733TMC3    C410832   0.832   0.683  12.284  0.2930 -0.7697 -0.1620
  733TMC3    C510833   0.938   0.720  12.207  0.1776 -0.5872 -0.5555
  733TMC3    C610834   1.066   0.667  12.226  0.7582  0.4670 -0.1520
  733TMC3     C10835   0.737   0.568  12.457 -0.2169 -0.9452  0.0940
  733TMC3     O10836   0.661   0.658  12.480 -0.0010  0.1258  0.4389
  733TMC3     H10837   0.995   0.470  12.487 -2.8438 -1.3448  0.0594
  733TMC3    H110838   0.736   0.733  12.277 -0.2660 -2.2150 -3.0738
  733TMC3    H210839   1.150   0.731  12.198  0.9115  0.3833  0.1151
  733TMC3    C710840   0.913   0.824  12.109  0.6622  0.0809 -1.0718
  733TMC3    C810841   1.222   0.551  12.374  0.1725  0.0318 -0.3100
  733TMC3    O110842   0.822   0.903  12.135 -0.4713 -0.3356 -0.1312
  733TMC3    O210843   1.240   0.515  12.489 -0.2470  0.9196 -0.1472
  734MPD2     C10844   3.242   2.872  12.182  0.0942  0.3116  0.6760
  734MPD2    C110845   3.111   2.928  12.191  0.0580 -0.1984 -0.8961
  734MPD2    C210846   3.087   3.029  12.102 -0.4757  0.2096 -0.1238
  734MPD2    C310847   3.178   3.073  12.017  0.3240 -0.7756 -0.3886
  734MPD2    C410848   3.306   3.020  12.004 -0.2098  0.7558 -0.1716
  734MPD2    C510849   3.326   2.910  12.081  0.0041 -0.4582  0.0256
  734MPD2     H10850   2.992   3.083  12.099  0.1021  1.3020  0.8683
  734MPD2    H110851   3.388   3.047  11.938  0.9718  2.1793  1.8576
  734MPD2    H210852   3.276   2.796  12.252 -1.0828 -0.4341  0.4361
  734MPD2    H310853   3.419   2.855  12.076 -0.5167 -1.2526 -0.8807
  734MPD2     N10854   3.136   3.190  11.944  0.4205  0.1319 -0.5030
  734MPD2    H510855   3.039   3.219  11.955  0.8326  0.5878  1.9330
  734MPD2    N110856   3.020   2.871  12.276  0.2250 -0.3425  0.4911
  734MPD2    H710857   3.058   2.789  12.323  0.1895 -1.6168 -1.6692
  735TMC3    C110858   2.793   2.827  12.360 -0.1916 -0.5363  0.8233
  735TMC3    C210859   2.664   2.843  12.308  0.5711 -0.3635  0.2016
  735TMC3    C310860   2.585   2.738  12.264  0.3381 -1.3749  0.3859
  735TMC3    C410861   2.826   2.696  12.376  0.1559 -0.3578  0.2392
  735TMC3    C510862   2.750   2.591  12.332  0.3596 -0.1990 -0.2144
  735TMC3    C610863   2.626   2.610  12.273 -1.0368 -0.6832  0.3639
  735TMC3     C10864   2.887   2.908  12.282  0.3023 -0.3251  0.3490
  735TMC3     O10865   2.824   2.988  12.211 -0.2242  0.5467  0.1046
  735TMC3     H10866   2.626   2.944  12.297  1.7213  0.1483  0.9237
  735TMC3    H110867   2.921   2.684  12.427 -1.5004 -2.4322  2.8655
  735TMC3    H210868   2.565   2.528  12.237  0.9255 -0.9300 -2.4346
  735TMC3    C710869   2.831   2.481  12.297  0.2432  0.4157 -0.2231
  735TMC3    C810870   2.523   2.762  12.132  0.4811 -0.5119  0.0101
  735TMC3    O110871   2.850   2.404  12.390 -0.2359 -0.1850  0.0473
  735TMC3    O210872   2.428   2.693  12.099 -0.6505  0.1782  0.1761
  736MPD2     C10873   3.097   2.354  12.246  0.4183  0.2906 -0.5974
  736MPD2    C110874   3.058   2.469  12.181  0.2688 -0.7525  0.3338
  736MPD2    C210875   3.139   2.529  12.087  0.6685  0.0335 -0.2968
  736MPD2    C310876   3.270   2.488  12.074  0.0195 -0.6084  0.2058
  736MPD2    C410877   3.313   2.375  12.145 -0.7519 -0.3856  0.4380
  736MPD2    C510878   3.226   2.317  12.233  0.0023  0.2414  0.1549
  736MPD2     H10879   3.100   2.613  12.031  2.5241  1.3456  0.3993
  736MPD2    H110880   3.418   2.349  12.139 -1.0341 -1.2303 -0.9256
  736MPD2    H210881   3.038   2.298  12.318  2.8347  1.0861  1.9676
  736MPD2    H310882   3.264   2.233  12.290 -0.1016 -0.0249 -0.1658
  736MPD2     N10883   3.356   2.550  11.984  0.6035  0.0654 -0.6787
  736MPD2    H510884   3.453   2.519  11.974 -0.6308 -3.9650  0.0257
  736MPD2    N110885   2.926   2.528  12.205  0.7640  0.2821  0.4843
  736MPD2    H710886   2.899   2.608  12.149 -0.1678  0.2241  0.8459
  737TMC3    C110887   3.426   2.668  11.786  0.7135  0.1447  0.0141
  737TMC3    C210888   3.392   2.768  11.693 -0.3395 -0.0148 -0.0501
  737TMC3    C310889   3.433   2.759  11.565 -0.5139  0.1554 -0.1468
  737TMC3    C410890   3.509   2.568  11.749 -0.4830  0.8902 -0.4238
  737TMC3    C510891   3.563   2.567  11.619  0.2074  0.0531 -0.6006
  737TMC3    C610892   3.529   2.665  11.531  0.2985  0.6142  0.0458
  737TMC3     C10893   3.318   2.645  11.891 -0.2105  0.3674  0.5563
  737TMC3     O10894   3.207   2.691  11.859 -0.6199 -0.6305 -0.2847
  737TMC3     H10895   3.322   2.845  11.722  1.4750  2.1395 -1.3541
  737TMC3    H110896   3.542   2.500  11.827 -0.6674 -1.0626 -2.0437
  737TMC3    H210897   3.557   2.646  11.428 -1.5705 -0.4395 -0.2647
  737TMC3    C710898   3.674   2.480  11.590 -0.6577 -0.0489  0.0675
  737TMC3    C810899   3.401   2.877  11.475 -0.3206 -0.3172  0.8782
  737TMC3    O110900   3.701   2.394  11.670  0.0275  0.3608  0.2399
  737TMC3    O210901   3.344   2.969  11.530 -0.2758  0.4894 -0.1639
  738MPD2     C10902   3.298   1.301  15.277  0.6010  0.5319 -0.4149
  738MPD2    C110903   3.287   1.276  15.145  0.6913  0.0458 -0.1738
  738MPD2    C210904   3.406   1.264  15.075 -0.2936  0.1258  0.0819
  738MPD2    C310905   3.531   1.283  15.128 -0.5234 -0.4486  0.7214
  738MPD2    C410906   3.538   1.332  15.262  0.5614  0.2688 -0.3771
  738MPD2    C510907   3.421   1.333  15.333  0.2635 -0.2414  0.0025
  738MPD2     H10908   3.401   1.246  14.969  0.6945  4.0898 -0.6415
  738MPD2    H110909   3.626   1.357  15.320 -0.5518  0.8832  1.0517
  738MPD2    H210910   3.212   1.316  15.341  1.1915 -2.5212  1.0967
  738MPD2    H310911   3.427   1.362  15.437 -2.1068 -2.2564  0.7059
  738MPD2     N10912   3.653   1.272  15.053 -0.3193  0.4290 -0.2442
  738MPD2    H510913   3.735   1.313  15.098 -0.2528  0.2700 -0.2204
  738MPD2    N110914   3.162   1.255  15.083 -0.0513  0.6497  0.9021
  738MPD2    H710915   3.170   1.232  14.984 -0.4692 -0.4652  1.1211
  739TMC3    C110916   3.789   1.245  14.852 -0.1998  0.0638 -0.3260
  739TMC3    C210917   3.781   1.239  14.714 -0.1454 -0.3142 -0.8170
  739TMC3    C310918   3.873   1.313  14.637  0.1541  0.5992  0.0261
  739TMC3    C410919   3.890   1.319  14.905  0.0124  0.2612 -0.3515
  739TMC3    C510920   3.980   1.387  14.831  0.5423 -0.0970 -0.0322
  739TMC3    C610921   3.972   1.388  14.695 -0.3859 -0.3384  0.7302
  739TMC3     C10922   3.667   1.217  14.924 -0.3141  0.9828  0.0488
  739TMC3     O10923   3.592   1.143  14.860  0.2922 -0.0503  0.1955
  739TMC3     H10924   3.707   1.176  14.666 -0.8025 -1.0115  1.1073
  739TMC3    H110925   3.899   1.309  15.012 -1.1763  1.2877 -0.1509
  739TMC3    H210926   4.042   1.440  14.630  0.7696 -0.2907  2.0137
  739TMC3    C710927   4.105   1.411  14.893 -0.5046 -0.1794  0.3885
  739TMC3    C810928   3.833   1.327  14.504 -0.2576 -0.8126 -0.5332
  739TMC3    O110929   4.122   1.377  15.008  0.2562  0.1169  0.2826
  739TMC3    O210930   3.712   1.307  14.487 -0.5040 -0.2623  0.1702
  740TMC3    C110931   4.145   2.445  14.525  0.6923  0.1291 -0.4559
  740TMC3    C210932   4.198   2.370  14.635 -0.0271 -0.0353 -0.0568
  740TMC3    C310933   4.331   2.330  14.633 -0.1858 -0.4326  0.2565
  740TMC3    C410934   4.225   2.466  14.422 -0.4076 -0.3524  0.7238
  740TMC3    C510935   4.355   2.416  14.421 -0.0462 -0.2585  0.0512
  740TMC3    C610936   4.406   2.344  14.527  0.5723 -0.4173 -0.3791
  740TMC3     C10937   4.004   2.489  14.526  0.1703 -0.4044 -0.6104
  740TMC3     O10938   3.973   2.563  14.433  0.2142 -0.3775  0.0797
  740TMC3     H10939   4.134   2.338  14.717 -1.1895 -0.2538 -1.0498
  740TMC3    H110940   4.186   2.522  14.337 -0.2116 -3.3485 -1.3523
  740TMC3    H210941   4.512   2.329  14.542  0.6965 -0.3368 -1.1418
  740TMC3    C710942   4.449   2.439  14.314  0.0666  0.9695 -0.0839
  740TMC3    C810943   4.377   2.233  14.734  0.0257 -0.8670  0.3395
  740TMC3    O110944   4.559   2.394  14.341 -0.0571 -0.1993 -0.2537
  740TMC3    O210945   4.446   2.144  14.688 -0.3431  0.8169  0.2082
  741TMC3    C110946   3.804   1.780  14.309  0.0306 -0.6993  0.6620
  741TMC3    C210947   3.666   1.777  14.288 -0.5937 -0.0407  0.3901
  741TMC3    C310948   3.592   1.737  14.393  0.0598  0.4633  0.6046
  741TMC3    C410949   3.870   1.749  14.422  0.0578  0.2197 -0.4949
  741TMC3    C510950   3.786   1.714  14.531  0.5306 -0.4505  0.2983
  741TMC3    C610951   3.653   1.705  14.514  0.7557  0.2443 -0.0003
  741TMC3     C10952   3.868   1.826  14.187  0.0230  0.3406 -0.6038
  741TMC3     O10953   3.796   1.877  14.104  0.0954  0.7021 -0.1471
  741TMC3     H10954   3.628   1.802  14.189  0.2429  1.6659  0.4897
  741TMC3    H110955   3.974   1.768  14.444 -0.4534  1.6443  0.7170
  741TMC3    H210956   3.594   1.663  14.594 -0.8909  1.4971 -0.5428
  741TMC3    C710957   3.847   1.712  14.657  0.5884 -0.5264  0.6327
  741TMC3    C810958   3.447   1.740  14.376 -0.8104  0.2774 -0.1440
  741TMC3    O110959   3.969   1.687  14.654  0.3485 -0.0141  0.3863
  741TMC3    O210960   3.404   1.770  14.263  0.5732  0.4453  0.3947
  742TMC3    C110961   2.970   0.561  15.246  0.4458  0.7457  0.0800
  742TMC3    C210962   2.927   0.561  15.119  0.4525  0.6500 -0.3308
  742TMC3    C310963   3.020   0.531  15.024  0.5635  0.4449  0.3371
  742TMC3    C410964   3.103   0.563  15.274  0.7911 -0.0892 -0.0708
  742TMC3    C510965   3.192   0.541  15.166 -0.0991 -0.4598 -0.4157
  742TMC3    C610966   3.153   0.516  15.041  0.0723 -0.5191 -0.7845
  742TMC3     C10967   2.877   0.568  15.351 -0.0139 -0.3486 -0.5661
  742TMC3     O10968   2.764   0.591  15.311  0.5539 -1.0562  0.9879
  742TMC3     H10969   2.822   0.553  15.093  0.1248  1.7870  0.6202
  742TMC3    H110970   3.146   0.562  15.374  1.5232  0.5937 -0.3753
  742TMC3    H210971   3.222   0.500  14.959  0.7062 -0.1399 -0.3217
  742TMC3    C710972   3.325   0.497  15.203 -0.1257  0.1353  0.6368
  742TMC3    C810973   2.979   0.570  14.890 -0.5969  0.9807 -0.6895
  742TMC3    O110974   3.367   0.407  15.131 -0.0272 -0.2484 -0.1164
  742TMC3    O210975   2.908   0.667  14.869  0.1789  0.0748 -0.4308
  743MPD2     C10976   2.135   1.641   2.271 -0.3868 -0.2340 -0.0849
  743MPD2    C110977   2.127   1.689   2.143  0.3298  0.4628 -0.3595
  743MPD2    C210978   2.250   1.717   2.091 -0.9899 -0.4841  0.5175
  743MPD2    C310979   2.372   1.690   2.152  0.2726 -0.0983  0.1302
  743MPD2    C410980   2.376   1.645   2.278  0.1770 -0.1612  0.0521
  743MPD2    C510981   2.259   1.619   2.330  0.5310  0.0109 -0.5052
  743MPD2     H10982   2.255   1.752   1.989  0.0736 -2.6189 -0.1687
  743MPD2    H110983   2.465   1.639   2.341 -0.1708 -1.3022  0.4363
  743MPD2    H210984   2.050   1.642   2.337 -0.3456  2.3514 -0.0742
  743MPD2    H310985   2.261   1.596   2.436 -1.1838  0.4739 -0.3579
  743MPD2     N10986   2.491   1.740   2.085  0.0654  0.2262 -0.4269
  743MPD2    H510987   2.467   1.793   2.002  1.7139  3.4624  1.1484
  743MPD2    N110988   2.002   1.717   2.088 -0.1320  0.4721  0.0212
  743MPD2    H710989   1.919   1.692   2.142 -1.0616  2.1769 -0.6119
  744TMC3    C110990   1.846   1.775   1.920 -0.1609 -0.0042  0.7541
  744TMC3    C210991   1.751   1.804   2.014  0.0954 -0.0490  0.2298
  744TMC3    C310992   1.626   1.812   1.973  0.3917 -0.2607 -0.1728
  744TMC3    C410993   1.814   1.748   1.788  0.4606 -0.0996  0.2386
  744TMC3    C510994   1.682   1.748   1.757  0.2890  0.7469  0.0792
  744TMC3    C610995   1.583   1.783   1.848  0.3363 -0.2649  0.7163
  744TMC3     C10996   1.981   1.764   1.962 -0.6628  0.9107  0.5034
  744TMC3     O10997   2.058   1.775   1.869 -0.0028  0.6166  0.2580
  744TMC3     H10998   1.773   1.854   2.107  2.2803  1.9132 -1.3423
  744TMC3    H110999   1.886   1.725   1.710 -1.2455 -3.4226 -0.3832
  744TMC3    H211000   1.480   1.803   1.823  1.3971  1.3920 -2.3948
  744TMC3    C711001   1.640   1.739   1.617 -0.0596 -1.1693  0.6690
  744TMC3    C811002   1.518   1.834   2.064  0.0098 -0.2663 -0.5947
  744TMC3    O111003   1.741   1.742   1.543  0.0269  0.2328 -0.1575
  744TMC3    O211004   1.422   1.889   2.018 -0.5191 -0.1113 -0.0913
  745TMC3    C111005   4.520   4.711  13.405  1.1207  0.1559  0.0520
  745TMC3    C211006   4.512   0.026  13.540 -0.0408 -0.4363  0.2189
  745TMC3    C311007   4.393   0.068  13.593 -0.5491  0.0165  0.5642
  745TMC3    C411008   4.411   4.713  13.326  0.1014 -0.0327  0.2296
  745TMC3    C511009   4.291   0.033  13.378  0.1601  0.1967 -0.0285
  745TMC3    C611010   4.278   0.068  13.512  0.1365 -0.0351 -0.1284
  745TMC3     C11011   4.620   0.077  13.341 -0.5831 -0.5765 -0.6645
  745TMC3     O11012   4.681   0.031  13.244  0.2083 -0.1179 -0.0131
  745TMC3     H11013   4.604   0.049  13.593  0.1947 -0.7926 -0.0382
  745TMC3    H111014   4.423   4.691  13.221 -1.8072 -0.6671  0.1373
  745TMC3    H211015   4.191   0.117  13.553 -0.5969 -1.5968  0.1660
  745TMC3    C711016   4.213   0.134  13.300  0.3439  0.4194 -0.2651
  745TMC3    C811017   4.399   0.170  13.689  0.6166 -0.2359  0.0246
  745TMC3    O111018   4.100   0.170  13.332  0.2579  0.7584  0.6521
  745TMC3    O211019   4.352   0.271  13.643 -0.0679 -0.3302  0.3947
  746TMC3    C111020   2.024   2.275  10.763 -0.1891  0.1106  0.1840
  746TMC3    C211021   2.108   2.234  10.663  0.3284  0.1790 -0.8538
  746TMC3    C311022   2.058   2.124  10.599 -0.1042 -0.3198  0.3979
  746TMC3    C411023   1.921   2.197  10.812 -0.3171 -0.1406 -1.0810
  746TMC3    C511024   1.904   2.074  10.762  0.5303 -0.4645  0.4018
  746TMC3    C611025   1.963   2.041  10.646  0.1440 -0.4835 -0.6261
  746TMC3     C11026   2.028   2.411  10.809 -0.1255  0.2668 -0.0026
  746TMC3     O11027   1.952   2.451  10.893  0.1918 -0.3296 -0.1669
  746TMC3     H11028   2.206   2.274  10.637  0.6460  0.4879  0.8086
  746TMC3    H111029   1.851   2.236  10.885  0.1613  1.6524 -1.5594
  746TMC3    H211030   1.955   1.939  10.610  0.2564 -0.4765 -0.6698
  746TMC3    C711031   1.782   2.003  10.794 -0.4357  0.0020 -0.4701
  746TMC3    C811032   2.148   2.077  10.485  0.2681  0.1415  0.5452
  746TMC3    O111033   1.719   1.963  10.700  0.0924 -0.0615 -0.1590
  746TMC3    O211034   2.161   1.954  10.485 -0.4099 -0.4167 -0.1746
  747TMC3    C111035   4.351   2.738  10.845 -0.3428 -0.8402 -0.3772
  747TMC3    C211036   4.282   2.631  10.902  0.0355 -0.0807 -0.1617
  747TMC3    C311037   4.283   2.632  11.038 -0.2400  0.2359 -0.5562
  747TMC3    C411038   4.403   2.840  10.919  0.8717 -0.4921  0.9462
  747TMC3    C511039   4.404   2.827  11.055 -1.1543 -0.3192 -0.4119
  747TMC3    C611040   4.337   2.731  11.115 -0.3758 -0.4441  0.2681
  747TMC3     C11041   4.369   2.745  10.697  0.4858  0.5841  1.0973
  747TMC3     O11042   4.409   2.851  10.650 -0.5691  0.4758  0.3934
  747TMC3     H11043   4.229   2.565  10.834  0.3638 -0.9692  0.4485
  747TMC3    H111044   4.441   2.931  10.874  0.4356 -0.9463 -0.3424
  747TMC3    H211045   4.342   2.721  11.223  0.5728  0.4049  0.2968
  747TMC3    C711046   4.467   2.936  11.129  0.0525 -0.7808  0.0533
  747TMC3    C811047   4.219   2.523  11.102  0.4226 -0.0725 -0.3027
  747TMC3    O111048   4.438   2.948  11.245 -0.5621  0.7079 -0.0288
  747TMC3    O211049   4.237   2.413  11.053  0.2852 -0.0785  0.2791
  748MPD2     C11050   0.747   2.687   1.909  0.3558 -0.3924  0.7246
  748MPD2    C111051   0.857   2.639   1.982 -0.9074 -0.2789 -0.2769
  748MPD2    C211052   0.980   2.659   1.922 -0.5054  0.1071  0.7144
  748MPD2    C311053   0.995   2.743   1.812  0.3686 -0.2501 -0.5189
  748MPD2    C411054   0.886   2.796   1.751 -1.1266 -0.1189  0.0707
  748MPD2    C511055   0.758   2.754   1.790  0.4567 -0.2833 -0.4580
  748MPD2     H11056   1.067   2.613   1.968 -1.6598 -2.4687  0.3453
  748MPD2    H111057   0.909   2.856   1.663 -0.4707 -0.3469  0.0911
  748MPD2    H211058   0.649   2.661   1.946 -0.7773  1.0929 -1.1901
  748MPD2    H311059   0.671   2.780   1.730  0.4263  0.1941 -0.2054
  748MPD2     N11060   1.134   2.775   1.776 -0.2541  0.2811  0.5124
  748MPD2    H511061   1.207   2.731   1.831 -0.4063 -0.1544  0.3713
  748MPD2    N111062   0.827   2.570   2.102 -0.8350  0.1638 -0.4126
  748MPD2    H711063   0.729   2.549   2.119 -0.8210  0.6794  0.3086
  749TMC3    C111064   1.318   2.813   1.641  1.0350 -0.6137 -0.3125
  749TMC3    C211065   1.379   2.703   1.696 -0.6897 -0.3176 -0.3058
  749TMC3    C311066   1.512   2.701   1.683 -0.1525 -0.0417 -0.1300
  749TMC3    C411067   1.384   2.907   1.565  0.2292 -0.1451 -0.2326
  749TMC3    C511068   1.519   2.883   1.544 -0.0013 -0.5402 -0.1746
  749TMC3    C611069   1.587   2.780   1.601 -0.0686  0.1287  0.5369
  749TMC3     C11070   1.173   2.825   1.655  0.1163 -0.1261 -0.7826
  749TMC3     O11071   1.111   2.899   1.582 -0.8931 -0.1764 -0.2483
  749TMC3     H11072   1.330   2.619   1.744  1.9031 -1.2136  0.7362
  749TMC3    H111073   1.328   2.990   1.523  2.6343  0.7683 -1.6272
  749TMC3    H211074   1.694   2.778   1.613  0.2931 -0.5303 -2.7121
  749TMC3    C711075   1.586   2.986   1.462  0.1970  0.4916 -0.1851
  749TMC3    C811076   1.580   2.616   1.781  0.4309  0.2529 -0.0060
  749TMC3    O111077   1.528   3.092   1.447 -0.2081 -0.0743  0.1182
  749TMC3    O211078   1.524   2.612   1.889  0.4142 -0.1512  0.3142
  750MPD2     C11079   2.228   4.438  10.816 -0.4711  0.2729 -0.2005
  750MPD2    C111080   2.128   4.362  10.869  0.1091 -0.5315  0.0785
  750MPD2    C211081   2.058   4.278  10.778 -0.1711  0.1092 -0.4360
  750MPD2    C311082   2.104   4.264  10.646 -0.4252  0.2696 -0.4387
  750MPD2    C411083   2.208   4.337  10.602 -0.2022  0.3126  0.2640
  750MPD2    C511084   2.270   4.424  10.686  0.2892 -0.1713  0.3446
  750MPD2     H11085   1.978   4.214  10.814 -1.1890  1.3350 -0.5326
  750MPD2    H111086   2.246   4.324  10.501  0.6921 -0.5249  0.7157
  750MPD2    H211087   2.274   4.501  10.891 -1.5526 -1.2854  1.7757
  750MPD2    H311088   2.352   4.484  10.648 -1.3198  0.3372 -2.3302
  750MPD2     N11089   2.037   4.186  10.552 -0.0651  0.2651 -0.0712
  750MPD2    H511090   2.082   4.182  10.461 -1.7509 -0.2589 -0.8767
  750MPD2    N111091   2.094   4.378  11.004  0.1712  0.4235 -0.2197
  750MPD2    H711092   2.132   4.454  11.060 -0.3026  1.0178 -0.7003
  751TMC3    C111093   1.876   4.037  10.461 -0.0300  0.1102 -0.5005
  751TMC3    C211094   1.740   4.004  10.466  0.2811 -0.5699  0.3645
  751TMC3    C311095   1.695   3.929  10.371 -0.2860  0.1427 -0.3928
  751TMC3    C411096   1.965   3.992  10.380 -0.6474  0.3308 -0.5317
  751TMC3    C511097   1.917   3.906  10.287 -0.1231 -0.8016 -0.0374
  751TMC3    C611098   1.785   3.880  10.280 -0.4121 -0.4353 -0.3028
  751TMC3     C11099   1.922   4.110  10.576 -0.0154 -0.3611  0.2308
  751TMC3     O11100   1.849   4.098  10.672 -0.0902  0.4875  0.0778
  751TMC3     H11101   1.679   4.045  10.544 -2.6683 -0.2935 -2.1028
  751TMC3    H111102   2.070   3.985  10.406 -0.8518  3.5662  1.1183
  751TMC3    H211103   1.755   3.812  10.201  1.2805 -1.8812  0.3104
  751TMC3    C711104   2.001   3.814  10.217  0.0173 -0.0296 -0.1913
  751TMC3    C811105   1.599   3.821  10.408 -0.4105  1.2107 -0.2468
  751TMC3    O111106   1.946   3.714  10.167  0.9454  0.0429  0.4946
  751TMC3    O211107   1.597   3.725  10.332  0.1268  0.4303 -0.1945
  752TMC3    C111108   0.733   3.945  17.245 -1.2453  0.5540  0.7975
  752TMC3    C211109   0.626   3.949  17.330 -0.1784 -0.1051 -0.1935
  752TMC3    C311110   0.641   4.018  17.448  0.5435  0.0460 -0.3366
  752TMC3    C411111   0.855   3.996  17.275  0.1802 -0.4001 -0.0994
  752TMC3    C511112   0.874   4.035  17.400  0.5754  0.6326  0.5250
  752TMC3    C611113   0.766   4.052  17.485  0.3573 -0.0387  0.2864
  752TMC3     C11114   0.731   3.860  17.127  0.8996  0.0237  0.2366
  752TMC3     O11115   0.840   3.819  17.089 -0.0264 -0.0451  0.1444
  752TMC3     H11116   0.533   3.906  17.296 -1.2081  0.9753  1.2521
  752TMC3    H111117   0.928   4.002  17.195 -0.0374 -2.5430 -0.4680
  752TMC3    H211118   0.770   4.116  17.572  0.2545 -0.6177  0.7118
  752TMC3    C711119   1.008   4.070  17.450  0.0520 -0.1163  0.1225
  752TMC3    C811120   0.532   4.022  17.541  0.1675  0.2122  1.4040
  752TMC3    O111121   1.024   4.099  17.568 -0.2726 -0.0196 -0.0066
  752TMC3    O211122   0.564   4.036  17.658 -0.2483  0.0320 -0.2198
  753TMC3    C111123   2.342   0.259  13.121 -0.0156 -0.2142  0.0810
  753TMC3    C211124   2.428   0.258  13.230  0.2424  0.1557 -0.4968
  753TMC3    C311125   2.446   0.139  13.293 -0.1712  0.5556  0.4284
  753TMC3    C411126   2.288   0.144  13.076 -0.5186 -0.0345 -0.3224
  753TMC3    C511127   2.308   0.023  13.142  0.0108 -0.0809 -0.0950
  753TMC3    C611128   2.394   0.020  13.245 -0.4673  0.2531  0.2332
  753TMC3     C11129   2.330   0.377  13.037 -0.8190 -0.3548 -0.5163
  753TMC3     O11130   2.260   0.373  12.933 -0.0427 -0.4988  0.0120
  753TMC3     H11131   2.461   0.351  13.275 -0.3815  0.4656 -0.6864
  753TMC3    H111132   2.227   0.143  12.986 -0.1493 -1.8260 -0.5491
  753TMC3    H211133   2.403   4.655  13.308  0.1814  2.1028  2.7163
  753TMC3    C711134   2.310   4.632  13.051 -0.3922 -0.7639 -0.2353
  753TMC3    C811135   2.534   0.131  13.406  0.3627 -0.6788  0.1714
  753TMC3    O111136   2.237   4.643  12.954  0.3479  0.0922  0.0198
  753TMC3    O211137   2.562   0.018  13.444 -0.2295  0.7199 -0.1838
  754MPD2     C11138   1.343   3.366  13.264 -0.1987 -0.3719  0.4997
  754MPD2    C111139   1.228   3.423  13.303  0.4691 -0.3662 -0.6538
  754MPD2    C211140   1.111   3.401  13.236  0.6701 -0.4410 -0.3081
  754MPD2    C311141   1.112   3.331  13.118  0.0747  0.0358 -0.0478
  754MPD2    C411142   1.230   3.281  13.071 -0.0615  0.4271  0.0615
  754MPD2    C511143   1.349   3.301  13.141  0.5073  1.0907 -0.2206
  754MPD2     H11144   1.016   3.434  13.277  0.7705  0.7809 -1.0627
  754MPD2    H111145   1.230   3.238  12.972  1.2894  0.9418 -0.1604
  754MPD2    H211146   1.440   3.376  13.312  0.6302 -1.2067 -1.0169
  754MPD2    H311147   1.442   3.269  13.096 -0.5565 -0.8434 -1.0093
  754MPD2     N11148   0.996   3.313  13.041  0.2076 -0.0210 -0.8751
  754MPD2    H511149   0.991   3.261  12.954 -0.7682 -2.3302  0.5645
  754MPD2    N111150   1.229   3.491  13.424  0.4099 -0.1619 -0.4633
  754MPD2    H711151   1.306   3.468  13.487 -0.4262  0.7065  0.8817
  755MPD2     C11152   0.013   3.707  13.123  0.2838 -0.8504  0.1713
  755MPD2    C111153   0.138   3.749  13.168  0.9160  0.2526 -0.1192
  755MPD2    C211154   0.250   3.681  13.114 -0.3483 -0.0079  0.1203
  755MPD2    C311155   0.238   3.586  13.012 -0.6969  0.4616 -0.7428
  755MPD2    C411156   0.118   3.576  12.947  0.5658  0.8709 -0.0421
  755MPD2    C511157   0.008   3.624  13.015 -0.8164 -0.1573 -0.1169
  755MPD2     H11158   0.352   3.681  13.151  0.0605 -0.1773 -0.9827
  755MPD2    H111159   0.100   3.528  12.852  1.9451  1.0766 -0.4083
  755MPD2    H211160   4.641   3.747  13.161 -0.3119 -1.6421 -0.4585
  755MPD2    H311161   4.636   3.597  12.968 -2.1522 -0.2253  2.5772
  755MPD2     N11162   0.345   3.500  12.969  1.0339 -0.5311  0.0531
  755MPD2    H511163   0.337   3.412  12.918 -0.9907 -0.3908  0.1312
  755MPD2    N111164   0.158   3.835  13.274 -0.1578 -0.6717 -0.5291
  755MPD2    H711165   0.253   3.862  13.299 -0.3097 -0.0973 -0.5756
  756MPD2     C11166   2.525   4.543   8.798 -0.2123 -0.0839 -0.1050
  756MPD2    C111167   2.555   4.478   8.916 -0.4511 -0.1353  0.1150
  756MPD2    C211168   2.529   4.335   8.923  0.1415 -0.5169 -0.4606
  756MPD2    C311169   2.484   4.262   8.818  0.5300 -0.8155 -0.0683
  756MPD2    C411170   2.469   4.334   8.702 -0.8529  0.5285  0.8338
  756MPD2    C511171   2.493   4.468   8.689 -0.4909  0.5218 -0.0152
  756MPD2     H11172   2.540   4.287   9.020 -2.5519  0.6661  0.4385
  756MPD2    H111173   2.423   4.293   8.613  0.0472  3.1941 -0.8509
  756MPD2    H211174   2.547   4.647   8.776  0.6916 -0.2898 -0.1430
  756MPD2    H311175   2.479   4.506   8.588  0.3433  0.6494 -0.0809
  756MPD2     N11176   2.445   4.126   8.839  0.1591  0.5286 -1.1272
  756MPD2    H511177   2.454   4.075   8.927 -1.1128  2.4302  0.1062
  756MPD2    N111178   2.597   4.541   9.036 -0.1360 -0.0938 -0.0052
  756MPD2    H711179   2.616   4.479   9.115 -0.8738  1.0791  1.1009
  757MPD2     C11180   1.777   3.289   8.565  0.1727  0.2818  0.0901
  757MPD2    C111181   1.847   3.267   8.687  1.4400 -0.0163 -0.6842
  757MPD2    C211182   1.956   3.348   8.727 -0.5726  0.0051 -0.1780
  757MPD2    C311183   1.992   3.457   8.651  0.7653 -0.1516  0.7399
  757MPD2    C411184   1.921   3.485   8.535  0.5726  0.5075 -0.4064
  757MPD2    C511185   1.824   3.395   8.499  0.0625  0.0834  0.0772
  757MPD2     H11186   2.005   3.305   8.813 -1.1768 -1.0640 -0.3571
  757MPD2    H111187   1.949   3.561   8.464 -0.0693 -0.6728 -1.9326
  757MPD2    H211188   1.692   3.231   8.531  0.7735 -0.8744  0.5398
  757MPD2    H311189   1.768   3.428   8.412 -1.0272  0.0282  0.7590
  757MPD2     N11190   2.100   3.529   8.705  0.4272 -0.2227  0.5617
  757MPD2    H511191   2.162   3.488   8.773  1.9316  0.8381 -0.1792
  757MPD2    N111192   1.799   3.160   8.765 -0.3539 -0.0383  0.1915
  757MPD2    H711193   1.723   3.103   8.728 -1.0990  0.5769  0.7567
  758MPD2     C11194   1.491   2.803  16.207  0.2405  0.1103  0.4459
  758MPD2    C111195   1.602   2.792  16.284 -0.2679  0.0303  0.7191
  758MPD2    C211196   1.584   2.774  16.416 -0.5922  0.2048  0.7360
  758MPD2    C311197   1.460   2.746  16.463 -0.2427 -0.3227  1.1243
  758MPD2    C411198   1.346   2.752  16.385 -0.3621 -0.1086  0.0946
  758MPD2    C511199   1.364   2.780  16.252 -0.2927  0.1638  0.4435
  758MPD2     H11200   1.673   2.764  16.478  0.6709 -3.0228 -1.5846
  758MPD2    H111201   1.248   2.738  16.428 -0.3931  0.1202  0.0948
  758MPD2    H211202   1.499   2.817  16.100  1.6191  0.2046  0.5696
  758MPD2    H311203   1.279   2.786  16.186  1.0829 -0.3641 -1.3528
  758MPD2     N11204   1.446   2.725  16.605  0.1337  0.3241  0.6192
  758MPD2    H511205   1.351   2.739  16.638  0.1526 -2.3543  1.7666
  758MPD2    N111206   1.733   2.805  16.230 -0.2211 -0.2092 -0.4472
  758MPD2    H711207   1.733   2.863  16.148  2.4780 -2.0698 -1.7582
  759MPD2     C11208   0.653   1.674   9.716  0.3120  0.1555 -0.1715
  759MPD2    C111209   0.614   1.797   9.775  0.4207  0.2954 -0.1910
  759MPD2    C211210   0.657   1.913   9.726  0.9969 -0.1130  0.3407
  759MPD2    C311211   0.729   1.915   9.606  0.5317  0.2975 -0.1473
  759MPD2    C411212   0.747   1.791   9.537  0.7330  0.0457  0.3185
  759MPD2    C511213   0.709   1.671   9.590  0.7045 -0.5803 -0.0916
  759MPD2     H11214   0.627   2.009   9.768 -1.3078 -1.4938  1.8574
  759MPD2    H111215   0.780   1.784   9.434  0.9190 -4.0796  0.6541
  759MPD2    H211216   0.638   1.577   9.762 -0.8976  0.8667  0.9567
  759MPD2    H311217   0.730   1.583   9.530  2.1183 -0.0569 -0.3584
  759MPD2     N11218   0.769   2.039   9.549  0.8526  0.0613 -0.3611
  759MPD2    H511219   0.777   2.121   9.609 -0.3671  0.1678 -0.3401
  759MPD2    N111220   0.540   1.800   9.893  0.3565  0.5409  0.8854
  759MPD2    H711221   0.511   1.890   9.930 -0.7278  0.5076  0.1113
  760MPD2     C11222   0.027   3.859  12.164  0.1016  0.5709 -0.2846
  760MPD2    C111223   0.113   3.964  12.174 -0.7377  0.5266  0.5775
  760MPD2    C211224   0.240   3.934  12.220 -0.0459 -0.3010 -0.2514
  760MPD2    C311225   0.281   3.807  12.238  0.4440  0.4519 -0.5729
  760MPD2    C411226   0.191   3.712  12.231 -0.2333  0.1536 -0.2479
  760MPD2    C511227   0.062   3.728  12.192 -0.6426  0.0215  0.0802
  760MPD2     H11228   0.316   4.011  12.227  2.3228 -2.4997 -1.6958
  760MPD2    H111229   0.213   3.606  12.244  2.6535  0.5258 -2.0511
  760MPD2    H211230   4.653   3.876  12.116  0.8033  1.8740 -1.1937
  760MPD2    H311231   4.717   3.645  12.173  1.3183 -1.4076 -0.6202
  760MPD2     N11232   0.415   3.762  12.256 -0.6858  0.5116  0.0511
  760MPD2    H511233   0.432   3.662  12.261 -2.8704  0.1620  0.8917
  760MPD2    N111234   0.078   4.096  12.144  0.2458 -0.3115  0.4715
  760MPD2    H711235   0.160   4.156  12.149  0.6680 -0.8539  0.0922
  761MPD2     C11236   1.421   3.536  10.796  0.6788 -0.5807  0.7125
  761MPD2    C111237   1.460   3.501  10.665  1.0587  0.2325 -0.0245
  761MPD2    C211238   1.488   3.600  10.570 -0.8156 -0.3124 -0.5338
  761MPD2    C311239   1.486   3.735  10.610  0.2104 -0.0522 -0.5874
  761MPD2    C411240   1.451   3.767  10.744  0.8289  0.1040 -0.2680
  761MPD2    C511241   1.417   3.668  10.836 -0.8613  0.4705 -0.0631
  761MPD2     H11242   1.498   3.574  10.466  2.3941  0.1432 -0.3246
  761MPD2    H111243   1.463   3.867  10.785  0.4188 -0.3553  1.0010
  761MPD2    H211244   1.404   3.465  10.876  1.7548 -1.4539  0.1587
  761MPD2    H311245   1.407   3.691  10.941 -1.4671  0.1057 -0.0436
  761MPD2     N11246   1.540   3.834  10.529  0.2323 -0.0974 -0.0013
  761MPD2    H511247   1.533   3.928  10.567 -2.2805 -0.3225  0.0850
  761MPD2    N111248   1.480   3.362  10.640 -0.6483  0.0040  0.0964
  761MPD2    H711249   1.435   3.301  10.708 -0.0028  1.6845  2.0515
  762MPD2     C11250   1.799   3.104   9.980  0.8776 -0.3728 -0.3037
  762MPD2    C111251   1.831   3.021  10.087 -0.1090 -0.2936  0.4946
  762MPD2    C211252   1.958   2.960  10.081 -0.3085 -0.0454 -0.1291
  762MPD2    C311253   2.052   2.982   9.981 -0.3664  0.0346  0.3169
  762MPD2    C411254   2.013   3.061   9.879  0.2803  0.1636 -0.6133
  762MPD2    C511255   1.893   3.118   9.878 -0.2973 -0.1145  0.6721
  762MPD2     H11256   1.993   2.880  10.145  0.7551  1.4412  1.1389
  762MPD2    H111257   2.065   3.086   9.788 -0.7399  0.0733 -1.2178
  762MPD2    H211258   1.708   3.162   9.981  0.7060 -0.6500  4.8363
  762MPD2    H311259   1.879   3.190   9.799  1.3044  0.9340  1.3442
  762MPD2     N11260   2.169   2.908   9.979  0.0217  0.7369  0.2377
  762MPD2    H511261   2.175   2.833  10.047 -1.8100  0.4494  0.0867
  762MPD2    N111262   1.739   3.018  10.195 -0.3765  0.1544 -0.3690
  762MPD2    H711263   1.656   3.075  10.184 -0.4317  0.5234  1.9660
  763MPD2     C11264   2.941   2.892  16.659  0.7132  0.1904 -0.2707
  763MPD2    C111265   2.935   2.973  16.542  0.1396  0.2192  0.2547
  763MPD2    C211266   2.939   3.110  16.563 -0.6768 -0.6780 -0.0570
  763MPD2    C311267   2.937   3.161  16.690 -0.1293  0.0250 -0.4834
  763MPD2    C411268   2.914   3.086  16.801 -0.1747 -0.6463  0.0713
  763MPD2    C511269   2.911   2.953  16.778  0.0327 -1.0643  0.1803
  763MPD2     H11270   2.944   3.182  16.481 -0.5990 -0.5100  0.0964
  763MPD2    H111271   2.925   3.121  16.903  0.0615  1.0257 -0.5118
  763MPD2    H211272   2.945   2.784  16.656 -1.2432  0.1515 -1.7618
  763MPD2    H311273   2.925   2.886  16.862  0.1103  0.1345  1.1239
  763MPD2     N11274   2.976   3.294  16.698  0.1825 -0.4968  1.2243
  763MPD2    H511275   3.019   3.333  16.615 -1.4236 -1.3774 -0.0288
  763MPD2    N111276   2.936   2.929  16.407 -0.2616 -0.0541 -0.3478
  763MPD2    H711277   2.943   2.994  16.330  0.6529 -0.5926 -0.7168
  764MPD2     C11278   1.135   0.808   0.636 -0.0224 -0.1760  0.6555
  764MPD2    C111279   1.127   0.696   0.557 -0.8277  0.7417 -0.4071
  764MPD2    C211280   1.228   0.598   0.584 -0.1911  0.7706 -0.2663
  764MPD2    C311281   1.321   0.617   0.687  0.0421  0.4237  0.4808
  764MPD2    C411282   1.323   0.732   0.765  0.3468  0.5568  0.4357
  764MPD2    C511283   1.223   0.824   0.739 -0.4216 -0.5919  0.3378
  764MPD2     H11284   1.225   0.507   0.526  1.0419  0.7080 -0.2342
  764MPD2    H111285   1.393   0.755   0.844  2.5405 -1.2984 -0.9597
  764MPD2    H211286   1.060   0.887   0.636  0.4575  0.2893  0.1313
  764MPD2    H311287   1.234   0.921   0.786  1.1149 -0.1541 -0.9643
  764MPD2     N11288   1.418   0.517   0.698 -0.2065  0.4322  0.1131
  764MPD2    H511289   1.412   0.430   0.646 -0.9547 -1.0292  2.6483
  764MPD2    N111290   1.031   0.673   0.457  0.3384  0.2075  0.7910
  764MPD2    H711291   1.039   0.589   0.401  0.5281 -0.4985  1.8634
  765MPD2     C11292   0.639   2.415  16.087 -0.2260  0.2489 -0.0054
  765MPD2    C111293   0.684   2.529  16.023 -0.2448 -0.2878 -0.1839
  765MPD2    C211294   0.803   2.524  15.944  0.2347  0.4777 -0.3399
  765MPD2    C311295   0.873   2.409  15.930  0.8090  0.0449  0.0245
  765MPD2    C411296   0.819   2.298  15.992 -0.4069  0.9672 -0.4225
  765MPD2    C511297   0.708   2.303  16.070 -1.0814  0.9135 -0.0495
  765MPD2     H11298   0.842   2.615  15.900  2.1275  0.6870  1.7691
  765MPD2    H111299   0.880   2.209  15.997  0.5579  1.7233  1.2930
  765MPD2    H211300   0.550   2.421  16.149  0.8880  0.0998  1.6048
  765MPD2    H311301   0.678   2.208  16.114  1.3548 -0.0893 -0.5876
  765MPD2     N11302   0.986   2.415  15.850 -0.4495 -0.2173 -0.0974
  765MPD2    H511303   1.022   2.507  15.826 -2.6914  0.9357  0.9678
  765MPD2    N111304   0.612   2.657  16.030 -0.3532 -0.1834 -0.1706
  765MPD2    H711305   0.527   2.665  16.084 -0.0770 -1.5824  0.4753
  766MPD2     C11306   0.068   2.801  15.573  0.2253  0.2945  0.7096
  766MPD2    C111307   0.196   2.766  15.599 -0.0175 -0.4078  0.3115
  766MPD2    C211308   0.273   2.708  15.502 -0.6055  0.4131 -0.0302
  766MPD2    C311309   0.221   2.694  15.372 -0.1033 -0.2367 -0.1293
  766MPD2    C411310   0.086   2.717  15.352  0.2421  0.8716  1.3578
  766MPD2    C511311   0.008   2.763  15.457  0.6448  0.0387 -0.6576
  766MPD2     H11312   0.370   2.667  15.531  0.1765  2.4759  0.2444
  766MPD2    H111313   0.049   2.709  15.250  0.7261  2.9298  1.0185
  766MPD2    H211314   0.006   2.848  15.648  3.1802  2.8984  1.5290
  766MPD2    H311315   4.624   2.782  15.448  0.2270 -2.6632 -1.5790
  766MPD2     N11316   0.305   2.676  15.262  0.3620  0.5318 -0.1152
  766MPD2    H511317   0.270   2.661  15.167 -0.0156 -1.4418  0.3411
  766MPD2    N111318   0.262   2.803  15.719  0.3480  0.6319 -1.4225
  766MPD2    H711319   0.362   2.790  15.726  0.0765 -1.6372 -1.7562
  767MPD2     C11320   4.588   2.985  15.200  0.0662 -0.4706 -0.2621
  767MPD2    C111321   4.722   2.980  15.175 -0.1564  0.4437 -0.5196
  767MPD2    C211322   0.049   2.897  15.075  0.3673 -0.0200 -0.2167
  767MPD2    C311323   4.683   2.846  14.984  0.4044 -0.0344  0.0039
  767MPD2    C411324   4.546   2.864  15.003 -0.0282 -0.4230  0.3815
  767MPD2    C511325   4.497   2.926  15.115  0.0113  0.0860  0.7406
  767MPD2     H11326   0.153   2.884  15.048  0.5476 -0.7236  0.8241
  767MPD2    H111327   4.474   2.818  14.937  0.6218 -0.5441 -0.2491
  767MPD2    H211328   4.557   3.037  15.289  1.6730  0.4474 -0.2331
  767MPD2    H311329   4.393   2.946  15.137  0.2906  1.5716  0.7114
  767MPD2     N11330   0.012   2.778  14.873 -0.0591 -0.3785 -0.5498
  767MPD2    H511331   0.113   2.781  14.863  0.1141  0.6726  1.5037
  767MPD2    N111332   0.084   3.040  15.274 -0.2988 -0.2209 -0.6190
  767MPD2    H711333   0.032   3.082  15.351  1.7461  0.1223  0.5656
  768MPD2     C11334   1.531   1.682  10.417 -0.8787 -0.6291  0.2764
  768MPD2    C111335   1.494   1.685  10.553 -0.2036  0.5689  0.3971
  768MPD2    C211336   1.592   1.673  10.650  0.5630  0.7766  0.2147
  768MPD2    C311337   1.728   1.683  10.620  0.1026 -0.3282 -0.7685
  768MPD2    C411338   1.754   1.703  10.487 -0.0077  0.4677  0.5381
  768MPD2    C511339   1.663   1.693  10.387 -0.4253 -0.3174 -0.7337
  768MPD2     H11340   1.555   1.669  10.752 -2.3218 -1.1228 -0.9165
  768MPD2    H111341   1.857   1.714  10.454 -1.0961  1.0025 -2.6959
  768MPD2    H211342   1.457   1.677  10.338 -1.2742  2.0711  0.4499
  768MPD2    H311343   1.690   1.701  10.282  0.4814  0.1767 -0.4645
  768MPD2     N11344   1.837   1.676  10.721  0.4937 -0.1816  0.0514
  768MPD2    H511345   1.930   1.690  10.683  0.6850 -0.6860  0.3280
  768MPD2    N111346   1.354   1.677  10.592 -0.4933 -0.1677  0.5140
  768MPD2    H711347   1.338   1.635  10.683  0.9873 -1.0173  0.3892
  769MPD2     C11348   1.929   3.960  15.334  0.1388  0.4236 -0.0613
  769MPD2    C111349   1.900   4.094  15.307  0.2545  0.0368 -0.9183
  769MPD2    C211350   1.967   4.189  15.379  0.1787 -0.3003  0.3196
  769MPD2    C311351   2.046   4.159  15.486 -0.3353 -0.6867  0.5356
  769MPD2    C411352   2.079   4.026  15.514 -0.0025 -0.6674 -0.0331
  769MPD2    C511353   2.023   3.935  15.430 -0.4196 -0.2607  0.0451
  769MPD2     H11354   1.953   4.295  15.360 -0.3743 -0.1165  1.7458
  769MPD2    H111355   2.126   3.996  15.607 -0.2127  0.7408  0.5390
  769MPD2    H211356   1.894   3.882  15.268 -0.0267  2.4629 -2.3500
  769MPD2    H311357   2.051   3.831  15.438 -0.2568 -0.3054 -1.1119
  769MPD2     N11358   2.081   4.264  15.578  0.0601  0.1103 -0.3822
  769MPD2    H511359   2.055   4.356  15.545 -0.8084 -0.5150 -1.4635
  769MPD2    N111360   1.822   4.131  15.194 -0.4568 -0.0945 -0.4589
  769MPD2    H711361   1.771   4.061  15.140 -1.4462  0.2903 -0.0268
  770MPD2     C11362   1.023   4.047  15.489  0.1110 -0.6103  0.3067
  770MPD2    C111363   1.143   3.973  15.477  0.4961  0.6572 -0.5790
  770MPD2    C211364   1.242   4.017  15.393  0.2600  0.3191  0.5634
  770MPD2    C311365   1.214   4.132  15.317 -0.3755  0.2278 -0.3809
  770MPD2    C411366   1.095   4.204  15.326 -0.3297 -1.0209 -0.5828
  770MPD2    C511367   1.003   4.159  15.418  0.5881 -0.7538 -0.2918
  770MPD2     H11368   1.336   3.963  15.387 -0.2124 -0.4128 -0.1584
  770MPD2    H111369   1.074   4.286  15.258 -0.2446  0.4129  1.1462
  770MPD2    H211370   0.942   4.015  15.553 -1.5329  0.7620 -1.0848
  770MPD2    H311371   0.911   4.217  15.416  1.3916  0.5769  0.8731
  770MPD2     N11372   1.303   4.162  15.207  0.2360 -0.8695  0.1405
  770MPD2    H511373   1.381   4.099  15.190  0.3678 -1.0810  1.5197
  770MPD2    N111374   1.165   3.864  15.570  0.4044  0.1089 -0.1445
  770MPD2    H711375   1.094   3.853  15.643  0.6696  1.4100  0.3270
  771MPD2     C11376   3.030   2.440  14.345  1.1212 -0.7609 -0.4753
  771MPD2    C111377   3.038   2.487  14.216 -0.2395  0.1365  0.2507
  771MPD2    C211378   3.057   2.398  14.109 -0.3023  0.0923 -0.6325
  771MPD2    C311379   3.063   2.261  14.127 -0.1662 -0.0423  0.0850
  771MPD2    C411380   3.049   2.215  14.259 -0.0889 -0.2579  0.2148
  771MPD2    C511381   3.037   2.301  14.365  0.0292 -0.0092  0.4553
  771MPD2     H11382   3.060   2.435  14.007  0.5861  1.6994 -0.0168
  771MPD2    H111383   3.028   2.115  14.296  2.0077 -0.9454 -0.4763
  771MPD2    H211384   3.015   2.502  14.433  1.6850 -0.0007 -0.9035
  771MPD2    H311385   3.038   2.254  14.463  0.0579 -2.9815 -0.9487
  771MPD2     N11386   3.071   2.176  14.021  0.1096  0.2988  0.6393
  771MPD2    H511387   3.063   2.214  13.927  0.6642 -3.1581 -0.7874
  771MPD2    N111388   3.043   2.627  14.196 -0.8243  0.6302  0.1363
  771MPD2    H711389   3.068   2.657  14.103  1.3939 -1.4662  0.0709
  772MPD2     C11390   2.688   2.952  13.804  0.0754 -0.5670 -0.3712
  772MPD2    C111391   2.658   3.002  13.933 -0.0016  0.1638 -0.3916
  772MPD2    C211392   2.524   3.009  13.967  0.3889  0.4842  0.3978
  772MPD2    C311393   2.421   2.968  13.873 -0.4580 -0.2905  0.0655
  772MPD2    C411394   2.462   2.928  13.746 -0.5607 -0.2515  0.0538
  772MPD2    C511395   2.593   2.909  13.709  0.5245  0.0192  1.2271
  772MPD2     H11396   2.507   3.038  14.070 -2.4931  0.0361  0.0554
  772MPD2    H111397   2.391   2.907  13.667  0.6060 -0.3834 -0.9635
  772MPD2    H211398   2.789   2.938  13.767  0.1790  0.1004 -0.3535
  772MPD2    H311399   2.624   2.871  13.613 -2.5282  0.2027  0.1492
  772MPD2     N11400   2.286   2.949  13.902 -0.0902  0.1500 -0.3327
  772MPD2    H511401   2.224   2.931  13.823 -0.8285  0.2357  0.2252
  772MPD2    N111402   2.751   3.039  14.030 -0.2393  0.5184  0.2450
  772MPD2    H711403   2.709   3.072  14.116  1.5823 -1.3310  1.8407
  773MPD2     C11404   2.349   4.130   0.765  0.0500 -0.4936  1.0721
  773MPD2    C111405   2.265   4.049   0.702 -0.1180  0.0823  0.7313
  773MPD2    C211406   2.284   3.917   0.718  0.1194  0.4640  0.1340
  773MPD2    C311407   2.399   3.864   0.777  0.5856 -0.1183  0.5442
  773MPD2    C411408   2.487   3.944   0.846  0.0113  0.4058  0.8112
  773MPD2    C511409   2.459   4.082   0.840  0.5886  0.1205 -0.4269
  773MPD2     H11410   2.205   3.857   0.672 -1.8056  1.7067  1.8465
  773MPD2    H111411   2.576   3.902   0.890 -0.6155 -0.0211  1.6706
  773MPD2    H211412   2.347   4.237   0.752  1.0980 -0.7770 -1.5596
  773MPD2    H311413   2.522   4.159   0.884  0.4906  0.0533 -0.1658
  773MPD2     N11414   2.421   3.722   0.764 -0.1138 -0.0390  0.1347
  773MPD2    H511415   2.346   3.658   0.740 -0.8972 -0.1360  2.7739
  773MPD2    N111416   2.153   4.086   0.634 -0.4365 -0.0586  0.3412
  773MPD2    H711417   2.094   4.020   0.585  1.1628 -1.7011  0.6292
  774MPD2     C11418   0.664   3.014  13.845 -0.2703 -0.4071  0.1155
  774MPD2    C111419   0.799   2.990  13.878  0.3950  0.1767  0.1780
  774MPD2    C211420   0.891   3.096  13.876 -0.5952 -0.0090  0.1488
  774MPD2    C311421   0.843   3.223  13.843 -0.1423 -0.0671 -0.0262
  774MPD2    C411422   0.707   3.245  13.810  1.1299 -0.9220  0.6744
  774MPD2    C511423   0.617   3.140  13.818 -0.2232  0.3775 -0.1977
  774MPD2     H11424   0.992   3.087  13.915  0.5484  1.3068 -2.5417
  774MPD2    H111425   0.665   3.344  13.797  2.5907 -0.2550  1.0633
  774MPD2    H211426   0.598   2.931  13.823 -0.8837 -0.2990  1.5613
  774MPD2    H311427   0.514   3.155  13.790 -0.3705 -1.3753 -0.6207
  774MPD2     N11428   0.924   3.338  13.850 -0.5588  0.2587 -0.5213
  774MPD2    H511429   0.871   3.424  13.844 -0.9673  0.0277 -0.2323
  774MPD2    N111430   0.829   2.859  13.920  0.2184  0.4392  0.7713
  774MPD2    H711431   0.748   2.802  13.943 -0.8475  0.6825 -2.3837
  775MPD2     C11432   2.499   4.372  15.877 -0.1462  0.0253  0.0910
  775MPD2    C111433   2.488   4.503  15.926  0.2163  0.5111 -0.0940
  775MPD2    C211434   2.531   4.608  15.846 -0.2696 -0.1688 -0.1160
  775MPD2    C311435   2.568   4.585  15.717  0.1517 -0.4886 -0.3658
  775MPD2    C411436   2.579   4.459  15.669 -0.0724 -0.7780 -0.0208
  775MPD2    C511437   2.539   4.356  15.746 -0.3012 -0.0065 -0.0175
  775MPD2     H11438   2.551   4.700  15.900 -0.8170  0.0191 -0.2315
  775MPD2    H111439   2.599   4.438  15.564  3.4425  1.5146  0.1697
  775MPD2    H211440   2.464   4.287  15.934  0.3008  1.1836  2.1128
  775MPD2    H311441   2.544   4.255  15.707 -0.0541  0.3489 -0.9080
  775MPD2     N11442   2.614   4.690  15.632 -0.0589  0.1987 -0.2687
  775MPD2    H511443   2.648   4.663  15.540  1.9018 -0.4130  0.6392
  775MPD2    N111444   2.444   4.523  16.061  0.2545  0.3369  0.0800
  775MPD2    H711445   2.415   4.439  16.111  0.8980 -0.5141 -0.9954
  776MPD2     C11446   1.483   0.077  11.359  0.0822  0.5914 -0.7332
  776MPD2    C111447   1.622   0.073  11.352 -0.3587  0.0889 -0.2142
  776MPD2    C211448   1.695   0.193  11.340  0.5804 -0.8397  0.2329
  776MPD2    C311449   1.630   0.306  11.298  0.3221 -0.3895  0.3705
  776MPD2    C411450   1.495   0.307  11.300 -0.1458  0.5069  0.2712
  776MPD2    C511451   1.422   0.194  11.337 -1.1147 -0.0936 -0.0279
  776MPD2     H11452   1.803   0.195  11.325  0.5222 -3.9202 -0.6998
  776MPD2    H111453   1.434   0.395  11.281  1.0112  1.2361 -0.0364
  776MPD2    H211454   1.427   4.708  11.378 -1.5569  2.0206  1.3514
  776MPD2    H311455   1.315   0.202  11.348 -1.1589 -1.2965  0.4755
  776MPD2     N11456   1.709   0.410  11.250  0.2076 -0.3576 -0.3381
  776MPD2    H511457   1.664   0.485  11.198  0.0785 -0.2813 -0.1150
  776MPD2    N111458   1.684   4.664  11.349 -1.1898 -0.8090 -0.2121
  776MPD2    H711459   1.626   4.583  11.368 -2.7569  0.4894  0.5806
  777MPD2     C11460   2.385   2.057   1.038  0.4794  0.2273  0.4371
  777MPD2    C111461   2.291   2.015   1.122 -0.9119  0.3574  0.1426
  777MPD2    C211462   2.171   1.965   1.079  0.5239  0.3964 -0.6207
  777MPD2    C311463   2.148   1.946   0.944  0.2388  0.1504 -0.0576
  777MPD2    C411464   2.244   1.980   0.855  0.3466 -0.9241  0.3115
  777MPD2    C511465   2.360   2.042   0.901  0.3970 -0.3090 -0.0657
  777MPD2     H11466   2.097   1.936   1.152  0.3482  2.2300 -0.0766
  777MPD2    H111467   2.236   1.970   0.747 -1.0936  0.9202  0.2441
  777MPD2    H211468   2.470   2.120   1.063  0.5517  1.0692 -1.8700
  777MPD2    H311469   2.430   2.084   0.830  1.3214 -1.4495  0.1814
  777MPD2     N11470   2.017   1.904   0.913 -0.1678  0.4623  0.0627
  777MPD2    H511471   1.960   1.873   0.992 -2.9113  2.5906 -1.0810
  777MPD2    N111472   2.314   2.046   1.256  0.6414  0.5100 -0.6290
  777MPD2    H711473   2.233   2.042   1.317  0.2259 -1.9825 -1.3286
  778MPD2     C11474   2.868   2.209  15.152  0.0923  0.8312 -0.5533
  778MPD2    C111475   2.881   2.113  15.053  0.7578 -0.0379 -0.4408
  778MPD2    C211476   2.976   2.129  14.957 -0.6823 -0.3990 -0.2854
  778MPD2    C311477   3.054   2.240  14.947 -0.6797 -0.3950 -0.1044
  778MPD2    C411478   3.030   2.344  15.036 -0.3563 -0.3373  0.4272
  778MPD2    C511479   2.941   2.324  15.135  0.1266  0.5695 -0.0080
  778MPD2     H11480   2.982   2.058  14.875  0.2203  1.2517 -1.6483
  778MPD2    H111481   3.083   2.439  15.036 -1.4064  0.2448 -0.3464
  778MPD2    H211482   2.790   2.211  15.228  0.4234 -2.2950 -0.1178
  778MPD2    H311483   2.928   2.402  15.209  0.4314  1.1978 -0.6057
  778MPD2     N11484   3.152   2.247  14.847  0.0929  0.1964 -0.2146
  778MPD2    H511485   3.138   2.167  14.786  1.0448  1.1362 -1.6497
  778MPD2    N111486   2.810   1.991  15.051  0.7421  0.0908 -0.3645
  778MPD2    H711487   2.817   1.937  14.965 -2.4751  0.6849 -1.0015
  779MPD2     C11488   2.628   1.400  13.694  0.5843 -0.5304  1.0374
  779MPD2    C111489   2.651   1.374  13.825  1.2283  0.0825 -0.1279
  779MPD2    C211490   2.674   1.487  13.906  0.5397 -0.6266 -0.0247
  779MPD2    C311491   2.673   1.611  13.850 -0.0677 -0.8653  0.1626
  779MPD2    C411492   2.638   1.634  13.715 -0.3775  0.0513 -0.2785
  779MPD2    C511493   2.627   1.524  13.638 -0.0550  0.5970  0.1145
  779MPD2     H11494   2.706   1.471  14.008  0.4138 -1.5047 -0.1228
  779MPD2    H111495   2.630   1.735  13.677 -0.6051  0.7975  1.7505
  779MPD2    H211496   2.601   1.317  13.629 -0.6054 -0.0157  0.8656
  779MPD2    H311497   2.608   1.532  13.532  1.1841  2.0885  0.0083
  779MPD2     N11498   2.695   1.717  13.944  0.0728  0.2979  0.1691
  779MPD2    H511499   2.701   1.688  14.041  2.2736  0.8147  0.1715
  779MPD2    N111500   2.667   1.240  13.874  0.2026  0.3122 -0.1353
  779MPD2    H711501   2.674   1.229  13.975  0.0678  0.7181 -0.0821
  780MPD2     C11502   2.090   1.568   0.934  0.7510 -0.0019 -0.0864
  780MPD2    C111503   2.015   1.509   0.834 -0.7281  0.0457  0.0840
  780MPD2    C211504   2.067   1.500   0.705  0.5596 -0.5035  0.3011
  780MPD2    C311505   2.194   1.551   0.674 -0.9774 -0.3681  0.1901
  780MPD2    C411506   2.265   1.604   0.775  0.8915 -0.6124  0.1414
  780MPD2    C511507   2.211   1.622   0.904  0.6250 -0.0491 -0.4625
  780MPD2     H11508   2.007   1.452   0.628  0.0340  0.0900  0.3349
  780MPD2    H111509   2.369   1.634   0.768  0.2674  1.3202 -0.8966
  780MPD2    H211510   2.054   1.590   1.034  0.1001  0.4576 -0.4214
  780MPD2    H311511   2.272   1.661   0.985 -0.6145 -0.7554  0.8022
  780MPD2     N11512   2.245   1.522   0.541 -0.2112  0.5680  0.6941
  780MPD2    H511513   2.182   1.463   0.489 -0.6210  2.2387 -0.6846
  780MPD2    N111514   1.890   1.461   0.871  0.1526  0.0747 -0.4991
  780MPD2    H711515   1.871   1.465   0.971 -0.0965 -0.3589 -0.5296
  781MPD2     C11516   4.307   2.742  11.926  0.7152 -0.3014 -0.2673
  781MPD2    C111517   4.341   2.833  12.026  0.6932  0.2636 -1.1176
  781MPD2    C211518   4.433   2.928  12.001  0.2541  0.1254 -0.4584
  781MPD2    C311519   4.495   2.933  11.877 -0.2332  0.5860  0.3130
  781MPD2    C411520   4.463   2.848  11.777 -0.2766  0.0499  1.2987
  781MPD2    C511521   4.374   2.749  11.808  0.1620  0.5796 -0.2380
  781MPD2     H11522   4.443   3.014  12.066 -0.4338 -0.8348  0.8968
  781MPD2    H111523   4.511   2.854  11.680  0.8068 -1.2896  1.7468
  781MPD2    H211524   4.240   2.659  11.944 -0.1960  0.7720  1.2634
  781MPD2    H311525   4.341   2.683  11.729  0.3463 -0.9439  0.9810
  781MPD2     N11526   4.595   3.025  11.841  0.1269 -0.1785  0.0432
  781MPD2    H511527   4.626   3.020  11.745  0.8758 -0.5545  0.3093
  781MPD2    N111528   4.271   2.837  12.151 -0.0764  0.2180 -0.4494
  781MPD2    H711529   4.293   2.921  12.202 -0.0525  1.1293 -1.9626
  782MPD2     C11530   2.826   3.210   9.456 -0.8133 -0.5697 -1.2706
  782MPD2    C111531   2.820   3.199   9.597 -0.3048  0.3767 -0.3653
  782MPD2    C211532   2.932   3.237   9.664  0.2614 -0.2028 -0.4454
  782MPD2    C311533   3.036   3.303   9.601  0.3458  0.1879  0.3660
  782MPD2    C411534   3.040   3.308   9.466  0.0540 -0.0282 -0.0296
  782MPD2    C511535   2.937   3.259   9.396  0.3323  0.5824  0.2147
  782MPD2     H11536   2.923   3.251   9.771  0.3622 -1.1665 -0.3096
  782MPD2    H111537   3.121   3.344   9.403  0.4248 -0.5340  0.1632
  782MPD2    H211538   2.733   3.200   9.401 -1.8077 -2.0057  0.6719
  782MPD2    H311539   2.936   3.274   9.289 -1.8786 -0.9180  0.0178
  782MPD2     N11540   3.132   3.362   9.687  0.3216 -0.1677 -0.2916
  782MPD2    H511541   3.141   3.332   9.784  0.8468 -2.0937 -0.9306
  782MPD2    N111542   2.706   3.144   9.653 -0.1976  0.9747  0.9527
  782MPD2    H711543   2.628   3.122   9.591  0.9339 -1.0619  0.2758
  783MPD2     C11544   2.334   3.882  10.095  0.0448 -0.0258  0.3134
  783MPD2    C111545   2.226   3.806  10.132 -0.1733  0.2764  0.7932
  783MPD2    C211546   2.226   3.667  10.104  0.3652 -0.7389 -0.1276
  783MPD2    C311547   2.333   3.612  10.031 -0.6424  0.5947 -0.2936
  783MPD2    C411548   2.444   3.693   9.997 -0.1549  0.1773  0.9383
  783MPD2    C511549   2.442   3.824  10.042 -0.2772 -0.3690 -0.0537
  783MPD2     H11550   2.148   3.597  10.130  0.5951  0.8973  4.9650
  783MPD2    H111551   2.544   3.661   9.971 -0.0475 -0.6260  2.3561
  783MPD2    H211552   2.342   3.987  10.118  1.5349 -0.0936  0.0994
  783MPD2    H311553   2.535   3.881  10.035  0.0118 -1.1290 -2.6639
  783MPD2     N11554   2.332   3.479   9.994  0.9143 -0.1735 -0.4233
  783MPD2    H511555   2.261   3.418  10.033 -0.3969  0.4824 -1.7530
  783MPD2    N111556   2.116   3.874  10.184  0.0636  0.3133 -0.1186
  783MPD2    H711557   2.122   3.974  10.199  1.2558 -0.1808  2.7810
  784MPD2     C11558   4.471   4.290   0.699  0.1531 -0.0420 -0.4605
  784MPD2    C111559   4.589   4.316   0.772  0.6133  0.5953  0.4085
  784MPD2    C211560   4.595   4.439   0.834 -0.9926 -0.0964 -0.0282
  784MPD2    C311561   4.496   4.537   0.813  1.1340  0.5395 -0.2599
  784MPD2    C411562   4.394   4.516   0.727 -0.0287 -0.0776  0.0434
  784MPD2    C511563   4.382   4.391   0.672  0.2300 -0.0132  0.5026
  784MPD2     H11564   4.676   4.474   0.896 -1.9338  0.5019  0.8619
  784MPD2    H111565   4.314   4.586   0.703 -0.2914 -0.3581  0.1040
  784MPD2    H211566   4.453   4.191   0.659  0.6012 -0.5606  0.6156
  784MPD2    H311567   4.302   4.357   0.608 -0.4360  2.7933 -0.1467
  784MPD2     N11568   4.501   4.648   0.895  0.8674  0.6483 -0.3349
  784MPD2    H511569   4.570   4.654   0.969 -0.5118  0.6893  0.9540
  784MPD2    N111570   4.687   4.218   0.803 -0.2383 -0.2329  0.2532
  784MPD2    H711571   0.050   4.253   0.847 -0.0134 -1.9675  1.1887
  785MPD2     C11572   0.526   2.194  10.501  0.2232  1.3402  0.5731
  785MPD2    C111573   0.455   2.315  10.515 -0.4614 -0.2634 -0.8927
  785MPD2    C211574   0.311   2.304  10.491  0.4392  0.2119  0.4847
  785MPD2    C311575   0.255   2.183  10.441 -0.1116 -1.0011 -0.6914
  785MPD2    C411576   0.333   2.071  10.413 -0.3218 -0.3041 -0.5043
  785MPD2    C511577   0.467   2.081  10.449 -0.0757  0.7175 -0.6014
  785MPD2     H11578   0.240   2.383  10.513  1.0690  1.3532 -1.6262
  785MPD2    H111579   0.290   1.987  10.360  0.2404 -0.3074 -0.9567
  785MPD2    H211580   0.632   2.195  10.526  0.6542 -3.8107 -1.0106
  785MPD2    H311581   0.537   2.001  10.427  0.2831  0.8969 -0.1204
  785MPD2     N11582   0.124   2.194  10.395 -0.6637 -0.0784 -0.1389
  785MPD2    H511583   0.087   2.288  10.399 -1.4821 -0.3594 -1.2863
  785MPD2    N111584   0.516   2.428  10.570  0.3502  0.1233 -0.0286
  785MPD2    H711585   0.617   2.418  10.577  0.6203  1.4916 -1.9052
  786MPD2     C11586   3.059   0.529  14.382 -0.2164  0.1990  0.8409
  786MPD2    C111587   3.102   0.420  14.449 -0.0892  0.4926 -0.0195
  786MPD2    C211588   3.094   0.408  14.583  0.3296  0.0645 -0.5109
  786MPD2    C311589   3.030   0.503  14.658 -0.7513 -0.2007  0.0732
  786MPD2    C411590   2.980   0.614  14.594  0.4021 -0.4376  0.1892
  786MPD2    C511591   2.987   0.619  14.458  0.6315  0.0123 -0.1467
  786MPD2     H11592   3.139   0.320  14.626  1.9834  0.0253 -2.3402
  786MPD2    H111593   2.925   0.688  14.651  2.5636  1.0796  0.3077
  786MPD2    H211594   3.065   0.545  14.275 -0.0701 -1.6203  0.5826
  786MPD2    H311595   2.946   0.705  14.406  0.2692  1.9207  3.2351
  786MPD2     N11596   3.043   0.492  14.801  0.1858  0.3608 -0.1170
  786MPD2    H511597   3.089   0.411  14.842  2.4629  1.1395 -1.1476
  786MPD2    N111598   3.173   0.319  14.382 -0.2494  0.3622  0.6705
  786MPD2    H711599   3.213   0.252  14.446 -0.3167  1.9786  2.4014
  787MPD2     C11600   3.263   4.586  14.706  0.5720 -0.0391 -0.4342
  787MPD2    C111601   3.334   4.539  14.600 -0.4314 -1.0766  0.2839
  787MPD2    C211602   3.429   4.443  14.619  0.0402  1.1933 -0.5124
  787MPD2    C311603   3.454   4.392  14.750 -0.1732  0.6820  0.4584
  787MPD2    C411604   3.388   4.449  14.856 -0.2435 -0.0137 -0.5212
  787MPD2    C511605   3.292   4.552  14.833  0.2573 -0.8457 -0.0423
  787MPD2     H11606   3.491   4.408  14.537  0.0207 -0.3902  0.1432
  787MPD2    H111607   3.402   4.417  14.959  2.7009  0.1805 -0.8485
  787MPD2    H211608   3.186   4.661  14.694  1.5984  1.1418  0.2788
  787MPD2    H311609   3.228   4.595  14.910  0.1571  1.4821 -1.4097
  787MPD2     N11610   3.553   4.295  14.754  0.2426  0.1899  0.0827
  787MPD2    H511611   3.594   4.269  14.665  1.6109  1.1040  0.4504
  787MPD2    N111612   3.317   4.612  14.479 -0.0903  0.5497 -0.1668
  787MPD2    H711613   3.249   4.687  14.486  0.5285  1.0771  0.1938
  788MPD2     C11614   0.908   3.123   1.135  0.3253 -0.2205  0.7209
  788MPD2    C111615   0.944   3.063   1.018  0.5515 -0.1040  0.4275
  788MPD2    C211616   0.982   3.127   0.910  0.5181  0.1530  1.1312
  788MPD2    C311617   0.984   3.265   0.914 -0.2158 -0.1768 -0.4306
  788MPD2    C411618   0.958   3.330   1.030  0.2479 -0.0100 -0.4032
  788MPD2    C511619   0.929   3.258   1.141 -0.5524 -0.0711 -0.1045
  788MPD2     H11620   1.020   3.078   0.821 -0.9742 -0.1290  0.6538
  788MPD2    H111621   0.955   3.438   1.041  1.0445  0.0244 -0.5339
  788MPD2    H211622   0.868   3.077   1.225  1.2819 -2.2632  0.1027
  788MPD2    H311623   0.911   3.311   1.234  1.0957  2.8567 -1.4563
  788MPD2     N11624   1.036   3.338   0.805  0.0514  0.4439 -0.1466
  788MPD2    H511625   1.054   3.287   0.719  0.3448 -0.3659  0.4026
  788MPD2    N111626   0.927   2.925   0.995 -0.2300 -0.0925  0.5017
  788MPD2    H711627   0.972   2.882   0.914 -2.1891 -0.4158 -0.4081
  789MPD2     C11628   1.033   2.934  16.582 -0.2154  0.1910 -0.7076
  789MPD2    C111629   0.987   2.940  16.709  0.6283  0.1091  0.0466
  789MPD2    C211630   0.905   3.041  16.757  0.5657 -1.1394 -0.0649
  789MPD2    C311631   0.872   3.148  16.672  0.3612 -0.2682  0.6345
  789MPD2    C411632   0.930   3.142  16.546 -0.1982 -0.1426 -0.0399
  789MPD2    C511633   1.008   3.040  16.505 -0.1287 -0.1647  0.0093
  789MPD2     H11634   0.859   3.029  16.854  0.6917 -3.0179 -0.2288
  789MPD2    H111635   0.910   3.216  16.470  0.0778 -1.4483 -1.3736
  789MPD2    H211636   1.102   2.855  16.553 -1.6326 -0.7253 -1.5481
  789MPD2    H311637   1.060   3.040  16.410  0.4191 -1.7415  0.2965
  789MPD2     N11638   0.788   3.252  16.710 -0.0958 -0.0345 -0.8045
  789MPD2    H511639   0.771   3.264  16.809 -0.4665 -0.4362 -0.8188
  789MPD2    N111640   1.024   2.847  16.807 -0.4806  0.1987  0.0888
  789MPD2    H711641   0.972   2.853  16.894 -0.5625  0.2551  0.0359
  790MPD2     C11642   1.853   0.133  13.514  0.3979 -0.3440  0.0403
  790MPD2    C111643   1.901   0.049  13.415 -0.1488  0.1641  0.7926
  790MPD2    C211644   1.836   0.053  13.295 -0.2540 -0.2616 -0.0791
  790MPD2    C311645   1.738   0.150  13.275 -1.2232  0.4058 -0.1819
  790MPD2    C411646   1.676   0.223  13.377  0.3601  0.3755 -0.3936
  790MPD2    C511647   1.746   0.212  13.498  0.4426 -0.2760 -0.1799
  790MPD2     H11648   1.875   4.711  13.216  2.5476  2.9152 -1.2284
  790MPD2    H111649   1.587   0.280  13.352 -1.7138 -2.0066  1.5004
  790MPD2    H211650   1.908   0.136  13.607 -0.8946 -0.7892  0.8175
  790MPD2    H311651   1.721   0.278  13.581  3.4019 -1.3120  1.5247
  790MPD2     N11652   1.696   0.157  13.140  0.6621 -0.4059 -0.3022
  790MPD2    H511653   1.745   0.105  13.068  0.7222  0.4806 -0.8985
  790MPD2    N111654   2.018   4.697  13.440 -0.5099  0.2905 -0.5882
  790MPD2    H711655   2.064   4.710  13.530  1.7698  1.8502 -1.9971
  791MPD2     C11656   1.102   0.138  12.447  0.0006  0.1320 -0.1775
  791MPD2    C111657   1.108   0.094  12.577  0.1058  0.3097 -0.6631
  791MPD2    C211658   1.006   0.024  12.635 -0.0122 -0.1135 -0.2835
  791MPD2    C311659   0.900   4.702  12.560 -0.0732  0.1777 -0.5603
  791MPD2    C411660   0.896   0.020  12.429 -0.3532  0.5889 -0.4403
  791MPD2    C511661   0.990   0.113  12.377 -0.4994  0.0156 -0.2328
  791MPD2     H11662   1.003   4.704  12.735  1.9898  0.4664  0.0303
  791MPD2    H111663   0.817   4.708  12.363  0.2051 -0.6361 -0.4701
  791MPD2    H211664   1.177   0.204  12.403 -0.3820  0.3901 -0.4466
  791MPD2    H311665   0.986   0.131  12.270  0.0633 -1.3723 -0.4829
  791MPD2     N11666   0.804   4.624  12.621 -0.6278 -0.3605 -0.2335
  791MPD2    H511667   0.817   4.607  12.720 -0.0045 -0.7162 -0.3732
  791MPD2    N111668   1.232   0.123  12.636 -0.5078 -0.0473 -0.1330
  791MPD2    H711669   1.306   0.170  12.584 -0.7565 -1.3749 -1.7013
  792MPD2     C11670   2.878   4.722  10.892  0.1132 -0.7582 -0.6928
  792MPD2    C111671   2.765   0.013  10.812 -0.8948  0.0517  0.3849
  792MPD2    C211672   2.769   4.717  10.675 -0.0412  0.7952 -0.2293
  792MPD2    C311673   2.892   4.679  10.621 -0.3018  0.2413 -0.0517
  792MPD2    C411674   2.999   4.653  10.699  0.9576  0.1065  0.2668
  792MPD2    C511675   2.993   4.678  10.830  0.6212  0.0784  0.0381
  792MPD2     H11676   2.688   0.005  10.604  2.1530 -1.1976 -3.0073
  792MPD2    H111677   3.096   4.629  10.656 -0.0071 -0.5247 -1.5712
  792MPD2    H211678   2.885   0.026  10.997  1.5812 -0.1919 -0.9259
  792MPD2    H311679   3.085   4.665  10.885  1.1783  1.3142 -0.5938
  792MPD2     N11680   2.903   4.646  10.483 -0.8943  0.6691 -0.5845
  792MPD2    H511681   2.983   4.591  10.454 -1.5476  0.6582 -2.3723
  792MPD2    N111682   2.652   0.061  10.879  0.4428  0.6242  0.2748
  792MPD2    H711683   2.667   0.097  10.973 -0.6723  1.2825  0.2103
  793MPD2     C11684   2.646   0.391   9.586 -0.3142 -0.0330 -0.1427
  793MPD2    C111685   2.738   0.285   9.564 -0.6082 -0.1448 -0.0721
  793MPD2    C211686   2.769   0.199   9.667 -0.1739  0.1749 -1.3973
  793MPD2    C311687   2.722   0.225   9.796  0.1387  0.1980  0.6803
  793MPD2    C411688   2.639   0.333   9.810  0.2366 -0.2721 -0.4097
  793MPD2    C511689   2.607   0.415   9.710  0.2091 -0.2850  0.1673
  793MPD2     H11690   2.845   0.125   9.647  0.1077  0.7992 -2.6044
  793MPD2    H111691   2.607   0.350   9.912 -1.5923 -1.3314 -0.8062
  793MPD2    H211692   2.614   0.450   9.500 -1.2451 -0.3897 -0.0338
  793MPD2    H311693   2.537   0.496   9.723  0.7599  0.1037  0.7013
  793MPD2     N11694   2.755   0.140   9.906 -0.1569  0.2296  0.3928
  793MPD2    H511695   2.717   0.148  10.000  2.1036  3.5437  1.0334
  793MPD2    N111696   2.794   0.244   9.439 -0.6713 -0.3173 -0.1271
  793MPD2    H711697   2.853   0.161   9.436  1.2941  1.0534  0.4785
  794MPD2     C11698   1.761   4.695   0.149  0.3324  0.1410  0.2064
  794MPD2    C111699   1.717   4.568   0.122  0.5699 -0.4951 -0.4404
  794MPD2    C211700   1.627   4.549   0.022  0.1226  1.1328 -0.4601
  794MPD2    C311701   1.570   4.658  17.649 -0.3766  0.3895 -0.6408
  794MPD2    C411702   1.607   0.066   0.003 -1.0714  0.4673  0.4743
  794MPD2    C511703   1.704   0.084   0.096  0.9702 -0.2322  0.0954
  794MPD2     H11704   1.625   4.447  17.675 -0.4695  0.8885  0.2533
  794MPD2    H111705   1.562   0.154  17.650  0.4264  0.5117 -0.9864
  794MPD2    H211706   1.836   4.720   0.224  2.4197 -1.0305 -1.5193
  794MPD2    H311707   1.734   0.185   0.120  1.4666 -0.2818 -0.3288
  794MPD2     N11708   1.473   4.644  17.550 -0.7628  0.0424  0.1931
  794MPD2    H511709   1.431   0.007  17.515  1.2326  1.5432  1.4238
  794MPD2    N111710   1.775   4.454   0.184  0.0874  0.3268 -0.0969
  794MPD2    H711711   1.742   4.361   0.159 -2.2835  0.7264  1.4903
  795MPD2     C11712   3.788   1.368  13.318 -0.2736 -0.2234 -0.3488
  795MPD2    C111713   3.879   1.389  13.218  0.2483 -0.4441 -0.1437
  795MPD2    C211714   4.011   1.339  13.225 -0.0780 -0.3179 -0.6528
  795MPD2    C311715   4.052   1.273  13.342 -0.5531 -0.1435  0.2219
  795MPD2    C411716   3.959   1.245  13.440  0.0573 -0.1613  0.2574
  795MPD2    C511717   3.828   1.293  13.432  0.2009  0.6270  0.0951
  795MPD2     H11718   4.075   1.334  13.138 -1.0807  1.2263 -1.4810
  795MPD2    H111719   3.986   1.196  13.533  0.2149  0.6151  0.6248
  795MPD2    H211720   3.683   1.391  13.312 -0.1242  0.7299  0.6481
  795MPD2    H311721   3.761   1.269  13.514 -0.8107  2.8752 -0.0676
  795MPD2     N11722   4.179   1.211  13.349  0.6592 -0.2144 -0.2742
  795MPD2    H511723   4.249   1.249  13.287 -0.7846  3.0269  0.1030
  795MPD2    N111724   3.844   1.456  13.100  0.0014 -0.2882 -0.0601
  795MPD2    H711725   3.909   1.466  13.023  1.4893 -1.5650  1.0305
  796MPD2     C11726   3.278   2.980  15.939 -0.8221 -0.5212  0.8641
  796MPD2    C111727   3.378   3.017  16.032  0.9241 -0.6289 -0.2176
  796MPD2    C211728   3.435   3.143  16.019 -0.4766 -0.3868 -0.2184
  796MPD2    C311729   3.397   3.227  15.918  0.0561 -0.3604 -0.3562
  796MPD2    C411730   3.289   3.196  15.827 -0.5265  0.8456 -0.4877
  796MPD2    C511731   3.240   3.065  15.837  0.3061  0.4244 -0.4609
  796MPD2     H11732   3.508   3.185  16.088  0.5959 -1.1273 -0.8891
  796MPD2    H111733   3.264   3.265  15.746 -1.4387  0.0408 -0.8953
  796MPD2    H211734   3.229   2.885  15.955 -2.8488  0.4885  0.5418
  796MPD2    H311735   3.161   3.045  15.766 -0.3131  2.9655 -0.4844
  796MPD2     N11736   3.473   3.347  15.917  0.0640  0.4224 -0.6518
  796MPD2    H511737   3.544   3.363  15.988 -0.1853  1.5467 -0.6570
  796MPD2    N111738   3.416   2.938  16.142  0.1397  0.1525  0.2978
  796MPD2    H711739   3.374   2.846  16.139 -2.7906  1.6092 -3.1322
  797MPD2     C11740   4.380   2.153  17.141  0.4365 -0.1054  0.1874
  797MPD2    C111741   4.463   2.231  17.214  0.4139 -0.0653 -0.7364
  797MPD2    C211742   4.450   2.372  17.210 -0.2559  0.2643 -0.8412
  797MPD2    C311743   4.350   2.433  17.139 -0.4185  0.0372 -0.2554
  797MPD2    C411744   4.276   2.352  17.050 -0.1477  0.3929  0.0732
  797MPD2    C511745   4.293   2.215  17.062  0.3749  0.1041 -0.3359
  797MPD2     H11746   4.522   2.434  17.262  0.7727 -0.2074 -1.6844
  797MPD2    H111747   4.217   2.398  16.971  0.0923 -0.5658 -0.6545
  797MPD2    H211748   4.381   2.047  17.162  1.2242 -0.1195  0.0659
  797MPD2    H311749   4.231   2.148  17.005  0.8139 -0.4675 -0.1397
  797MPD2     N11750   4.326   2.565  17.133 -0.2655  0.2235  0.3238
  797MPD2    H511751   4.283   2.604  17.050  1.7772 -0.5690 -1.0973
  797MPD2    N111752   4.577   2.187  17.286 -0.4783 -0.1768  0.5653
  797MPD2    H711753   4.626   2.259  17.338  4.0757 -1.6047 -1.7506
  798MPD2     C11754   0.245   2.837  17.269 -0.3657  0.2527 -0.7873
  798MPD2    C111755   0.120   2.777  17.289  0.3971 -0.1234  0.1203
  798MPD2    C211756   0.114   2.637  17.316 -0.2464 -0.3375 -0.0987
  798MPD2    C311757   0.224   2.567  17.350  0.4924  0.3206 -0.2077
  798MPD2    C411758   0.350   2.625  17.324 -0.3350 -0.6179 -0.3913
  798MPD2    C511759   0.357   2.759  17.294 -0.4864  0.2068 -0.0872
  798MPD2     H11760   0.019   2.584  17.315 -1.0932  1.1378  1.9927
  798MPD2    H111761   0.441   2.567  17.339 -0.2192 -0.6288 -1.1450
  798MPD2    H211762   0.252   2.943  17.252  0.2946  0.4226  0.5846
  798MPD2    H311763   0.457   2.795  17.271 -0.3462 -0.2426 -0.1889
  798MPD2     N11764   0.197   2.427  17.372  0.1418  0.0520  0.1243
  798MPD2    H511765   0.098   2.405  17.377 -0.2500  2.1979  2.2030
  798MPD2    N111766   4.713   2.837  17.278 -0.4336 -0.2514  0.0320
  798MPD2    H711767   4.633   2.790  17.320  0.0091 -0.0004  1.1615
  799MPD2     C11768   2.987   4.396  14.687  0.0835  0.3316 -0.1646
  799MPD2    C111769   3.004   4.270  14.636 -0.0164  0.3617  0.0315
  799MPD2    C211770   3.001   4.249  14.503 -0.3778  0.4214 -0.6458
  799MPD2    C311771   2.960   4.346  14.409 -0.2572 -0.1369 -0.2319
  799MPD2    C411772   2.941   4.472  14.462  0.4852 -0.0583  0.4400
  799MPD2    C511773   2.950   4.492  14.601  0.1464 -0.0304  0.3943
  799MPD2     H11774   3.032   4.150  14.472  1.9309  0.6526  0.9599
  799MPD2    H111775   2.935   4.561  14.400  1.8844  1.1206  1.9655
  799MPD2    H211776   2.993   4.421  14.792  0.2683 -0.4221  0.0092
  799MPD2    H311777   2.929   4.590  14.642 -0.1984 -0.2634  0.7736
  799MPD2     N11778   2.966   4.329  14.270 -0.4356  0.8659  0.6126
  799MPD2    H511779   2.975   4.412  14.212  1.8350  0.9112  1.0323
  799MPD2    N111780   3.042   4.155  14.717 -0.6752 -0.1157 -0.0873
  799MPD2    H711781   3.061   4.063  14.679  2.4040  0.7934 -0.7273
  800MPD2     C11782   4.507   0.385  14.137  0.1938 -0.5203  0.6643
  800MPD2    C111783   4.466   0.443  14.021  0.0689  1.1237 -0.1046
  800MPD2    C211784   4.447   0.366  13.905  0.0551 -0.5442 -0.1446
  800MPD2    C311785   4.460   0.228  13.917 -0.5464  0.3464 -0.1877
  800MPD2    C411786   4.494   0.173  14.041 -0.1428 -0.2136 -1.4339
  800MPD2    C511787   4.521   0.249  14.148  0.6002 -0.6096  0.0298
  800MPD2     H11788   4.433   0.418  13.812  2.2975  0.4694  0.0828
  800MPD2    H111789   4.500   0.065  14.048  0.3364 -0.0330  0.9007
  800MPD2    H211790   4.496   0.445  14.227  0.9949 -1.2028  1.2191
  800MPD2    H311791   4.526   0.206  14.247  1.1078 -2.2137 -0.6908
  800MPD2     N11792   4.454   0.134  13.811 -0.1094 -0.0732 -0.2204
  800MPD2    H511793   4.497   0.042  13.818 -0.8367 -0.3186  1.0799
  800MPD2    N111794   4.460   0.583  14.015  0.0549 -0.0181 -0.4729
  800MPD2    H711795   4.413   0.629  13.937 -0.9265  2.9322  1.8663
  801MPD2     C11796   4.257   1.203  13.719  0.1059 -0.6652 -0.8515
  801MPD2    C111797   4.250   1.106  13.821 -0.1866 -0.0811  0.0082
  801MPD2    C211798   4.137   1.101  13.902 -0.6980 -0.2111 -0.4617
  801MPD2    C311799   4.034   1.184  13.883  0.4008 -0.3192  0.2454
  801MPD2    C411800   4.045   1.279  13.786 -0.5039  0.1582  0.5432
  801MPD2    C511801   4.154   1.292  13.711  0.2999  0.6265  1.0335
  801MPD2     H11802   4.126   1.019  13.972 -0.2246 -0.8348 -1.1166
  801MPD2    H111803   3.963   1.351  13.778 -2.5127 -2.1252  0.5526
  801MPD2    H211804   4.349   1.217  13.663 -0.6635  2.9766 -1.1659
  801MPD2    H311805   4.171   1.369  13.637  0.8993 -2.5600 -2.1795
  801MPD2     N11806   3.912   1.171  13.955  0.3482  0.5321 -0.6323
  801MPD2    H511807   3.839   1.234  13.921 -0.9822  0.0958  1.3839
  801MPD2    N111808   4.355   1.029  13.854 -0.1426 -0.5411  0.1677
  801MPD2    H711809   4.341   0.976  13.939 -5.2269  2.2030  1.0536
  802MPD2     C11810   3.740   1.249   0.182  0.1567  0.0979  0.3944
  802MPD2    C111811   3.628   1.315   0.129  0.2994 -0.1781 -0.5323
  802MPD2    C211812   3.559   1.262   0.016  0.2936  0.0109 -0.1935
  802MPD2    C311813   3.604   1.149  17.646  0.2159 -0.3755  0.5022
  802MPD2    C411814   3.710   1.087   0.019 -0.6760 -0.5053 -0.3096
  802MPD2    C511815   3.774   1.131   0.131  0.0137  0.6156 -0.1479
  802MPD2     H11816   3.479   1.324  17.669  2.0410  1.7134 -1.1517
  802MPD2    H111817   3.742   0.987  17.684 -2.3310 -1.3887  1.0885
  802MPD2    H211818   3.783   1.283   0.275  1.5716  0.1211 -0.2584
  802MPD2    H311819   3.845   1.069   0.185  1.1592 -1.8580 -4.4896
  802MPD2     N11820   3.547   1.088  17.537  0.4644 -0.4904 -0.0338
  802MPD2    H511821   3.574   0.994  17.508  2.1986 -0.2972  0.9636
  802MPD2    N111822   3.573   1.426   0.198 -0.1852 -0.6607  0.0656
  802MPD2    H711823   3.476   1.442   0.176 -0.7007 -1.8554  1.4482
  803MPD2     C11824   4.394   4.709  11.772  0.3261 -0.6255  0.1720
  803MPD2    C111825   4.482   4.710  11.879  0.9816 -0.2620 -0.2707
  803MPD2    C211826   4.455   4.627  11.987  1.0460  0.1807 -0.1414
  803MPD2    C311827   4.328   4.568  11.998  0.2124  0.1738 -0.4513
  803MPD2    C411828   4.236   4.589  11.904  0.4638  0.7034 -0.5109
  803MPD2    C511829   4.270   4.645  11.784 -0.0460 -0.4802 -0.5707
  803MPD2     H11830   4.537   4.612  12.056  1.0846  0.4780 -0.1225
  803MPD2    H111831   4.138   4.541  11.908  0.3967  0.7480 -1.5968
  803MPD2    H211832   4.405   0.048  11.683  1.6678 -2.2446 -0.7630
  803MPD2    H311833   4.197   4.666  11.707  0.8372  1.0974 -1.0014
  803MPD2     N11834   4.300   4.503  12.117 -0.1028  0.1382 -0.8307
  803MPD2    H511835   4.201   4.483  12.131  0.5356 -1.0823  1.8327
  803MPD2    N111836   4.608   0.059  11.871  0.2475 -0.1460  0.3779
  803MPD2    H711837   4.659   0.060  11.958  2.6381 -0.3943 -1.0243
  804MPD2     C11838   3.593   0.938  16.843 -0.0280 -0.3573 -0.7050
  804MPD2    C111839   3.666   0.919  16.952  0.6116 -0.1194 -0.4970
  804MPD2    C211840   3.713   1.028  17.027 -0.1701 -0.2015  0.7884
  804MPD2    C311841   3.680   1.157  16.984  0.1095 -0.0043 -0.4996
  804MPD2    C411842   3.607   1.172  16.867  0.2307 -0.2297  0.1318
  804MPD2    C511843   3.565   1.064  16.794 -0.0168  0.3540 -0.1333
  804MPD2     H11844   3.767   1.009  17.119 -1.8396  1.8330  2.1967
  804MPD2    H111845   3.576   1.269  16.831 -0.0400  0.2831  1.7732
  804MPD2    H211846   3.557   0.860  16.776 -1.3665  0.9903 -1.5393
  804MPD2    H311847   3.501   1.084  16.709  0.2844  0.0554 -0.4290
  804MPD2     N11848   3.733   1.271  17.055 -0.2233 -0.1938  0.2992
  804MPD2    H511849   3.789   1.250  17.137 -0.6156  0.3062  0.6932
  804MPD2    N111850   3.690   0.787  17.004  0.8132 -1.0619 -0.5989
  804MPD2    H711851   3.733   0.772  17.094  0.8939  2.7569  0.0022
  805MPD2     C11852   3.156   3.883  15.617  0.0743 -0.0992 -0.4320
  805MPD2    C111853   3.100   4.013  15.627 -0.6805 -0.1575  1.3322
  805MPD2    C211854   3.177   4.111  15.688  0.0537  0.7823  0.7041
  805MPD2    C311855   3.309   4.084  15.726  0.4067  0.2311 -0.2272
  805MPD2    C411856   3.358   3.958  15.709  0.4478 -0.0139  0.0781
  805MPD2    C511857   3.279   3.860  15.662  0.4868 -0.0205 -0.3377
  805MPD2     H11858   3.142   4.213  15.694  0.6303  1.1260 -1.6145
  805MPD2    H111859   3.463   3.940  15.729  0.5304 -1.4780 -1.6695
  805MPD2    H211860   3.100   3.797  15.583 -2.0117  1.4253 -0.8712
  805MPD2    H311861   3.320   3.760  15.653 -0.2205 -0.3204 -0.2003
  805MPD2     N11862   3.386   4.190  15.775  0.4459  0.6001  0.0222
  805MPD2    H511863   3.348   4.284  15.765  1.8374  1.1999  0.3544
  805MPD2    N111864   2.971   4.048  15.593 -0.5161 -0.4718  0.3965
  805MPD2    H711865   2.944   4.138  15.630  1.0632  0.3671 -0.5140
  806MPD2     C11866   4.166   3.645   0.375 -0.2188 -0.1566  0.1747
  806MPD2    C111867   4.238   3.654   0.491  0.5541 -0.5173  0.2999
  806MPD2    C211868   4.380   3.657   0.484 -0.3450 -0.4112  0.3540
  806MPD2    C311869   4.439   3.646   0.359  0.8682  0.1455  1.0347
  806MPD2    C411870   4.363   3.646   0.245 -0.2567 -0.2696  0.9364
  806MPD2    C511871   4.228   3.642   0.253  0.4357  0.4867  0.1762
  806MPD2     H11872   4.440   3.663   0.574  2.9873 -1.8762 -1.7592
  806MPD2    H111873   4.407   3.644   0.145 -0.6770 -1.3641  0.7736
  806MPD2    H211874   4.058   3.661   0.379 -0.5077 -2.4111  1.0737
  806MPD2    H311875   4.163   3.634   0.167  0.1409 -1.3562  0.5741
  806MPD2     N11876   4.577   3.657   0.355  0.1192 -0.5741 -0.5435
  806MPD2    H511877   4.628   3.664   0.442  1.0297 -2.0975 -0.9513
  806MPD2    N111878   4.173   3.670   0.612  0.1899 -0.0018 -0.3163
  806MPD2    H711879   4.073   3.655   0.601  0.6163 -1.8764 -1.5693
  807MPD2     C11880   3.950   3.035   0.934  0.7756  0.1233 -0.0033
  807MPD2    C111881   3.933   3.123   1.037  0.6439 -0.2815 -0.7435
  807MPD2    C211882   3.890   3.076   1.155  0.6938  0.3294 -0.9873
  807MPD2    C311883   3.858   2.942   1.170 -0.3417  0.1141  0.8167
  807MPD2    C411884   3.874   2.856   1.064 -0.6938  0.4005  0.2494
  807MPD2    C511885   3.925   2.902   0.949 -0.7333 -1.0688 -0.2333
  807MPD2     H11886   3.884   3.134   1.247  2.5428 -0.5691 -0.2771
  807MPD2    H111887   3.863   2.748   1.074  2.1545  0.0093 -0.9912
  807MPD2    H211888   3.994   3.064   0.839 -0.2647 -0.7208 -0.7441
  807MPD2    H311889   3.959   2.829   0.876  1.2189 -0.0430 -0.3643
  807MPD2     N11890   3.802   2.895   1.292  0.7685 -0.6804  0.6861
  807MPD2    H511891   3.800   2.954   1.375 -0.2887 -0.1098  0.2627
  807MPD2    N111892   3.954   3.259   1.024 -0.2417 -0.4282 -0.1986
  807MPD2    H711893   3.934   3.313   1.107 -1.2559 -0.7456 -0.2421
  808MPD2     C11894   0.446   0.330   9.969  0.3351  0.6396 -0.5463
  808MPD2    C111895   0.339   0.415   9.974  0.5468  0.0808  0.0860
  808MPD2    C211896   0.368   0.548   9.951 -1.1728  0.3834  0.6896
  808MPD2    C311897   0.499   0.600   9.938  0.1087 -0.2001 -0.4750
  808MPD2    C411898   0.607   0.513   9.952 -0.3804  0.4001  0.4771
  808MPD2    C511899   0.577   0.381   9.976 -0.0626  0.4589 -0.1205
  808MPD2     H11900   0.282   0.614   9.947 -1.3617 -0.1603 -3.8643
  808MPD2    H111901   0.709   0.549   9.944 -0.7045  1.5967  1.6782
  808MPD2    H211902   0.434   0.224   9.987 -1.9344  0.8384 -0.8050
  808MPD2    H311903   0.656   0.308   9.988 -0.3663  0.3452  1.1229
  808MPD2     N11904   0.528   0.741   9.910  0.2653 -0.3293  0.7488
  808MPD2    H511905   0.627   0.767   9.909 -0.5311  2.7633  2.5191
  808MPD2    N111906   0.199   0.375   9.979 -0.6164  0.0651 -0.1829
  808MPD2    H711907   0.139   0.456   9.986 -0.9560 -0.0708 -1.7317
  809MPD2     C11908   1.116   1.378   9.418  0.7155  0.4743  0.1187
  809MPD2    C111909   1.136   1.312   9.541  0.4030  0.1822 -0.0627
  809MPD2    C211910   1.018   1.278   9.610 -0.5368  0.2774  0.6422
  809MPD2    C311911   0.895   1.303   9.553  0.3234 -0.1204  0.0693
  809MPD2    C411912   0.876   1.372   9.435 -0.3456 -0.1896 -0.1453
  809MPD2    C511913   0.992   1.405   9.363 -0.2501  0.2378 -0.1319
  809MPD2     H11914   1.038   1.218   9.698 -1.7585 -1.1533 -0.0452
  809MPD2    H111915   0.779   1.398   9.395 -1.1160 -0.7497  1.3674
  809MPD2    H211916   1.204   1.416   9.368  0.0290  0.2952 -1.2296
  809MPD2    H311917   0.994   1.460   9.270  0.0601 -1.6047 -1.1955
  809MPD2     N11918   0.775   1.259   9.615  0.4282 -0.4855  0.3018
  809MPD2    H511919   0.693   1.286   9.562 -0.0988 -1.1274  0.7861
  809MPD2    N111920   1.258   1.279   9.600 -0.5114 -0.1177 -0.1864
  809MPD2    H711921   1.248   1.222   9.684  0.7096 -0.0531 -0.0026
  810MPD2     C11922   3.931   4.438  11.125  0.6415 -0.2357  1.5363
  810MPD2    C111923   3.974   4.455  10.993  0.0487  0.6944  0.4233
  810MPD2    C211924   3.981   4.581  10.927  0.4365 -0.8984 -0.3805
  810MPD2    C311925   3.944   4.695  10.997  0.6513  0.8383 -0.1747
  810MPD2    C411926   3.892   4.677  11.124 -0.4109 -0.2816 -0.2734
  810MPD2    C511927   3.878   4.551  11.184  0.2076 -0.5411  0.1597
  810MPD2     H11928   4.014   4.592  10.825  0.1032 -0.3176 -0.4255
  810MPD2    H111929   3.847   0.042  11.170 -2.1547 -0.4521 -1.7000
  810MPD2    H211930   3.915   4.342  11.173 -1.9594 -0.3735  0.4165
  810MPD2    H311931   3.830   4.539  11.280 -0.9788 -2.2431 -0.6559
  810MPD2     N11932   3.945   0.102  10.945  0.1537 -0.3960 -0.2623
  810MPD2    H511933   3.913   0.172  11.012 -1.8097 -0.5462 -1.0402
  810MPD2    N111934   4.025   4.336  10.934  0.6602 -0.3505  0.0384
  810MPD2    H711935   3.988   4.244  10.959 -0.5078 -0.0584 -0.6152
  811MPD2     C11936   4.233   4.128  10.054 -0.5393  0.0104 -0.0732
  811MPD2    C111937   4.206   4.204  10.161  0.1511  0.3735 -0.0889
  811MPD2    C211938   4.174   4.337  10.132 -0.2530 -0.2129 -0.5375
  811MPD2    C311939   4.169   4.382   9.998  0.3022  0.2049  0.5324
  811MPD2    C411940   4.195   4.299   9.892 -0.4000  0.4435 -0.0910
  811MPD2    C511941   4.230   4.165   9.925  0.4147  0.2054  0.5681
  811MPD2     H11942   4.138   4.399  10.214  1.8926 -0.3381  0.4867
  811MPD2    H111943   4.196   4.335   9.790 -0.7747  3.8282  1.0934
  811MPD2    H211944   4.256   4.024  10.076  0.5093  0.3861  0.5636
  811MPD2    H311945   4.257   4.104   9.840  0.7023 -0.8597  1.4184
  811MPD2     N11946   4.146   4.516   9.980 -0.0803 -0.1123  0.0402
  811MPD2    H511947   4.133   4.576  10.062  1.2032 -1.2252  1.0533
  811MPD2    N111948   4.209   4.142  10.292 -0.7819  0.1092 -0.4156
  811MPD2    H711949   4.230   4.043  10.305 -2.6437 -0.0635  1.2851
  812MPD2     C11950   2.853   0.187  12.209  0.2163 -0.3527  0.6542
  812MPD2    C111951   2.714   0.180  12.235  0.0287 -0.6110 -1.0098
  812MPD2    C211952   2.662   0.053  12.258 -0.0839  0.1126 -0.0513
  812MPD2    C311953   2.743   4.661  12.268 -0.5653  0.4707 -0.5951
  812MPD2    C411954   2.875   4.674  12.237  0.5366 -0.0485  0.2732
  812MPD2    C511955   2.928   0.075  12.214  1.0230 -0.2542  0.0184
  812MPD2     H11956   2.556   0.034  12.273  0.5775 -1.5651  2.4635
  812MPD2    H111957   2.944   4.591  12.230 -0.5419 -0.7606 -1.7742
  812MPD2    H211958   2.913   0.276  12.196  1.7469 -1.3167  1.1457
  812MPD2    H311959   3.033   0.079  12.188  0.4908  1.1425 -1.8900
  812MPD2     N11960   2.675   4.548  12.303 -0.2050 -0.4774  0.2659
  812MPD2    H511961   2.578   4.570  12.323  0.7942  1.9399  2.4972
  812MPD2    N111962   2.624   0.291  12.225 -0.0047 -0.3524  0.4253
  812MPD2    H711963   2.523   0.284  12.220  0.2438 -1.6043 -2.6015
  813MPD2     C11964   1.717   1.527  12.256  0.3454  0.9342  0.0375
  813MPD2    C111965   1.692   1.659  12.286  0.4130  0.2141  0.0145
  813MPD2    C211966   1.572   1.692  12.356  0.3686  1.0769  0.0230
  813MPD2    C311967   1.498   1.590  12.412 -0.3763 -0.5583 -0.4674
  813MPD2    C411968   1.538   1.459  12.386  0.2206 -0.2876 -0.6692
  813MPD2    C511969   1.640   1.429  12.304  0.0959 -0.0934  0.5239
  813MPD2     H11970   1.535   1.793  12.367 -2.3985 -0.0583  1.0776
  813MPD2    H111971   1.480   1.373  12.417 -0.1645  0.8541  1.7654
  813MPD2    H211972   1.801   1.495  12.195  0.1028  0.6438 -0.1398
  813MPD2    H311973   1.660   1.323  12.289  0.1086  0.3014 -2.1852
  813MPD2     N11974   1.383   1.623  12.491 -0.2876 -0.3482  0.2238
  813MPD2    H511975   1.368   1.723  12.501 -1.1689 -0.5637  0.9298
  813MPD2    N111976   1.769   1.760  12.221  0.5645 -0.5494  0.7605
  813MPD2    H711977   1.825   1.726  12.143 -0.5933 -0.1543 -0.2415
  814MPD2     C11978   2.296   3.131  12.296  0.1184 -0.0287 -0.7563
  814MPD2    C111979   2.282   3.185  12.168  0.1034  0.2443  1.4187
  814MPD2    C211980   2.344   3.308  12.148 -0.1450  0.0732 -0.7882
  814MPD2    C311981   2.417   3.374  12.253 -0.1943  0.3282 -0.3158
  814MPD2    C411982   2.435   3.317  12.386  0.6186 -0.0843 -0.7188
  814MPD2    C511983   2.374   3.196  12.400  1.1407  0.5812 -0.5811
  814MPD2     H11984   2.343   3.342  12.045 -0.4712 -1.3609 -1.2486
  814MPD2    H111985   2.474   3.368  12.474 -2.1604  1.5291 -0.4027
  814MPD2    H211986   2.244   3.040  12.325  0.3092  0.5333  1.3783
  814MPD2    H311987   2.389   3.143  12.494 -0.1083 -0.5727 -1.0399
  814MPD2     N11988   2.488   3.497  12.241  0.2465 -0.1785  0.5970
  814MPD2    H511989   2.557   3.520  12.311  1.1524 -0.1579 -0.3052
  814MPD2    N111990   2.204   3.133  12.070 -0.2938 -0.2153 -0.4646
  814MPD2    H711991   2.213   3.184  11.983 -2.1446  0.0729 -0.4726
  815MPD2     C11992   2.828   1.908  11.590  0.1801  0.1599  0.0801
  815MPD2    C111993   2.757   1.795  11.628 -0.2416  0.0757  0.1475
  815MPD2    C211994   2.643   1.817  11.707  0.5845 -0.2989 -0.4222
  815MPD2    C311995   2.607   1.947  11.751 -0.3036  0.0103  0.6666
  815MPD2    C411996   2.690   2.053  11.708 -0.9042  0.0884  0.1961
  815MPD2    C511997   2.792   2.033  11.625 -0.2765  0.7699  0.0703
  815MPD2     H11998   2.583   1.732  11.735  0.1992  0.1819  0.2230
  815MPD2    H111999   2.663   2.154  11.737  0.5126  0.9645 -1.5412
  815MPD2    H212000   2.920   1.891  11.535  0.1525  1.3728 -0.3500
  815MPD2    H312001   2.864   2.109  11.595 -1.1210  1.2521 -0.7462
  815MPD2     N12002   2.496   1.972  11.833  0.2465  0.0115  0.1083
  815MPD2    H512003   2.431   1.897  11.854 -1.0059  1.6416  1.9973
  815MPD2    N112004   2.802   1.679  11.573 -0.6937 -0.1889  0.3521
  815MPD2    H712005   2.876   1.691  11.504 -0.4529 -0.8179  0.5063
  816MPD2     C12006   2.024   0.670  17.280 -0.3308  0.6842 -0.5666
  816MPD2    C112007   2.126   0.765  17.283 -0.2076  0.5921  0.4957
  816MPD2    C212008   2.240   0.737  17.211 -0.3436 -0.4560 -0.0869
  816MPD2    C312009   2.262   0.615  17.155  0.5472 -0.5874  0.8293
  816MPD2    C412010   2.166   0.521  17.162 -0.3896 -0.0731 -0.5241
  816MPD2    C512011   2.041   0.553  17.218 -0.1636 -0.2830 -0.2369
  816MPD2     H12012   2.323   0.807  17.211  1.0916 -2.1281 -1.6763
  816MPD2    H112013   2.176   0.425  17.113  0.9652 -0.3561  0.3120
  816MPD2    H212014   1.928   0.681  17.329 -0.4034 -2.9208  0.1027
  816MPD2    H312015   1.955   0.488  17.229  0.5028 -1.4476 -1.9347
  816MPD2     N12016   2.387   0.588  17.095 -0.1673  0.2064 -0.3339
  816MPD2    H512017   2.449   0.668  17.093 -0.4230  0.4469  1.1656
  816MPD2    N112018   2.094   0.888  17.337  0.1761  0.3043 -0.1994
  816MPD2    H712019   2.001   0.907  17.371 -0.5761 -1.7422 -1.1310
  817MPD2     C12020   3.376   2.099  10.226 -0.0037  0.0084  0.0166
  817MPD2    C112021   3.326   2.051  10.112 -0.5277  0.1464 -0.0392
  817MPD2    C212022   3.316   2.137  10.007 -0.1288  0.2626  0.5242
  817MPD2    C312023   3.364   2.263  10.000 -0.3046  0.5110  0.5607
  817MPD2    C412024   3.427   2.312  10.119 -0.2617 -0.2032 -0.7618
  817MPD2    C512025   3.424   2.228  10.226 -0.1661  0.2703  0.2247
  817MPD2     H12026   3.269   2.108   9.914  1.0857  2.6037 -0.8402
  817MPD2    H112027   3.464   2.414  10.123  0.8133 -0.6204  0.0709
  817MPD2    H212028   3.411   2.042  10.311 -0.3469 -0.8787 -0.4403
  817MPD2    H312029   3.470   2.267  10.316  1.4607  0.9779 -0.9064
  817MPD2     N12030   3.333   2.342   9.886 -0.6953 -0.5644  0.5085
  817MPD2    H512031   3.276   2.303   9.812 -1.1147  0.5834  0.2227
  817MPD2    N112032   3.270   1.920  10.096  0.2189  0.0051  0.0623
  817MPD2    H712033   3.231   1.904  10.004 -0.6571 -0.5501  0.5349
  818MPD2     C12034   1.485   2.482  10.020 -1.0791  0.2619  0.0804
  818MPD2    C112035   1.387   2.457  10.113  0.5667 -0.7771 -0.2459
  818MPD2    C212036   1.295   2.352  10.094 -0.0129 -0.3890 -0.2897
  818MPD2    C312037   1.302   2.263   9.988 -0.3767 -0.6075  0.5281
  818MPD2    C412038   1.401   2.292   9.896  0.0328  0.2309  0.2160
  818MPD2    C512039   1.494   2.395   9.915  0.2390 -0.6185  0.1132
  818MPD2     H12040   1.215   2.331  10.164  0.7666  0.1252  0.7578
  818MPD2    H112041   1.407   2.235   9.804 -0.0066  1.0444 -0.2910
  818MPD2    H212042   1.555   2.563  10.033 -2.7370  1.5933  0.7543
  818MPD2    H312043   1.571   2.422   9.844 -3.3258  1.7183 -2.9016
  818MPD2     N12044   1.210   2.161   9.956 -0.2339 -0.7570 -0.8541
  818MPD2    H512045   1.222   2.125   9.862  0.4844 -0.6861 -0.7895
  818MPD2    N112046   1.346   2.547  10.206  0.1100  0.0464  0.0953
  818MPD2    H712047   1.269   2.516  10.263  1.4300 -1.4261  1.0886
  819MPD2     C12048   4.019   4.369  15.890 -0.0988 -0.6025  0.0129
  819MPD2    C112049   3.986   4.242  15.841  0.2757  0.6601  0.9729
  819MPD2    C212050   4.030   4.127  15.906 -0.5740 -0.2367 -0.2137
  819MPD2    C312051   4.108   4.141  16.023 -0.4260  0.5131 -0.0331
  819MPD2    C412052   4.139   4.265  16.072 -0.6907  0.5123 -0.1811
  819MPD2    C512053   4.089   4.378  16.007  0.2913 -0.4268 -0.3622
  819MPD2     H12054   4.009   4.030  15.862  1.0971  0.2567 -2.1154
  819MPD2    H112055   4.207   4.279  16.155  0.1634  1.2991 -1.0065
  819MPD2    H212056   3.998   4.466  15.847  0.9110 -0.8501 -1.0358
  819MPD2    H312057   4.107   4.478  16.044 -2.8343 -1.2335  3.3275
  819MPD2     N12058   4.173   4.025  16.069 -0.0582 -0.3223 -0.1315
  819MPD2    H512059   4.158   3.940  16.016 -0.7436 -1.3935  1.7855
  819MPD2    N112060   3.921   4.232  15.718 -0.0286  0.0411 -0.4655
  819MPD2    H712061   3.923   4.319  15.666 -0.1273  1.3423  1.7098
  820MPD2     C12062   3.061   4.541  15.479  0.1641 -0.2345 -0.6326
  820MPD2    C112063   3.061   4.413  15.429 -0.1863  0.6438  0.1264
  820MPD2    C212064   3.180   4.347  15.428  0.1981 -0.0400  0.7624
  820MPD2    C312065   3.303   4.406  15.459 -0.3146 -0.2331  0.2642
  820MPD2    C412066   3.297   4.534  15.509 -0.4924  0.4693 -0.6103
  820MPD2    C512067   3.178   4.602  15.505  0.2042 -0.6073  0.1349
  820MPD2     H12068   3.179   4.250  15.379 -0.3451 -0.8138  2.2900
  820MPD2    H112069   3.377   4.593  15.551 -0.5295  0.9428 -1.2100
  820MPD2    H212070   2.966   4.594  15.476 -1.3929 -2.9383 -0.0735
  820MPD2    H312071   3.178   4.705  15.541 -1.0040  0.0163 -1.6275
  820MPD2     N12072   3.419   4.333  15.444  0.0159  0.1444  0.5657
  820MPD2    H512073   3.422   4.236  15.413  0.4634  0.4622 -0.3825
  820MPD2    N112074   2.944   4.343  15.390 -0.2879 -0.5349 -0.2587
  820MPD2    H712075   2.950   4.248  15.354 -2.0227 -0.6845 -0.1397
  821MPD2     C12076   4.167   0.416  13.195 -0.5826  0.0495 -0.1005
  821MPD2    C112077   4.274   0.341  13.173 -0.0248 -0.0772 -0.3397
  821MPD2    C212078   4.386   0.394  13.107  0.4091  0.1270 -0.2631
  821MPD2    C312079   4.384   0.533  13.068 -0.1837  0.1751  0.8980
  821MPD2    C412080   4.270   0.604  13.090 -0.4558 -0.2675 -1.2569
  821MPD2    C512081   4.166   0.549  13.154  0.4748  0.1603 -0.2670
  821MPD2     H12082   4.478   0.337  13.101  0.4064 -0.0070  0.8232
  821MPD2    H112083   4.261   0.709  13.066  0.6336  0.3179  0.9074
  821MPD2    H212084   4.075   0.392  13.248 -0.4187 -0.0462  0.1446
  821MPD2    H312085   4.076   0.607  13.163  0.1374 -0.1793 -1.5008
  821MPD2     N12086   4.491   0.598  13.011  0.5495  0.1316  0.5754
  821MPD2    H512087   4.479   0.699  13.001 -2.0270 -0.3382 -1.0902
  821MPD2    N112088   4.293   0.210  13.226 -0.1183 -0.1402 -0.1042
  821MPD2    H712089   4.383   0.183  13.187 -0.4447 -1.0731 -0.2110
  822MPD2     C12090   4.385   0.656  15.513  0.0903  0.1717 -0.0539
  822MPD2    C112091   4.415   0.624  15.644 -0.6729  0.2960 -0.0686
  822MPD2    C212092   4.367   0.704  15.747 -0.4359 -0.1749 -0.2653
  822MPD2    C312093   4.289   0.812  15.734 -0.0584  0.1617 -0.1010
  822MPD2    C412094   4.237   0.833  15.607 -0.1442  0.3982 -0.2009
  822MPD2    C512095   4.291   0.758  15.496 -0.2521 -0.3575 -0.4943
  822MPD2     H12096   4.407   0.684  15.846 -0.1635 -1.9102 -0.7243
  822MPD2    H112097   4.165   0.910  15.586  1.5947  1.6340 -1.6546
  822MPD2    H212098   4.420   0.595  15.430  2.0595  1.5613 -0.2311
  822MPD2    H312099   4.257   0.785  15.397  0.5949 -0.3115 -0.7740
  822MPD2     N12100   4.256   0.892  15.847  0.2913  0.1627  0.4198
  822MPD2    H512101   4.288   0.855  15.935  0.3942 -1.1603 -0.1809
  822MPD2    N112102   4.504   0.517  15.678 -0.0228 -0.2711 -0.1351
  822MPD2    H712103   4.530   0.505  15.776 -0.0324 -0.3685 -0.1446
  823MPD2     C12104   3.968   0.954  16.642  0.2854  0.8797 -0.2618
  823MPD2    C112105   4.024   0.886  16.538 -0.5101 -0.2245  0.3480
  823MPD2    C212106   4.078   0.758  16.561  0.5860  0.3266 -0.2373
  823MPD2    C312107   4.090   0.718  16.694  0.2645  0.0681 -0.4516
  823MPD2    C412108   4.038   0.795  16.795 -0.1859  0.0708 -0.0656
  823MPD2    C512109   3.976   0.906  16.766  0.6401  0.2119 -0.2292
  823MPD2     H12110   4.127   0.706  16.479 -0.5962  0.9787 -1.3543
  823MPD2    H112111   4.047   0.767  16.899 -0.0839  0.8455  0.1361
  823MPD2    H212112   3.935   1.056  16.625 -1.6267  0.1257 -1.0484
  823MPD2    H312113   3.938   0.959  16.852  1.2053  3.9307 -2.2905
  823MPD2     N12114   4.162   0.605  16.736  0.2132  0.5100  0.5263
  823MPD2    H512115   4.174   0.607  16.837 -2.3785  0.7483  0.8210
  823MPD2    N112116   4.020   0.948  16.412  0.6032 -0.2621 -0.2886
  823MPD2    H712117   3.997   1.047  16.412  1.1134 -0.1563  2.4915
  824MPD2     C12118   4.628   4.397  15.592 -0.6120  0.4047 -0.4093
  824MPD2    C112119   0.025   4.465  15.604 -0.5909 -0.0732 -0.6285
  824MPD2    C212120   0.136   4.390  15.594 -0.6289 -0.5584  0.7427
  824MPD2    C312121   0.134   4.253  15.566 -0.9153  0.3097 -0.4046
  824MPD2    C412122   0.010   4.198  15.547  0.2713 -0.7371  0.1161
  824MPD2    C512123   4.616   4.268  15.555  0.1709  0.4419 -0.2473
  824MPD2     H12124   0.236   4.431  15.595  0.0500 -2.2037  0.0770
  824MPD2    H112125   0.009   4.099  15.505  0.4285  0.5609 -2.9671
  824MPD2    H212126   4.537   4.455  15.607 -0.8177  0.4169 -1.6516
  824MPD2    H312127   4.521   4.219  15.540  0.0758  0.5635 -0.0378
  824MPD2     N12128   0.254   4.184  15.552 -0.7289  0.6827  0.3787
  824MPD2    H512129   0.341   4.236  15.544 -0.1995 -0.5195 -1.8602
  824MPD2    N112130   0.038   4.598  15.648  0.0633 -0.1236 -0.2813
  824MPD2    H712131   0.131   4.630  15.670  0.6009 -2.6934  1.0785
  825MPD2     C12132   0.857   3.893  15.022 -0.8401  0.4426 -0.1509
  825MPD2    C112133   0.804   3.995  15.093 -0.4407  0.4776 -0.0213
  825MPD2    C212134   0.864   4.125  15.082  0.0706  0.6581  0.4724
  825MPD2    C312135   0.959   4.144  14.982  0.1797  0.0030 -0.1274
  825MPD2    C412136   0.995   4.041  14.907 -0.2751 -0.4419  0.2704
  825MPD2    C512137   0.948   3.912  14.922 -0.1664 -0.1296 -0.2719
  825MPD2     H12138   0.833   4.200  15.154 -1.3376  0.2822  0.2621
  825MPD2    H112139   1.075   4.055  14.835 -2.2220  1.4921 -1.4869
  825MPD2    H212140   0.827   3.792  15.045  2.4581 -0.9507 -2.0150
  825MPD2    H312141   0.994   3.841  14.854  3.7625  2.2517 -0.1107
  825MPD2     N12142   1.008   4.277  14.950 -0.3266 -0.4861  0.2755
  825MPD2    H512143   1.080   4.286  14.879 -0.5041 -0.2773  0.1237
  825MPD2    N112144   0.732   3.965  15.210  0.0219  0.4244  0.1725
  825MPD2    H712145   0.733   3.867  15.237  0.4159  0.6664  1.0176
  826MPD2     C12146   0.189   4.559  13.950  0.0285 -0.3072 -0.5609
  826MPD2    C112147   0.181   4.603  13.818  0.7179 -0.2450 -0.4260
  826MPD2    C212148   0.140   0.018  13.794  0.4095 -0.7645 -0.1622
  826MPD2    C312149   0.105   0.097  13.906  0.6628 -1.1277  0.6691
  826MPD2    C412150   0.126   0.052  14.033  0.0839 -0.0586 -0.0924
  826MPD2    C512151   0.159   4.643  14.058  0.1567  0.0526  0.0753
  826MPD2     H12152   0.131   0.061  13.695 -1.3510 -2.0889 -0.5936
  826MPD2    H112153   0.104   0.120  14.115 -0.2091 -0.5400  0.2271
  826MPD2    H212154   0.213   4.456  13.972 -2.7362 -0.5821  1.1055
  826MPD2    H312155   0.157   4.610  14.161  0.4772  1.9958  0.6903
  826MPD2     N12156   0.074   0.235  13.891  0.3758 -0.2974  1.1258
  826MPD2    H512157   0.048   0.282  13.977 -0.0128 -0.8537  1.3131
  826MPD2    N112158   0.204   4.510  13.714 -0.1859  0.3127 -0.0194
  826MPD2    H712159   0.243   4.422  13.747 -1.2977  0.3421  1.3656
  827MPD2     C12160   1.523   0.368  10.540  0.0934  0.3404 -0.2575
  827MPD2    C112161   1.481   0.493  10.582 -0.2662 -0.6553 -0.1557
  827MPD2    C212162   1.358   0.539  10.543 -0.2095  0.3868  0.0616
  827MPD2    C312163   1.267   0.455  10.471  0.5953 -0.1752  0.7953
  827MPD2    C412164   1.306   0.325  10.438  0.4166  0.5512  0.3895
  827MPD2    C512165   1.428   0.282  10.480 -0.3156 -0.6814 -0.0200
  827MPD2     H12166   1.313   0.633  10.571 -0.3199  0.2521  0.3319
  827MPD2    H112167   1.247   0.258  10.377 -1.0459  1.4448  0.8168
  827MPD2    H212168   1.619   0.331  10.573  0.8584  1.7889 -0.8639
  827MPD2    H312169   1.466   0.184  10.452 -1.3782 -1.0245 -0.2774
  827MPD2     N12170   1.141   0.510  10.443  0.3061 -0.1187 -0.0104
  827MPD2    H512171   1.136   0.600  10.491 -0.1259 -0.3970  0.4609
  827MPD2    N112172   1.578   0.568  10.653 -0.4310  0.1143 -0.4177
  827MPD2    H712173   1.669   0.525  10.661  0.8834  3.0156  0.1927
  828MPD2     C12174   0.012   0.767  12.605  0.7369  0.0779 -0.0888
  828MPD2    C112175   4.644   0.768  12.501  0.4566 -0.1881  0.0837
  828MPD2    C212176   4.687   0.738  12.372  0.5293 -0.0159  0.0183
  828MPD2    C312177   0.107   0.716  12.351 -1.0546 -0.7519 -0.3609
  828MPD2    C412178   0.195   0.724  12.460 -0.1218 -0.1341 -0.2626
  828MPD2    C512179   0.141   0.738  12.583  0.3198  0.1846 -0.1117
  828MPD2     H12180   4.612   0.724  12.295 -0.6173 -1.1145  1.3221
  828MPD2    H112181   0.302   0.707  12.462  0.0751  1.2254  1.1090
  828MPD2    H212182   4.694   0.789  12.703  2.2465 -0.1426  0.5709
  828MPD2    H312183   0.213   0.735  12.664 -1.3118 -0.8975  1.2928
  828MPD2     N12184   0.171   0.695  12.230  0.0377  0.2954 -0.1827
  828MPD2    H512185   0.272   0.680  12.224  0.4288  3.1808 -0.6889
  828MPD2    N112186   4.504   0.802  12.509  0.5031  0.4617 -1.0746
  828MPD2    H712187   4.462   0.804  12.416  3.1939  2.3377 -2.2374
  829MPD2     C12188   4.053   1.011  11.851 -0.2768  0.0150 -0.1045
  829MPD2    C112189   3.957   1.026  11.943  0.5458 -0.0706 -0.4562
  829MPD2    C212190   3.992   1.023  12.077 -0.9439 -0.4220 -0.1093
  829MPD2    C312191   4.121   0.998  12.108  0.7754  0.4152 -0.1334
  829MPD2    C412192   4.222   0.998  12.017  0.5580  0.8936 -0.4711
  829MPD2    C512193   4.190   1.014  11.887 -0.4208 -0.0647 -0.1233
  829MPD2     H12194   3.914   1.025  12.152  0.1371  0.4971  1.0044
  829MPD2    H112195   4.327   0.992  12.044  0.9600 -1.8520 -2.6691
  829MPD2    H212196   4.031   0.994  11.746  0.9518  2.4695 -0.7638
  829MPD2    H312197   4.264   1.015  11.809 -0.9001  0.1573 -0.5755
  829MPD2     N12198   4.152   0.980  12.243 -0.6719 -0.3902  0.1552
  829MPD2    H512199   4.247   1.006  12.267 -0.5137  1.0067 -1.9172
  829MPD2    N112200   3.823   1.046  11.892  0.5536  0.3704  0.4115
  829MPD2    H712201   3.814   1.036  11.791 -1.1742 -1.6171  0.7668
  830MPD2     C12202   4.652   3.557  15.673 -0.3647  0.0609  1.0172
  830MPD2    C112203   4.553   3.652  15.692  1.0720 -0.1732 -0.2565
  830MPD2    C212204   4.518   3.743  15.597 -0.3901  0.1682  0.3725
  830MPD2    C312205   4.586   3.736  15.480 -0.3853  0.1319 -0.9678
  830MPD2    C412206   4.689   3.652  15.462  0.6963 -0.1021 -0.1767
  830MPD2    C512207   4.715   3.554  15.555 -0.6104  1.0337  0.3790
  830MPD2     H12208   4.441   3.818  15.615 -0.6276  0.1948 -0.7410
  830MPD2    H112209   0.028   3.658  15.373  0.1360 -0.1750 -0.5661
  830MPD2    H212210   4.674   3.479  15.745  1.4112 -0.6699 -0.3179
  830MPD2    H312211   0.072   3.482  15.539 -2.1053 -0.5783  0.2634
  830MPD2     N12212   4.552   3.815  15.371 -0.1779 -0.9223 -0.3247
  830MPD2    H512213   4.608   3.806  15.287 -0.1112 -0.1495 -0.3666
  830MPD2    N112214   4.497   3.648  15.821 -0.1555  0.4346  0.2056
  830MPD2    H712215   4.533   3.579  15.887 -0.9956  0.3050  0.5249
  831MPD2     C12216   4.484   0.942  16.042 -0.0095  0.1980  0.6193
  831MPD2    C112217   4.570   0.854  15.978  0.1712 -0.6899  0.1297
  831MPD2    C212218   4.572   0.720  16.024  0.9285 -0.1929 -0.1643
  831MPD2    C312219   4.482   0.672  16.121 -0.1375  0.0185 -0.1467
  831MPD2    C412220   4.409   0.764  16.197  0.0952  0.0903  0.0918
  831MPD2    C512221   4.426   0.899  16.157  0.0774 -0.1684 -0.2171
  831MPD2     H12222   4.640   0.656  15.969  0.3181  1.0731 -2.4156
  831MPD2    H112223   4.338   0.735  16.274 -0.2121 -0.5448 -0.4314
  831MPD2    H212224   4.474   1.043  16.005  0.2691 -0.8020 -2.1725
  831MPD2    H312225   4.360   0.966  16.211 -0.9678 -2.5510  1.4689
  831MPD2     N12226   4.449   0.533  16.150  0.4300  0.1111 -0.6975
  831MPD2    H512227   4.379   0.515  16.221  0.5221 -0.7423 -0.8287
  831MPD2    N112228   4.628   0.899  15.858 -0.1666  0.7092 -0.4775
  831MPD2    H712229   4.607   0.993  15.826  0.3281  1.6322  1.8700
  832MPD2     C12230   2.961   1.658  16.932 -0.5865 -0.4106 -0.0850
  832MPD2    C112231   2.958   1.797  16.915 -0.1475  1.1238 -0.3728
  832MPD2    C212232   2.838   1.865  16.892  0.1538 -0.2289  0.2188
  832MPD2    C312233   2.721   1.785  16.879  0.0673  0.0433 -0.1550
  832MPD2    C412234   2.724   1.646  16.903 -0.1707  0.2489 -0.2728
  832MPD2    C512235   2.844   1.578  16.934 -0.1955 -0.6163  0.5163
  832MPD2     H12236   2.831   1.972  16.876  2.7108 -0.0039  0.7221
  832MPD2    H112237   2.636   1.583  16.898 -0.6033  0.7260  1.2979
  832MPD2    H212238   3.058   1.610  16.937  1.1807  3.5257  2.6572
  832MPD2    H312239   2.841   1.472  16.953  1.9182 -1.2345 -2.5619
  832MPD2     N12240   2.598   1.846  16.842 -0.1927  0.3090 -0.2035
  832MPD2    H512241   2.522   1.779  16.842  0.2188 -0.1573 -1.0840
  832MPD2    N112242   3.079   1.862  16.917  0.2452  0.2863  0.4910
  832MPD2    H712243   3.161   1.807  16.896 -0.5427 -0.8362  0.3817
  833MPD2     C12244   0.774   3.290  12.312 -0.2163 -0.5359  0.6278
  833MPD2    C112245   0.794   3.420  12.362  0.1671 -0.2338 -0.5335
  833MPD2    C212246   0.893   3.503  12.311 -0.1705  0.0275 -0.5403
  833MPD2    C312247   0.978   3.456  12.212 -0.4750 -0.5560  0.4846
  833MPD2    C412248   0.958   3.330  12.161 -0.3600 -0.4524  0.4347
  833MPD2    C512249   0.857   3.250  12.211 -0.1785  0.3385  0.0790
  833MPD2     H12250   0.906   3.601  12.354 -1.2079 -0.9166  1.9546
  833MPD2    H112251   1.029   3.277  12.098  0.2789 -0.0785  0.8442
  833MPD2    H212252   0.701   3.222  12.355 -1.4439  0.3324 -0.0863
  833MPD2    H312253   0.840   3.149  12.175  1.8504  0.0018  0.0113
  833MPD2     N12254   1.077   3.532  12.158  0.4606 -0.0557 -0.4290
  833MPD2    H512255   1.140   3.487  12.092 -1.1766 -3.4815  0.3332
  833MPD2    N112256   0.718   3.461  12.477 -0.1410  0.6655  0.2426
  833MPD2    H712257   0.635   3.406  12.500 -0.5143  1.4461  0.7496
  834MPD2     C12258   1.228   3.745  11.302  0.5504  0.1820  0.3084
  834MPD2    C112259   1.128   3.676  11.369  0.3496 -0.1868  0.4659
  834MPD2    C212260   1.122   3.679  11.512 -0.0656 -0.5572 -0.0926
  834MPD2    C312261   1.218   3.755  11.580  0.0506 -0.1444 -0.0382
  834MPD2    C412262   1.311   3.831  11.509 -0.2294 -0.2012 -0.2548
  834MPD2    C512263   1.318   3.815  11.378 -0.6828 -0.3321  0.1887
  834MPD2     H12264   1.044   3.636  11.573  0.9699 -1.9551  0.2613
  834MPD2    H112265   1.387   3.892  11.556 -0.9362 -0.5376  1.3294
  834MPD2    H212266   1.225   3.744  11.194 -1.5927  1.6362  0.3715
  834MPD2    H312267   1.393   3.874  11.327 -1.8946  1.4113  0.4258
  834MPD2     N12268   1.208   3.760  11.718  0.1027 -0.1899  0.2725
  834MPD2    H512269   1.159   3.682  11.761  4.2995 -3.6800 -1.2688
  834MPD2    N112270   1.037   3.600  11.294 -0.2937  0.0227 -0.6929
  834MPD2    H712271   1.054   3.595  11.194 -0.9378  2.5514 -0.9265
  835MPD2     C12272   0.545   0.866  10.918  0.0200  0.3848 -0.7113
  835MPD2    C112273   0.564   1.001  10.955 -0.4724  0.3752 -0.1318
  835MPD2    C212274   0.643   1.029  11.068 -0.5236 -0.2091 -0.1684
  835MPD2    C312275   0.714   0.928  11.134 -0.1022  0.6661 -0.2845
  835MPD2    C412276   0.695   0.801  11.096  0.2520  0.5453 -0.5525
  835MPD2    C512277   0.612   0.769  10.991 -0.2542 -0.1971  0.2379
  835MPD2     H12278   0.654   1.132  11.099  0.7984 -0.2670 -0.4727
  835MPD2    H112279   0.744   0.724  11.154 -0.3561  0.5177 -0.0777
  835MPD2    H212280   0.482   0.840  10.833 -1.2918  0.8784  0.1233
  835MPD2    H312281   0.602   0.671  10.945 -0.7284 -1.0572  2.1702
  835MPD2     N12282   0.773   0.937  11.259  0.4532 -0.2069 -0.2982
  835MPD2    H512283   0.817   0.855  11.300 -0.3947 -0.6916 -0.3725
  835MPD2    N112284   0.488   1.105  10.897  0.1348  0.1447 -0.1803
  835MPD2    H712285   0.514   1.202  10.916 -0.1677  0.5500 -1.8321
  836MPD2     C12286   0.268   0.941  11.611  0.2942 -0.0219 -0.8035
  836MPD2    C112287   0.354   0.961  11.711 -0.1829  0.4669 -0.2574
  836MPD2    C212288   0.306   0.994  11.836 -0.1080 -0.0305  0.4631
  836MPD2    C312289   0.177   0.991  11.860  0.0770 -1.1016 -1.2776
  836MPD2    C412290   0.092   0.977  11.758 -0.3403 -0.6204  0.1128
  836MPD2    C512291   0.134   0.954  11.629  0.4739 -0.7459 -0.0319
  836MPD2     H12292   0.374   1.026  11.914  0.5352  0.8525 -0.4608
  836MPD2    H112293   4.708   0.975  11.782 -0.1005 -1.7340  1.0667
  836MPD2    H212294   0.309   0.939  11.510 -1.7753  1.0871 -1.6507
  836MPD2    H312295   0.060   0.937  11.552 -1.6581  0.7568  1.6630
  836MPD2     N12296   0.123   1.021  11.985  0.2496  0.2158  0.1661
  836MPD2    H512297   0.024   1.006  11.995  0.5538 -1.3883  0.7794
  836MPD2    N112298   0.491   0.964  11.691 -0.7806 -0.0926 -0.5236
  836MPD2    H712299   0.526   0.930  11.602 -1.8728  0.7995 -1.2802
  837MPD2     C12300   4.240   0.488  10.291  0.6875 -0.0334 -0.3762
  837MPD2    C112301   4.197   0.502  10.160 -0.3469 -0.6424  0.3890
  837MPD2    C212302   4.165   0.626  10.115 -0.2674 -0.0675  0.0305
  837MPD2    C312303   4.151   0.733  10.195  0.3101  0.2173 -0.5216
  837MPD2    C412304   4.175   0.709  10.330 -0.4738 -0.5958 -0.3524
  837MPD2    C512305   4.224   0.589  10.378  0.4222  0.9015  0.4035
  837MPD2     H12306   4.158   0.632  10.007 -1.1219  1.1705  0.1589
  837MPD2    H112307   4.172   0.786  10.406  0.0253 -0.0115 -0.9270
  837MPD2    H212308   4.272   0.393  10.334  0.9712 -0.2777 -1.1168
  837MPD2    H312309   4.247   0.579  10.483 -0.3450  2.0766  0.6844
  837MPD2     N12310   4.088   0.858  10.142 -0.1673 -0.1473 -0.3903
  837MPD2    H512311   4.070   0.855  10.042  1.1619 -0.0460 -0.6349
  837MPD2    N112312   4.185   0.400  10.068 -0.1597  0.0440 -0.3014
  837MPD2    H712313   4.151   0.436   9.979 -1.5429 -0.2113  0.1236
  838MPD2     C12314   2.077   3.236  10.540  0.1128 -0.5864  0.6424
  838MPD2    C112315   2.079   3.362  10.601  0.6946 -0.2038  0.2908
  838MPD2    C212316   1.985   3.391  10.703  0.4764 -0.4321  0.4442
  838MPD2    C312317   1.897   3.293  10.748  1.1297 -0.1374  0.5416
  838MPD2    C412318   1.905   3.165  10.692 -0.0244 -0.2896 -0.0847
  838MPD2    C512319   1.995   3.135  10.591 -0.7679  0.8834 -0.4563
  838MPD2     H12320   1.976   3.496  10.729  0.2751 -0.3739  0.1266
  838MPD2    H112321   1.842   3.086  10.731 -0.0698  0.2143  0.8765
  838MPD2    H212322   2.134   3.214  10.451  1.7542 -3.0714  2.3098
  838MPD2    H312323   1.984   3.045  10.531  1.0615  0.1250  0.3323
  838MPD2     N12324   1.804   3.332  10.848  0.4255 -0.5528  0.3356
  838MPD2    H512325   1.787   3.430  10.867  3.1055 -0.0152  0.0359
  838MPD2    N112326   2.149   3.475  10.544 -0.0962 -0.1039 -0.5847
  838MPD2    H712327   2.134   3.564  10.591 -0.9165  0.0898 -1.2050
  839MPD2     C12328   1.986   3.648  11.090 -0.0352 -0.1308 -0.1451
  839MPD2    C112329   2.063   3.543  11.041  0.7569 -0.2386 -0.0293
  839MPD2    C212330   2.144   3.569  10.933 -0.3617 -0.7304 -0.4515
  839MPD2    C312331   2.149   3.697  10.872  0.3812  1.2064 -0.1083
  839MPD2    C412332   2.057   3.793  10.916  0.0218 -0.3166  0.5570
  839MPD2    C512333   1.981   3.768  11.026 -0.2037 -0.8402 -0.6873
  839MPD2     H12334   2.200   3.492  10.883  1.7741  1.1017 -0.8900
  839MPD2    H112335   2.045   3.895  10.882 -0.3276 -0.6841 -0.4469
  839MPD2    H212336   1.923   3.639  11.178  0.4333  0.3504  0.2469
  839MPD2    H312337   1.918   3.846  11.067 -1.0817 -1.1099 -1.5213
  839MPD2     N12338   2.244   3.735  10.768  0.3779  0.5454  0.3326
  839MPD2    H512339   2.215   3.819  10.718 -0.6896  1.2027  2.0489
  839MPD2    N112340   2.070   3.409  11.094  0.0298 -0.3849 -0.6241
  839MPD2    H712341   2.123   3.339  11.043  0.8584 -0.1033 -0.1603
  840MPD2     C12342   2.063   0.953  10.401 -0.7302 -0.0952 -0.4442
  840MPD2    C112343   2.095   0.948  10.534  0.9559 -0.6570 -0.0754
  840MPD2    C212344   2.226   0.982  10.570 -0.3489 -0.0121 -0.1501
  840MPD2    C312345   2.316   1.037  10.472 -0.3644  0.2929  0.1709
  840MPD2    C412346   2.274   1.048  10.341  0.1361 -0.3844  0.3864
  840MPD2    C512347   2.148   1.003  10.307  0.2992  0.8391  0.1991
  840MPD2     H12348   2.266   0.981  10.670 -1.0258  0.4929  0.1198
  840MPD2    H112349   2.323   1.100  10.260  0.3671 -0.7293  0.3061
  840MPD2    H212350   1.963   0.928  10.366 -0.7783 -2.1407  1.0811
  840MPD2    H312351   2.115   1.015  10.205 -0.5121  0.4138  0.4149
  840MPD2     N12352   2.441   1.090  10.504  0.1440 -0.3007  0.3805
  840MPD2    H512353   2.501   1.118  10.427 -0.7910 -0.5477 -0.4312
  840MPD2    N112354   1.988   0.908  10.623 -0.3141  0.1464  0.1271
  840MPD2    H712355   1.898   0.906  10.577 -0.7578  0.9458  0.9668
  841MPD2     C12356   1.277   1.593  14.508 -0.5907  0.0473 -0.2780
  841MPD2    C112357   1.328   1.514  14.409 -0.0858 -0.1496  0.0176
  841MPD2    C212358   1.405   1.580  14.312  0.4372  0.0415 -0.3579
  841MPD2    C312359   1.443   1.714  14.322 -0.1781  0.3067 -0.1030
  841MPD2    C412360   1.405   1.785  14.435  0.1329 -0.7277 -0.3596
  841MPD2    C512361   1.316   1.724  14.519 -0.1739 -0.9884  0.1478
  841MPD2     H12362   1.438   1.512  14.234 -0.1628  1.2561 -1.6579
  841MPD2    H112363   1.444   1.883  14.459  0.9465 -0.5070 -2.5543
  841MPD2    H212364   1.209   1.556  14.585  1.2571 -0.5846  1.0383
  841MPD2    H312365   1.274   1.777  14.603  1.3802 -0.8858  0.8709
  841MPD2     N12366   1.549   1.758  14.238 -0.6228  0.3516 -0.5247
  841MPD2    H512367   1.581   1.681  14.180  1.6320  1.1520 -0.3711
  841MPD2    N112368   1.292   1.374  14.397 -0.6400 -0.0500  0.5472
  841MPD2    H712369   1.317   1.326  14.311  0.3330 -1.6433  1.7061
  842MPD2     C12370   2.078   2.247  16.812  0.3567  0.2539 -0.8787
  842MPD2    C112371   1.981   2.148  16.805 -0.6639  0.4798  0.2436
  842MPD2    C212372   1.948   2.078  16.916 -0.2255 -0.2686  0.1855
  842MPD2    C312373   2.031   2.084  17.031 -0.6420 -0.4547  1.0961
  842MPD2    C412374   2.125   2.177  17.036 -0.0452  0.8173 -0.2079
  842MPD2    C512375   2.148   2.260  16.927  0.4991 -0.4799 -0.7655
  842MPD2     H12376   1.874   1.998  16.909 -0.4871 -0.3327  3.9023
  842MPD2    H112377   2.190   2.190  17.122 -1.0143  1.1870  0.4670
  842MPD2    H212378   2.108   2.314  16.732  1.9616 -0.2651 -0.7135
  842MPD2    H312379   2.225   2.336  16.924 -0.5279  0.5415 -1.2748
  842MPD2     N12380   2.021   2.006  17.153 -0.4022 -0.0198  0.7088
  842MPD2    H512381   2.093   2.023  17.223  0.5092  0.8129 -0.4394
  842MPD2    N112382   1.928   2.124  16.675 -0.5778  0.1776  0.2478
  842MPD2    H712383   1.945   2.200  16.610  1.0540 -0.5979 -0.2199
  843MPD2     C12384   4.228   3.000  17.595  0.1006  0.1497 -0.1281
  843MPD2    C112385   4.318   2.947  17.685  0.0741  0.5173 -0.9113
  843MPD2    C212386   4.449   2.977  17.660  0.5418  0.1477 -0.4801
  843MPD2    C312387   4.496   3.060  17.558  1.1102 -0.1205 -0.0063
  843MPD2    C412388   4.398   3.126  17.479  0.4118  0.1191  0.7525
  843MPD2    C512389   4.274   3.077  17.495 -0.0454  0.1881  0.6900
  843MPD2     H12390   4.517   2.944   0.048  0.6889  3.1935  0.6428
  843MPD2    H112391   4.422   3.206  17.409 -1.8326 -1.3639 -1.7290
  843MPD2    H212392   4.120   2.987  17.596  0.0095  0.8417 -1.4522
  843MPD2    H312393   4.196   3.116  17.430 -0.4460  1.6202  2.0268
  843MPD2     N12394   4.631   3.098  17.545 -0.9192  0.9498  0.1370
  843MPD2    H512395   4.644   3.184  17.492 -1.8202 -0.0234 -1.6299
  843MPD2    N112396   4.268   2.873   0.109  0.4114 -0.2459  0.2397
  843MPD2    H712397   4.168   2.860   0.113  0.3239 -0.0491 -1.0382
  844MPD2     C12398   2.157   1.455  16.417  0.4273 -0.5732 -0.5431
  844MPD2    C112399   2.263   1.364  16.382 -0.1061  0.0633 -0.0644
  844MPD2    C212400   2.395   1.398  16.404 -0.7022 -0.1907 -0.0130
  844MPD2    C312401   2.435   1.522  16.450  0.0621  0.3825  0.4170
  844MPD2    C412402   2.331   1.613  16.466 -0.6445 -0.0384 -0.5163
  844MPD2    C512403   2.200   1.582  16.448 -0.1667 -0.2623 -0.2133
  844MPD2     H12404   2.464   1.319  16.374 -1.0989 -0.3492 -0.5076
  844MPD2    H112405   2.353   1.715  16.496  1.2406 -0.3363 -0.8354
  844MPD2    H212406   2.050   1.445  16.403  0.9837 -3.2004 -2.8054
  844MPD2    H312407   2.136   1.670  16.460 -1.0713 -1.1345  1.3582
  844MPD2     N12408   2.569   1.560  16.477  0.7129 -0.8028 -0.4704
  844MPD2    H512409   2.636   1.484  16.483 -0.9171 -2.1536  0.5370
  844MPD2    N112410   2.233   1.242  16.320 -0.6028 -0.1876 -0.4678
  844MPD2    H712411   2.307   1.183  16.283 -2.1073 -0.2576 -3.3875
  845MPD2     C12412   3.071   2.427  16.701  0.2382 -0.2774  0.3276
  845MPD2    C112413   2.966   2.371  16.768 -0.1553  0.2640  0.2277
  845MPD2    C212414   2.925   2.246  16.744  0.3199  0.6073 -0.1473
  845MPD2    C312415   2.992   2.166  16.652 -0.1072 -0.7594  0.3408
  845MPD2    C412416   3.098   2.227  16.587  0.9291 -0.0446 -0.6876
  845MPD2    C512417   3.134   2.356  16.610 -0.0603  0.1206  0.2582
  845MPD2     H12418   2.845   2.207  16.807  0.4978 -0.3522 -0.5097
  845MPD2    H112419   3.151   2.167  16.513 -0.3516 -0.8157 -0.9855
  845MPD2    H212420   3.110   2.527  16.712  1.3182 -0.6181 -0.3826
  845MPD2    H312421   3.201   2.409  16.544 -0.0213 -1.2383 -0.7983
  845MPD2     N12422   2.947   2.032  16.629 -0.0029  0.0063  0.1243
  845MPD2    H512423   2.853   2.012  16.663  0.3066  1.1230  1.6582
  845MPD2    N112424   2.898   2.467  16.849 -0.3474 -0.0071  0.0163
  845MPD2    H712425   2.935   2.562  16.852 -0.6986  0.1723 -1.2160
  846MPD2     C12426   4.596   2.476  13.824  0.2755 -0.9063 -0.4310
  846MPD2    C112427   4.485   2.563  13.837 -0.0963  0.3351  0.8865
  846MPD2    C212428   4.427   2.561  13.964 -0.2896 -0.0309 -0.4056
  846MPD2    C312429   4.472   2.494  14.071 -1.1299 -0.2834 -0.0796
  846MPD2    C412430   4.590   2.424  14.056  1.0568 -0.3248 -0.4331
  846MPD2    C512431   4.650   2.418  13.936  0.1313  0.2484 -0.6955
  846MPD2     H12432   4.336   2.618  13.976  0.5938  1.7256 -1.9977
  846MPD2    H112433   4.645   2.364  14.127 -0.1690 -2.9143 -1.7098
  846MPD2    H212434   4.650   2.451  13.733 -0.6077 -0.4251 -1.0980
  846MPD2    H312435   0.006   2.344  13.924  0.8394  0.9824 -0.6540
  846MPD2     N12436   4.401   2.489  14.190  0.0508 -0.8338  1.3658
  846MPD2    H512437   4.310   2.533  14.191  1.0358  1.2612 -0.2117
  846MPD2    N112438   4.444   2.646  13.732 -0.4726  0.6374  0.3204
  846MPD2    H712439   4.360   2.701  13.746 -1.0769  0.5725 -3.1229
  847MPD2     C12440   4.642   3.222  14.290  0.1088  1.3758  1.0013
  847MPD2    C112441   4.704   3.337  14.325  0.2676  0.2164 -0.4495
  847MPD2    C212442   0.064   3.333  14.433  1.0012  0.0068  0.0713
  847MPD2    C312443   0.070   3.218  14.511 -0.0054  0.3427 -0.1111
  847MPD2    C412444   0.006   3.106  14.476  0.5881  0.0762 -0.2905
  847MPD2    C512445   4.655   3.104  14.365 -0.6531  0.8465 -0.3180
  847MPD2     H12446   0.122   3.418  14.469  1.6601 -0.8078  0.9391
  847MPD2    H112447   0.014   3.011  14.527 -1.0811 -0.1676 -0.5014
  847MPD2    H212448   4.583   3.200  14.201  0.2591 -0.6673  1.3992
  847MPD2    H312449   4.601   3.016  14.330 -1.5904  1.5079 -0.5563
  847MPD2     N12450   0.141   3.225  14.626  0.7047  0.0482  0.0846
  847MPD2    H512451   0.206   3.304  14.630  2.8190 -1.6146 -1.4821
  847MPD2    N112452   4.691   3.457  14.249 -0.1595  0.1793  0.3716
  847MPD2    H712453   0.028   3.538  14.261  0.8767 -0.5695  0.4036
  848MPD2     C12454   2.277   1.966  16.138  0.2680 -0.1975  0.0127
  848MPD2    C112455   2.342   2.059  16.217 -0.2997  0.6223 -0.5473
  848MPD2    C212456   2.394   2.167  16.152 -0.0800 -0.1673  0.1066
  848MPD2    C312457   2.369   2.190  16.017 -0.2447  0.7658 -0.2831
  848MPD2    C412458   2.305   2.090  15.943  0.6378 -0.7404 -0.1495
  848MPD2    C512459   2.257   1.979  16.003 -0.3510  0.2431  0.1565
  848MPD2     H12460   2.451   2.233  16.216 -1.3178  1.4989 -0.5217
  848MPD2    H112461   2.293   2.096  15.835  0.2724 -1.3989 -0.1442
  848MPD2    H212462   2.247   1.867  16.171 -0.8848 -0.1984 -1.0124
  848MPD2    H312463   2.204   1.901  15.950  0.9360 -1.0159  0.7021
  848MPD2     N12464   2.420   2.299  15.942  0.7365 -0.5362 -0.6490
  848MPD2    H512465   2.404   2.307  15.843 -0.7503  2.1498 -0.2063
  848MPD2    N112466   2.354   2.051  16.360  0.1759  0.0161  0.0304
  848MPD2    H712467   2.412   2.124  16.401  0.6873 -0.8473  0.8343
  849MPD2     C12468   1.806   1.256  13.716 -0.5626  0.9558  0.5259
  849MPD2    C112469   1.794   1.388  13.678 -0.9132 -0.2130 -0.3315
  849MPD2    C212470   1.900   1.472  13.684 -0.6265 -0.8149 -0.5585
  849MPD2    C312471   2.021   1.431  13.730 -0.1384  0.2838 -0.3570
  849MPD2    C412472   2.038   1.305  13.780 -0.1904  0.0970  0.8163
  849MPD2    C512473   1.929   1.217  13.773 -0.3747 -0.4888  0.2660
  849MPD2     H12474   1.894   1.570  13.640 -0.4851 -1.6099 -2.3265
  849MPD2    H112475   2.134   1.266  13.811 -0.1795  1.2164  2.1565
  849MPD2    H212476   1.735   1.175  13.704  0.9477 -0.5106  1.4815
  849MPD2    H312477   1.935   1.114  13.809 -0.2337  0.2738  2.4500
  849MPD2     N12478   2.125   1.529  13.730  0.8415 -0.2039 -0.2585
  849MPD2    H512479   2.092   1.618  13.693 -0.4150 -0.5923 -0.0917
  849MPD2    N112480   1.670   1.434  13.631 -0.2376 -0.4400 -0.7869
  849MPD2    H712481   1.595   1.366  13.625 -1.9866  1.3800  0.7241
  850MPD2     C12482   4.038   4.714  14.566 -0.0990 -0.4006  0.0442
  850MPD2    C112483   4.049   0.089  14.667 -0.4258 -0.2541 -0.2281
  850MPD2    C212484   4.181   0.114  14.715  0.0674 -0.5762  0.7297
  850MPD2    C312485   4.284   0.032  14.681 -0.4456  0.0116 -0.2415
  850MPD2    C412486   4.271   4.673  14.571  0.0898 -0.3519  0.1175
  850MPD2    C512487   4.144   4.652  14.513 -0.2019  0.2444  0.2495
  850MPD2     H12488   4.200   0.187  14.793  1.5531  1.8638 -1.9293
  850MPD2    H112489   4.360   4.628  14.527  1.3900  1.3013  1.0323
  850MPD2    H212490   3.939   4.701  14.523  0.2336 -1.6566 -0.3354
  850MPD2    H312491   4.124   4.592  14.425  3.2569  0.7024 -0.8767
  850MPD2     N12492   4.414   0.024  14.730  0.0554  0.4373  0.4075
  850MPD2    H512493   4.472   4.668  14.701 -0.2760  0.3677 -0.0735
  850MPD2    N112494   3.926   0.153  14.711  0.0591 -0.6112 -0.9294
  850MPD2    H712495   3.842   0.147  14.655  0.4657 -0.8286 -1.5209
  851MPD2     C12496   4.544   0.001  15.263 -0.2711  0.1579 -1.2858
  851MPD2    C112497   4.426   4.667  15.218 -0.2549 -0.0358  0.0737
  851MPD2    C212498   4.428   4.535  15.188 -0.4040 -0.4240 -0.0466
  851MPD2    C312499   4.541   4.451  15.200  0.8035 -0.2657  0.1625
  851MPD2    C412500   4.655   4.508  15.254  0.2199 -0.4103 -0.1883
  851MPD2    C512501   4.650   4.643  15.294 -0.6756 -0.6819  0.1376
  851MPD2     H12502   4.341   4.476  15.159 -0.7154  0.9153 -1.8479
  851MPD2    H112503   0.028   4.457  15.257  0.5983  0.1710 -2.1440
  851MPD2    H212504   4.542   0.106  15.288 -1.2693 -0.3844  0.9414
  851MPD2    H312505   0.013   4.692  15.340  0.2393 -2.0920 -0.0768
  851MPD2     N12506   4.525   4.317  15.162 -0.0669  0.8106 -0.3861
  851MPD2    H512507   4.430   4.282  15.153 -0.0853  1.2864 -2.0093
  851MPD2    N112508   4.315   0.029  15.191  0.2199 -0.1591 -0.2963
  851MPD2    H712509   4.325   0.125  15.221  0.5264  0.0474 -1.0668
  852MPD2     C12510   0.229   2.052   9.721  0.3332 -0.4485 -0.4221
  852MPD2    C112511   0.220   2.178   9.776 -0.5206 -0.4389  0.5448
  852MPD2    C212512   0.310   2.279   9.747  0.5041 -0.5941  0.1750
  852MPD2    C312513   0.405   2.257   9.650  0.0221  0.2834 -0.0698
  852MPD2    C412514   0.407   2.128   9.593 -0.2777 -0.2776  0.0769
  852MPD2    C512515   0.322   2.030   9.633 -0.1416  0.1098 -0.4825
  852MPD2     H12516   0.297   2.380   9.783 -1.2785  0.6549 -3.9196
  852MPD2    H112517   0.475   2.106   9.512  1.4663  1.2639  1.1114
  852MPD2    H212518   0.154   1.980   9.750 -1.3363  1.3247 -0.2987
  852MPD2    H312519   0.319   1.933   9.585 -2.2837 -0.7933  1.4732
  852MPD2     N12520   0.496   2.359   9.614  0.0027  0.0589  0.3042
  852MPD2    H512521   0.497   2.442   9.671  1.5974  1.2002 -1.3882
  852MPD2    N112522   0.115   2.188   9.872 -0.5399 -0.2151 -0.0638
  852MPD2    H712523   0.064   2.106   9.901 -1.5461  0.5916  0.4366
  853MPD2     C12524   1.804   2.385  12.077 -0.2049 -0.2487  0.8778
  853MPD2    C112525   1.678   2.388  12.012 -0.0052  0.0422  0.0815
  853MPD2    C212526   1.670   2.339  11.885  0.1659  0.1921 -0.1071
  853MPD2    C312527   1.783   2.315  11.812 -0.3332  0.1759 -0.3510
  853MPD2    C412528   1.908   2.329  11.866  0.0069  0.7498 -0.1261
  853MPD2    C512529   1.913   2.359  11.999 -0.5649  0.2045 -0.0920
  853MPD2     H12530   1.570   2.324  11.845  0.3182 -1.3155  0.0748
  853MPD2    H112531   1.995   2.323  11.802  0.5380 -1.1223  0.7469
  853MPD2    H212532   1.825   2.427  12.174 -1.5984  0.5321  0.8375
  853MPD2    H312533   2.011   2.367  12.043 -0.5625 -0.9861  0.1281
  853MPD2     N12534   1.783   2.283  11.675 -0.0915 -0.3432 -0.1541
  853MPD2    H512535   1.869   2.277  11.620  1.0962 -0.8063  1.7718
  853MPD2    N112536   1.575   2.445  12.092 -0.6010  0.1418 -0.1905
  853MPD2    H712537   1.604   2.446  12.190 -0.5367  1.6102 -0.2234
  854MPD2     C12538   2.996   2.492  12.738 -0.2873  0.0628 -0.2118
  854MPD2    C112539   3.119   2.559  12.763 -0.4636  0.0005  0.0709
  854MPD2    C212540   3.225   2.487  12.807 -0.1921  0.9157 -0.1359
  854MPD2    C312541   3.214   2.344  12.815  0.7883  0.0934 -0.8297
  854MPD2    C412542   3.093   2.285  12.791 -0.1977  0.2198 -0.0562
  854MPD2    C512543   2.983   2.357  12.751  0.3962 -0.2010 -0.3802
  854MPD2     H12544   3.318   2.536  12.834 -0.8326 -0.8148  5.2714
  854MPD2    H112545   3.089   2.176  12.793 -1.7287  0.2839  0.2442
  854MPD2    H212546   2.895   2.530  12.722  0.0087  0.8885 -0.1389
  854MPD2    H312547   2.892   2.307  12.720 -0.7446  0.6438  1.6310
  854MPD2     N12548   3.320   2.259  12.855 -0.2273  0.0273  0.6531
  854MPD2    H512549   3.304   2.164  12.886 -1.3840 -0.1998 -0.6448
  854MPD2    N112550   3.114   2.700  12.733  0.9396  0.2978 -0.0549
  854MPD2    H712551   3.046   2.735  12.667 -0.5843  2.6160  2.7527
  855MPD2     C12552   3.378   2.099  13.649 -0.1799  0.0462  0.4098
  855MPD2    C112553   3.438   1.985  13.598  0.1192  0.3068 -0.4408
  855MPD2    C212554   3.497   1.995  13.473  0.5524  0.5154 -0.6083
  855MPD2    C312555   3.490   2.114  13.401 -0.2155  0.7999 -0.0955
  855MPD2    C412556   3.439   2.228  13.457 -0.3299 -0.7400  0.1894
  855MPD2    C512557   3.370   2.220  13.578 -0.3360 -0.6137  0.7814
  855MPD2     H12558   3.546   1.905  13.437 -1.6089 -0.7941 -0.2638
  855MPD2    H112559   3.431   2.317  13.395 -1.0688 -0.6289  0.4448
  855MPD2    H212560   3.319   2.079  13.738  2.5865 -1.2825  1.9498
  855MPD2    H312561   3.328   2.311  13.619  2.3975  0.3996  1.2781
  855MPD2     N12562   3.554   2.136  13.280  0.5583 -0.2972  0.2972
  855MPD2    H512563   3.541   2.232  13.249 -2.7019 -0.5405  0.9748
  855MPD2    N112564   3.450   1.868  13.669 -0.1027 -0.5484 -0.2433
  855MPD2    H712565   3.490   1.787  13.622  3.5021  1.3790 -0.4612
  856MPD2     C12566   0.351   2.967  14.136 -0.8236  0.5003 -0.0378
  856MPD2    C112567   0.451   3.060  14.130  0.9129  0.7181 -0.0829
  856MPD2    C212568   0.430   3.186  14.077  0.2826  0.2899 -0.2646
  856MPD2    C312569   0.299   3.222  14.033  0.2786 -0.2301 -0.3389
  856MPD2    C412570   0.204   3.124  14.028 -0.1063  0.5903  0.0287
  856MPD2    C512571   0.223   2.999  14.090  0.6613 -0.0115  0.4910
  856MPD2     H12572   0.509   3.260  14.075  2.0663 -1.5406  3.4284
  856MPD2    H112573   0.105   3.135  13.984  0.4305  1.1927 -1.0010
  856MPD2    H212574   0.374   2.865  14.166  0.0268  0.7279  0.0662
  856MPD2    H312575   0.147   2.923  14.105  0.6620  0.0699  0.8949
  856MPD2     N12576   0.263   3.344  13.968 -0.4447  0.6977  0.0707
  856MPD2    H512577   0.173   3.348  13.922  0.9612  0.4536 -2.6612
  856MPD2    N112578   0.580   3.036  14.177  0.5459 -0.5368  0.9481
  856MPD2    H712579   0.652   3.103  14.153 -1.0572  0.5794 -0.7494
  857MPD2     C12580   2.820   0.218  13.210  0.0485  0.3383  0.2624
  857MPD2    C112581   2.768   0.258  13.094 -0.0798 -0.3568 -0.0305
  857MPD2    C212582   2.755   0.393  13.075  0.3242  0.1839 -0.4604
  857MPD2    C312583   2.802   0.484  13.168  0.4888  1.1099  0.3237
  857MPD2    C412584   2.848   0.432  13.290 -0.4426 -0.2225  0.5428
  857MPD2    C512585   2.853   0.301  13.310  1.0495  0.2883 -0.1438
  857MPD2     H12586   2.727   0.429  12.976 -1.6365  0.7719  0.3148
  857MPD2    H112587   2.899   0.498  13.359 -1.0434  1.6939 -0.8589
  857MPD2    H212588   2.833   0.114  13.237 -0.5208  0.3979  0.7582
  857MPD2    H312589   2.904   0.270  13.401 -0.5143  0.4909  0.8127
  857MPD2     N12590   2.806   0.625  13.135  0.1025 -0.1534  0.0570
  857MPD2    H512591   2.788   0.648  13.037 -0.0869  0.7634  0.3047
  857MPD2    N112592   2.712   0.167  13.002 -0.3539  0.3312  0.4978
  857MPD2    H712593   2.677   0.210  12.917  1.8228 -0.1772 -0.6609
  858MPD2     C12594   2.703   3.984  16.986  0.0332 -0.3231  0.3817
  858MPD2    C112595   2.840   3.979  16.955 -0.1915 -0.6818  0.8230
  858MPD2    C212596   2.909   4.096  16.984  0.2534 -0.9860 -0.3143
  858MPD2    C312597   2.847   4.211  17.038 -0.2115 -0.2285  0.0336
  858MPD2    C412598   2.720   4.202  17.078  0.4501 -0.2803 -0.3711
  858MPD2    C512599   2.643   4.098  17.042  0.3381  0.4071 -0.0568
  858MPD2     H12600   3.015   4.114  16.972 -0.3136  2.1527 -0.4696
  858MPD2    H112601   2.671   4.288  17.122  0.9673  0.0937 -0.5248
  858MPD2    H212602   2.655   3.889  16.966 -2.1035  0.9609 -0.5775
  858MPD2    H312603   2.537   4.105  17.064  0.7116  0.3541  1.7475
  858MPD2     N12604   2.909   4.325  17.087  0.1016 -0.1951  0.6464
  858MPD2    H512605   2.844   4.380  17.142 -0.2225 -0.6741  0.7467
  858MPD2    N112606   2.896   3.859  16.915 -0.5427 -0.1338 -0.3301
  858MPD2    H712607   2.835   3.788  16.876 -1.7425  1.5106 -1.4340
  859MPD2     C12608   1.218   1.821  14.972  0.0917 -0.2785  0.6395
  859MPD2    C112609   1.345   1.829  14.921 -0.2844  0.1814  0.4063
  859MPD2    C212610   1.399   1.712  14.861  0.0911  0.0261 -0.1712
  859MPD2    C312611   1.327   1.596  14.865  0.2617 -0.2484  0.0704
  859MPD2    C412612   1.204   1.596  14.912 -0.3644  0.5136 -0.0375
  859MPD2    C512613   1.148   1.711  14.960  0.1644 -0.3555  0.0380
  859MPD2     H12614   1.496   1.723  14.815  0.5116  0.8926  0.9076
  859MPD2    H112615   1.143   1.506  14.915  0.7483 -0.2404  0.0682
  859MPD2    H212616   1.172   1.916  14.998 -0.8291 -0.5877  0.1563
  859MPD2    H312617   1.044   1.705  14.990 -0.2925  2.9735 -0.9094
  859MPD2     N12618   1.375   1.471  14.821  0.0236  0.0873 -0.2364
  859MPD2    H512619   1.320   1.387  14.832  1.1440 -0.4770  0.9629
  859MPD2    N112620   1.415   1.952  14.932  0.1832 -0.2257  0.2442
  859MPD2    H712621   1.357   2.019  14.981  0.9005  1.9519 -1.9061
  860MPD2     C12622   4.338   2.111  11.370  0.5137 -1.1054  0.0052
  860MPD2    C112623   4.341   2.196  11.476  0.4434  0.5253 -0.6743
  860MPD2    C212624   4.248   2.183  11.574  0.3183 -0.1596 -0.7652
  860MPD2    C312625   4.149   2.084  11.567 -0.5349 -0.4201 -0.0245
  860MPD2    C412626   4.142   2.007  11.452  0.0551  0.1544 -0.0889
  860MPD2    C512627   4.235   2.021  11.351 -0.5312  0.1779 -0.5991
  860MPD2     H12628   4.250   2.257  11.653 -1.6621 -1.8710  0.8918
  860MPD2    H112629   4.069   1.930  11.431  0.5153 -0.3243  0.0616
  860MPD2    H212630   4.422   2.119  11.301 -0.5571  1.2014 -1.0337
  860MPD2    H312631   4.233   1.959  11.262  0.1193 -1.8591  0.8104
  860MPD2     N12632   4.053   2.073  11.672 -0.1150  0.3966  0.0005
  860MPD2    H512633   4.059   2.148  11.739 -0.4636  2.1732 -1.9544
  860MPD2    N112634   4.440   2.302  11.497  0.3892 -0.1374  0.0217
  860MPD2    H712635   4.444   2.356  11.583  0.0200 -0.7885  0.4453
  861MPD2     C12636   3.126   0.261  11.126 -0.1975 -0.4615 -0.0879
  861MPD2    C112637   2.999   0.285  11.158  0.3519 -0.0330 -0.0303
  861MPD2    C212638   2.906   0.315  11.058  0.8331 -0.6880  0.0070
  861MPD2    C312639   2.951   0.336  10.925 -0.5270  0.0266  0.0817
  861MPD2    C412640   3.082   0.307  10.898  0.4873  0.0605  0.5664
  861MPD2    C512641   3.165   0.259  10.996  0.3997 -0.7594 -0.3911
  861MPD2     H12642   2.802   0.325  11.087  0.3803  0.8589 -2.1908
  861MPD2    H112643   3.123   0.312  10.797 -3.4026 -1.1260 -1.0832
  861MPD2    H212644   3.193   0.230  11.206 -0.6320 -1.1906 -0.0110
  861MPD2    H312645   3.267   0.233  10.971  1.2003  1.1201  0.9766
  861MPD2     N12646   2.878   0.393  10.816  1.0597  0.0874 -0.3406
  861MPD2    H512647   2.930   0.411  10.731  0.1875  0.1126 -0.8721
  861MPD2    N112648   2.945   0.265  11.293 -0.1308 -0.5515 -0.5047
  861MPD2    H712649   2.845   0.278  11.307 -0.0538  0.8337 -1.2186
  862MPD2     C12650   2.908   0.479  10.100  0.5537 -0.4111  0.5356
  862MPD2    C112651   2.952   0.422  10.222 -0.1437  0.0606  0.4552
  862MPD2    C212652   3.033   0.311  10.226  0.5334  0.2201 -0.0560
  862MPD2    C312653   3.066   0.258  10.105 -0.1298 -0.1780 -0.4791
  862MPD2    C412654   3.022   0.316   9.985 -0.0306 -0.1607  0.2062
  862MPD2    C512655   2.937   0.419   9.984  0.3343 -0.4884 -0.8721
  862MPD2     H12656   3.069   0.286  10.325  0.2791 -0.7617 -0.2096
  862MPD2    H112657   3.057   0.265   9.897 -0.4887 -2.3101  1.2537
  862MPD2    H212658   2.828   0.551  10.091  1.3617  0.5196  0.8277
  862MPD2    H312659   2.888   0.450   9.893 -0.1960  0.7782 -0.1531
  862MPD2     N12660   3.132   0.132  10.087 -0.7644 -0.0652 -0.4293
  862MPD2    H512661   3.160   0.103   9.994 -0.8953  1.9434 -1.1138
  862MPD2    N112662   2.905   0.471  10.344  0.3411 -0.6770 -0.4595
  862MPD2    H712663   2.949   0.429  10.426 -1.2994 -0.6257  0.4287
  863MPD2     C12664   1.734   2.619  17.304 -0.1251  0.5517 -0.1777
  863MPD2    C112665   1.731   2.758  17.277 -0.4051 -0.1201  0.6024
  863MPD2    C212666   1.779   2.847  17.367 -0.0997  0.0314 -0.9116
  863MPD2    C312667   1.833   2.807  17.490  0.0728 -0.1028 -0.1864
  863MPD2    C412668   1.833   2.675  17.512 -0.1017 -0.0301 -0.1596
  863MPD2    C512669   1.786   2.582  17.424 -0.1376 -0.0905 -0.1043
  863MPD2     H12670   1.765   2.953  17.348  0.6300  0.2379 -0.3244
  863MPD2    H112671   1.865   2.634  17.608  1.6122  2.0177  0.1439
  863MPD2    H212672   1.703   2.542  17.235  1.7104 -1.0089  0.7432
  863MPD2    H312673   1.796   2.476  17.442 -0.9042  0.0397  1.0315
  863MPD2     N12674   1.885   2.890  17.591  0.0232 -0.5111 -0.1942
  863MPD2    H512675   1.932   2.852  17.672  1.9994  2.9105  0.2899
  863MPD2    N112676   1.661   2.789  17.158 -0.1209  0.1774  0.1171
  863MPD2    H712677   1.659   2.717  17.086  0.0269  0.8727 -0.5848
  864MPD2     C12678   1.628   0.066  17.232  0.5318  0.6428 -0.4359
  864MPD2    C112679   1.722   4.701  17.192 -0.0299  0.4201 -0.0976
  864MPD2    C212680   1.831   0.028  17.119  0.8536 -0.5330 -0.1435
  864MPD2    C312681   1.864   0.162  17.103 -0.2973 -0.2502  0.2582
  864MPD2    C412682   1.770   0.245  17.156  0.0131 -0.0456  0.5724
  864MPD2    C512683   1.658   0.196  17.218 -0.0088  0.1538  0.2102
  864MPD2     H12684   1.893   4.668  17.084  1.3199 -0.8234  1.3638
  864MPD2    H112685   1.782   0.352  17.147  2.1789 -0.2971  0.2435
  864MPD2    H212686   1.535   0.028  17.273  0.0800  3.3748  1.0374
  864MPD2    H312687   1.582   0.264  17.255 -3.1752 -3.6940  0.7480
  864MPD2     N12688   1.980   0.216  17.036  0.5398 -0.1418 -0.1014
  864MPD2    H512689   1.967   0.316  17.034  1.4376 -0.0339 -0.7961
  864MPD2    N112690   1.692   4.560  17.204  0.4346  0.6629  0.3210
  864MPD2    H712691   1.616   4.534  17.267  0.6762 -0.2139  0.2432
  865MPD2     C12692   2.141   0.435  16.240 -0.0640  0.1296  0.0979
  865MPD2    C112693   2.113   0.357  16.352 -0.5300 -0.4322 -0.4544
  865MPD2    C212694   2.120   0.408  16.482 -0.1806  0.2983 -0.5905
  865MPD2    C312695   2.158   0.542  16.502 -0.3576  0.3709 -0.2121
  865MPD2    C412696   2.181   0.612  16.392  0.6016 -0.0408  0.0262
  865MPD2    C512697   2.176   0.562  16.260 -0.7831 -0.1362 -0.1922
  865MPD2     H12698   2.084   0.344  16.562 -1.0720  1.4623 -0.0581
  865MPD2    H112699   2.209   0.716  16.406  1.8018 -0.6111  1.8981
  865MPD2    H212700   2.139   0.401  16.137  1.3793 -0.0553  0.1325
  865MPD2    H312701   2.214   0.620  16.177  1.5998 -0.2339  0.8463
  865MPD2     N12702   2.180   0.600  16.625  0.5737 -0.0047 -0.0016
  865MPD2    H512703   2.210   0.697  16.620  1.5423 -0.2340  1.2918
  865MPD2    N112704   2.110   0.213  16.327 -0.3838 -0.7651  0.0161
  865MPD2    H712705   2.079   0.185  16.235 -0.8102  0.9825 -0.3805
  866MPD2     C12706   3.689   0.739  11.894 -0.0332 -0.1702 -0.2925
  866MPD2    C112707   3.751   0.715  11.770  0.1473  0.3277 -0.7304
  866MPD2    C212708   3.669   0.714  11.656  0.4359 -0.2278  0.5529
  866MPD2    C312709   3.531   0.726  11.671  0.1926  0.1811 -0.0624
  866MPD2    C412710   3.471   0.748  11.792  0.0108 -0.3582  0.2498
  866MPD2    C512711   3.552   0.747  11.905  0.5371 -0.5751 -0.5829
  866MPD2     H12712   3.714   0.687  11.562 -0.7409  1.7277 -0.5625
  866MPD2    H112713   3.364   0.751  11.811  0.2381  0.7267  1.3907
  866MPD2    H212714   3.747   0.722  11.984  0.7159  1.8239 -0.4076
  866MPD2    H312715   3.508   0.748  12.004  0.4595 -1.6261 -0.6037
  866MPD2     N12716   3.446   0.708  11.564  0.1948 -0.5539 -0.4083
  866MPD2    H512717   3.352   0.678  11.587  0.5371 -1.9949 -0.9198
  866MPD2    N112718   3.891   0.695  11.778 -0.4126  0.3027  0.5080
  866MPD2    H712719   3.927   0.683  11.872 -1.9003 -0.1080  1.0242
  867MPD2     C12720   0.728   0.204  17.293  0.3947 -0.0708 -0.7089
  867MPD2    C112721   0.825   0.177  17.388  0.8916 -0.1604  0.4963
  867MPD2    C212722   0.834   0.264  17.491  0.3874 -0.2665 -0.1589
  867MPD2    C312723   0.749   0.375  17.503 -0.1942 -0.1103  1.0318
  867MPD2    C412724   0.640   0.392  17.417  0.3130 -0.4107 -0.1635
  867MPD2    C512725   0.637   0.308  17.309 -0.1091 -0.3621 -0.6163
  867MPD2     H12726   0.906   0.244  17.569  0.6966 -1.8480 -0.8489
  867MPD2    H112727   0.570   0.474  17.430  1.0096 -0.3221  2.9045
  867MPD2    H212728   0.722   0.144  17.203  0.8843 -1.2239  0.0166
  867MPD2    H312729   0.551   0.334  17.248  0.4783 -2.2210 -2.2119
  867MPD2     N12730   0.751   0.464  17.617 -0.2974 -0.1303 -0.3290
  867MPD2    H512731   0.680   0.536  17.615  0.1731  0.4341  4.2126
  867MPD2    N112732   0.911   0.062  17.370 -0.7148 -0.3020 -0.2327
  867MPD2    H712733   0.893   4.711  17.302  1.1260 -0.2129 -0.8090
  868MPD2     C12734   2.524   3.051  12.829 -0.1013  0.0240  0.7977
  868MPD2    C112735   2.555   3.042  12.963 -0.1507  0.2781 -0.7921
  868MPD2    C212736   2.458   3.049  13.064 -0.3761 -0.2606  0.5043
  868MPD2    C312737   2.327   3.062  13.018 -0.5167 -0.0993 -0.6587
  868MPD2    C412738   2.291   3.073  12.884 -1.2201  0.9248 -0.2700
  868MPD2    C512739   2.397   3.068  12.791  0.5073  0.5114 -0.1961
  868MPD2     H12740   2.466   3.052  13.172  0.9853 -0.4897  0.4178
  868MPD2    H112741   2.194   3.082  12.837 -1.1258  1.0024 -0.4472
  868MPD2    H212742   2.590   3.035  12.745  0.7980  0.2627  1.4523
  868MPD2    H312743   2.370   3.069  12.686 -0.5808  1.5006  0.0976
  868MPD2     N12744   2.225   3.067  13.118  0.2720  1.0121  0.7368
  868MPD2    H512745   2.250   3.081  13.215  1.2214  1.5549  0.4144
  868MPD2    N112746   2.695   3.039  12.992 -0.6013  0.1134  0.0481
  868MPD2    H712747   2.762   3.025  12.917  0.0637  2.5951  0.1863
  869MPD2     C12748   0.023   2.728   2.032 -0.1854 -0.6145 -0.5807
  869MPD2    C112749   4.644   2.630   2.028 -0.4868  0.0686  0.4211
  869MPD2    C212750   4.542   2.638   1.936 -0.1471  0.1482  0.3386
  869MPD2    C312751   4.548   2.728   1.831 -0.3292  0.1005  0.0041
  869MPD2    C412752   4.634   2.834   1.846 -0.3167 -0.2050 -0.7738
  869MPD2    C512753   0.010   2.834   1.943  0.4593 -0.3152 -0.8802
  869MPD2     H12754   4.472   2.555   1.942  2.3111 -1.8786  0.9969
  869MPD2    H112755   4.620   2.927   1.792 -0.1516 -0.7019 -1.6679
  869MPD2    H212756   0.111   2.713   2.093  0.0723  2.1496 -0.2983
  869MPD2    H312757   0.096   2.900   1.942  0.4918 -0.3546 -0.6458
  869MPD2     N12758   4.442   2.724   1.734  0.4831 -0.1068 -0.1454
  869MPD2    H512759   4.382   2.643   1.747  2.0380 -1.2775 -0.2765
  869MPD2    N112760   4.649   2.529   2.131  0.4720  0.3142 -0.0488
  869MPD2    H712761   0.012   2.541   2.186  0.6542 -0.3680 -0.1904
  870MPD2     C12762   2.999   1.160   1.452  0.0584 -0.0198  0.3491
  870MPD2    C112763   3.115   1.183   1.381  0.0904 -0.2106  0.2895
  870MPD2    C212764   3.105   1.200   1.237 -0.5055 -0.3016 -0.0394
  870MPD2    C312765   2.984   1.216   1.183 -0.0945 -0.1326 -0.1034
  870MPD2    C412766   2.868   1.194   1.250  0.4895  0.0026  0.5726
  870MPD2    C512767   2.880   1.170   1.382  0.3137  0.0072  0.2234
  870MPD2     H12768   3.188   1.197   1.168 -1.0151  0.4209 -0.6800
  870MPD2    H112769   2.768   1.193   1.207  0.8875  1.7219 -0.3661
  870MPD2    H212770   2.992   1.134   1.557 -0.1527 -0.3378  0.2549
  870MPD2    H312771   2.796   1.149   1.447  0.6996 -0.4588  0.5807
  870MPD2     N12772   2.996   1.257   1.047  0.1965  0.4804 -0.3828
  870MPD2    H512773   3.091   1.267   1.014  1.3140 -1.1578  2.2533
  870MPD2    N112774   3.241   1.169   1.442  0.0004 -0.5166  0.4891
  870MPD2    H712775   3.249   1.137   1.537 -0.2834 -0.7278  0.4410
  871MPD2     C12776   4.669   0.182  16.348 -0.8618  0.5195 -0.3127
  871MPD2    C112777   4.643   0.131  16.472  0.7959  0.2146  0.1260
  871MPD2    C212778   4.654   4.719  16.498  0.1064 -0.4439 -0.1277
  871MPD2    C312779   4.704   4.634  16.405  0.3283 -0.1343  0.8393
  871MPD2    C412780   0.009   4.684  16.282  0.1699  0.1567  0.4033
  871MPD2    C512781   4.702   0.092  16.249 -0.0702 -0.0354 -0.1365
  871MPD2     H12782   4.614   4.673  16.588  1.1328  1.8781  1.5423
  871MPD2    H112783   0.045   4.615  16.206 -0.2858  2.2870 -1.7624
  871MPD2    H212784   4.655   0.287  16.323 -0.5273  0.3693 -1.1596
  871MPD2    H312785   4.719   0.131  16.150 -0.5088 -0.0437 -0.2159
  871MPD2     N12786   4.721   4.497  16.450  0.0135 -0.3381  0.0938
  871MPD2    H512787   4.696   4.470  16.545 -1.2569 -1.9107 -0.6949
  871MPD2    N112788   4.598   0.220  16.575  0.2126 -0.8016 -0.2036
  871MPD2    H712789   4.573   0.312  16.542  2.1962 -0.9925 -2.2059
  872MPD2     C12790   0.639   2.180  13.719  0.0189 -0.0818  0.6115
  872MPD2    C112791   0.629   2.275  13.822 -0.1758  0.3461  0.1684
  872MPD2    C212792   0.510   2.286  13.894 -0.0447 -0.1733  0.3470
  872MPD2    C312793   0.402   2.195  13.876  0.0356  0.4152 -0.3170
  872MPD2    C412794   0.417   2.110  13.771  0.2556 -0.8389  0.8549
  872MPD2    C512795   0.528   2.101  13.697  0.5227 -0.3386  0.1178
  872MPD2     H12796   0.510   2.374  13.956 -4.8722 -0.8239  1.2968
  872MPD2    H112797   0.341   2.037  13.742 -0.2898 -0.8502  2.3334
  872MPD2    H212798   0.725   2.170  13.652  0.8297  2.6180  1.2463
  872MPD2    H312799   0.523   2.028  13.617  0.8183  0.7938 -0.9469
  872MPD2     N12800   0.294   2.200  13.969 -0.0148 -0.0252 -1.1495
  872MPD2    H512801   0.305   2.273  14.039  2.0544 -0.6739 -0.7790
  872MPD2    N112802   0.721   2.377  13.843  0.3804  0.1405 -0.3796
  872MPD2    H712803   0.699   2.455  13.904  0.9207 -1.3419  1.6704
  873MPD2     C12804   2.076   2.627   1.141 -0.0121 -0.1926  0.2220
  873MPD2    C112805   2.176   2.610   1.237  0.2349 -0.0121 -0.3941
  873MPD2    C212806   2.298   2.553   1.187  0.1662 -0.2830 -0.7188
  873MPD2    C312807   2.310   2.514   1.054 -0.3674  0.4738 -0.2778
  873MPD2    C412808   2.211   2.519   0.968 -0.2854 -0.1314  0.4504
  873MPD2    C512809   2.094   2.578   1.014 -0.1921 -0.5452 -0.7968
  873MPD2     H12810   2.380   2.540   1.257 -0.3389 -1.4059 -0.3327
  873MPD2    H112811   2.235   2.512   0.862 -0.9069  1.3468  0.2232
  873MPD2    H212812   1.975   2.655   1.167 -0.2838  0.0648 -1.0796
  873MPD2    H312813   2.023   2.594   0.933 -0.3870 -2.3767 -0.9718
  873MPD2     N12814   2.432   2.457   1.003  0.9707  0.2250  0.7697
  873MPD2    H512815   2.429   2.429   0.906 -2.0092  3.0729  0.0375
  873MPD2    N112816   2.141   2.640   1.373  0.5213  0.1666 -0.3470
  873MPD2    H712817   2.046   2.674   1.384 -0.2443 -1.9101 -0.7107
  874MPD2     C12818   1.695   2.486  15.983  0.4815  0.1407 -0.0519
  874MPD2    C112819   1.803   2.416  16.035  0.1000 -0.9310  0.0776
  874MPD2    C212820   1.933   2.426  15.991  0.0188 -0.2634  0.2797
  874MPD2    C312821   1.957   2.524  15.897 -0.5791  0.3134  0.3205
  874MPD2    C412822   1.851   2.588  15.830 -0.0683 -0.0594  0.4724
  874MPD2    C512823   1.725   2.569  15.872 -0.2668 -0.6814  0.6315
  874MPD2     H12824   2.004   2.360  16.039  1.4196 -0.5032 -2.1368
  874MPD2    H112825   1.870   2.661  15.752 -1.3213 -0.7833 -0.5053
  874MPD2    H212826   1.592   2.477  16.015  0.7309  0.7685  0.9573
  874MPD2    H312827   1.650   2.631  15.826 -0.2124 -0.7169  0.4936
  874MPD2     N12828   2.092   2.549  15.868  0.3731 -0.4938  0.4697
  874MPD2    H512829   2.162   2.490  15.912  1.8313  0.4180 -0.6298
  874MPD2    N112830   1.770   2.325  16.139 -0.1327 -0.4551 -0.2142
  874MPD2    H712831   1.673   2.325  16.167 -0.1408 -2.0570 -0.2596
  875MPD2     C12832   3.130   0.941  14.311 -1.0490 -0.1270 -0.9245
  875MPD2    C112833   2.996   0.969  14.320 -0.1251  0.3205  0.5063
  875MPD2    C212834   2.942   1.010  14.442  0.1188 -0.2796 -0.3706
  875MPD2    C312835   3.028   1.029  14.547  0.3329  1.6987 -0.1874
  875MPD2    C412836   3.165   1.011  14.528  0.0672 -0.9883  0.1354
  875MPD2    C512837   3.217   0.960  14.413  0.5532 -0.6336  0.5936
  875MPD2     H12838   2.835   1.015  14.454  0.1790 -0.2328  0.1767
  875MPD2    H112839   3.231   1.028  14.613  1.5579  0.4250 -1.3225
  875MPD2    H212840   3.180   0.922  14.216  0.6374 -0.5941  0.0475
  875MPD2    H312841   3.321   0.933  14.402  1.0226  1.6706 -0.5878
  875MPD2     N12842   2.986   1.073  14.677 -0.0805 -0.3653  0.0165
  875MPD2    H512843   3.062   1.087  14.742  0.3530  0.6582 -0.7130
  875MPD2    N112844   2.908   0.962  14.207  0.3790 -0.3808 -0.1411
  875MPD2    H712845   2.813   0.996  14.224 -0.1022 -0.9854 -1.5723
  876MPD2     C12846   1.664   2.208  15.775 -0.0345 -0.5106 -0.5423
  876MPD2    C112847   1.790   2.148  15.774  0.4231 -0.1791  0.5707
  876MPD2    C212848   1.814   2.038  15.861 -0.5402  0.2163  0.1016
  876MPD2    C312849   1.710   1.986  15.943 -0.4486 -0.2060 -0.1017
  876MPD2    C412850   1.586   2.053  15.934  0.3413  0.2728 -0.0108
  876MPD2    C512851   1.568   2.167  15.856  0.1681 -0.2344  0.3472
  876MPD2     H12852   1.902   1.974  15.859 -0.3879  0.3585  2.6122
  876MPD2    H112853   1.506   2.028  16.003 -1.4047  1.8180 -1.4753
  876MPD2    H212854   1.641   2.301  15.725  0.0021 -1.0412 -1.5427
  876MPD2    H312855   1.472   2.215  15.874  0.6573  1.0795 -0.5989
  876MPD2     N12856   1.731   1.864  16.007  0.2291 -0.1105 -0.0431
  876MPD2    H512857   1.814   1.809  15.990 -0.5891 -1.7907  1.3790
  876MPD2    N112858   1.884   2.197  15.684  0.1555  0.4927  1.1213
  876MPD2    H712859   1.849   2.267  15.618  0.6897 -0.0048  0.3187
  877MPD2     C12860   1.924   2.663  15.120  0.1582  0.4091  0.4623
  877MPD2    C112861   2.025   2.576  15.092 -0.7020 -0.3259  0.7241
  877MPD2    C212862   2.072   2.567  14.965 -0.2032 -0.2011 -0.0755
  877MPD2    C312863   2.023   2.650  14.861 -0.4685 -0.1463 -0.6429
  877MPD2    C412864   1.916   2.731  14.892  0.1522 -0.0083 -0.7880
  877MPD2    C512865   1.869   2.733  15.018 -0.0754  0.0099  0.0399
  877MPD2     H12866   2.141   2.488  14.938  0.1337 -1.5520  4.7769
  877MPD2    H112867   1.882   2.812  14.829  0.0479  0.2832 -0.3546
  877MPD2    H212868   1.870   2.669  15.214 -2.7778 -0.1052 -1.1961
  877MPD2    H312869   1.785   2.800  15.037  0.8096  1.4177 -1.0525
  877MPD2     N12870   2.067   2.645  14.726  0.0279  0.2323  0.0316
  877MPD2    H512871   2.036   2.720  14.665  0.2926 -0.2625 -0.7059
  877MPD2    N112872   2.087   2.498  15.190  0.7264 -0.0725 -0.3721
  877MPD2    H712873   2.160   2.437  15.154  0.0630 -2.2723  1.9736
  878MPD2     C12874   1.676   1.523  12.715  0.4656 -0.7056  0.1150
  878MPD2    C112875   1.683   1.653  12.763 -0.2592 -0.3204 -0.3943
  878MPD2    C212876   1.637   1.676  12.891  0.0374  0.0411 -0.5714
  878MPD2    C312877   1.590   1.579  12.974  0.1983  0.0597  0.5486
  878MPD2    C412878   1.584   1.454  12.926 -0.3841 -0.1850  0.4177
  878MPD2    C512879   1.633   1.420  12.797  0.3660 -0.0888 -0.0324
  878MPD2     H12880   1.650   1.769  12.944 -2.7510 -0.2613  0.5980
  878MPD2    H112881   1.557   1.372  12.992  1.8326 -0.5990  0.7991
  878MPD2    H212882   1.703   1.494  12.614 -0.4071  0.8879 -0.5626
  878MPD2    H312883   1.629   1.320  12.757  0.3829 -0.2387  0.3466
  878MPD2     N12884   1.552   1.617  13.104  0.2209 -0.4744  0.0944
  878MPD2    H512885   1.575   1.714  13.125  0.0319 -0.0132 -1.8121
  878MPD2    N112886   1.709   1.759  12.680  0.1354  0.0991 -0.0271
  878MPD2    H712887   1.735   1.735  12.585  0.2182  0.9283 -0.2170
  879MPD2     C12888   2.391   3.560  17.331  0.2538 -0.1112 -0.2095
  879MPD2    C112889   2.470   3.456  17.377 -0.1616 -0.2200 -0.4593
  879MPD2    C212890   2.429   3.325  17.369 -0.1429  0.8211  0.1780
  879MPD2    C312891   2.307   3.296  17.317  0.1108  0.3675  1.1623
  879MPD2    C412892   2.232   3.393  17.274  0.8022  0.1999  0.4152
  879MPD2    C512893   2.272   3.521  17.277 -0.5591 -0.1605 -0.0299
  879MPD2     H12894   2.489   3.236  17.386 -1.2054  0.4419  1.8606
  879MPD2    H112895   2.132   3.371  17.240  0.4409  0.4690  1.3200
  879MPD2    H212896   2.419   3.663  17.347 -0.4499  0.3049 -1.6954
  879MPD2    H312897   2.208   3.596  17.231  1.0232  0.7575 -0.7280
  879MPD2     N12898   2.261   3.162  17.310 -0.6977  0.8135 -0.4953
  879MPD2    H512899   2.175   3.138  17.260  0.3882  0.1497 -2.0590
  879MPD2    N112900   2.596   3.493  17.428  0.0270 -0.0311 -0.1482
  879MPD2    H712901   2.630   3.589  17.430  0.7841 -0.3344  1.2921
  880MPD2     C12902   4.013   0.841   0.973  0.2547  0.5505 -0.3632
  880MPD2    C112903   4.033   0.761   0.870 -0.2230  0.6972 -0.1321
  880MPD2    C212904   4.128   0.662   0.878  0.1930  0.5809  0.7786
  880MPD2    C312905   4.184   0.628   1.000  0.2186 -0.0197  0.0386
  880MPD2    C412906   4.159   0.710   1.107  0.5628 -0.0594 -0.6537
  880MPD2    C512907   4.062   0.807   1.094 -0.2930  0.1497 -0.2533
  880MPD2     H12908   4.155   0.604   0.791  0.8778  2.0121  0.0314
  880MPD2    H112909   4.193   0.687   1.207  0.9086  1.4812 -0.4244
  880MPD2    H212910   3.953   0.930   0.958 -2.4941 -1.1640  0.4665
  880MPD2    H312911   4.025   0.869   1.176  0.2360  1.7732 -1.2388
  880MPD2     N12912   4.266   0.516   1.001 -0.3793 -0.2782 -0.0726
  880MPD2    H512913   4.283   0.475   0.910  0.0845  0.9911 -0.5652
  880MPD2    N112914   3.980   0.798   0.745 -0.0343 -0.9355 -0.1917
  880MPD2    H712915   3.914   0.875   0.746  0.6808 -0.3256 -0.5975
  881MPD2     C12916   3.761   0.242  17.640  0.3820 -0.3742  0.2337
  881MPD2    C112917   3.751   0.367  17.586  0.1446 -0.3176 -0.1072
  881MPD2    C212918   3.743   0.478  17.674 -0.6874  0.1913  0.6209
  881MPD2    C312919   3.787   0.457   0.110  0.1197  0.5200  0.0435
  881MPD2    C412920   3.823   0.335   0.152 -0.2234  0.5175  0.0985
  881MPD2    C512921   3.807   0.225   0.076  0.1327 -0.5835 -0.3872
  881MPD2     H12922   3.717   0.576  17.637 -0.8269 -0.5367 -1.2640
  881MPD2    H112923   3.860   0.318   0.253  0.2154  0.3042 -0.0988
  881MPD2    H212924   3.763   0.159  17.569 -1.9765 -0.6159  0.4347
  881MPD2    H312925   3.829   0.122   0.103  2.4633  0.2777  1.0200
  881MPD2     N12926   3.796   0.563   0.204  0.3513  0.6009  0.3993
  881MPD2    H512927   3.816   0.526   0.296  1.3216 -1.6601 -0.7024
  881MPD2    N112928   3.730   0.373  17.447 -0.4659  0.0071  0.0783
  881MPD2    H712929   3.723   0.282  17.402  2.0886 -0.1433 -0.0203
  882MPD2     C12930   1.915   2.384  13.928 -0.5952  0.3253  0.0705
  882MPD2    C112931   1.886   2.407  14.065 -0.6311  0.1796  0.6576
  882MPD2    C212932   1.768   2.373  14.125  0.8448  0.7273 -0.1060
  882MPD2    C312933   1.684   2.285  14.054  0.2181 -0.5469 -0.0962
  882MPD2    C412934   1.715   2.247  13.924 -0.4754  0.1908  0.1930
  882MPD2    C512935   1.821   2.302  13.862  0.4666 -0.4284  0.1737
  882MPD2     H12936   1.753   2.377  14.232  1.0350  0.4596 -0.0702
  882MPD2    H112937   1.647   2.181  13.872  0.3948 -0.3780 -0.2283
  882MPD2    H212938   2.004   2.427  13.884 -1.1162  0.3948 -0.9042
  882MPD2    H312939   1.850   2.280  13.760  1.6276  0.7832  0.2391
  882MPD2     N12940   1.570   2.225  14.108  0.3417 -0.9237 -0.3801
  882MPD2    H512941   1.537   2.140  14.064 -0.4667 -0.9812  0.3194
  882MPD2    N112942   1.987   2.477  14.134  0.6589 -0.1961  0.1426
  882MPD2    H712943   2.078   2.485  14.089  0.3393  1.5435 -0.2068
  883MPD2     C12944   3.972   2.543  16.432 -0.5524  0.2540 -0.8335
  883MPD2    C112945   4.082   2.581  16.355 -0.5012  0.3719 -0.4833
  883MPD2    C212946   4.189   2.625  16.420 -0.3034  0.2221 -0.5031
  883MPD2    C312947   4.201   2.613  16.559 -0.0567 -0.1176 -0.8339
  883MPD2    C412948   4.105   2.556  16.632 -0.8039 -0.2435 -0.3806
  883MPD2    C512949   3.988   2.525  16.570 -0.2978 -1.0862 -0.2097
  883MPD2     H12950   4.273   2.659  16.360 -0.7282  0.1646 -1.1352
  883MPD2    H112951   4.114   2.549  16.739 -1.8187 -2.3902 -0.4291
  883MPD2    H212952   3.872   2.519  16.399 -0.3082 -0.8814 -0.7407
  883MPD2    H312953   3.903   2.496  16.631 -0.0474 -2.0223 -0.2944
  883MPD2     N12954   4.331   2.636  16.604 -0.3143 -0.2435  0.4154
  883MPD2    H512955   4.396   2.669  16.533 -1.9873  1.0792 -0.4798
  883MPD2    N112956   4.064   2.583  16.212 -0.2748 -0.2584  0.1466
  883MPD2    H712957   4.143   2.610  16.155  0.4706 -0.4286  1.0955
  884MPD2     C12958   0.993   3.184  15.855  0.1594  0.5750 -0.3541
  884MPD2    C112959   0.955   3.301  15.793 -0.6876  0.0381 -0.1961
  884MPD2    C212960   0.840   3.300  15.723 -0.1281  0.1261 -0.1424
  884MPD2    C312961   0.758   3.187  15.699  0.7854  0.2606  0.5842
  884MPD2    C412962   0.799   3.070  15.761 -0.3119 -0.6681  0.2482
  884MPD2    C512963   0.912   3.072  15.836 -0.0228  0.8121  0.1432
  884MPD2     H12964   0.806   3.382  15.661  2.3428 -0.1842 -1.8910
  884MPD2    H112965   0.744   2.980  15.736  1.5149 -1.6577 -0.1901
  884MPD2    H212966   1.089   3.169  15.901  2.4312  2.3429 -4.5444
  884MPD2    H312967   0.932   2.980  15.891 -0.8047 -0.5979 -1.9163
  884MPD2     N12968   0.628   3.204  15.637 -0.6763  0.0344 -0.2026
  884MPD2    H512969   0.611   3.294  15.594 -2.0977  0.0321  0.3320
  884MPD2    N112970   1.030   3.416  15.791 -0.2640 -0.5167  0.8925
  884MPD2    H712971   0.996   3.486  15.726  0.8385  0.5538  1.4614
  885MPD2     C12972   4.225   3.248   0.105  0.8398  0.0339  0.1368
  885MPD2    C112973   4.359   3.271   0.107 -0.4004 -0.8458  0.0121
  885MPD2    C212974   4.410   3.372   0.036 -0.3218 -0.4021 -0.0490
  885MPD2    C312975   4.326   3.452  17.648 -0.2546 -0.0471  0.4738
  885MPD2    C412976   4.188   3.424  17.647 -0.1959 -0.6950 -0.1438
  885MPD2    C512977   4.137   3.324   0.029 -0.2999 -0.7218  0.0233
  885MPD2     H12978   4.516   3.392   0.037  0.0513 -2.2998 -1.6036
  885MPD2    H112979   4.122   3.476  17.579 -0.8381 -1.8019 -0.3537
  885MPD2    H212980   4.188   3.157   0.152  1.2490  0.6514  1.6559
  885MPD2    H312981   4.030   3.308   0.017 -0.3936  0.5989 -0.8989
  885MPD2     N12982   4.380   3.551  17.559 -0.0885  0.3337  0.1369
  885MPD2    H512983   4.478   3.556  17.533 -0.2391  1.3394 -0.2773
  885MPD2    N112984   4.437   3.197   0.202  0.9302  0.0420  0.4159
  885MPD2    H712985   4.384   3.143   0.269 -1.4766  0.9472 -0.7695
  886MPD2     C12986   0.684   1.639  15.878  0.0797  0.4439 -0.3259
  886MPD2    C112987   0.726   1.650  15.745  0.2566  0.4856 -0.2417
  886MPD2    C212988   0.706   1.771  15.683  0.0610 -0.1844 -0.2011
  886MPD2    C312989   0.642   1.883  15.745 -0.5698 -0.6268  0.3373
  886MPD2    C412990   0.605   1.866  15.873 -0.3384  0.0734 -1.1714
  886MPD2    C512991   0.616   1.743  15.938  0.1456 -0.5626  0.5399
  886MPD2     H12992   0.749   1.788  15.585  1.3839  0.8083  0.5372
  886MPD2    H112993   0.568   1.957  15.918  1.6626  0.1988  0.2242
  886MPD2    H212994   0.695   1.543  15.928  0.0873  0.0750 -1.0348
  886MPD2    H312995   0.592   1.728  16.042  1.8551 -0.3046  0.9728
  886MPD2     N12996   0.622   2.004  15.681  0.1660 -0.4877  0.0079
  886MPD2    H512997   0.575   2.076  15.736 -0.1417 -1.4546  1.0019
  886MPD2    N112998   0.784   1.540  15.667  0.5307 -0.1533  0.6499
  886MPD2    H712999   0.800   1.555  15.567 -1.7647 -0.5411  0.2194
  887MPD2     C13000   1.373   1.638  15.303  0.6454  0.1494  0.1922
  887MPD2    C113001   1.306   1.639  15.423 -0.4388  0.0660  0.2276
  887MPD2    C213002   1.313   1.754  15.493 -0.6330 -0.0624  0.1089
  887MPD2    C313003   1.362   1.872  15.447 -0.1136  1.0441  0.4994
  887MPD2    C413004   1.419   1.876  15.321 -0.1855  0.0745 -0.8657
  887MPD2    C513005   1.431   1.756  15.263  0.7154 -0.4257 -0.0957
  887MPD2     H13006   1.256   1.763  15.585 -0.4169 -0.3030  0.2681
  887MPD2    H113007   1.457   1.966  15.273  0.8900  0.6310  1.0257
  887MPD2    H213008   1.369   1.552  15.237  0.7471 -0.0714  0.4730
  887MPD2    H313009   1.486   1.750  15.170 -1.8962  1.8795 -1.7930
  887MPD2     N13010   1.338   1.992  15.522  0.5825 -0.2394 -0.0987
  887MPD2    H513011   1.297   1.976  15.614  0.5052 -1.1854 -0.3075
  887MPD2    N113012   1.227   1.536  15.477  0.2918 -0.0742 -0.1569
  887MPD2    H713013   1.186   1.548  15.569 -0.1553 -4.0097  0.1798
  888MPD2     C13014   3.073   1.565  15.002  0.2814  0.2923  0.0671
  888MPD2    C113015   3.001   1.641  15.097 -0.7275  0.1333 -0.3723
  888MPD2    C213016   3.053   1.760  15.147 -0.3311 -1.0177  0.5070
  888MPD2    C313017   3.174   1.809  15.097  0.0748  0.1411  0.6920
  888MPD2    C413018   3.257   1.725  15.022 -0.9410  0.2313  0.6333
  888MPD2    C513019   3.200   1.610  14.973  1.2009 -0.2186 -0.8130
  888MPD2     H13020   3.000   1.824  15.216  1.6394  1.4229 -0.2431
  888MPD2    H113021   3.352   1.760  14.983 -0.7968  0.6744  1.3838
  888MPD2    H213022   3.054   1.463  14.969  0.0100  1.2188 -2.6068
  888MPD2    H313023   3.265   1.547  14.913 -0.3910 -2.6655  0.0339
  888MPD2     N13024   3.221   1.940  15.137 -0.1350  0.3970  0.4014
  888MPD2    H513025   3.164   1.986  15.207 -1.9009  1.3609 -1.6561
  888MPD2    N113026   2.882   1.598  15.150  0.6389 -0.1783  0.0790
  888MPD2    H713027   2.854   1.638  15.238 -0.6446  0.2218 -0.5035
  889MPD2     C13028   3.021   1.142  13.656 -0.5105  0.6676  0.5127
  889MPD2    C113029   3.014   1.212  13.540  0.4165  0.2923 -0.1538
  889MPD2    C213030   3.008   1.351  13.556  0.1771 -0.0391  1.1045
  889MPD2    C313031   3.024   1.411  13.687 -0.2143 -0.2752 -0.2756
  889MPD2    C413032   3.049   1.330  13.796 -0.1672 -0.3305 -0.6752
  889MPD2    C513033   3.050   1.199  13.781  0.1069 -0.0574 -0.1621
  889MPD2     H13034   2.997   1.414  13.468 -2.4339 -1.4361  0.4389
  889MPD2    H113035   3.070   1.371  13.895  1.4870  0.5496 -1.3780
  889MPD2    H213036   3.038   1.035  13.655 -0.4468  0.6849 -0.3352
  889MPD2    H313037   3.065   1.135  13.867  3.4232 -0.1188 -0.8143
  889MPD2     N13038   3.012   1.550  13.701 -0.6676  0.6106 -0.0052
  889MPD2    H513039   2.975   1.598  13.619  3.1233  0.0577 -2.0052
  889MPD2    N113040   2.973   1.138  13.423 -0.7693 -0.1347 -0.2702
  889MPD2    H713041   2.954   1.038  13.419 -0.5951 -0.2657  2.0511
  890MPD2     C13042   2.364   3.022  14.529  0.2258  0.5213  0.5915
  890MPD2    C113043   2.333   3.128  14.611  0.9675  0.6748 -0.3664
  890MPD2    C213044   2.310   3.104  14.744 -0.4118 -0.3621  0.1669
  890MPD2    C313045   2.311   2.975  14.792  0.4844 -0.1671  0.3110
  890MPD2    C413046   2.332   2.868  14.702 -0.3307 -0.2711  0.6719
  890MPD2    C513047   2.350   2.890  14.571 -0.6111 -0.3408  0.6280
  890MPD2     H13048   2.306   3.183  14.819 -0.4637  0.3594 -0.5901
  890MPD2    H113049   2.321   2.766  14.736  1.0108 -0.0576  1.7314
  890MPD2    H213050   2.376   3.052  14.426  0.8403 -0.6551  0.3232
  890MPD2    H313051   2.372   2.812  14.498 -1.3902 -0.2988  0.3413
  890MPD2     N13052   2.290   2.956  14.937 -0.9437  0.2541 -0.4426
  890MPD2    H513053   2.277   3.042  14.989  1.0311 -1.0520  2.1729
  890MPD2    N113054   2.341   3.252  14.554 -0.8791 -0.2469 -0.1427
  890MPD2    H713055   2.362   3.257  14.455 -0.7112 -3.6375 -0.2720
  891MPD2     C13056   0.015   1.874  16.554 -0.6989  0.5545  0.4001
  891MPD2    C113057   4.639   1.844  16.646 -0.0889  0.2967 -0.6554
  891MPD2    C213058   4.662   1.736  16.735  0.5447  0.3182  0.0362
  891MPD2    C313059   0.061   1.669  16.734  0.1318  0.1164 -0.3764
  891MPD2    C413060   0.159   1.707  16.640 -0.4331 -0.1639  0.4031
  891MPD2    C513061   0.139   1.812  16.551  0.1148 -0.1734 -0.6013
  891MPD2     H13062   4.581   1.713  16.803  1.0239  0.4343  0.6452
  891MPD2    H113063   0.260   1.668  16.628 -0.5888 -0.9154  1.4965
  891MPD2    H213064   4.721   1.949  16.478 -0.2688 -0.6780 -0.9195
  891MPD2    H313065   0.210   1.837  16.472  3.0242 -0.1544  2.0095
  891MPD2     N13066   0.080   1.576  16.830  0.3177 -0.0266 -0.0138
  891MPD2    H513067   0.007   1.564  16.901 -0.4414  0.7658 -0.6520
  891MPD2    N113068   4.524   1.922  16.639  0.3437 -0.0839 -0.4618
  891MPD2    H713069   4.521   1.990  16.564 -0.1381 -0.9797 -1.2593
  892MPD2     C13070   1.116   2.555  14.938 -0.1050  0.1537  0.3865
  892MPD2    C113071   1.014   2.528  14.847  0.1566  0.4798  0.2241
  892MPD2    C213072   1.039   2.461  14.725  0.0199  0.0652  0.3888
  892MPD2    C313073   1.165   2.410  14.710  0.0309  0.3154  0.0194
  892MPD2    C413074   1.261   2.431  14.809 -0.2031 -0.0718  0.1766
  892MPD2    C513075   1.236   2.503  14.918 -0.5684 -1.3361  0.1439
  892MPD2     H13076   0.961   2.442  14.653  1.1417  0.7763 -1.0255
  892MPD2    H113077   1.363   2.401  14.788 -0.1679  1.9750 -2.5619
  892MPD2    H213078   1.094   2.614  15.027 -0.0244  0.0173  0.4967
  892MPD2    H313079   1.319   2.515  14.987  0.1949 -0.4238 -0.9299
  892MPD2     N13080   1.207   2.338  14.600  0.3821  0.9203  0.0931
  892MPD2    H513081   1.306   2.318  14.611  0.1877 -0.3411 -0.4998
  892MPD2    N113082   0.882   2.575  14.883  0.2893  0.0413 -0.4807
  892MPD2    H713083   0.833   2.597  14.797 -2.9050 -2.3139  0.7529
  893MPD2     C13084   3.910   1.427   1.195 -0.2259 -0.2445 -0.3633
  893MPD2    C113085   3.868   1.484   1.311  0.2693  0.0639 -0.4147
  893MPD2    C213086   3.734   1.498   1.337  0.1375 -0.8392 -0.5902
  893MPD2    C313087   3.636   1.460   1.240  0.1010 -0.2772  0.0226
  893MPD2    C413088   3.686   1.402   1.123 -0.2838  0.5672 -0.0661
  893MPD2    C513089   3.822   1.385   1.102  0.0369 -0.2362  0.3797
  893MPD2     H13090   3.706   1.535   1.435 -1.2733  0.5471 -1.5186
  893MPD2    H113091   3.618   1.365   1.047 -1.1066 -0.0413  0.9673
  893MPD2    H213092   4.015   1.411   1.173 -0.2224 -1.7070  0.7155
  893MPD2    H313093   3.851   1.348   1.004 -0.1820  1.6329 -0.3998
  893MPD2     N13094   3.494   1.479   1.259  0.2578  0.2483 -0.0639
  893MPD2    H513095   3.434   1.429   1.195  2.1046 -0.4129 -1.2686
  893MPD2    N113096   3.970   1.522   1.403 -0.0050 -0.5230 -0.2109
  893MPD2    H713097   4.066   1.504   1.377  0.0122 -1.0633  0.2258
  894MPD2     C13098   1.346   0.002   1.755 -0.0545 -0.3407  0.0466
  894MPD2    C113099   1.377   4.623   1.663  0.1809  0.1617 -0.0012
  894MPD2    C213100   1.506   4.592   1.638 -0.8393 -0.2650  0.1120
  894MPD2    C313101   1.609   4.645   1.713  0.0930  0.3528 -0.4661
  894MPD2    C413102   1.577   0.030   1.800  1.1951 -0.0233 -0.2559
  894MPD2    C513103   1.447   0.069   1.815 -0.2490 -0.0468 -0.4945
  894MPD2     H13104   1.535   4.522   1.560  0.7676  2.2500 -1.5626
  894MPD2    H113105   1.652   0.075   1.864  0.4250  2.7541 -1.2830
  894MPD2    H213106   1.251   0.052   1.769 -0.6614 -1.5518  0.2031
  894MPD2    H313107   1.425   0.155   1.877  0.6515 -0.7562  0.7993
  894MPD2     N13108   1.740   4.606   1.693 -0.2263 -0.2208 -0.6001
  894MPD2    H513109   1.769   4.550   1.614  0.3926 -0.1834 -0.4009
  894MPD2    N113110   1.281   4.579   1.574 -0.2624 -0.9029  0.2467
  894MPD2    H713111   1.325   4.531   1.496 -2.2173 -0.4442 -1.1312
  895MPD2     C13112   4.693   2.148  13.543  0.2840 -0.0760 -1.0801
  895MPD2    C113113   4.667   2.058  13.441  0.0777  0.6455  0.4270
  895MPD2    C213114   0.047   2.012  13.360 -0.3317  0.1586  0.3018
  895MPD2    C313115   0.176   2.060  13.377  0.5228  0.0944 -0.7847
  895MPD2    C413116   0.200   2.140  13.488  0.0482  0.3719  0.0865
  895MPD2    C513117   0.103   2.181  13.573 -0.1079 -0.2829 -0.3837
  895MPD2     H13118   0.023   1.935  13.288  1.3011  0.7841 -0.9259
  895MPD2    H113119   0.300   2.176  13.508  1.4822 -3.1026 -0.7199
  895MPD2    H213120   4.615   2.195  13.601  0.6305  1.5323 -1.8966
  895MPD2    H313121   0.122   2.249  13.655 -0.2471 -0.1561 -0.4539
  895MPD2     N13122   0.281   2.006  13.294  0.3778  0.5709  0.4249
  895MPD2    H513123   0.379   2.014  13.318 -0.0298  2.5621  1.4696
  895MPD2    N113124   4.533   2.021  13.405  0.2841  0.1472  0.2455
  895MPD2    H713125   4.522   1.965  13.322 -0.5532 -1.5096  1.4741
  896MPD2     C13126   3.279   0.072   0.943 -0.4978  0.3520  0.6728
  896MPD2    C113127   3.265   0.088   1.084 -0.1848 -0.4901 -0.1081
  896MPD2    C213128   3.143   0.070   1.148  0.3043  0.5635  0.2937
  896MPD2    C313129   3.037   0.024   1.065 -0.9513 -0.4624 -0.1310
  896MPD2    C413130   3.052   0.001   0.935  0.0913 -0.1582 -0.4769
  896MPD2    C513131   3.168   0.033   0.873  0.2856 -0.5494 -0.0629
  896MPD2     H13132   3.132   0.067   1.255  0.6151 -2.6604  0.2220
  896MPD2    H113133   2.973   4.676   0.878 -0.2189  0.9796 -0.9816
  896MPD2    H213134   3.370   0.090   0.887 -0.3021  2.5883  1.6918
  896MPD2    H313135   3.170   0.018   0.766  0.1819 -0.5496 -0.0640
  896MPD2     N13136   2.918   4.712   1.133 -0.0980  0.1060  0.3955
  896MPD2    H513137   2.921   4.708   1.234 -1.7134  4.2983  0.6097
  896MPD2    N113138   3.383   0.129   1.151 -0.5245  0.3504  0.0316
  896MPD2    H713139   3.460   0.134   1.085  0.1541 -0.0314  0.7946
  897MPD2     C13140   4.055   1.889  10.720  0.3141 -0.3123 -0.0381
  897MPD2    C113141   3.983   1.869  10.603  0.7425 -0.5031 -0.5414
  897MPD2    C213142   3.869   1.794  10.619  0.4235  0.5775  0.4513
  897MPD2    C313143   3.840   1.727  10.736  0.4637 -0.6947 -0.4215
  897MPD2    C413144   3.918   1.748  10.848 -0.1309  0.9576 -0.6631
  897MPD2    C513145   4.017   1.830  10.840 -0.3042  0.2770  0.5871
  897MPD2     H13146   3.799   1.774  10.539 -1.9170 -0.2289  2.7066
  897MPD2    H113147   3.906   1.699  10.944 -0.2767  1.6600 -0.3235
  897MPD2    H213148   4.143   1.952  10.724 -0.7530  1.1731  0.2328
  897MPD2    H313149   4.076   1.852  10.928 -1.1082 -1.7336  1.6086
  897MPD2     N13150   3.745   1.618  10.726 -0.3000  0.3277 -0.1723
  897MPD2    H513151   3.724   1.592  10.630  1.1637  0.1242 -0.4388
  897MPD2    N113152   4.034   1.920  10.480  0.7703  0.3128 -0.0278
  897MPD2    H713153   4.116   1.977  10.496  0.9510 -0.0667  0.4051
  898MPD2     C13154   1.553   2.566   0.273  0.2907 -0.6111 -0.9654
  898MPD2    C113155   1.437   2.497   0.311 -0.4681  0.2082 -0.1505
  898MPD2    C213156   1.319   2.529   0.250 -0.3291  0.2205  0.1261
  898MPD2    C313157   1.313   2.622   0.148 -1.1080  0.6436  0.1890
  898MPD2    C413158   1.433   2.691   0.111 -0.5268  0.0185 -0.0372
  898MPD2    C513159   1.546   2.665   0.177  0.2091  0.2296  0.2480
  898MPD2     H13160   1.236   2.469   0.286  0.2945 -0.9386 -0.3321
  898MPD2    H113161   1.429   2.766   0.033 -0.5804 -0.3878 -0.4215
  898MPD2    H213162   1.649   2.540   0.315 -0.0561  0.3263  0.4466
  898MPD2    H313163   1.634   2.719   0.145 -0.8067  2.6024  1.4678
  898MPD2     N13164   1.188   2.628   0.077 -1.1416 -0.4260 -0.1829
  898MPD2    H513165   1.114   2.571   0.117  1.0071 -2.8807  0.2887
  898MPD2    N113166   1.436   2.402   0.412 -0.3666 -0.0921 -0.0527
  898MPD2    H713167   1.351   2.350   0.429 -0.1273 -0.4101  0.1675
  899MPD2     C13168   2.220   2.861   0.611  0.2766 -0.2820  0.1564
  899MPD2    C113169   2.129   2.950   0.551 -0.0801 -0.3078 -0.1926
  899MPD2    C213170   2.046   3.024   0.635  0.1618  0.0928  0.1443
  899MPD2    C313171   2.061   3.011   0.772  0.2359  0.2853 -0.4533
  899MPD2    C413172   2.153   2.928   0.831  0.0083 -0.3485 -0.1129
  899MPD2    C513173   2.219   2.844   0.750  0.7577  0.4843 -0.6904
  899MPD2     H13174   1.977   3.094   0.588  0.5294 -0.1978 -0.8391
  899MPD2    H113175   2.168   2.921   0.938 -0.1591 -0.2697 -0.0835
  899MPD2    H213176   2.294   2.797   0.565  1.3979  1.2191 -0.1632
  899MPD2    H313177   2.281   2.768   0.797  0.4827  0.6301 -0.0869
  899MPD2     N13178   1.994   3.090   0.869  0.2630 -0.0373  0.0118
  899MPD2    H513179   2.042   3.095   0.958  0.1561  0.7863  0.0223
  899MPD2    N113180   2.139   2.971   0.409 -0.3167  0.3644  0.2638
  899MPD2    H713181   2.224   2.930   0.372 -1.0975  0.0401 -1.1469
  900MPD2     C13182   1.592   0.094  12.119 -0.5632 -0.1578  0.4618
  900MPD2    C113183   1.506   4.705  12.099  0.5414  0.3242 -0.0599
  900MPD2    C213184   1.375   0.009  12.055 -0.8222  0.2244  0.4002
  900MPD2    C313185   1.329   0.140  12.054 -0.4302  0.5109 -0.1568
  900MPD2    C413186   1.408   0.247  12.076  0.0399 -0.6568  0.9809
  900MPD2    C513187   1.537   0.224  12.107  0.6778  0.0992 -0.0371
  900MPD2     H13188   1.309   4.654  12.016 -0.4779 -0.3435  0.9473
  900MPD2    H113189   1.378   0.351  12.076 -0.3490 -0.7629 -0.0490
  900MPD2    H213190   1.695   0.093  12.152 -0.1182 -0.1461 -0.9088
  900MPD2    H313191   1.596   0.312  12.127  1.0286 -0.7302  2.5876
  900MPD2     N13192   1.192   0.159  12.028 -0.2331  0.2717  0.0398
  900MPD2    H513193   1.143   0.077  11.993  1.6116 -0.1817 -1.4774
  900MPD2    N113194   1.559   4.575  12.106  0.1653  0.0997  0.4595
  900MPD2    H713195   1.660   4.563  12.115  0.3414  2.0247  1.0199
  901MPD2     C13196   1.399   3.598  12.547 -0.0972  0.3097  0.0037
  901MPD2    C113197   1.455   3.565  12.427 -0.2233  0.3516  0.5786
  901MPD2    C213198   1.498   3.671  12.360  0.2430  0.1678  0.2263
  901MPD2    C313199   1.488   3.802  12.402  0.5669 -0.2489 -0.1282
  901MPD2    C413200   1.434   3.830  12.528 -0.4647  0.0936 -0.2675
  901MPD2    C513201   1.393   3.719  12.600  0.1889 -0.1670  0.8212
  901MPD2     H13202   1.549   3.640  12.269 -1.8347 -1.7071 -0.2890
  901MPD2    H113203   1.440   3.927  12.578 -0.1734 -0.2839  0.4370
  901MPD2    H213204   1.359   3.514  12.604  2.2953 -1.7937 -1.3869
  901MPD2    H313205   1.342   3.727  12.695 -1.9161 -0.7762 -0.2628
  901MPD2     N13206   1.539   3.906  12.322  0.6566 -0.6211  0.4484
  901MPD2    H513207   1.602   3.874  12.249 -0.6030  1.1493 -1.4214
  901MPD2    N113208   1.469   3.431  12.385 -0.8146 -0.5038  0.3237
  901MPD2    H713209   1.438   3.367  12.457  0.6634 -0.8230  0.6901
  902MPD2     C13210   4.716   2.252  12.429 -0.3838  0.6886 -0.0032
  902MPD2    C113211   0.094   2.277  12.330  0.0440  0.2111  0.3406
  902MPD2    C213212   0.131   2.177  12.243 -0.0286 -0.3907  0.7637
  902MPD2    C313213   0.078   2.052  12.252 -0.1929 -0.8142  0.4841
  902MPD2    C413214   4.700   2.024  12.340  0.8000 -0.4234 -0.2630
  902MPD2    C513215   4.666   2.119  12.431  0.7302  0.3661  0.1172
  902MPD2     H13216   0.219   2.199  12.185 -1.0207 -1.7706 -1.2708
  902MPD2    H113217   4.656   1.925  12.350 -1.2710  0.7177  1.9104
  902MPD2    H213218   4.674   2.332  12.488 -1.1703  0.1302  0.1942
  902MPD2    H313219   4.598   2.087  12.509  0.8882 -1.6126 -0.5513
  902MPD2     N13220   0.125   1.942  12.170  0.0419  0.0023  0.4100
  902MPD2    H513221   0.082   1.853  12.192 -1.4641  0.9806  1.4210
  902MPD2    N113222   0.157   2.400  12.324 -0.1975  0.4290  0.1534
  902MPD2    H713223   0.113   2.471  12.381 -3.5968 -0.4368 -1.4227
  903MPD2     C13224   0.588   2.075  11.622  0.8364  0.0580 -0.6842
  903MPD2    C113225   0.480   2.067  11.708 -0.5000 -0.1399  0.1825
  903MPD2    C213226   0.396   2.174  11.710 -0.2549 -0.9226 -0.0703
  903MPD2    C313227   0.395   2.273  11.613  0.1743  0.0026  0.2526
  903MPD2    C413228   0.504   2.279  11.531  0.0628 -0.4302  0.5780
  903MPD2    C513229   0.599   2.179  11.535 -0.5434  0.0830 -0.2715
  903MPD2     H13230   0.314   2.163  11.781  0.0381 -0.5730  0.3207
  903MPD2    H113231   0.512   2.364  11.464  2.0868  0.3687  1.8660
  903MPD2    H213232   0.659   1.994  11.618 -0.3881 -0.9881 -1.3495
  903MPD2    H313233   0.684   2.190  11.468  0.4117 -4.6976  0.1773
  903MPD2     N13234   0.287   2.361  11.620  0.2665  0.2780  0.3352
  903MPD2    H513235   0.217   2.335  11.688 -0.3366  1.8696  0.3205
  903MPD2    N113236   0.471   1.968  11.804  0.9455 -0.3795  0.2201
  903MPD2    H713237   0.405   1.987  11.879 -2.0079 -0.2821 -2.4090
  904MPD2     C13238   0.366   1.814  14.047  0.1593  0.0116 -0.1454
  904MPD2    C113239   0.380   1.792  13.911 -0.1699 -0.6461  0.9633
  904MPD2    C213240   0.504   1.800  13.855 -0.2174  0.6959  0.0604
  904MPD2    C313241   0.611   1.839  13.933 -0.7713  0.4294  0.2205
  904MPD2    C413242   0.593   1.862  14.070 -0.4683  0.5605 -0.3185
  904MPD2    C513243   0.471   1.844  14.124  0.4733 -0.6469  0.1080
  904MPD2     H13244   0.523   1.805  13.749 -0.4533  0.5364  0.0122
  904MPD2    H113245   0.666   1.893  14.144 -1.1244 -0.5730  0.7924
  904MPD2    H213246   0.268   1.808  14.093 -0.0858  1.9561 -0.4168
  904MPD2    H313247   0.459   1.867  14.229 -0.4931 -1.0375  0.0855
  904MPD2     N13248   0.736   1.856  13.871  0.1595  0.3913  0.4193
  904MPD2    H513249   0.745   1.832  13.773 -0.2814 -1.3121  0.7968
  904MPD2    N113250   0.258   1.759  13.834  0.2208 -0.3120  0.2249
  904MPD2    H713251   0.171   1.761  13.886 -0.4131  2.7837 -0.9538
  905MPD2     C13252   4.649   1.401  13.063 -0.6474  0.3401  0.0023
  905MPD2    C113253   4.703   1.524  13.097 -0.2901 -0.2305 -0.7724
  905MPD2    C213254   0.061   1.597  13.013 -0.7000 -0.1512  0.0639
  905MPD2    C313255   0.088   1.550  12.889 -0.2261 -0.2069  0.2875
  905MPD2    C413256   0.037   1.429  12.854 -0.4802  0.2062  1.0389
  905MPD2    C513257   4.687   1.351  12.941 -0.7927  0.0253  0.1162
  905MPD2     H13258   0.084   1.699  13.041 -1.4628 -0.6007  2.3651
  905MPD2    H113259   0.063   1.379  12.762  1.1051  0.7048  1.2010
  905MPD2    H213260   4.592   1.338  13.130 -0.1136 -0.7585 -0.5747
  905MPD2    H313261   4.651   1.254  12.909  2.0334 -1.4835  1.5512
  905MPD2     N13262   0.175   1.590  12.792  0.5962  0.3723  0.8280
  905MPD2    H513263   0.169   1.532  12.709  0.3774  0.4976  0.7549
  905MPD2    N113264   4.693   1.569  13.231 -0.5853  0.0404 -0.2033
  905MPD2    H713265   4.625   1.508  13.276  0.5525 -1.9054 -1.1083
  906MPD2     C13266   2.680   1.663  11.116  0.0718  0.4399 -0.5971
  906MPD2    C113267   2.577   1.581  11.079 -0.3657  0.7868 -0.8121
  906MPD2    C213268   2.466   1.571  11.160  0.2131  0.5000  0.2955
  906MPD2    C313269   2.471   1.625  11.287  0.2784  0.8326  0.0747
  906MPD2    C413270   2.569   1.709  11.323 -0.1701 -0.0176 -0.3008
  906MPD2    C513271   2.669   1.739  11.230 -0.3455 -0.9234 -0.0964
  906MPD2     H13272   2.383   1.509  11.127  0.3325  1.1272 -1.2047
  906MPD2    H113273   2.570   1.762  11.418 -1.5684 -0.5792  0.0278
  906MPD2    H213274   2.776   1.651  11.068  1.3529  1.3545  1.7224
  906MPD2    H313275   2.753   1.799  11.265 -1.7328  1.9630 -1.7111
  906MPD2     N13276   2.375   1.601  11.388  0.3937  0.7689  0.5119
  906MPD2    H513277   2.363   1.666  11.465  0.7231  3.0452 -1.3560
  906MPD2    N113278   2.586   1.505  10.960 -0.6393 -0.5661  0.1730
  906MPD2    H713279   2.500   1.453  10.943 -0.3385 -1.1193  0.3276
  907MPD2     C13280   0.972   0.304  15.300  0.4815  0.7588  0.0850
  907MPD2    C113281   1.008   0.178  15.310  0.6932 -0.2064 -0.0417
  907MPD2    C213282   1.028   0.123  15.434 -0.2580 -0.2879  0.5090
  907MPD2    C313283   0.997   0.185  15.551  0.7911 -0.4101 -0.4249
  907MPD2    C413284   0.957   0.318  15.540 -0.3827  0.1948  0.0338
  907MPD2    C513285   0.963   0.373  15.418  0.1255 -0.2240 -0.4530
  907MPD2     H13286   1.059   0.019  15.434 -0.6707 -0.4125  1.1798
  907MPD2    H113287   0.934   0.382  15.625  1.0157  2.4250 -1.2672
  907MPD2    H213288   0.980   0.356  15.205 -0.0315 -0.1330 -0.4393
  907MPD2    H313289   0.931   0.476  15.408 -2.4979 -0.6083  3.8998
  907MPD2     N13290   1.005   0.113  15.673 -0.5497  0.8054  0.4615
  907MPD2    H513291   1.032   0.017  15.656  0.0321  0.8000  1.3914
  907MPD2    N113292   1.034   0.096  15.202 -0.4529  0.4121  0.1162
  907MPD2    H713293   1.064   0.006  15.239 -0.3146 -0.1369 -1.3276
  908MPD2     C13294   3.821   1.725   9.493  0.4561 -0.2139  0.0476
  908MPD2    C113295   3.838   1.623   9.584 -0.2023  0.9249 -0.6952
  908MPD2    C213296   3.894   1.657   9.708 -0.0127 -0.2189  0.2707
  908MPD2    C313297   3.919   1.791   9.740 -0.6034 -0.7615  1.0930
  908MPD2    C413298   3.871   1.890   9.660 -0.1754  0.0572  0.0113
  908MPD2    C513299   3.834   1.853   9.533  0.5792 -0.1393  0.2108
  908MPD2     H13300   3.921   1.580   9.780 -0.2841 -0.3444  0.2380
  908MPD2    H113301   3.877   1.996   9.680 -1.7073 -0.2576  2.0969
  908MPD2    H213302   3.798   1.707   9.389  1.0353 -2.7201  0.3423
  908MPD2    H313303   3.815   1.937   9.467  0.1014 -1.1420 -0.9317
  908MPD2     N13304   3.982   1.821   9.861 -0.1398 -0.5799  0.0135
  908MPD2    H513305   3.984   1.748   9.932  1.2274  1.0101  1.6025
  908MPD2    N113306   3.816   1.491   9.537 -0.1650 -0.2339  0.2953
  908MPD2    H713307   3.790   1.477   9.440  0.9915  2.2483 -0.3671
  909MPD2     C13308   4.300   4.152  11.917  0.0228  0.2647 -0.3393
  909MPD2    C113309   4.203   4.226  11.853 -0.0805 -0.0202 -0.0852
  909MPD2    C213310   4.096   4.274  11.925 -0.2599 -0.4445  0.2837
  909MPD2    C313311   4.081   4.237  12.054 -0.4131  0.9165 -0.8346
  909MPD2    C413312   4.185   4.177  12.119 -0.0961  0.0883  0.3058
  909MPD2    C513313   4.286   4.130  12.045  0.0036  0.7220 -0.0453
  909MPD2     H13314   4.017   4.334  11.880  1.2413 -0.4962 -2.4126
  909MPD2    H113315   4.193   4.145  12.222  1.9875 -0.8250 -0.1252
  909MPD2    H213316   4.388   4.113  11.866  0.4616  0.2993  0.3930
  909MPD2    H313317   4.363   4.074  12.097 -0.0952  1.1440  0.5570
  909MPD2     N13318   3.965   4.279  12.124 -0.3854  0.6338 -0.2658
  909MPD2    H513319   3.895   4.330  12.072 -0.3163 -0.1141 -1.0948
  909MPD2    N113320   4.206   4.253  11.713  0.4852  0.5047  0.4020
  909MPD2    H713321   4.129   4.304  11.672  0.1141  0.5420  1.1353
  910MPD2     C13322   0.262   0.891  16.129 -0.0203 -0.2695 -0.3744
  910MPD2    C113323   0.358   0.855  16.035  0.1254 -0.4777  0.5882
  910MPD2    C213324   0.359   0.933  15.920  0.0298 -0.5262  0.5508
  910MPD2    C313325   0.284   1.046  15.907 -0.1297 -0.2834 -0.6420
  910MPD2    C413326   0.223   1.094  16.020  0.5396 -0.9251 -0.2847
  910MPD2    C513327   0.202   1.016  16.126 -0.0511 -0.2512  0.1486
  910MPD2     H13328   0.416   0.895  15.836  2.6139  2.2913  1.0018
  910MPD2    H113329   0.174   1.191  16.017  2.6539  0.1267 -0.1579
  910MPD2    H213330   0.260   0.839  16.224 -1.7307  0.0758 -0.2187
  910MPD2    H313331   0.138   1.050  16.207  0.1364 -1.8292  0.9636
  910MPD2     N13332   0.266   1.128  15.792  0.3620 -0.4919 -0.3096
  910MPD2    H513333   0.192   1.196  15.789  0.2451 -0.5948  0.2788
  910MPD2    N113334   0.436   0.740  16.050 -0.0574  0.4213 -0.1625
  910MPD2    H713335   0.513   0.736  15.984  0.1297  0.7609  0.0326
  911MPD2     C13336   2.797   1.499  16.208 -0.1546  0.6707  0.0565
  911MPD2    C113337   2.860   1.621  16.200 -0.1534  0.1726 -0.2981
  911MPD2    C213338   2.791   1.728  16.143 -0.0056 -0.3991 -0.1834
  911MPD2    C313339   2.668   1.701  16.091  0.7064  0.8223  0.2139
  911MPD2    C413340   2.595   1.587  16.118 -0.7094  0.1732  0.3511
  911MPD2    C513341   2.667   1.488  16.167 -0.0168 -0.1990  0.0142
  911MPD2     H13342   2.836   1.823  16.114  1.9741 -1.1490  0.4475
  911MPD2    H113343   2.494   1.571  16.082 -0.0315  0.4797 -1.6937
  911MPD2    H213344   2.836   1.412  16.259 -0.2709  0.0697 -0.8667
  911MPD2    H313345   2.623   1.390  16.176  0.1333  0.0216  3.2293
  911MPD2     N13346   2.605   1.789  15.997 -0.1855 -0.1188  0.8744
  911MPD2    H513347   2.521   1.753  15.955  0.5597 -0.2057 -0.5175
  911MPD2    N113348   2.992   1.637  16.256 -0.3971  0.1092  0.0899
  911MPD2    H713349   3.033   1.546  16.277  0.0129  0.4185  0.6287
  912MPD2     C13350   2.160   1.479  15.489 -0.3367 -0.1801 -0.4464
  912MPD2    C113351   2.234   1.499  15.602  0.2688  1.3512 -0.2867
  912MPD2    C213352   2.215   1.417  15.710  0.7721 -0.2930 -0.3859
  912MPD2    C313353   2.123   1.310  15.712 -0.4723 -0.2632 -0.5314
  912MPD2    C413354   2.060   1.285  15.596 -0.2094  0.4019  0.4909
  912MPD2    C513355   2.073   1.370  15.493 -0.2489 -0.0683  0.1851
  912MPD2     H13356   2.278   1.432  15.797 -2.0385 -0.5702  1.6963
  912MPD2    H113357   1.993   1.201  15.587  1.6332 -0.8811 -1.2580
  912MPD2    H213358   2.170   1.531  15.394  1.2514 -1.8978 -1.2343
  912MPD2    H313359   2.006   1.352  15.410  0.9088 -1.0133 -0.5493
  912MPD2     N13360   2.113   1.234  15.825 -0.1779  0.1342  0.0184
  912MPD2    H513361   2.169   1.272  15.900 -0.8327 -2.8058  1.9817
  912MPD2    N113362   2.331   1.600  15.595  0.2272 -0.6476  0.8239
  912MPD2    H713363   2.343   1.634  15.500  1.3824  0.2573  1.2881
  913MPD2     C13364   3.830   2.446  10.045  0.2927 -0.0130  0.1879
  913MPD2    C113365   3.942   2.520  10.063  0.9001  0.3178 -0.3857
  913MPD2    C213366   4.055   2.506   9.987 -0.1393  0.2215  0.5355
  913MPD2    C313367   4.063   2.404   9.889 -0.1268  0.0102  0.8213
  913MPD2    C413368   3.956   2.321   9.877  0.3672  0.1671 -0.1900
  913MPD2    C513369   3.833   2.351   9.940 -0.4585 -0.1295 -0.0275
  913MPD2     H13370   4.136   2.575  10.009 -0.1336  0.1313  0.8034
  913MPD2    H113371   3.962   2.240   9.805  1.1403 -1.5349  1.7924
  913MPD2    H213372   3.734   2.458  10.093  0.3470  1.4710 -0.0887
  913MPD2    H313373   3.751   2.282   9.925 -0.8984  0.3246  0.3316
  913MPD2     N13374   4.169   2.370   9.810 -0.2258 -0.2438  0.2061
  913MPD2    H513375   4.155   2.300   9.737 -3.2314  0.2194  0.3124
  913MPD2    N113376   3.924   2.620  10.149  0.0145 -0.5161  0.4531
  913MPD2    H713377   3.840   2.619  10.206  1.8373  0.3794  3.1790
  914MPD2     C13378   1.336   3.001  11.523  0.4978  0.3584  0.4247
  914MPD2    C113379   1.436   3.092  11.547 -0.1586 -1.4699  0.3910
  914MPD2    C213380   1.492   3.102  11.672  0.5232  0.5616  0.6031
  914MPD2    C313381   1.460   3.024  11.781  0.2950  0.1865 -0.4818
  914MPD2    C413382   1.355   2.931  11.759  0.2826  0.4094  0.1050
  914MPD2    C513383   1.299   2.920  11.629 -0.4850  0.6652  0.1370
  914MPD2     H13384   1.563   3.184  11.676  3.1603 -1.6001 -1.7790
  914MPD2    H113385   1.317   2.857  11.829  1.6013  0.0201  0.4091
  914MPD2    H213386   1.291   2.985  11.426  0.9952  1.4321  0.0090
  914MPD2    H313387   1.217   2.851  11.609  0.0766 -0.4139  1.6107
  914MPD2     N13388   1.524   3.051  11.907 -0.4967  0.2706  0.5295
  914MPD2    H513389   1.600   3.118  11.913  1.1918 -1.6765  0.9351
  914MPD2    N113390   1.489   3.178  11.445 -0.0537  0.0575  0.2089
  914MPD2    H713391   1.576   3.222  11.473  0.3385  0.5292 -1.7568
  915MPD2     C13392   4.164   3.100  15.783  0.5342  0.0160 -0.0565
  915MPD2    C113393   4.051   3.170  15.800 -0.0569 -0.0219 -0.0054
  915MPD2    C213394   4.027   3.245  15.914 -0.3115 -0.2217  0.3710
  915MPD2    C313395   4.126   3.255  16.011  0.5038  0.2110 -0.0459
  915MPD2    C413396   4.250   3.193  15.991  0.7160 -0.1487 -0.0190
  915MPD2    C513397   4.259   3.117  15.873 -0.2750 -0.5328 -0.1443
  915MPD2     H13398   3.935   3.302  15.922  1.0306  2.1015 -0.7026
  915MPD2    H113399   4.335   3.208  16.056  0.5389  0.0963  0.1561
  915MPD2    H213400   4.170   3.050  15.687 -0.7790 -1.6896  0.7434
  915MPD2    H313401   4.353   3.071  15.847  0.8001  0.9408  1.1453
  915MPD2     N13402   4.104   3.337  16.126 -0.2780  0.3348  0.0380
  915MPD2    H513403   4.014   3.384  16.135 -0.1029  0.7370 -0.3312
  915MPD2    N113404   3.955   3.148  15.697 -0.2414  0.1037  0.6246
  915MPD2    H713405   3.999   3.116  15.612 -0.9478 -1.6701  0.9151
  916MPD2     C13406   1.570   1.398  15.638 -0.9118 -0.5604 -0.7236
  916MPD2    C113407   1.653   1.340  15.733 -0.3978  0.3037 -0.3657
  916MPD2    C213408   1.732   1.234  15.693 -0.5579 -0.4955 -0.6772
  916MPD2    C313409   1.712   1.170  15.574  0.1297  0.8350  0.3700
  916MPD2    C413410   1.620   1.223  15.481  0.0010  0.1255 -0.0543
  916MPD2    C513411   1.556   1.336  15.512 -0.0429 -0.2123 -0.4709
  916MPD2     H13412   1.809   1.197  15.760 -0.2483  1.4042  0.0114
  916MPD2    H113413   1.608   1.172  15.386 -0.6268  0.5115 -0.1841
  916MPD2    H213414   1.522   1.493  15.659  0.0357  0.0197 -1.1164
  916MPD2    H313415   1.494   1.380  15.435 -1.2459 -1.6974 -0.3574
  916MPD2     N13416   1.784   1.045  15.551  0.2943 -0.6958 -0.0530
  916MPD2    H513417   1.860   1.026  15.616 -0.1436 -0.8054  0.4290
  916MPD2    N113418   1.675   1.410  15.852  0.4313 -0.3582  0.2204
  916MPD2    H713419   1.644   1.505  15.867 -0.0107 -0.6739  1.3514
  917MPD2     C13420   2.765   3.650  10.912  0.1492  0.5597  0.1429
  917MPD2    C113421   2.818   3.658  11.034  0.0401 -0.2430 -0.4235
  917MPD2    C213422   2.956   3.682  11.042  0.1931 -0.6796  0.7833
  917MPD2    C313423   3.034   3.696  10.931 -0.7000  0.9312 -0.3368
  917MPD2    C413424   2.978   3.684  10.808  0.4151 -0.3854 -0.2287
  917MPD2    C513425   2.843   3.654  10.799 -0.4341 -0.1819 -0.3165
  917MPD2     H13426   3.007   3.682  11.137  2.2277 -1.5495 -0.3234
  917MPD2    H113427   3.034   3.704  10.717  3.0234  0.2687  1.5066
  917MPD2    H213428   2.657   3.645  10.902  0.2086  0.3219 -0.4175
  917MPD2    H313429   2.794   3.649  10.702 -1.6672  1.8902  0.1939
  917MPD2     N13430   3.161   3.756  10.934  0.3086  0.5213  0.4202
  917MPD2    H513431   3.204   3.779  10.845 -0.5427  2.0832  0.4117
  917MPD2    N113432   2.727   3.643  11.146  0.6089  0.1303 -0.1712
  917MPD2    H713433   2.631   3.626  11.118  0.3905 -2.0612  1.9315
  918MPD2     C13434   2.819   3.322  12.097 -0.0587 -0.1891  0.1026
  918MPD2    C113435   2.882   3.437  12.063  0.4838  0.2259 -0.8212
  918MPD2    C213436   2.835   3.511  11.956  0.0449  0.6026 -0.2639
  918MPD2    C313437   2.726   3.469  11.881 -0.2523 -0.4532 -0.9859
  918MPD2    C413438   2.662   3.353  11.912  0.0798  0.1216 -0.2479
  918MPD2    C513439   2.703   3.292  12.021  0.1475  0.1427  0.0373
  918MPD2     H13440   2.888   3.604  11.940  0.6604 -0.0475 -1.9687
  918MPD2    H113441   2.578   3.319  11.852  0.5001  0.8694 -1.2707
  918MPD2    H213442   2.840   3.266  12.187  1.3794 -0.8195 -0.6167
  918MPD2    H313443   2.646   3.204  12.049  0.0259  0.9362  2.2253
  918MPD2     N13444   2.683   3.548  11.769  0.0390  0.3565 -0.4293
  918MPD2    H513445   2.734   3.634  11.753 -0.2715  0.4496 -0.9305
  918MPD2    N113446   2.996   3.488  12.132 -0.1273 -0.1567  0.0996
  918MPD2    H713447   3.045   3.570  12.096 -1.0888  0.5981  0.5097
  919MPD2     C13448   3.307   3.032  11.236  0.4359 -0.1480  0.0300
  919MPD2    C113449   3.397   2.929  11.232  0.3254 -0.2490  0.3940
  919MPD2    C213450   3.463   2.901  11.111 -1.0409  0.8772 -0.2189
  919MPD2    C313451   3.447   2.975  10.996 -0.3738  0.5111  0.3526
  919MPD2    C413452   3.359   3.088  11.010 -0.4200  0.0169  0.6172
  919MPD2    C513453   3.285   3.110  11.126 -0.4634 -0.3971 -0.1535
  919MPD2     H13454   3.527   2.814  11.104  0.8651  2.3570 -1.3475
  919MPD2    H113455   3.351   3.157  10.927  0.3106 -1.0207 -0.3212
  919MPD2    H213456   3.250   3.048  11.326  2.1157 -2.5690  1.5213
  919MPD2    H313457   3.218   3.192  11.149  0.4017  0.4955 -0.8337
  919MPD2     N13458   3.503   2.951  10.868  0.6577  0.0262 -0.3439
  919MPD2    H513459   3.469   3.000  10.786 -1.6246 -1.0409 -0.0329
  919MPD2    N113460   3.439   2.853  11.343 -0.2751  0.2785 -0.0273
  919MPD2    H713461   3.505   2.780  11.319  0.3421  0.8183  0.0451
  920MPD2     C13462   3.652   3.317   9.974  0.0549  0.5807 -0.0532
  920MPD2    C113463   3.568   3.209   9.956 -0.2055 -0.1367 -0.0386
  920MPD2    C213464   3.571   3.114  10.061 -0.4694 -0.4296 -0.8133
  920MPD2    C313465   3.642   3.134  10.181 -0.6243 -0.0198 -0.1209
  920MPD2    C413466   3.728   3.243  10.190  0.4061 -0.3507  0.2003
  920MPD2    C513467   3.730   3.335  10.084 -0.5498 -0.5509  1.4235
  920MPD2     H13468   3.508   3.028  10.042  1.4840 -2.2369  0.8413
  920MPD2    H113469   3.806   3.255  10.265 -0.4636  0.8251  0.9077
  920MPD2    H213470   3.680   3.386   9.895 -0.4037  0.5477 -0.2417
  920MPD2    H313471   3.798   3.419  10.094 -0.5730 -0.5787  1.8186
  920MPD2     N13472   3.632   3.038  10.286 -0.8591  0.1842  0.2553
  920MPD2    H513473   3.577   2.958  10.255 -1.5771  0.7727  0.0142
  920MPD2    N113474   3.488   3.177   9.843  0.2992  0.2867  0.2017
  920MPD2    H713475   3.442   3.087   9.830  2.0426 -0.6064  0.2015
  921MPD2     C13476   3.628   2.220  16.764  0.0119 -0.2948 -0.2042
  921MPD2    C113477   3.702   2.115  16.697 -0.1606  0.3988  0.7365
  921MPD2    C213478   3.638   2.020  16.627 -0.5196  0.6640 -0.1072
  921MPD2    C313479   3.504   2.025  16.607  0.3326  0.6008  0.0529
  921MPD2    C413480   3.428   2.122  16.672 -0.0959  0.1335 -0.4817
  921MPD2    C513481   3.487   2.227  16.747 -0.6092 -0.2163 -0.1107
  921MPD2     H13482   3.695   1.944  16.575 -2.6885 -1.1445  0.1199
  921MPD2    H113483   3.320   2.117  16.658 -0.4753  2.1324  1.7100
  921MPD2    H213484   3.688   2.290  16.821  3.3021 -0.0011 -3.9681
  921MPD2    H313485   3.429   2.303  16.798  0.4497  1.4337 -1.3762
  921MPD2     N13486   3.439   1.932  16.514 -0.2096 -0.6516 -0.2561
  921MPD2    H513487   3.339   1.942  16.501  0.1332 -1.2210 -3.3592
  921MPD2    N113488   3.844   2.116  16.710  0.1468 -0.6259 -0.1816
  921MPD2    H713489   3.890   2.199  16.747 -0.8054 -0.7386  1.2325
  922MPD2     C13490   0.706   4.365  17.387 -0.5396  0.6462  0.0530
  922MPD2    C113491   0.642   4.410  17.497  0.0800  0.4179  0.1377
  922MPD2    C213492   0.501   4.395  17.497  0.4423  1.1009  0.4116
  922MPD2    C313493   0.430   4.344  17.388 -0.6494  0.0392 -0.8250
  922MPD2    C413494   0.497   4.313  17.274  0.2702  0.5780  0.3385
  922MPD2    C513495   0.634   4.328  17.273  0.4065 -0.3248  0.2403
  922MPD2     H13496   0.450   4.407  17.593 -2.1379 -1.3740 -0.6507
  922MPD2    H113497   0.459   4.243  17.201  0.3356  1.6077 -0.6771
  922MPD2    H213498   0.814   4.365  17.380 -0.3701 -0.9244  2.4209
  922MPD2    H313499   0.693   4.297  17.188  2.4148  0.9777  1.1636
  922MPD2     N13500   0.291   4.313  17.390 -0.2223  0.2213 -0.5096
  922MPD2    H513501   0.261   4.256  17.312  0.2180  0.0068 -0.5199
  922MPD2    N113502   0.693   4.491  17.598 -0.0565 -0.0176  0.1375
  922MPD2    H713503   0.621   4.511  17.667  0.9074  3.7370  0.0916
  923MPD2     C13504   2.399   1.420   9.124 -0.3588  0.3104  0.0212
  923MPD2    C113505   2.360   1.499   9.230 -0.1249 -0.2799  0.2005
  923MPD2    C213506   2.368   1.442   9.351 -0.1723 -0.2684  0.6149
  923MPD2    C313507   2.391   1.314   9.379  0.6517 -0.4175  0.1336
  923MPD2    C413508   2.428   1.230   9.276  0.1998  0.4978  0.2687
  923MPD2    C513509   2.426   1.287   9.148 -0.3798 -0.1377  0.2701
  923MPD2     H13510   2.357   1.505   9.438 -1.7586 -0.2069  0.3672
  923MPD2    H113511   2.453   1.125   9.286  1.3351  0.7298 -0.1115
  923MPD2    H213512   2.403   1.464   9.024 -1.7200  3.5051  1.3611
  923MPD2    H313513   2.450   1.231   9.058  1.3531  0.1263  0.5582
  923MPD2     N13514   2.386   1.273   9.519 -0.3036 -0.3833  0.2523
  923MPD2    H513515   2.386   1.344   9.591 -2.2678  1.9391 -2.0739
  923MPD2    N113516   2.319   1.631   9.207  0.6563 -0.2218  0.0108
  923MPD2    H713517   2.339   1.669   9.115 -1.2951 -1.3675 -0.8723
  924MPD2     C13518   1.063   4.048  16.215 -0.1316  0.0933  0.8540
  924MPD2    C113519   0.979   4.113  16.123  0.3069  0.4207 -0.5177
  924MPD2    C213520   1.028   4.227  16.065 -0.1268 -0.0638  0.2539
  924MPD2    C313521   1.151   4.277  16.097  0.5360  0.8137 -0.2803
  924MPD2    C413522   1.217   4.225  16.200  1.0974  0.4563 -0.4523
  924MPD2    C513523   1.183   4.107  16.259 -0.4937 -0.5151 -0.4724
  924MPD2     H13524   0.962   4.285  16.003  2.6162  1.5423 -1.1550
  924MPD2    H113525   1.313   4.268  16.228  0.9757 -1.2331  2.4779
  924MPD2    H213526   1.035   3.947  16.244  0.2614 -0.3660 -0.3582
  924MPD2    H313527   1.246   4.055  16.331  1.3907 -0.0280 -1.7815
  924MPD2     N13528   1.199   4.397  16.045 -0.5474  0.9637 -0.6317
  924MPD2    H513529   1.277   4.445  16.090 -0.8671 -1.0603  2.1090
  924MPD2    N113530   0.851   4.060  16.092  0.3001  0.1213 -0.7095
  924MPD2    H713531   0.806   3.988  16.147  2.8641 -1.1194 -0.2557
  925MPD2     C13532   0.267   2.152  14.722  0.1338  0.3354 -0.9442
  925MPD2    C113533   0.138   2.199  14.691 -0.1410 -0.9809 -0.0244
  925MPD2    C213534   0.052   2.230  14.804  0.5931  0.3099 -0.0338
  925MPD2    C313535   0.104   2.213  14.940 -0.5001 -0.3327  0.8959
  925MPD2    C413536   0.234   2.157  14.963 -0.5738  0.4341 -0.0053
  925MPD2    C513537   0.305   2.136  14.849 -0.5859  0.3193  0.7017
  925MPD2     H13538   4.670   2.260  14.810  0.5278 -0.3034  1.8105
  925MPD2    H113539   0.299   2.150  15.049  0.1615 -3.1132 -0.8368
  925MPD2    H213540   0.339   2.117  14.649  0.8386 -1.5464  0.6360
  925MPD2    H313541   0.409   2.106  14.859 -0.9700 -1.4284 -0.7154
  925MPD2     N13542   0.020   2.245  15.051 -0.2530 -0.4275 -0.7198
  925MPD2    H513543   0.047   2.209  15.142 -0.5502  0.5743 -0.2330
  925MPD2    N113544   0.091   2.211  14.559  0.1289 -0.4739  0.5781
  925MPD2    H713545   4.716   2.240  14.547  0.8229  1.5119 -0.2180
  926MPD2     C13546   4.323   1.170  12.812 -1.1055 -0.4042  0.4022
  926MPD2    C113547   4.187   1.158  12.789 -0.8584  0.2923 -0.3173
  926MPD2    C213548   4.128   1.201  12.671  0.1511 -0.1126 -0.0429
  926MPD2    C313549   4.205   1.252  12.566 -0.0789  0.3055 -0.8403
  926MPD2    C413550   4.343   1.253  12.590  0.1945 -0.2268 -0.2789
  926MPD2    C513551   4.395   1.225  12.710 -0.6160  1.3265  0.6256
  926MPD2     H13552   4.020   1.198  12.661  0.0887  0.3813  0.4788
  926MPD2    H113553   4.410   1.296  12.515 -2.9100  1.3672 -2.1303
  926MPD2    H213554   4.373   1.143  12.904  1.4379  1.5797 -0.4273
  926MPD2    H313555   4.499   1.251  12.726 -0.8308  0.5961  3.2659
  926MPD2     N13556   4.154   1.296  12.442 -0.2343 -0.1221 -0.1252
  926MPD2    H513557   4.226   1.316  12.374 -1.4118  2.5733 -0.5789
  926MPD2    N113558   4.101   1.109  12.884 -0.3372  0.4363 -0.1693
  926MPD2    H713559   4.004   1.109  12.855 -0.7141  2.5678  1.0380
  927MPD2     C13560   3.600   2.772   0.653  0.2031  0.3667 -0.9650
  927MPD2    C113561   3.491   2.841   0.600  0.8686  0.1972  0.4439
  927MPD2    C213562   3.495   2.885   0.465 -0.2575 -0.4472 -0.4094
  927MPD2    C313563   3.608   2.872   0.388 -1.0214 -0.2989 -0.1399
  927MPD2    C413564   3.720   2.815   0.450 -0.2899 -0.0390 -0.6292
  927MPD2    C513565   3.719   2.769   0.577 -0.3772 -1.1364 -0.1716
  927MPD2     H13566   3.400   2.920   0.427 -0.9476 -1.2798  0.5686
  927MPD2    H113567   3.817   2.804   0.402 -0.9112  0.6304 -2.0531
  927MPD2    H213568   3.613   2.737   0.754  0.0481  0.4760 -0.9063
  927MPD2    H313569   3.810   2.728   0.618  1.0452  1.6551 -0.4938
  927MPD2     N13570   3.606   2.933   0.256 -0.0283 -0.9545 -0.3733
  927MPD2    H513571   3.518   2.974   0.228  1.2008  1.6710 -0.4010
  927MPD2    N113572   3.381   2.866   0.683 -0.1684 -0.4248  0.3210
  927MPD2    H713573   3.385   2.822   0.775  1.7289  0.8021  0.8082
  928MPD2     C13574   1.343   1.601   1.469  0.2229 -0.6223 -0.2250
  928MPD2    C113575   1.454   1.675   1.469 -0.3118  0.0264 -0.1352
  928MPD2    C213576   1.516   1.710   1.348 -0.4310  0.0428  0.3003
  928MPD2    C313577   1.451   1.683   1.225  0.5300 -0.3444 -0.6754
  928MPD2    C413578   1.331   1.615   1.230  0.0381  0.2808 -0.5738
  928MPD2    C513579   1.279   1.571   1.350  1.2614  0.5817  0.0878
  928MPD2     H13580   1.605   1.773   1.345  0.2070 -0.8805 -0.0342
  928MPD2    H113581   1.270   1.594   1.143 -0.9586  0.6378  0.0338
  928MPD2    H213582   1.292   1.568   1.559 -0.9156 -1.0129 -1.0058
  928MPD2    H313583   1.190   1.509   1.358  0.2964  1.7706 -1.7251
  928MPD2     N13584   1.510   1.715   1.100  0.2915  0.4076 -0.7883
  928MPD2    H513585   1.453   1.715   1.017  0.5791 -0.4187 -0.9846
  928MPD2    N113586   1.510   1.701   1.594 -0.1308  0.2776 -0.2944
  928MPD2    H713587   1.452   1.672   1.672  0.1813 -0.3308 -0.2844
  929MPD2     C13588   1.560   1.450   9.884 -0.3247  0.1949 -0.0293
  929MPD2    C113589   1.469   1.462   9.989 -0.2514 -0.4908 -0.0180
  929MPD2    C213590   1.348   1.525   9.970  0.8683 -0.3135  0.9154
  929MPD2    C313591   1.324   1.588   9.851 -0.8019 -1.0164  0.1776
  929MPD2    C413592   1.412   1.571   9.749  0.1839  0.0866  0.0062
  929MPD2    C513593   1.528   1.504   9.758 -0.5064 -0.1319 -0.4478
  929MPD2     H13594   1.285   1.555  10.053  0.3668 -2.2912  1.2671
  929MPD2    H113595   1.379   1.598   9.649 -0.1950 -0.4119 -0.0044
  929MPD2    H213596   1.648   1.387   9.890 -0.1001  0.3526 -1.4972
  929MPD2    H313597   1.593   1.492   9.672 -0.7046 -0.3436 -0.5675
  929MPD2     N13598   1.213   1.672   9.824  0.4025  0.2294  0.5315
  929MPD2    H513599   1.209   1.716   9.732  3.5394  0.3873  0.4463
  929MPD2    N113600   1.504   1.390  10.106  0.0595  0.3083  0.1938
  929MPD2    H713601   1.601   1.361  10.121  0.0061 -0.9581 -1.8841
  930MPD2     C13602   2.876   3.513  14.204  0.0804  0.0268  0.1792
  930MPD2    C113603   2.996   3.548  14.127 -0.4677 -0.1430 -0.0102
  930MPD2    C213604   3.027   3.489  14.009 -0.7741 -0.0928  0.2486
  930MPD2    C313605   2.944   3.387  13.961  0.0960 -0.1048 -0.2411
  930MPD2    C413606   2.827   3.365  14.027  0.2705 -0.3458  0.4081
  930MPD2    C513607   2.792   3.419  14.146  0.5402  0.0300  0.0703
  930MPD2     H13608   3.120   3.522  13.964 -0.1141 -0.4622  1.3418
  930MPD2    H113609   2.748   3.305  13.983 -1.7919  3.3320 -0.9415
  930MPD2    H213610   2.855   3.553  14.302 -0.2678  2.7064 -0.9675
  930MPD2    H313611   2.699   3.392  14.196 -0.8404  2.1376 -1.3856
  930MPD2     N13612   2.967   3.344  13.831  0.5528  0.2444 -0.3982
  930MPD2    H513613   2.895   3.324  13.762 -2.1667 -0.3912  2.6186
  930MPD2    N113614   3.077   3.649  14.174 -0.6435  0.0693  0.6652
  930MPD2    H713615   3.152   3.678  14.113 -1.3571 -2.1091 -1.2475
  931MPD2     C13616   3.105   2.368   0.927  0.0206 -0.8392  0.0907
  931MPD2    C113617   3.071   2.481   0.987  0.1465  0.3225  0.4811
  931MPD2    C213618   3.055   2.481   1.122 -0.0637  0.4969 -0.1894
  931MPD2    C313619   3.107   2.379   1.200  0.3385  0.0689  0.1784
  931MPD2    C413620   3.163   2.271   1.142 -0.1842  0.0304 -0.3584
  931MPD2    C513621   3.154   2.262   1.001  0.2560 -0.0295 -0.0424
  931MPD2     H13622   3.037   2.571   1.179 -0.7894 -0.5622  1.2858
  931MPD2    H113623   3.217   2.195   1.198 -2.2230 -0.0575  1.4970
  931MPD2    H213624   3.112   2.368   0.819  1.1565 -1.2207  0.1662
  931MPD2    H313625   3.186   2.173   0.948 -1.8917 -2.0568  1.9725
  931MPD2     N13626   3.134   2.391   1.338 -0.0371 -0.7118 -0.2218
  931MPD2    H513627   3.190   2.318   1.382  2.0716  2.3245  2.1165
  931MPD2    N113628   3.053   2.592   0.900  0.0557 -0.7516  0.1682
  931MPD2    H713629   3.112   2.601   0.818  0.2603  1.2986  0.5242
  932MPD2     C13630   0.458   2.985  11.409 -0.4528 -0.4613  0.1710
  932MPD2    C113631   0.549   2.970  11.307  0.1286 -0.0488 -0.4775
  932MPD2    C213632   0.560   2.843  11.256  0.5880 -0.3520 -0.0553
  932MPD2    C313633   0.478   2.735  11.304 -0.0983 -1.2195  0.0692
  932MPD2    C413634   0.379   2.763  11.397 -0.3195 -0.4267 -0.5404
  932MPD2    C513635   0.368   2.888  11.447  0.0459  0.0508 -0.2862
  932MPD2     H13636   0.632   2.826  11.176 -0.1099 -1.4949 -0.4409
  932MPD2    H113637   0.321   2.681  11.437 -0.8694  0.8097  1.1803
  932MPD2    H213638   0.448   3.081  11.459  0.8184 -0.0115 -0.4470
  932MPD2    H313639   0.291   2.902  11.522  1.5913 -1.4113  1.5804
  932MPD2     N13640   0.495   2.600  11.263  0.5507  0.3411 -0.3344
  932MPD2    H513641   0.422   2.543  11.305 -0.0915  0.1986 -1.6431
  932MPD2    N113642   0.611   3.080  11.244  0.0853 -0.6903 -0.0650
  932MPD2    H713643   0.681   3.049  11.178  0.8086  1.0699 -0.1429
  933MPD2     C13644   1.450   1.664   2.380  0.8107 -0.0650  1.0646
  933MPD2    C113645   1.432   1.749   2.276  0.0239 -0.4087 -0.0994
  933MPD2    C213646   1.308   1.813   2.267 -0.0767  0.3164 -0.2416
  933MPD2    C313647   1.213   1.788   2.364 -0.1224 -0.3663 -0.1366
  933MPD2    C413648   1.234   1.701   2.467 -0.0493  0.3999  0.5859
  933MPD2    C513649   1.354   1.644   2.475  0.5693 -0.2435  0.0000
  933MPD2     H13650   1.276   1.878   2.187  1.0511 -1.8848 -2.4968
  933MPD2    H113651   1.162   1.678   2.545 -1.8059  1.5491 -0.6790
  933MPD2    H213652   1.540   1.604   2.393  1.2345  0.4417  0.4760
  933MPD2    H313653   1.379   1.589   2.565 -0.4406  0.6456  0.8176
  933MPD2     N13654   1.078   1.832   2.338 -0.4749 -0.1547 -0.0525
  933MPD2    H513655   1.057   1.896   2.263  0.0988  2.6923  2.2053
  933MPD2    N113656   1.531   1.763   2.175  0.3142  0.6804  0.8051
  933MPD2    H713657   1.616   1.711   2.192  0.3905  0.4348 -0.3158
  934MPD2     C13658   3.664   0.096   1.649 -0.7542 -0.0267 -0.3271
  934MPD2    C113659   3.696   4.691   1.606  0.5321  0.0354 -0.1170
  934MPD2    C213660   3.597   4.603   1.585  0.0310  0.5239 -0.0351
  934MPD2    C313661   3.463   4.640   1.602  0.2996 -0.5193  0.0276
  934MPD2    C413662   3.432   0.048   1.634 -0.5809  0.3128 -0.0939
  934MPD2    C513663   3.533   0.141   1.657  0.5828  0.3336  0.2406
  934MPD2     H13664   3.624   4.509   1.537 -2.2907 -0.9823  1.6007
  934MPD2    H113665   3.333   0.090   1.650 -0.6092 -0.2853  1.2940
  934MPD2    H213666   3.739   0.173   1.666 -2.4637  1.5965 -0.1786
  934MPD2    H313667   3.525   0.238   1.704 -2.3766  0.8063 -1.2539
  934MPD2     N13668   3.359   4.555   1.575  0.3142  0.3283 -0.7050
  934MPD2    H513669   3.264   4.590   1.580  0.3131  0.0481  1.4905
  934MPD2    N113670   3.823   4.648   1.581 -0.1905  0.2979  0.2126
  934MPD2    H713671   3.831   4.546   1.580  1.2303  0.4021  1.0719
  935MPD2     C13672   3.336   3.574   1.268 -0.3089  0.4551 -0.1429
  935MPD2    C113673   3.209   3.607   1.309 -0.6298  0.7310  0.1162
  935MPD2    C213674   3.189   3.727   1.362 -0.2305  0.3005  0.4194
  935MPD2    C313675   3.290   3.826   1.366 -0.2275  0.2233 -0.0545
  935MPD2    C413676   3.420   3.790   1.335 -0.2354  0.3282  0.3607
  935MPD2    C513677   3.433   3.669   1.276 -0.0843 -0.0294 -0.6854
  935MPD2     H13678   3.088   3.747   1.395 -0.3450  0.4990 -0.0464
  935MPD2    H113679   3.513   3.841   1.356  1.1251 -1.7573 -0.5999
  935MPD2    H213680   3.358   3.472   1.237  0.9777  0.4016  0.9274
  935MPD2    H313681   3.532   3.653   1.234  0.2586  0.2977  0.0058
  935MPD2     N13682   3.263   3.955   1.415 -0.0356  0.1373  0.2809
  935MPD2    H513683   3.338   4.023   1.408 -0.0868  0.3421  1.6235
  935MPD2    N113684   3.093   3.520   1.318  0.5053  0.6452  0.5333
  935MPD2    H713685   3.006   3.549   1.360  0.4755 -1.1236  1.6989
  936MPD2     C13686   0.972   1.054  11.928 -0.5777 -0.3057 -0.1917
  936MPD2    C113687   1.049   0.939  11.950 -0.2162 -0.4379 -0.2646
  936MPD2    C213688   1.163   0.920  11.876  0.1112  0.1705  0.3925
  936MPD2    C313689   1.213   1.028  11.811  0.0237 -0.5896  0.4966
  936MPD2    C413690   1.144   1.142  11.784 -0.0713  0.1774 -0.1405
  936MPD2    C513691   1.022   1.155  11.845  0.2953  0.4400 -0.1217
  936MPD2     H13692   1.223   0.832  11.894  0.6107 -0.1379 -2.8476
  936MPD2    H113693   1.168   1.223  11.716  2.9338  0.5587  1.3426
  936MPD2    H213694   0.878   1.069  11.981  0.6014  2.2798  1.1814
  936MPD2    H313695   0.974   1.252  11.841 -0.5824 -0.0024 -0.4141
  936MPD2     N13696   1.345   1.013  11.756  0.7462 -0.1139 -0.0222
  936MPD2    H513697   1.391   0.925  11.777  1.9892  0.2958 -1.0034
  936MPD2    N113698   1.022   0.832  12.030  0.3010  0.0914  0.5540
  936MPD2    H713699   1.076   0.748  12.018 -3.4486 -1.6973 -3.6430
  937MPD2     C13700   3.864   2.334  11.425  0.1267  0.0799 -0.9103
  937MPD2    C113701   3.873   2.471  11.443  0.3540 -0.2847  0.1583
  937MPD2    C213702   3.962   2.543  11.368 -0.3165 -0.2725 -0.9532
  937MPD2    C313703   4.046   2.483  11.280  1.2966  0.1348  0.6955
  937MPD2    C413704   4.046   2.346  11.272  0.4759 -0.2137 -0.0283
  937MPD2    C513705   3.949   2.275  11.338 -0.1273 -0.1766 -1.1006
  937MPD2     H13706   3.971   2.649  11.386  2.5623 -0.6813 -0.1058
  937MPD2    H113707   4.113   2.289  11.209  1.7748  0.1159  1.0566
  937MPD2    H213708   3.797   2.271  11.482  1.3162  0.2567  0.6842
  937MPD2    H313709   3.941   2.169  11.316  2.3681 -0.3111 -1.3741
  937MPD2     N13710   4.147   2.562  11.208 -0.3044  0.1299  0.5624
  937MPD2    H513711   4.132   2.662  11.209  1.3605  0.3865 -0.0863
  937MPD2    N113712   3.765   2.540  11.504  0.2467  0.5256  0.5541
  937MPD2    H713713   3.762   2.636  11.471  0.3937 -0.1341 -1.4177
  938MPD2     C13714   2.044   3.167   1.321  0.3302 -0.3067  0.0244
  938MPD2    C113715   1.932   3.230   1.370  0.0732  0.2820  0.4692
  938MPD2    C213716   1.814   3.163   1.384 -0.4337 -0.0474 -0.3671
  938MPD2    C313717   1.810   3.025   1.366  0.0889  0.3495 -0.2333
  938MPD2    C413718   1.925   2.963   1.333  0.5502  0.4067 -0.6131
  938MPD2    C513719   2.048   3.027   1.311 -0.2942  0.1035 -0.6442
  938MPD2     H13720   1.726   3.215   1.421 -1.1900 -2.0257  0.5830
  938MPD2    H113721   1.915   2.855   1.337 -0.1456  0.4716 -0.5818
  938MPD2    H213722   2.134   3.227   1.315  0.7579 -1.0711 -1.2336
  938MPD2    H313723   2.140   2.971   1.302 -1.6836 -2.5251  1.6048
  938MPD2     N13724   1.706   2.947   1.417  0.0703 -0.2564 -1.0625
  938MPD2    H513725   1.731   2.849   1.428  1.7976  0.4890  1.7127
  938MPD2    N113726   1.924   3.371   1.394 -0.2094  0.2751  0.2697
  938MPD2    H713727   1.833   3.406   1.422 -0.5789 -0.2076 -0.3196
  939MPD2     C13728   2.490   0.327   0.680 -0.8107 -0.4258  0.7974
  939MPD2    C113729   2.570   0.333   0.790  0.0611 -0.1876  0.8754
  939MPD2    C213730   2.705   0.328   0.776 -0.0178  1.0809 -0.4863
  939MPD2    C313731   2.767   0.310   0.653  0.0373 -0.6167  0.2942
  939MPD2    C413732   2.687   0.293   0.548  0.2200  0.4643  0.3743
  939MPD2    C513733   2.547   0.297   0.562 -0.3841 -0.5006  0.9610
  939MPD2     H13734   2.760   0.349   0.867  0.1924 -1.0806 -0.1160
  939MPD2    H113735   2.729   0.286   0.449 -1.2236 -1.8683 -0.0877
  939MPD2    H213736   2.383   0.329   0.699 -0.8941 -3.4998  0.6685
  939MPD2    H313737   2.482   0.279   0.477  1.5604  1.2539 -0.8715
  939MPD2     N13738   2.903   0.311   0.639 -0.0722 -0.0949 -0.4577
  939MPD2    H513739   2.958   0.341   0.719  1.8416 -2.1224 -1.0173
  939MPD2    N113740   2.505   0.382   0.906 -0.3591  0.1734  0.7444
  939MPD2    H713741   2.404   0.391   0.899 -0.4707 -1.9786 -0.3832
  940MPD2     C13742   1.450   0.549  12.903  0.1572 -0.7749 -0.4668
  940MPD2    C113743   1.570   0.600  12.944  0.6056 -0.0618  0.1859
  940MPD2    C213744   1.676   0.587  12.859  0.2575  0.0823 -1.0550
  940MPD2    C313745   1.662   0.534  12.731 -0.2223 -0.4313 -0.0082
  940MPD2    C413746   1.538   0.485  12.693 -0.6627  0.5260 -0.4295
  940MPD2    C513747   1.432   0.496  12.783  0.3144  0.1810  0.5325
  940MPD2     H13748   1.774   0.615  12.897  0.3791  1.3615 -2.3001
  940MPD2    H113749   1.525   0.441  12.595 -1.3717  1.4925 -0.7579
  940MPD2    H213750   1.366   0.540  12.971  1.7463 -0.4486  1.5292
  940MPD2    H313751   1.336   0.453  12.756  0.7355 -1.2292  1.2519
  940MPD2     N13752   1.765   0.513  12.636  0.0318  0.3847 -0.0288
  940MPD2    H513753   1.745   0.472  12.545 -2.8650  2.3489 -0.2609
  940MPD2    N113754   1.570   0.647  13.079 -0.4825 -0.0340 -0.4395
  940MPD2    H713755   1.485   0.629  13.131  0.6791 -1.5565  0.9130
  941MPD2     C13756   2.058   4.216   8.725  0.7498 -1.0515 -0.3463
  941MPD2    C113757   2.045   4.174   8.858  0.1566  0.0186  0.1131
  941MPD2    C213758   1.996   4.049   8.895  0.5272 -0.0323 -0.4735
  941MPD2    C313759   1.937   3.972   8.790 -0.1057  0.6562  0.5677
  941MPD2    C413760   1.944   4.020   8.658  0.9712 -0.5774 -0.2234
  941MPD2    C513761   2.019   4.136   8.623 -0.1561 -0.3571 -0.2410
  941MPD2     H13762   1.984   4.028   9.000 -0.7797  0.1445 -0.5871
  941MPD2    H113763   1.902   3.969   8.572  0.0966 -1.4443  0.7161
  941MPD2    H213764   2.101   4.310   8.695 -2.0241  0.9132  1.8582
  941MPD2    H313765   2.022   4.169   8.520 -1.2764 -0.0024 -0.1594
  941MPD2     N13766   1.869   3.854   8.814  0.2283 -0.2134  0.0020
  941MPD2    H513767   1.838   3.804   8.731  0.5804 -2.4973  1.2469
  941MPD2    N113768   2.099   4.256   8.961 -0.1576  0.7375  0.0526
  941MPD2    H713769   2.127   4.204   9.044  0.9748 -0.4523 -1.0832
  942MPD2     C13770   1.759   2.240   8.658 -0.3212  1.5487 -0.0424
  942MPD2    C113771   1.668   2.196   8.753 -0.2612 -1.2614 -1.2175
  942MPD2    C213772   1.695   2.082   8.835  0.4746  0.1864 -0.2538
  942MPD2    C313773   1.797   2.000   8.794  0.5264  0.8889 -0.5432
  942MPD2    C413774   1.880   2.045   8.698 -0.0634  0.2883 -0.0915
  942MPD2    C513775   1.872   2.164   8.636 -0.4435 -0.0018  0.6867
  942MPD2     H13776   1.628   2.070   8.919  0.6148  1.7928  0.0701
  942MPD2    H113777   1.964   1.990   8.659  0.9802  1.6091  0.3170
  942MPD2    H213778   1.750   2.335   8.606 -0.8257  1.6704  0.2593
  942MPD2    H313779   1.942   2.192   8.558 -0.5409  0.2496  0.6893
  942MPD2     N13780   1.823   1.877   8.854 -0.1612 -0.1665 -0.0515
  942MPD2    H513781   1.893   1.819   8.809  0.4287  0.4736  0.0612
  942MPD2    N113782   1.564   2.282   8.790 -0.4724  0.4293  0.3635
  942MPD2    H713783   1.514   2.269   8.877  1.7272  1.8100  1.8311
  943MPD2     C13784   0.187   3.575   9.008  0.2495 -0.3610 -1.1391
  943MPD2    C113785   0.161   3.444   8.956  0.1890  0.0531 -0.5723
  943MPD2    C213786   0.072   3.447   8.842 -0.2637 -0.7154  0.2257
  943MPD2    C313787   0.016   3.558   8.791  0.5230 -0.7419  0.4250
  943MPD2    C413788   0.035   3.679   8.861 -0.4665  0.0899  0.2455
  943MPD2    C513789   0.128   3.689   8.961  0.3413 -0.3112 -0.2690
  943MPD2     H13790   0.062   3.352   8.791 -2.4031  0.4115 -1.4454
  943MPD2    H113791   0.004   3.774   8.818 -1.8892 -0.7231 -0.4882
  943MPD2    H213792   0.255   3.592   9.091 -1.1278 -1.8696  0.3221
  943MPD2    H313793   0.151   3.791   8.988 -2.6576  0.0444  0.9805
  943MPD2     N13794   4.661   3.566   8.677 -0.0936  0.5786  0.3937
  943MPD2    H513795   4.650   3.661   8.641 -1.6139  0.0668 -0.5219
  943MPD2    N113796   0.232   3.336   9.006 -0.2947  0.2977  0.2384
  943MPD2    H713797   0.316   3.357   9.059  1.6418 -1.9113 -1.9363
  944MPD2     C13798   4.174   3.254  11.048 -0.6618 -0.1363  0.6589
  944MPD2    C113799   4.248   3.362  11.065 -0.0355  0.0379 -0.4338
  944MPD2    C213800   4.193   3.463  11.140 -0.5779 -0.2850  0.4633
  944MPD2    C313801   4.065   3.461  11.194 -0.2947  0.8498  0.2936
  944MPD2    C413802   3.990   3.351  11.170  0.1854  0.0437  0.2789
  944MPD2    C513803   4.050   3.256  11.095  0.2680  0.6650  0.1410
  944MPD2     H13804   4.246   3.556  11.158 -0.3288 -0.1704 -0.8804
  944MPD2    H113805   3.895   3.333  11.219 -0.8076  2.1091 -0.9013
  944MPD2    H213806   4.207   3.170  10.988  3.3541  1.4590  0.6373
  944MPD2    H313807   3.991   3.168  11.074  0.2529  0.7355 -0.1033
  944MPD2     N13808   4.023   3.569  11.278  0.0537 -0.0135  0.3626
  944MPD2    H513809   4.096   3.638  11.287  0.0306  0.0345  0.1838
  944MPD2    N113810   4.383   3.376  11.026  0.0903 -0.7617  0.1099
  944MPD2    H713811   4.436   3.452  11.068 -0.1314  0.3758 -1.6699
    1TCq1    O113812   2.591   3.697  14.192  0.1811 -0.0722 -0.0287
    1TCq1    C113813   2.555   3.689  14.057  0.1598  0.4397 -0.2298
    1TCq1    O213814   2.482   3.605  14.003 -0.8009  0.4590 -0.1008
    1TCq1    C213815   2.571   3.826  13.998  0.5018 -0.8405 -0.0164
    1TCq1    C313816   2.561   3.850  13.867 -0.0173  0.0980 -0.0098
    1TCq1    C413817   2.563   3.976  13.816 -0.3782  0.0186 -0.5898
    1TCq1    C513818   2.572   4.088  13.898 -0.0856  0.2202  0.1480
    1TCq1    C613819   2.564   4.066  14.032 -0.3801  0.0298  0.6418
    1TCq1    C713820   2.571   3.935  14.082 -0.2684  0.2475 -0.4158
    1TCq1    C813821   2.545   4.172  14.126 -0.7232 -0.5441 -0.7339
    1TCq1    O413822   2.585   4.149  14.241 -0.0769  0.1594  0.1028
    1TCq1    C913823   2.553   3.992  13.675 -1.0720  0.0078  0.8130
    1TCq1    O513824   2.605   4.095  13.627  0.6481  0.7166  0.0415
    1TCq1    O613825   2.522   3.895  13.604 -0.2049  0.6282 -0.4870
    1TCq1    H113826   2.632   3.777  14.233  1.2105 -0.8714  0.4952
    1TCq1    H213827   2.539   3.764  13.803 -0.7644 -0.3071  0.7817
    1TCq1    H313828   2.568   4.189  13.859 -0.4551 -0.6507 -2.0473
    1TCq1    H413829   2.565   3.930  14.190  0.6616 -2.0989 -0.4843
    2MPD2     C13830   2.507   4.659  14.269 -0.0934  0.5419  0.4879
    2MPD2    C113831   2.437   4.637  14.153 -0.2780  0.2385 -0.7285
    2MPD2    C213832   2.421   4.513  14.097  0.3352 -0.4301  0.4484
    2MPD2    C313833   2.491   4.407  14.149 -0.1445 -0.1824  0.4049
    2MPD2    C413834   2.570   4.425  14.265  0.1800 -0.1041 -0.2522
    2MPD2    C513835   2.575   4.548  14.330  0.4915  0.0583  0.1661
    2MPD2     H13836   2.364   4.505  14.005  1.4914 -0.4374 -0.2689
    2MPD2    H113837   2.643   4.354  14.303  0.6241  0.4333 -0.0929
    2MPD2    H213838   2.513   0.035  14.315 -1.9026  0.6032  0.5689
    2MPD2    H313839   2.637   4.554  14.419  0.1433 -0.6448  0.4544
    2MPD2     N13840   2.489   4.283  14.080 -0.1633  0.1104  0.1172
    2MPD2    H513841   2.452   4.285  13.986  0.1319 -1.3427 -0.0244
    2MPD2    N113842   2.375   0.030  14.099 -0.5740 -0.2178  0.4091
    2MPD2    H713843   2.406   0.116  14.144 -0.8388  1.1041 -1.9165
    3TMC2    C113844   2.275   0.167  13.939 -0.1107 -0.1030  0.5482
    3TMC2    C213845   2.312   0.281  14.005 -0.0174  0.4258  0.1251
    3TMC2    C313846   2.333   0.398  13.935  0.9431  0.6515 -0.4451
    3TMC2    C413847   2.268   0.170  13.805 -0.2388  0.1639 -0.5951
    3TMC2    C513848   2.282   0.287  13.731  0.4049  0.0502  0.8782
    3TMC2    C613849   2.321   0.404  13.801 -0.1555 -0.4911 -0.0079
    3TMC2     C13850   2.287   0.037  13.999  0.0521 -0.5946 -0.7470
    3TMC2     O13851   2.225   4.661  13.952 -0.4521  0.1736  0.2273
    3TMC2     H13852   2.299   0.294  14.112  0.6196 -0.3944  0.2963
    3TMC2    H113853   2.258   0.076  13.752 -0.4842 -0.7104  1.0173
    3TMC2    H213854   2.348   0.499  13.756 -1.7156 -0.2192 -0.3693
    3TMC2    C713855   2.271   0.284  13.591 -0.0452  0.1214 -0.6699
    3TMC2    C813856   2.368   0.517  14.005 -0.3466 -0.7387 -0.1581
    3TMC2    O113857   2.251   0.176  13.537 -0.0658 -0.9213  0.3275
    3TMC2    O213858   2.367   0.626  13.947 -0.6282  0.1453  0.0568
    3TMC2    O513859   2.482   0.481  14.078  0.1119  0.0657  0.1980
    3TMC2    H513860   2.486   0.385  14.099 -3.2387  0.1963  1.5479
    4MPD2     C13861   1.439   0.936  12.829 -0.4645  0.0356  0.0643
    4MPD2    C113862   1.411   0.961  12.957 -0.7143  0.0822 -0.7033
    4MPD2    C213863   1.507   1.008  13.046 -0.5479  0.6427  0.9145
    4MPD2    C313864   1.638   1.027  12.997 -0.0524  1.1968  0.0535
    4MPD2    C413865   1.665   0.994  12.868 -0.3738  0.2424  0.2506
    4MPD2    C513866   1.565   0.941  12.782  0.0741  0.0338 -0.3496
    4MPD2     H13867   1.487   1.035  13.149  0.0329  0.0289  1.1893
    4MPD2    H113868   1.765   1.002  12.827 -0.6931  0.7640 -0.4360
    4MPD2    H213869   1.372   0.913  12.746 -0.7008 -1.3941  0.6435
    4MPD2    H313870   1.595   0.914  12.681 -1.1192 -0.5266 -0.5596
    4MPD2     N13871   1.741   1.062  13.089 -0.1048 -0.3177 -0.2995
    4MPD2    H513872   1.725   1.035  13.186 -1.3092 -1.6860 -0.8837
    4MPD2    N113873   1.276   0.942  13.000  0.2910 -0.1910 -0.3307
    4MPD2    H713874   1.216   0.886  12.941  1.8413 -2.6840  0.4538
    5TCq2    C113875   1.856   1.126  13.052  0.5060 -0.1781 -0.5876
    5TCq2    O213876   1.879   1.180  12.944 -0.0875 -0.1215 -0.2179
    5TCq2    C213877   1.964   1.128  13.142 -0.4622 -0.1811  0.5683
    5TCq2    C313878   2.061   1.226  13.116 -0.3402 -0.0195 -0.5299
    5TCq2    C413879   2.193   1.202  13.157 -0.4719 -0.3362 -0.1862
    5TCq2    C513880   2.227   1.088  13.227  0.4727  0.1086  0.5351
    5TCq2    C613881   2.127   0.986  13.231 -0.4258 -0.5935  0.3644
    5TCq2    C713882   1.993   1.004  13.194  0.2394 -0.0442 -0.4564
    5TCq2    C813883   2.167   0.859  13.286 -0.3998 -0.3346 -0.6681
    5TCq2    O413884   2.247   0.861  13.377 -0.0308  0.0253 -1.4525
    5TCq2    C913885   2.294   1.311  13.145  0.6047  0.1005  0.1301
    5TCq2    O513886   2.258   1.414  13.089  0.3752 -0.0238 -0.2343
    5TCq2    O613887   2.405   1.297  13.198 -0.5535 -0.1948  0.1538
    5TCq2    H213888   2.039   1.324  13.074 -1.1425 -0.4108 -1.0141
    5TCq2    H313889   2.328   1.057  13.251  0.0053 -2.7846 -1.3161
    5TCq2    H413890   1.928   0.918  13.194  2.8664 -2.0236 -0.4194
    6MPD1     C13891   0.538   2.636  13.040  0.2574  0.1424 -0.2310
    6MPD1    C113892   0.442   2.548  13.095 -0.5364  0.0909  1.2585
    6MPD1    C213893   0.484   2.423  13.139 -0.0258  0.6818  0.1513
    6MPD1    C313894   0.618   2.377  13.124  0.0858 -0.0733  0.2939
    6MPD1    C413895   0.707   2.474  13.067 -0.5669  0.4459  0.9316
    6MPD1    C513896   0.668   2.601  13.030  0.0571 -0.0361 -0.3118
    6MPD1     H13897   0.404   2.365  13.184  1.1044 -0.4162  0.7297
    6MPD1    H113898   0.811   2.446  13.065 -0.9760 -1.1021  0.3838
    6MPD1    H213899   0.512   2.735  13.004  1.2921  1.2088  1.9900
    6MPD1    H313900   0.732   2.681  12.995 -0.0939 -0.0131 -0.5341
    6MPD1     N13901   0.664   2.248  13.157  0.7529  0.6520  0.5721
    6MPD1    H513902   0.762   2.238  13.131  0.5983 -0.0876  0.2838
    6MPD1    N113903   0.309   2.590  13.111 -0.2712 -0.3553  0.3607
    6MPD1    H613904   0.244   2.515  13.087 -0.1338 -0.0876 -0.8547
    6MPD1    H713905   0.290   2.664  13.044  0.1194  1.1550  1.9236
    7MPD2     C13906   0.772   1.499  13.648  0.1489  0.3721 -0.2570
    7MPD2    C113907   0.768   1.506  13.508  0.1505 -0.2892  0.1188
    7MPD2    C213908   0.781   1.391  13.436 -0.3893  0.2409 -0.1072
    7MPD2    C313909   0.803   1.269  13.505 -0.7042 -0.2501  0.6142
    7MPD2    C413910   0.816   1.260  13.642 -1.0020 -0.1253  0.2731
    7MPD2    C513911   0.794   1.381  13.715  0.1838  0.7526 -0.7547
    7MPD2     H13912   0.783   1.387  13.328 -2.8161 -0.7993 -0.1114
    7MPD2    H113913   0.845   1.173  13.700  0.2567 -0.6025 -1.0859
    7MPD2    H213914   0.746   1.587  13.706  3.6373  0.3908  1.2790
    7MPD2    H313915   0.782   1.384  13.823  0.2276  1.9965 -0.7867
    7MPD2     N13916   0.831   1.147  13.436  0.0652 -0.4471  0.4237
    7MPD2    H513917   0.868   1.064  13.481  2.0405 -1.2935 -2.7333
    7MPD2    N113918   0.730   1.621  13.434 -0.4506 -0.1529  0.3421
    7MPD2    H713919   0.702   1.596  13.340  0.8936 -2.3284  0.5307
    8TMC3    C113920   0.875   1.024  13.225  0.5127  1.1225  0.5878
    8TMC3    C213921   1.009   1.002  13.230 -0.0307  0.2354 -0.0309
    8TMC3    C313922   1.075   0.975  13.113  0.8805 -0.0660 -0.3198
    8TMC3    C413923   0.812   1.020  13.106  0.0462  0.5027 -0.3726
    8TMC3    C513924   0.877   0.983  12.994  0.9765  0.2131  0.1136
    8TMC3    C613925   1.012   0.962  12.998  0.5685 -0.3284  0.0646
    8TMC3     C13926   0.810   1.135  13.298 -0.0906 -0.2400  0.2394
    8TMC3     O13927   0.734   1.197  13.224 -0.1496 -0.5750  0.3034
    8TMC3     H13928   1.059   1.005  13.326  0.9125  1.0487 -0.5542
    8TMC3    H113929   0.705   1.033  13.094 -0.6948 -2.4147  2.8653
    8TMC3    H213930   1.064   0.947  12.905  0.2175 -0.1869 -0.1541
    8TMC3    C713931   0.847   1.082  12.887  0.8387 -0.1973  0.0395
    8TMC3    C813932   1.220   0.981  13.115  0.4542 -0.2905  0.6020
    8TMC3    O113933   0.908   1.066  12.782 -0.2429  0.7941  0.7032
    8TMC3    O213934   1.268   1.035  13.212  0.3461  0.4878 -0.0397
    9TMC3    C113935   0.654   2.025  13.239  0.7907  0.3173  0.1080
    9TMC3    C213936   0.707   1.978  13.122  0.9384  0.0012 -0.9633
    9TMC3    C313937   0.776   1.859  13.130  0.1073  0.0484  0.2361
    9TMC3    C413938   0.668   1.961  13.362  0.0227 -1.0321  0.3021
    9TMC3    C513939   0.740   1.840  13.360 -0.3447 -0.0678 -0.1797
    9TMC3    C613940   0.782   1.783  13.240 -1.1086 -0.1954 -0.4621
    9TMC3     C13941   0.590   2.151  13.231  0.4898 -0.4619  0.1293
    9TMC3     O13942   0.490   2.181  13.292 -0.1444 -0.1497  0.2251
    9TMC3     H13943   0.694   2.023  13.025 -0.8794  0.6657 -0.4069
    9TMC3    H113944   0.645   2.011  13.455  1.6783 -0.8678  0.6239
    9TMC3    H213945   0.860   1.709  13.250 -1.5084 -0.3921  1.3172
    9TMC3    C713946   0.719   1.753  13.473  0.0448 -1.2981  0.8424
    9TMC3    C813947   0.779   1.790  13.005  0.4008  0.0436  0.6751
    9TMC3    O113948   0.706   1.797  13.586  0.0435 -0.0406  0.1711
    9TMC3    O213949   0.779   1.855  12.901  0.4310 -0.6624 -0.2442
   10MPD2     C13950   0.840   1.351  12.752  0.6035  0.2829  0.3270
   10MPD2    C113951   0.811   1.322  12.887  1.4692  0.2543 -0.0370
   10MPD2    C213952   0.783   1.429  12.972 -0.4189 -0.2183 -0.8585
   10MPD2    C313953   0.782   1.559  12.922  0.0431  0.2804 -0.6004
   10MPD2    C413954   0.789   1.581  12.792 -0.0546  0.6415  0.4444
   10MPD2    C513955   0.817   1.475  12.704  0.1875 -0.4862  0.0733
   10MPD2     H13956   0.767   1.414  13.078  0.8357  2.0241 -0.3463
   10MPD2    H113957   0.771   1.679  12.747 -1.4694  0.4796  0.6404
   10MPD2    H213958   0.858   1.272  12.680  0.6463  0.9964 -0.4346
   10MPD2    H313959   0.831   1.494  12.598 -0.2429  1.4262  0.3539
   10MPD2     N13960   0.766   1.660  13.019 -0.0362 -0.2543 -0.0531
   10MPD2    H513961   0.763   1.626  13.115 -1.1914  0.7308  0.2575
   10MPD2    N113962   0.812   1.196  12.948 -0.1265  0.0776 -0.1074
   10MPD2    H713963   0.792   1.198  13.047  0.5413  1.4314  0.0058
   11MPD2     C13964   2.109   0.352  13.345  0.3801 -0.0872  0.6860
   11MPD2    C113965   2.176   0.448  13.425  0.2000  0.3842 -0.5687
   11MPD2    C213966   2.176   0.575  13.385 -0.2176  0.1018  0.0234
   11MPD2    C313967   2.110   0.617  13.268 -0.3215 -0.2206  0.1516
   11MPD2    C413968   2.048   0.519  13.187 -0.5261  0.3101 -0.8479
   11MPD2    C513969   2.053   0.388  13.231  0.2542  0.5974 -0.4281
   11MPD2     H13970   2.212   0.657  13.446 -2.2139  2.0478 -1.4014
   11MPD2    H113971   1.984   0.540  13.102 -2.2907 -1.5104  0.0101
   11MPD2    H213972   2.083   0.253  13.383  1.1670 -1.5023 -2.4365
   11MPD2    H313973   1.988   0.316  13.183  0.7954 -0.0008 -0.2613
   11MPD2     N13974   2.103   0.751  13.232  0.0268  0.5310  0.0602
   11MPD2    H513975   2.038   0.767  13.156  0.7271 -0.0454 -0.6554
   11MPD2    N113976   2.253   0.409  13.542  0.2196  0.3797  0.0290
   11MPD2    H713977   2.283   0.485  13.603 -0.6316  0.7667 -0.0239
    1MPD1     C13978   1.041   1.278  16.510  0.2913 -0.0323 -1.1044
    1MPD1    C113979   1.118   1.367  16.575  0.0112 -0.1370  0.2465
    1MPD1    C213980   1.050   1.474  16.628 -0.7393 -0.2998  0.4495
    1MPD1    C313981   0.913   1.465  16.660  0.5149  0.2293 -0.2502
    1MPD1    C413982   0.841   1.361  16.607 -0.0346  0.3221 -0.0442
    1MPD1    C513983   0.906   1.269  16.525  0.9154 -0.3256  0.5750
    1MPD1     H13984   1.116   1.552  16.663 -0.8604 -1.1062  2.4869
    1MPD1    H113985   0.734   1.353  16.627  0.0040  3.0680  1.2364
    1MPD1    H213986   1.088   1.200  16.451  0.8259 -1.0515  0.6796
    1MPD1    H313987   0.855   1.196  16.464 -1.6631  1.1744  0.9611
    1MPD1     N13988   0.846   1.554  16.751 -0.2663  0.1473 -0.5087
    1MPD1    H513989   0.744   1.550  16.747 -0.2115  0.7270 -2.7357
    1MPD1    N113990   1.258   1.353  16.552  0.4651  0.3095 -0.6133
    1MPD1    H613991   1.314   1.404  16.621 -0.2940  0.0664  0.1830
    1MPD1    H713992   1.274   1.253  16.551  0.4259  0.2832  1.3743
    2MPD1     C13993   0.119   1.736  17.257 -0.2468  0.3653 -0.3076
    2MPD1    C113994   0.224   1.669  17.306 -0.1984 -0.7978  0.5348
    2MPD1    C213995   0.340   1.689  17.235 -0.2642 -0.3436  0.0803
    2MPD1    C313996   0.339   1.754  17.110  0.2542 -1.5188  0.2522
    2MPD1    C413997   0.222   1.803  17.061 -0.6024 -0.3110  0.0006
    2MPD1    C513998   0.116   1.806  17.142  0.5072  0.3838  0.3076
    2MPD1     H13999   0.436   1.645  17.259 -0.0530 -0.3082 -0.7325
    2MPD1    H114000   0.212   1.845  16.962 -0.8061  2.0357  1.0253
    2MPD1    H214001   0.034   1.739  17.324 -0.2224 -1.6069 -0.1752
    2MPD1    H314002   0.022   1.851  17.111  0.3143 -0.9176 -0.9624
    2MPD1     N14003   0.458   1.766  17.040  0.0466  0.5338  0.6421
    2MPD1    H514004   0.537   1.707  17.063  0.9715  2.2223  1.7635
    2MPD1    N114005   0.217   1.627  17.441  0.0914 -0.2237 -0.3958
    2MPD1    H614006   0.306   1.581  17.458  0.2791 -1.0174 -3.6787
    2MPD1    H714007   0.137   1.565  17.451  0.3134 -0.2301  1.4322
    3TMC3    C114008   0.616   1.854  16.882  0.2973  0.0792 -0.2468
    3TMC3    C214009   0.667   1.988  16.869  0.1400  0.4314  0.6683
    3TMC3    C314010   0.801   1.999  16.865  0.1686 -0.5171 -0.3283
    3TMC3    C414011   0.691   1.745  16.885  0.2211  0.1702 -0.8333
    3TMC3    C514012   0.825   1.766  16.865  0.0510 -0.7944 -0.0459
    3TMC3    C614013   0.886   1.891  16.867 -0.3166  0.6248  0.0355
    3TMC3     C14014   0.477   1.851  16.931  0.6597 -0.0210 -0.1770
    3TMC3     O14015   0.403   1.937  16.886 -0.1449  0.5216  0.0506
    3TMC3     H14016   0.608   2.076  16.848 -1.6483 -0.8172  0.5006
    3TMC3    H114017   0.649   1.647  16.907 -0.7517  0.9966  0.9110
    3TMC3    H214018   0.992   1.892  16.845 -0.8512 -1.1678 -2.5367
    3TMC3    C714019   0.906   1.649  16.830  0.0939 -1.0547 -0.2282
    3TMC3    C814020   0.864   2.120  16.818 -0.7247  0.7976 -0.6129
    3TMC3    O114021   1.025   1.649  16.865  0.0475  0.5778 -0.3238
    3TMC3    O214022   0.791   2.198  16.761 -0.0280  0.2466  0.2715
    4MPD1     C14023   1.281   2.387  16.709  0.2099 -0.0117 -0.1278
    4MPD1    C114024   1.320   2.300  16.803 -0.4148 -0.3538  0.2362
    4MPD1    C214025   1.217   2.224  16.859  0.0803  0.3102  0.4171
    4MPD1    C314026   1.087   2.226  16.810 -0.4029  0.5804 -0.3362
    4MPD1    C414027   1.052   2.311  16.709 -0.6478  0.4846 -0.1509
    4MPD1    C514028   1.148   2.402  16.674  0.4689 -0.2533  0.6500
    4MPD1     H14029   1.236   2.158  16.944 -1.3608 -0.8143 -0.1314
    4MPD1    H114030   0.953   2.315  16.665 -1.7134 -0.6521  2.1737
    4MPD1    H214031   1.352   2.456  16.664 -0.5963  1.0572  0.2372
    4MPD1    H314032   1.114   2.483  16.610  0.6207 -0.4271  0.3529
    4MPD1     N14033   0.990   2.135  16.857  0.2027 -0.0459  0.5529
    4MPD1    H514034   1.025   2.067  16.925  0.5243 -0.2879  0.1422
    4MPD1    N114035   1.454   2.294  16.853 -0.7735  0.6644  0.6245
    4MPD1    H614036   1.526   2.340  16.797 -0.4405 -1.3948 -0.6174
    4MPD1    H714037   1.480   2.200  16.880 -0.9032  0.5657  0.4043
    1TCq1    O114038   1.724   1.619  11.933  0.1854 -0.2913 -0.1286
    1TCq1    C114039   1.607   1.678  11.939 -0.4900  0.6156  0.6719
    1TCq1    O214040   1.583   1.796  11.943 -0.0262 -0.4851  0.0837
    1TCq1    C214041   1.508   1.575  11.904  0.0580  0.0888  0.3325
    1TCq1    C314042   1.404   1.614  11.827  0.3265  0.1019  0.6167
    1TCq1    C414043   1.293   1.534  11.838 -0.1477 -0.1429 -0.2303
    1TCq1    C514044   1.281   1.424  11.924  0.4758 -0.3322  0.1447
    1TCq1    C614045   1.394   1.385  11.986 -0.0821 -0.0646 -0.0370
    1TCq1    C714046   1.509   1.452  11.963 -0.9897  0.2140 -0.2018
    1TCq1    C814047   1.411   1.266  12.065 -0.4322 -0.1201  0.7945
    1TCq1    O414048   1.523   1.219  12.089  0.1216  0.4617 -0.1507
    1TCq1    C914049   1.165   1.591  11.801 -0.7502 -0.5899 -0.1648
    1TCq1    O514050   1.062   1.542  11.839  0.3614 -0.1947 -0.8810
    1TCq1    O614051   1.175   1.705  11.749  0.3291 -0.1322 -0.1078
    1TCq1    H114052   1.710   1.529  11.894 -1.0812 -0.5612  0.9793
    1TCq1    H214053   1.400   1.719  11.799  0.2164  0.0369  0.3802
    1TCq1    H314054   1.186   1.373  11.926  0.6230 -0.6167 -0.0235
    1TCq1    H414055   1.595   1.417  12.018 -0.9407  1.2904  0.4128
    2MPD1     C14056   1.205   0.962  12.427  0.2814  0.0312  0.3933
    2MPD1    C114057   1.103   1.036  12.368  1.6346  0.7181 -0.5423
    2MPD1    C214058   1.136   1.118  12.259  0.3196 -0.0628  0.2183
    2MPD1    C314059   1.264   1.134  12.216  0.3143 -0.8174 -0.9927
    2MPD1    C414060   1.356   1.053  12.277  0.3069 -0.0517  0.7208
    2MPD1    C514061   1.334   0.965  12.373 -0.6424 -0.4905  0.2265
    2MPD1     H14062   1.062   1.184  12.216 -0.2541 -1.8077 -1.4777
    2MPD1    H114063   1.459   1.063  12.243  0.7945 -1.3172  1.8457
    2MPD1    H214064   1.182   0.895  12.509  0.0376  0.3579  0.5903
    2MPD1    H314065   1.412   0.910  12.423  1.3304 -0.5912 -2.9305
    2MPD1     N14066   1.288   1.224  12.110 -0.3849 -0.4030  0.3772
    2MPD1    H514067   1.213   1.275  12.064  0.3599  1.0109  0.7263
    2MPD1    N114068   0.977   1.040  12.430  0.4754  0.2340 -0.1601
    2MPD1    H614069   0.898   1.038  12.366  0.9231  1.9907 -0.7647
    2MPD1    H714070   0.972   0.966  12.499  0.2147  0.3453 -0.0604
    1TCq1    O114071   2.943   4.714   8.933  0.1703 -0.4237  0.1148
    1TCq1    C114072   2.877   4.711   8.813  0.2300 -0.3818 -0.1451
    1TCq1    O214073   2.842   0.083   8.744  0.1558  0.1780 -0.3466
    1TCq1    C214074   2.907   4.586   8.751 -0.0685 -0.1889  0.0552
    1TCq1    C314075   2.913   4.592   8.614  0.0287  0.5990 -0.0480
    1TCq1    C414076   2.911   4.477   8.553  0.2466 -0.1578 -0.4959
    1TCq1    C514077   2.863   4.365   8.618 -0.3114 -0.2564 -0.4363
    1TCq1    C614078   2.860   4.364   8.756 -0.9201  0.2476  0.4945
    1TCq1    C714079   2.888   4.476   8.830 -0.1018 -0.5253  0.4693
    1TCq1    C814080   2.854   4.237   8.835 -0.1853 -0.2098 -0.3748
    1TCq1    O414081   2.893   4.232   8.949 -0.0338  0.1108 -0.2978
    1TCq1    C914082   2.916   4.474   8.406 -0.0458  1.0523  0.1432
    1TCq1    O514083   2.863   4.369   8.354 -0.0174  0.0052 -0.3160
    1TCq1    O614084   2.933   4.589   8.353 -0.2503 -0.0706  0.0779
    1TCq1    H114085   3.012   4.646   8.944  0.2743 -0.0396  1.7970
    1TCq1    H214086   2.943   4.686   8.568 -0.3522  1.5072  1.5592
    1TCq1    H314087   2.853   4.270   8.566 -0.5384  0.7775 -2.2437
    1TCq1    H414088   2.857   4.488   8.933  0.4715 -1.4131  0.7425
    2MPD1     C14089   2.786   3.731   8.895 -0.2689  0.0172  0.2915
    2MPD1    C114090   2.744   3.766   8.769  0.0678 -0.6994 -0.6272
    2MPD1    C214091   2.753   3.898   8.730 -0.0123 -0.6470 -0.4062
    2MPD1    C314092   2.808   3.995   8.813  1.1092 -0.2424 -0.4047
    2MPD1    C414093   2.862   3.953   8.934  0.7558 -0.5835  0.2611
    2MPD1    C514094   2.844   3.823   8.979  0.4184  0.2110  0.4109
    2MPD1     H14095   2.711   3.927   8.634 -3.5632 -0.4861  1.2197
    2MPD1    H114096   2.926   4.011   8.999 -0.3152  0.0979  0.7129
    2MPD1    H214097   2.789   3.632   8.938 -1.2132  0.7742  2.1297
    2MPD1    H314098   2.888   3.792   9.073 -1.6757  1.3222  1.7487
    2MPD1     N14099   2.808   4.128   8.762  0.3008 -1.1653  0.4606
    2MPD1    H514100   2.762   4.132   8.671 -0.6305  0.8620  1.0053
    2MPD1    N114101   2.714   3.662   8.685  0.7500  0.0447  0.1163
    2MPD1    H614102   2.658   3.680   8.603  1.1031 -0.9942 -0.3573
    2MPD1    H714103   2.664   3.587   8.734  0.8974 -0.2313 -0.1577
    1MPD1     C14104   2.438   2.050  12.405 -0.2889 -0.0154  0.2007
    1MPD1    C114105   2.566   2.000  12.408  0.0406  0.1001 -0.5646
    1MPD1    C214106   2.662   2.057  12.323 -0.5866 -0.2918 -0.0238
    1MPD1    C314107   2.628   2.152  12.227  0.3997 -0.1052 -0.4454
    1MPD1    C414108   2.498   2.188  12.225  0.0200  0.4241  0.2596
    1MPD1    C514109   2.404   2.149  12.315  0.2725  0.1954  0.1244
    1MPD1     H14110   2.765   2.026  12.336 -0.3775  1.0455  1.5750
    1MPD1    H114111   2.461   2.263  12.156  0.3330 -0.8955 -1.3466
    1MPD1    H214112   2.360   2.008  12.469  0.3444  0.4900  1.2939
    1MPD1    H314113   2.305   2.190  12.299  0.8696  1.3514 -0.5306
    1MPD1     N14114   2.727   2.184  12.129  1.1793 -0.0540  0.3728
    1MPD1    H514115   2.825   2.162  12.145  1.7808  0.1757 -3.1221
    1MPD1    N114116   2.605   1.913  12.512 -0.0025  0.1353  0.0168
    1MPD1    H614117   2.539   1.857  12.566 -2.0316  4.1721  1.6899
    1MPD1    H714118   2.678   1.848  12.483  2.4355  2.8012  0.1713
    2MPD1     C14119   2.317   2.475  11.274  0.1889 -0.2605 -0.1115
    2MPD1    C114120   2.256   2.446  11.150  0.2116 -0.6861 -0.4844
    2MPD1    C214121   2.326   2.367  11.058 -1.0002 -0.1721 -0.4813
    2MPD1    C314122   2.456   2.316  11.088  0.2701 -0.1835  0.1102
    2MPD1    C414123   2.509   2.360  11.203  0.1610  0.6170  0.6173
    2MPD1    C514124   2.439   2.435  11.296 -0.0708 -0.2308  0.5937
    2MPD1     H14125   2.275   2.363  10.962  0.8524  1.2359 -1.5294
    2MPD1    H114126   2.611   2.329  11.226  0.4757  0.1055 -1.4887
    2MPD1    H214127   2.269   2.540  11.346  0.4943 -0.2508  0.0809
    2MPD1    H314128   2.491   2.472  11.383  1.7097  0.3558 -0.7026
    2MPD1     N14129   2.526   2.234  10.999 -0.1296 -0.4671  0.3047
    2MPD1    H514130   2.612   2.193  11.035  0.5534 -0.2930 -1.1435
    2MPD1    N114131   2.143   2.513  11.115  0.6406 -0.0123  0.5099
    2MPD1    H614132   2.106   2.484  11.025 -1.8677  0.8222  1.2625
    2MPD1    H714133   2.079   2.542  11.188  0.6885 -1.2636  1.0475
    3MPD1     C14134   2.288   1.409  10.381  0.3223 -0.7320 -0.9252
    3MPD1    C114135   2.271   1.415  10.517 -0.3428  1.3461  0.5910
    3MPD1    C214136   2.329   1.518  10.583 -1.1319 -0.3553  0.4108
    3MPD1    C314137   2.413   1.608  10.517 -0.4135  0.4914 -0.0947
    3MPD1    C414138   2.454   1.582  10.388 -0.0440 -0.4042 -0.1209
    3MPD1    C514139   2.378   1.491  10.318  0.4070 -0.5628 -0.0761
    3MPD1     H14140   2.302   1.542  10.685 -0.0121 -0.7702  0.8014
    3MPD1    H114141   2.538   1.622  10.334 -1.0732 -0.1809 -1.5523
    3MPD1    H214142   2.223   1.351  10.316 -1.1231 -0.0861 -0.0665
    3MPD1    H314143   2.387   1.490  10.210 -3.3651  0.2250 -0.4321
    3MPD1     N14144   2.447   1.713  10.601 -0.3496 -0.2428 -0.3929
    3MPD1    H514145   2.415   1.728  10.696 -0.1293  1.8008 -0.6431
    3MPD1    N114146   2.175   1.335  10.573 -0.2093  0.3170  0.3093
    3MPD1    H614147   2.168   1.314  10.673  1.0787  0.3904  0.4087
    3MPD1    H714148   2.181   1.244  10.529  0.6555  0.7326 -0.4146
    4MPD2     C14149   3.021   2.659  11.427 -0.2797  0.2310 -0.4093
    4MPD2    C114150   3.107   2.567  11.488 -0.1228 -1.1214  0.7717
    4MPD2    C214151   3.219   2.527  11.413 -0.5519  0.1236  0.1539
    4MPD2    C314152   3.246   2.578  11.290 -0.0552  0.2194  0.9067
    4MPD2    C414153   3.165   2.672  11.236 -0.2098  0.2968 -0.2343
    4MPD2    C514154   3.048   2.714  11.303  0.2891 -0.4721 -0.2127
    4MPD2     H14155   3.281   2.452  11.461 -0.0968  0.9938  0.9166
    4MPD2    H114156   3.189   2.716  11.139 -1.9002 -0.9496 -1.2149
    4MPD2    H214157   2.939   2.704  11.483  1.3360  1.0248  1.3223
    4MPD2    H314158   2.977   2.775  11.247  2.4589  1.8151 -0.4741
    4MPD2     N14159   3.362   2.528  11.228 -0.0786 -0.5830  0.2196
    4MPD2    H514160   3.407   2.457  11.286  1.7126  0.4187  0.0453
    4MPD2    N114161   3.074   2.504  11.612 -0.3942  0.1621  0.3781
    4MPD2    H714162   3.125   2.418  11.624  1.6044  1.1769 -0.8309
    5TMC3    C114163   2.972   2.411  11.795 -0.5254  0.6054  0.0967
    5TMC3    C214164   2.855   2.405  11.864  0.7669 -0.2731  0.1791
    5TMC3    C314165   2.843   2.292  11.951  0.4606  0.9143  0.1448
    5TMC3    C414166   3.074   2.325  11.799  0.3083 -0.6205 -0.1398
    5TMC3    C514167   3.055   2.224  11.888 -0.5401  0.5084  0.1925
    5TMC3    C614168   2.937   2.195  11.954 -1.0358  0.4412 -0.6561
    5TMC3     C14169   2.972   2.519  11.696  0.6851  0.0506  0.4623
    5TMC3     O14170   2.893   2.613  11.703 -0.3079  0.2266  0.0453
    5TMC3     H14171   2.786   2.489  11.867  2.5369  1.2112 -1.1893
    5TMC3    H114172   3.175   2.349  11.766 -0.2837  2.1014  0.0295
    5TMC3    H214173   2.932   2.101  12.008  0.4178  1.5462  1.4537
    5TMC3    C714174   3.143   2.107  11.864 -0.2723  0.8448  0.1361
    5TMC3    C814175   2.716   2.269  12.018  0.6222 -0.0257 -0.2958
    5TMC3    O114176   3.182   2.034  11.953 -0.3649 -0.2484 -0.6777
    5TMC3    O214177   2.629   2.350  11.994 -0.1491  0.0900  0.2029
    6TMC3    C114178   2.554   2.064  10.839 -0.8345  0.6512 -0.7256
    6TMC3    C214179   2.500   1.960  10.763  0.3311 -0.5250 -0.0830
    6TMC3    C314180   2.579   1.872  10.686 -0.3788  0.2506 -0.1573
    6TMC3    C414181   2.685   2.062  10.864  1.1053 -0.3436  0.5014
    6TMC3    C514182   2.761   1.958  10.806 -0.1279 -0.7548  0.3211
    6TMC3    C614183   2.713   1.875  10.712  0.8560  0.0773  0.0995
    6TMC3     C14184   2.468   2.169  10.895  0.4474  0.3434  0.1113
    6TMC3     O14185   2.376   2.199  10.819 -0.5447 -0.2971  0.0571
    6TMC3     H14186   2.394   1.965  10.744  0.1000 -0.2167  1.3303
    6TMC3    H114187   2.728   2.146  10.917  0.2141  0.3643  0.0989
    6TMC3    H214188   2.777   1.797  10.672 -1.0432 -0.6401 -1.5598
    6TMC3    C714189   2.902   1.958  10.846 -0.2537 -0.1680  0.6784
    6TMC3    C814190   2.546   1.801  10.567  0.0386 -0.0666 -0.1267
    6TMC3    O114191   2.950   2.056  10.891 -0.2381  0.2006 -0.3315
    6TMC3    O214192   2.626   1.797  10.471  0.5382  0.5163  0.1986
    7MPD2     C14193   3.528   1.938  11.576  0.0184 -0.9351  0.0606
    7MPD2    C114194   3.476   2.053  11.526 -1.1147  0.2531 -0.2036
    7MPD2    C214195   3.366   2.104  11.582  0.4599  0.2287 -1.1198
    7MPD2    C314196   3.306   2.054  11.692  0.6053  0.1765  0.5566
    7MPD2    C414197   3.359   1.937  11.745  0.2636 -0.4598 -0.3484
    7MPD2    C514198   3.463   1.873  11.677  0.0130 -0.3870 -0.3821
    7MPD2     H14199   3.314   2.189  11.538  2.6671  1.1001 -2.0554
    7MPD2    H114200   3.292   1.890  11.816  0.2190  0.8125  0.4441
    7MPD2    H214201   3.617   1.902  11.525 -0.7251 -0.9898 -1.2009
    7MPD2    H314202   3.491   1.772  11.704  0.2351 -0.7571 -2.0507
    7MPD2     N14203   3.189   2.114  11.737 -0.3052  0.2568 -0.1559
    7MPD2    H514204   3.142   2.181  11.676 -2.3503 -0.0273  1.1015
    7MPD2    N114205   3.549   2.105  11.415 -0.1489  0.3093  0.0441
    7MPD2    H714206   3.619   2.042  11.377 -0.6320  0.7283 -1.5727
    8TMC3    C114207   3.551   2.245  11.226 -0.2270 -1.0454  0.0176
    8TMC3    C214208   3.517   2.152  11.137  0.4764 -0.6095  0.7898
    8TMC3    C314209   3.484   2.193  11.015 -0.0831  0.0976 -0.1006
    8TMC3    C414210   3.567   2.379  11.194 -0.8812 -0.3130 -0.8056
    8TMC3    C514211   3.510   2.422  11.079 -0.1862 -0.0349  0.1441
    8TMC3    C614212   3.472   2.331  10.990 -0.3800 -0.2876  0.1795
    8TMC3     C14213   3.523   2.232  11.366  0.3133 -0.2177  0.0639
    8TMC3     O14214   3.469   2.335  11.408  0.2682  0.3579 -0.0739
    8TMC3     H14215   3.513   2.046  11.159  2.4617 -0.4243  2.0442
    8TMC3    H114216   3.592   2.461  11.260 -4.0735 -1.6216  1.9943
    8TMC3    H214217   3.433   2.367  10.896 -1.5358  0.2303  0.8573
    8TMC3    C714218   3.411   2.526  11.095  0.0832  0.5636 -0.9322
    8TMC3    C814219   3.417   2.118  10.912 -0.2975  0.0949  0.1827
    8TMC3    O114220   3.353   2.581  10.999  0.8108 -0.2319 -0.2049
    8TMC3    O214221   3.373   2.177  10.817  0.7196  0.7837  0.2221
    9MPD2     C14222   3.366   1.759  10.897 -0.1466  0.2147  0.3429
    9MPD2    C114223   3.334   1.889  10.878 -1.0370 -0.4669  0.2260
    9MPD2    C214224   3.198   1.918  10.872  0.1298 -0.0644 -0.2619
    9MPD2    C314225   3.101   1.814  10.861 -0.5398 -0.0643 -0.5356
    9MPD2    C414226   3.141   1.684  10.854 -0.1520 -0.8220  0.5980
    9MPD2    C514227   3.274   1.656  10.873 -0.1264  0.4495 -0.8689
    9MPD2     H14228   3.183   2.024  10.889 -1.7237  0.2155 -3.8019
    9MPD2    H114229   3.067   1.605  10.850  0.4440 -1.3555  0.0705
    9MPD2    H214230   3.468   1.731  10.922  0.1703  0.8505 -0.2246
    9MPD2    H314231   3.312   1.557  10.896  0.8083  1.5930  2.5162
    9MPD2     N14232   2.959   1.836  10.845  1.1706  0.0570  0.1685
    9MPD2    H514233   2.905   1.752  10.826 -0.8882  1.3489  0.2778
    9MPD2    N114234   3.430   1.981  10.925 -0.3377 -0.0551 -0.1502
    9MPD2    H714235   3.521   1.951  10.958 -0.9932 -2.1131 -0.2047
    1MPD1     C14236   1.604   0.963  15.862 -0.4759  0.0083  0.1901
    1MPD1    C114237   1.503   0.935  15.774 -0.5600 -0.0904 -0.6867
    1MPD1    C214238   1.464   0.803  15.757  0.0350  0.5021 -0.5277
    1MPD1    C314239   1.540   0.700  15.809 -0.1983 -0.3311  0.0711
    1MPD1    C414240   1.649   0.732  15.881 -0.2874 -0.1246  0.3066
    1MPD1    C514241   1.680   0.864  15.909  0.5517  0.3093  0.5811
    1MPD1     H14242   1.375   0.782  15.699  0.0481  0.3241 -0.4844
    1MPD1    H114243   1.712   0.654  15.921 -1.0843  0.3766  2.5495
    1MPD1    H214244   1.627   1.067  15.883 -2.5157  0.1365  1.7818
    1MPD1    H314245   1.766   0.874  15.975  0.9480  0.9817 -0.0328
    1MPD1     N14246   1.508   0.566  15.792 -0.5735 -0.0434 -0.4929
    1MPD1    H514247   1.565   0.496  15.837 -1.7274 -0.3591  0.4734
    1MPD1    N114248   1.428   1.039  15.730  0.0976  0.0390 -0.0230
    1MPD1    H614249   1.388   1.018  15.639 -1.6213  1.5049  0.3738
    1MPD1    H714250   1.480   1.125  15.712  0.9237 -0.3824  0.3754
    2MPD1     C14251   1.422   0.075  14.947  0.8991 -0.4222  0.2525
    2MPD1    C114252   1.467   0.196  14.988  0.5424 -0.3948 -0.0113
    2MPD1    C214253   1.475   0.228  15.118  0.7026  0.0906 -0.3819
    2MPD1    C314254   1.436   0.136  15.209  0.2948 -0.2212  0.2068
    2MPD1    C414255   1.386   0.013  15.167  0.2641 -0.1870 -0.0705
    2MPD1    C514256   1.387   4.699  15.036 -0.0021 -0.1821 -0.5615
    2MPD1     H14257   1.502   0.329  15.144 -0.6293  1.0244 -2.6323
    2MPD1    H114258   1.357   4.660  15.240  1.6258 -1.4555 -0.8504
    2MPD1    H214259   1.414   0.052  14.841  1.7572 -0.9669  0.3084
    2MPD1    H314260   1.350   4.606  14.995  1.5500 -1.1610  0.2947
    2MPD1     N14261   1.437   0.176  15.341  0.4266 -0.3408 -0.0232
    2MPD1    H514262   1.465   0.272  15.359  0.2760 -0.0314 -1.4707
    2MPD1    N114263   1.474   0.297  14.888  0.0668  0.0160  0.4529
    2MPD1    H614264   1.526   0.383  14.905  1.2726 -1.1195  2.4953
    2MPD1    H714265   1.507   0.265  14.797  2.4276  2.1244  0.5726
    3TCq2    C114266   1.411   0.095  15.447 -0.3313  0.5735 -0.1642
    3TCq2    O214267   1.401   4.693  15.453  0.2582  0.0901 -0.7839
    3TCq2    C214268   1.412   0.174  15.569  0.7979  0.6972  0.1086
    3TCq2    C314269   1.445   0.102  15.678 -0.6346  0.0000  1.1430
    3TCq2    C414270   1.468   0.167  15.800  0.5623 -0.5229 -0.5273
    3TCq2    C514271   1.457   0.306  15.811 -0.0304 -0.1415 -0.0583
    3TCq2    C614272   1.416   0.371  15.697 -0.1028 -0.5428  0.2033
    3TCq2    C714273   1.393   0.312  15.574 -0.2352 -0.1125  0.1334
    3TCq2    C814274   1.422   0.514  15.696  0.4520 -0.5361  0.6563
    3TCq2    O414275   1.366   0.571  15.605 -0.0937  0.4444 -1.0273
    3TCq2    C914276   1.490   0.086  15.925  0.2964 -1.2640  0.6286
    3TCq2    O514277   1.495   4.684  15.908 -0.2680 -0.4001  0.4920
    3TCq2    O614278   1.507   0.154  16.031 -0.0494 -0.3980 -0.2939
    3TCq2    H214279   1.455   4.716  15.674  2.1413  0.2983  0.0915
    3TCq2    H314280   1.485   0.352  15.905  3.9742  0.2444 -1.4461
    3TCq2    H414281   1.358   0.361  15.484  0.1665  1.1290  0.6509
    1TCq1    O114282   4.603   0.021  12.627  0.0248  0.3362  0.0006
    1TCq1    C114283   4.596   4.607  12.622  0.7294  0.0473  0.1710
    1TCq1    O214284   4.517   4.540  12.552 -0.0223 -0.6035 -0.1456
    1TCq1    C214285   4.657   4.561  12.745  0.8036 -0.2239  0.6077
    1TCq1    C314286   4.570   4.494  12.827 -0.2943 -0.6353  0.1460
    1TCq1    C414287   4.619   4.468  12.947  0.1045 -0.1733 -0.8986
    1TCq1    C514288   0.007   4.528  13.003  0.3991 -0.5078 -0.1259
    1TCq1    C614289   0.086   4.597  12.915  0.0064 -0.9803  0.3497
    1TCq1    C714290   0.052   4.620  12.787 -0.0335  0.6011 -0.3807
    1TCq1    C814291   0.209   4.648  12.963 -0.0135 -0.1872 -0.9482
    1TCq1    O414292   0.296   4.679  12.881  0.5940  0.7037  0.0786
    1TCq1    C914293   4.549   4.365  13.020  0.0208  0.2915 -0.1894
    1TCq1    O514294   4.599   4.323  13.132 -0.1954 -0.6862  0.3500
    1TCq1    O614295   4.459   4.308  12.949  0.0806  0.0323  0.7434
    1TCq1    H114296   4.638   0.042  12.716 -1.8334 -0.9426  1.0506
    1TCq1    H214297   4.479   4.456  12.784  1.3635 -1.3961 -2.7151
    1TCq1    H314298   0.036   4.506  13.106 -0.8892 -2.7312 -0.2399
    1TCq1    H414299   0.110   4.669  12.710  0.2485 -0.2902 -0.7364
    2MPD2     C14300   0.453   4.615  13.128  0.3370  0.5873 -0.0865
    2MPD2    C114301   0.335   4.659  13.179  0.0812 -0.2152  0.8310
    2MPD2    C214302   0.323   4.682  13.313  0.6496 -0.3335 -0.4086
    2MPD2    C314303   0.433   4.676  13.399  1.2444  0.2433 -0.6487
    2MPD2    C414304   0.547   4.619  13.355  0.2552 -0.4094  0.4699
    2MPD2    C514305   0.563   4.599  13.219 -0.3554 -0.3531 -0.9043
    2MPD2     H14306   0.231   0.001  13.350  0.3711 -0.7144 -0.6772
    2MPD2    H114307   0.631   4.608  13.422 -0.7105  2.4874  2.1396
    2MPD2    H214308   0.478   4.591  13.026  0.2018 -2.3712  0.5954
    2MPD2    H314309   0.662   4.571  13.186  0.4741  1.7775 -0.1684
    2MPD2     N14310   0.431   0.010  13.533  0.1600  0.0743  0.7966
    2MPD2    H514311   0.353   0.072  13.553  1.5326  2.0023  0.2626
    2MPD2    N114312   0.217   4.665  13.096  0.3130  0.1200  1.4189
    2MPD2    H714313   0.131   4.690  13.145  0.4200 -0.5506  1.9490
    3TCq1    O114314   0.427   0.520  13.870  0.3530  0.3821 -0.5720
    3TCq1    C114315   0.426   0.440  13.763  0.2254 -0.1717  1.2273
    3TCq1    O214316   0.366   0.448  13.659  0.1984  0.1199  0.2692
    3TCq1    C214317   0.474   0.309  13.802 -0.7214  0.6699 -0.1022
    3TCq1    C314318   0.456   0.258  13.932  0.5306 -0.3041 -0.1916
    3TCq1    C414319   0.476   0.125  13.961  0.5657 -0.3316  0.2198
    3TCq1    C514320   0.507   0.045  13.862 -0.4480  0.3738 -0.7267
    3TCq1    C614321   0.519   0.085  13.734  0.5122  0.7155 -0.2132
    3TCq1    C714322   0.503   0.220  13.703 -0.2172  0.2580  0.1775
    3TCq1    C814323   0.530   4.709  13.630  0.3269  0.0910 -0.2941
    3TCq1    O414324   0.579   4.599  13.652  0.1864  0.5799  0.3216
    3TCq1    C914325   0.448   0.068  14.090  0.0348  0.1177  0.3959
    3TCq1    O514326   0.465   4.666  14.104 -0.0380  0.0755  0.5401
    3TCq1    O614327   0.452   0.147  14.187 -0.3413 -0.6096 -0.0605
    3TCq1    H114328   0.480   0.493  13.947 -0.5743 -2.1369 -0.8366
    3TCq1    H214329   0.417   0.315  14.015 -1.0645  0.5416 -1.5145
    3TCq1    H314330   0.501   4.659  13.871 -1.8576  0.4899 -0.3933
    3TCq1    H414331   0.521   0.263  13.605 -0.6903 -1.9939 -0.9054
    1MPD2     C14332   0.363   0.919  15.033 -0.7353 -0.7540  0.0387
    1MPD2    C114333   0.246   0.908  14.962  0.8844  1.2007 -0.0994
    1MPD2    C214334   0.215   0.787  14.904 -0.0964 -0.6061 -0.9255
    1MPD2    C314335   0.298   0.680  14.904  0.3618  0.7009 -0.0159
    1MPD2    C414336   0.411   0.689  14.981 -0.0292  0.1079 -0.4072
    1MPD2    C514337   0.442   0.806  15.041 -0.1841 -0.1999 -0.2937
    1MPD2     H14338   0.129   0.785  14.839 -1.8617  1.2492  1.3610
    1MPD2    H114339   0.485   0.611  14.998  0.4217  0.7483  0.5742
    1MPD2    H214340   0.389   1.013  15.080  0.5793 -2.3597  2.5234
    1MPD2    H314341   0.528   0.818  15.107 -1.5050 -2.1559  1.7767
    1MPD2     N14342   0.254   0.563  14.841 -0.1515  0.1959 -0.6345
    1MPD2    H514343   0.158   0.563  14.805 -0.0515 -0.6053 -0.8939
    1MPD2    N114344   0.159   1.028  14.964 -0.2003  1.1331  0.8699
    1MPD2    H714345   0.190   1.113  15.010  0.1903  1.5482 -0.1570
    2TMC3    C114346   4.691   1.158  14.910  0.4670 -1.0284  0.2703
    2TMC3    C214347   4.554   1.122  14.894 -0.0639  1.0275  0.0423
    2TMC3    C314348   4.476   1.190  14.804  0.2421 -0.0416  0.3736
    2TMC3    C414349   0.024   1.253  14.825 -0.3917 -0.0021 -0.4728
    2TMC3    C514350   4.657   1.326  14.749  0.2063 -0.0779  0.6002
    2TMC3    C614351   4.530   1.296  14.737  0.2281 -0.0357 -0.0865
    2TMC3     C14352   0.039   1.033  14.905 -0.4047  0.1722  0.8641
    2TMC3     O14353   4.696   0.948  14.855  0.3545 -0.1634 -0.6950
    2TMC3     H14354   4.506   1.043  14.951 -1.4263  2.5777  1.0450
    2TMC3    H114355   0.129   1.274  14.839  0.0024 -0.2394 -3.0110
    2TMC3    H214356   4.479   1.345  14.655  0.1302  0.6109  0.3618
    2TMC3    C714357   4.709   1.425  14.643  0.9119 -0.5762 -0.3313
    2TMC3    C814358   4.409   1.100  14.713 -0.3185 -0.2085 -0.2906
    2TMC3    O114359   4.642   1.438  14.544 -0.4191  0.2467 -0.0583
    2TMC3    O214360   4.354   1.148  14.616  0.3344  0.3292 -0.4884
    3TCq1    O114361   1.091   2.012  14.716 -0.1590 -0.7477 -0.1103
    3TCq1    C114362   0.996   1.989  14.620 -0.1210 -0.2940 -0.0192
    3TCq1    O214363   1.020   1.936  14.511 -0.2996  0.3237 -0.0023
    3TCq1    C214364   0.876   1.969  14.695 -0.4158 -0.0748  0.3616
    3TCq1    C314365   0.876   1.945  14.833 -0.1826  0.7238  1.0935
    3TCq1    C414366   0.755   1.920  14.895 -0.5100 -0.0035 -0.0689
    3TCq1    C514367   0.640   1.902  14.814  0.5355  0.1900  0.0281
    3TCq1    C614368   0.649   1.914  14.681 -0.3586 -0.0183  0.0130
    3TCq1    C714369   0.760   1.956  14.619  0.2250 -0.6338 -0.5287
    3TCq1    C814370   0.524   1.907  14.609  0.3066 -0.1165 -0.3092
    3TCq1    O414371   0.533   1.974  14.507  0.4664 -0.0497  0.2970
    3TCq1    C914372   0.746   1.895  15.035 -0.4409  0.6483  0.1718
    3TCq1    O514373   0.847   1.931  15.104 -0.0535  0.5374  0.6030
    3TCq1    O614374   0.645   1.823  15.072  0.8042 -0.4922  0.7126
    3TCq1    H114375   1.052   2.059  14.792  0.6086  0.8264 -0.6916
    3TCq1    H214376   0.963   1.948  14.897  0.0344  3.2740  0.6864
    3TCq1    H314377   0.547   1.877  14.864  0.7725 -1.8609 -0.5915
    3TCq1    H414378   0.761   1.980  14.514  0.1662 -1.2405 -0.6721
    4MPD2     C14379   0.268   1.811  14.466 -0.3983 -0.1226 -1.0203
    4MPD2    C114380   0.308   1.775  14.598  0.0120  0.2980  0.0749
    4MPD2    C214381   0.246   1.673  14.673  0.0862  0.1686 -0.2400
    4MPD2    C314382   0.138   1.614  14.613  0.2637 -0.9619 -0.2679
    4MPD2    C414383   0.085   1.661  14.493  0.3039 -0.2748  0.9674
    4MPD2    C514384   0.150   1.758  14.422 -0.1117  0.2994 -0.2133
    4MPD2     H14385   0.296   1.634  14.761 -1.4028 -2.0476 -0.3667
    4MPD2    H114386   4.721   1.618  14.442  0.8324  0.1531 -0.2665
    4MPD2    H214387   0.328   1.879  14.407  0.3239  0.3772  0.3026
    4MPD2    H314388   0.107   1.783  14.326 -0.4398  0.7862  0.0571
    4MPD2     N14389   0.088   1.500  14.679  0.1762 -0.0951 -0.0829
    4MPD2    H514390   0.130   1.484  14.770 -0.3315 -0.0190  0.1713
    4MPD2    N114391   0.426   1.824  14.666  0.1912  0.3518  0.1740
    4MPD2    H714392   0.444   1.788  14.759 -0.4346  0.2225  0.2433
    5TMC2    C114393   0.002   0.376  14.680 -0.4554 -0.3383 -0.2622
    5TMC2    C214394   0.035   0.325  14.564 -0.5022  0.3868  0.9893
    5TMC2    C314395   0.164   0.280  14.543  0.1480 -0.2852 -0.3472
    5TMC2    C414396   0.100   0.372  14.780 -0.7027 -0.1299  0.1584
    5TMC2    C514397   0.227   0.348  14.752 -0.5614 -0.7090  0.0624
    5TMC2    C614398   0.264   0.290  14.638 -0.2627  0.6443 -0.2783
    5TMC2     C14399   4.656   0.500  14.687  0.1167  0.0384  0.1232
    5TMC2     O14400   4.717   0.583  14.756  0.0662  0.0753  0.5797
    5TMC2     H14401   4.694   0.331  14.476  1.9199  1.3516 -0.6692
    5TMC2    H114402   0.078   0.414  14.877 -0.7023 -0.0240  0.1133
    5TMC2    H214403   0.369   0.266  14.623 -0.4756 -0.4371 -0.0239
    5TMC2    C714404   0.314   0.440  14.824 -0.6818  0.1848 -0.4988
    5TMC2    C814405   0.198   0.249  14.403 -0.3327  0.1913 -0.4371
    5TMC2    O114406   0.432   0.411  14.842 -0.0372  0.2026 -0.7858
    5TMC2    O214407   0.116   0.215  14.319 -0.4119 -0.0811  0.2050
    5TMC2    O514408   0.331   0.228  14.397 -0.0040  0.0403  0.4102
    5TMC2    H514409   0.364   0.187  14.314 -0.8033  2.2485 -1.0326
    6MPD2     C14410   4.320   0.862  14.540  0.0109  0.0412 -0.4259
    6MPD2    C114411   4.426   0.863  14.628 -0.0222 -0.2016  0.3244
    6MPD2    C214412   4.497   0.755  14.654  0.4436  0.5053 -0.0002
    6MPD2    C314413   4.468   0.631  14.592  0.1696 -0.1930  0.3438
    6MPD2    C414414   4.372   0.632  14.496  0.4880  0.3238 -1.0796
    6MPD2    C514415   4.301   0.745  14.468 -0.1459 -0.3748 -0.0181
    6MPD2     H14416   4.571   0.757  14.733  0.1169 -0.9689  0.3459
    6MPD2    H114417   4.352   0.548  14.432 -1.4236 -0.3145  0.3630
    6MPD2    H214418   4.269   0.955  14.516 -1.1244  0.1042  2.1800
    6MPD2    H314419   4.217   0.738  14.400 -0.9540  1.0950  0.8168
    6MPD2     N14420   4.542   0.508  14.611  0.2345  0.0632  0.1859
    6MPD2    H514421   4.518   0.418  14.570  1.4071  0.0489 -0.4836
    6MPD2    N114422   4.454   0.971  14.723  0.0621  0.0484 -0.0085
    6MPD2    H714423   4.532   0.963  14.787 -0.2602 -3.2123 -0.0442
  945NH4     N114424   1.280   1.413  17.594 -0.7950 -0.1147 -0.3834
  945NH4     H214425   1.296   1.381   0.002  0.1004 -1.4024 -0.9569
  945NH4     H314426   1.361   1.467  17.560 -1.4238  1.8650  1.2734
  945NH4     H414427   1.187   1.458  17.579  0.2159  2.7560  1.9116
  945NH4     H514428   1.268   1.325  17.539 -0.4213 -0.5546  0.2383
  946SOD     NA14429   0.426   3.579   9.772 -0.2730  0.0608  0.1151
  947SOD     NA14430   0.535   0.005  11.569  0.4206  0.0407 -0.1061
  948SOD     NA14431   0.847   1.674  12.094 -0.3075  0.7334 -0.2868
  949SOD     NA14432   1.989   3.504  17.649  0.3312 -0.2864 -0.1847
  950SOD     NA14433   3.130   2.987   1.691  0.5362  0.1766  0.1855
  951SOD     NA14434   2.844   3.842   0.735 -0.0214  0.6006  0.0875
  952SOD     NA14435   2.607   0.790  17.603 -0.2345 -0.2598  0.2276
  953SOD     NA14436   3.717   4.131   5.330  0.2421 -0.2055 -0.4218
  954SOD     NA14437   1.958   2.392   6.916 -0.5568 -0.2761 -0.1258
  955SOD     NA14438   4.395   0.396   4.554  0.0644  0.4844 -0.0593
  956SOD     NA14439   3.684   0.774   2.799 -0.1162  0.3577 -0.1761
  957SOD     NA14440   1.040   2.902  11.085  0.0967  0.2152  0.1471
  958SOD     NA14441   2.049   4.271  12.411  0.0463  0.0027  0.1441
  959SOD     NA14442   1.007   1.960  11.224  0.3531 -0.3617 -0.1449
  960SOD     NA14443   0.602   0.950  12.132  0.6380 -0.4674 -0.6168
  961SOD     NA14444   1.317   1.070  15.093 -0.0351 -0.3051 -0.1786
  962SOD     NA14445   0.998   0.641  14.705  0.3447 -0.4960 -0.3717
  963SOD     NA14446   3.691   0.644   3.385  0.2624  0.1179 -0.0543
  964SOD     NA14447   1.859   4.569  15.293  0.5656  0.0602  0.1562
  965SOD     NA14448   1.081   3.881  13.014 -0.3286  0.4258  0.5712
  966SOD     NA14449   1.130   0.874  14.884  0.1581 -0.0347 -0.1506
  967SOD     NA14450   0.378   0.227  11.366  0.2324  0.2227  0.0010
  968SOD     NA14451   0.202   2.291   6.230  0.5892 -0.1086 -0.2806
  969SOD     NA14452   0.699   1.192   3.259 -0.5130  0.3698  0.4374
  970SOD     NA14453   1.864   3.865   9.501 -0.4190  0.3047 -0.5254
  971SOD     NA14454   2.877   3.377  10.181  0.1571 -0.5421  0.3626
  972SOD     NA14455   3.809   2.711  13.928 -0.1990 -0.0914 -0.1061
  973SOD     NA14456   0.039   3.849   9.416  0.1765 -0.1387 -0.1990
  974SOD     NA14457   0.396   4.432   9.885  0.1471 -0.3521 -0.4881
  975SOD     NA14458   2.248   0.367   8.400 -0.2851 -0.4261  0.2826
  976SOD     NA14459   1.342   4.588  13.516  0.1926 -0.0574 -0.7573
  977SOD     NA14460   4.605   4.707   6.588  0.3664 -0.4223 -0.0133
  978SOD     NA14461   2.637   0.495   8.826  0.2408  0.0053 -0.3634
  979SOD     NA14462   0.480   3.106   1.389  0.4626  0.4348 -0.5346
  980SOD     NA14463   0.629   0.310  11.564 -0.1210 -0.5376 -0.4961
  981SOD     NA14464   2.627   4.649  17.218  0.2672  0.0120  0.3505
  982SOD     NA14465   3.932   4.635   8.736 -0.0805  0.2833  0.3428
  983SOD     NA14466   2.717   2.339   7.541  0.1102  0.2041  0.3284
  984SOD     NA14467   0.800   2.086   3.256 -0.6200  0.8673 -0.1760
  985SOD     NA14468   4.345   0.394  12.203  0.3529 -0.3075 -0.6215
  986SOD     NA14469   2.585   4.054  13.414 -0.0134 -0.0606 -0.0779
  987SOD     NA14470   0.666   0.905  13.734  0.5685  0.1406 -0.4439
  988SOD     NA14471   3.741   0.112  14.289 -0.4113 -0.1591 -0.2635
  989SOD     NA14472   0.257   4.012  10.880 -0.1554  0.1839 -0.2951
  990SOD     NA14473   3.175   4.098   2.091  0.4186 -0.0861 -0.1095
  991SOD     NA14474   2.992   0.321   6.032 -0.0642 -0.3091  0.0489
  992SOD     NA14475   4.215   4.060  15.516 -0.4735  0.1656  0.3711
  993SOD     NA14476   4.621   1.566  15.284 -0.0675 -0.0888  0.2992
  994SOD     NA14477   3.208   0.735  13.963 -0.1358  0.1145 -0.0847
  995SOD     NA14478   0.409   3.460  11.398  0.8434  0.4155  0.1740
  996SOD     NA14479   4.355   4.092  12.931 -0.0526 -0.0843 -0.6353
  997SOD     NA14480   2.454   0.960  10.908 -0.0572 -0.3266  0.2547
  998SOD     NA14481   4.462   1.554  10.536 -0.3009  0.2877  0.1436
  999SOD     NA14482   1.456   2.589  14.308 -0.4719 -0.1001  0.1606
 1000SOD     NA14483   0.073   2.273   0.960  0.2449  0.2052 -0.2682
 1001SOD     NA14484   0.983   4.600  11.597 -0.2388  0.3784 -0.4121
 1002SOD     NA14485   3.022   2.797   1.446  0.0482  0.4459  0.0562
 1003SOD     NA14486   4.253   3.401   9.868 -0.3134  0.1998 -0.1581
 1004SOD     NA14487   2.638   2.126  12.641  0.3902 -0.4380 -0.5351
 1005SOD     NA14488   4.368   3.317  16.830  0.5020 -0.0211 -0.2548
 1006SOD     NA14489   2.984   2.813  15.428  0.2565  0.1504 -0.0952
 1007SOD     NA14490   1.879   0.214  14.665  0.1894  0.1965  0.2203
 1008SOD     NA14491   1.114   4.386  12.077 -0.1807 -0.0173 -0.0316
 1009SOD     NA14492   2.325   3.917  13.522 -0.3626 -0.7478 -0.3777
 1010SOD     NA14493   1.230   2.345   5.524  0.6466 -0.2352  0.3977
 1011SOL     OW14494   1.707   3.098  13.058  0.0471 -0.3098  0.1933
 1011SOL    HW114495   1.759   3.161  13.007  0.8678 -2.1343 -1.2218
 1011SOL    HW214496   1.689   3.020  13.006  1.3490 -0.6860  0.2962
 1012SOL     OW14497   0.941   2.045   1.639  0.4198 -0.4637 -0.2464
 1012SOL    HW114498   1.033   2.023   1.626  1.2417  2.0912  1.2434
 1012SOL    HW214499   0.936   2.123   1.694 -0.9520 -0.1595 -0.7904
 1013SOL     OW14500   4.390   4.044  17.564  0.1599  0.1145  0.2052
 1013SOL    HW114501   4.447   4.099  17.618 -3.5006 -0.2607  4.4611
 1013SOL    HW214502   4.337   4.006  17.634 -0.5382 -1.1755 -1.0038
 1014SOL     OW14503   4.553   2.350   0.328 -0.6394 -0.0535 -0.0772
 1014SOL    HW114504   4.601   2.428   0.353  0.4231 -0.6509 -0.2212
 1014SOL    HW214505   4.500   2.336   0.406  1.4365  0.8399  1.4622
 1015SOL     OW14506   3.534   2.691   7.365 -0.0700 -0.6920 -0.7001
 1015SOL    HW114507   3.548   2.610   7.316  0.5247 -2.4231  2.3563
 1015SOL    HW214508   3.624   2.722   7.358 -0.7173  0.8410 -2.1672
 1016SOL     OW14509   2.853   4.486   5.165  0.0320 -0.1474 -0.5000
 1016SOL    HW114510   2.862   4.448   5.078  1.9855 -0.8119 -0.0196
 1016SOL    HW214511   2.926   4.443   5.209  0.1970  0.4740 -0.1792
 1017SOL     OW14512   4.160   0.582   8.293 -0.3319  0.2731 -0.2842
 1017SOL    HW114513   4.210   0.637   8.232  0.7909 -2.1018 -1.4824
 1017SOL    HW214514   4.142   0.504   8.241  1.8557 -0.1046 -0.4942
 1018SOL     OW14515   1.451   3.496   7.242 -0.8002 -0.9609 -0.1773
 1018SOL    HW114516   1.375   3.534   7.198  0.6018 -1.4160 -2.9391
 1018SOL    HW214517   1.441   3.514   7.336 -3.5270  0.6996 -0.7961
 1019SOL     OW14518   1.462   0.527   4.584  0.1502  0.3932 -0.4557
 1019SOL    HW114519   1.414   0.590   4.530 -1.6752 -0.4268  0.2212
 1019SOL    HW214520   1.525   0.508   4.514  0.2625 -1.6658  0.2145
 1020SOL     OW14521   1.772   4.367   7.817  0.0334  1.3148  0.3336
 1020SOL    HW114522   1.807   4.454   7.837  0.8120  1.4435 -1.6314
 1020SOL    HW214523   1.699   4.376   7.756  0.4146 -0.0559 -0.3210
 1021SOL     OW14524   4.546   2.684   3.100 -0.2839  0.0675  0.0954
 1021SOL    HW114525   4.575   2.593   3.096 -2.2505 -0.6021  0.6128
 1021SOL    HW214526   4.491   2.683   3.179  2.2388 -0.5936  1.8529
 1022SOL     OW14527   0.188   0.638   3.320 -0.8773 -0.0608  0.3383
 1022SOL    HW114528   0.260   0.590   3.362  0.2079  0.6018 -0.7610
 1022SOL    HW214529   0.172   0.720   3.365 -0.4509  0.1704  0.0651
 1023SOL     OW14530   3.564   4.702   0.685 -0.0039  0.5147 -0.9242
 1023SOL    HW114531   3.486   4.652   0.660 -0.2572  0.8084 -0.7186
 1023SOL    HW214532   3.631   4.650   0.641  1.7040  1.4866  0.5848
 1024SOL     OW14533   4.145   3.951   2.608  0.3692 -0.1025  0.3291
 1024SOL    HW114534   4.083   3.987   2.671 -0.8175 -2.7664  0.6540
 1024SOL    HW214535   4.095   3.882   2.565 -0.1694 -0.7130  1.9590
 1025SOL     OW14536   3.615   2.050   8.043  0.0786  0.0992  0.2269
 1025SOL    HW114537   3.574   1.973   8.082  0.8486  0.4284  1.6671
 1025SOL    HW214538   3.704   2.052   8.077  0.0688  1.5423  0.1743
 1026SOL     OW14539   1.250   2.581   5.564  0.0169 -0.5138  0.2517
 1026SOL    HW114540   1.299   2.645   5.512  0.7258 -1.0020  0.3193
 1026SOL    HW214541   1.261   2.619   5.651  0.4103  2.0256 -0.8899
 1027SOL     OW14542   2.528   4.047   7.121  0.0143  0.1280  0.2360
 1027SOL    HW114543   2.499   4.123   7.171 -1.0146 -0.1352  0.0382
 1027SOL    HW214544   2.597   4.019   7.181 -1.3422 -3.2302  0.2431
 1028SOL     OW14545   1.829   4.669   6.408 -0.7035 -0.0982 -0.0515
 1028SOL    HW114546   1.879   0.010   6.461  1.0754 -1.4227 -0.1520
 1028SOL    HW214547   1.898   4.650   6.344  0.2275 -1.5356  1.3987
 1029SOL     OW14548   2.177   0.496   3.749  0.2487 -0.3271  0.5979
 1029SOL    HW114549   2.160   0.583   3.712 -1.9705 -1.4061 -0.9758
 1029SOL    HW214550   2.269   0.495   3.723  0.5351  1.5321  1.5686
 1030SOL     OW14551   0.846   4.350   7.121 -0.0787 -0.2270 -0.5613
 1030SOL    HW114552   0.919   4.294   7.096  0.5592  0.3803 -0.0510
 1030SOL    HW214553   0.785   4.286   7.159 -1.9431  2.2006  0.5210
 1031SOL     OW14554   2.355   3.679  13.499 -0.0095  0.1495 -0.5796
 1031SOL    HW114555   2.444   3.665  13.533  0.2467  2.1464 -0.4429
 1031SOL    HW214556   2.303   3.599  13.506 -0.8130  0.8072  0.8448
 1032SOL     OW14557   2.052   0.331   9.660 -0.4300 -0.3853 -0.4444
 1032SOL    HW114558   1.959   0.319   9.682 -0.9725  2.0692 -1.4374
 1032SOL    HW214559   2.075   0.238   9.657  0.7472 -0.0613 -1.4476
 1033SOL     OW14560   4.145   2.143   8.434 -0.1972 -0.2509 -0.2834
 1033SOL    HW114561   4.160   2.193   8.354  0.4450 -0.2090 -0.1432
 1033SOL    HW214562   4.102   2.197   8.500 -0.2898 -0.6012 -0.0549
 1034SOL     OW14563   0.389   3.779  14.440  0.2190  0.3530 -0.6469
 1034SOL    HW114564   0.468   3.829  14.459  0.1583 -0.5619  2.0999
 1034SOL    HW214565   0.316   3.828  14.476  0.2583  0.2326 -0.4004
 1035SOL     OW14566   0.004   1.317   7.279 -0.2110  0.5142 -0.3305
 1035SOL    HW114567   0.049   1.360   7.206 -0.0514 -0.1395 -0.6145
 1035SOL    HW214568   0.053   1.234   7.279 -2.2742 -0.6852 -1.2671
 1036SOL     OW14569   1.384   0.304   3.013  0.2068  0.3443  0.6816
 1036SOL    HW114570   1.476   0.280   3.002 -0.4756 -2.1397  0.5312
 1036SOL    HW214571   1.381   0.390   3.056  1.5299  0.4313  0.6011
 1037SOL     OW14572   4.206   2.588   5.136  0.4964 -0.6366  0.1805
 1037SOL    HW114573   4.224   2.647   5.063 -0.4980  2.0741  2.1307
 1037SOL    HW214574   4.243   2.646   5.202 -0.7485  1.3770 -0.9147
 1038SOL     OW14575   0.417   3.272  16.855  0.0941 -0.0371  0.7342
 1038SOL    HW114576   0.386   3.362  16.866 -0.3065 -0.3236  1.9712
 1038SOL    HW214577   0.337   3.223  16.875  0.7441 -0.8940  1.2528
 1039SOL     OW14578   3.425   0.514   3.762  0.0454 -0.1851  0.0333
 1039SOL    HW114579   3.478   0.436   3.779 -0.1857 -0.6345 -1.3634
 1039SOL    HW214580   3.333   0.493   3.779 -0.8019  1.4209 -2.5664
 1040SOL     OW14581   2.061   3.490  13.036 -0.0817  0.0681  0.0341
 1040SOL    HW114582   1.993   3.554  13.014  0.4539 -0.0279 -1.8831
 1040SOL    HW214583   2.116   3.547  13.090 -0.8909  1.3183 -0.4544
 1041SOL     OW14584   1.579   4.496   5.122  0.1102 -0.0717 -0.3905
 1041SOL    HW114585   1.649   4.447   5.166 -0.7679  0.0416  1.1226
 1041SOL    HW214586   1.544   4.541   5.198 -1.5673 -0.5561 -0.8821
 1042SOL     OW14587   3.480   1.690   7.902  0.2635 -0.2607  0.5149
 1042SOL    HW114588   3.522   1.724   7.981 -0.6070 -0.1009  0.9111
 1042SOL    HW214589   3.512   1.600   7.912  0.4376 -0.1804  0.6837
 1043SOL     OW14590   1.090   2.270   7.671  1.1935 -0.0395 -0.0850
 1043SOL    HW114591   1.028   2.338   7.645  0.0362 -1.5918 -1.4120
 1043SOL    HW214592   1.163   2.297   7.615  0.5246  2.6384  0.3253
 1044SOL     OW14593   0.371   1.757   1.299  0.5283  0.2735 -0.0055
 1044SOL    HW114594   0.360   1.686   1.362 -0.2333  1.5291  1.2834
 1044SOL    HW214595   0.465   1.757   1.284  0.3719 -0.1037 -0.9895
 1045SOL     OW14596   0.596   3.755   8.050 -0.0614 -0.0566 -0.6691
 1045SOL    HW114597   0.569   3.753   7.958  1.1899 -1.2339 -0.9973
 1045SOL    HW214598   0.678   3.705   8.054 -0.2444 -0.1527  1.6104
 1046SOL     OW14599   1.946   0.960   3.716 -0.5272  0.3705 -0.2747
 1046SOL    HW114600   1.896   0.970   3.635  1.3659 -0.7280 -1.5814
 1046SOL    HW214601   1.899   1.024   3.769  0.4953  0.3860  0.5922
 1047SOL     OW14602   1.884   4.666  14.181 -0.1165 -0.6213  0.0767
 1047SOL    HW114603   1.814   4.706  14.129  0.4759 -1.0653 -1.0822
 1047SOL    HW214604   1.880   4.574  14.157 -0.8145 -0.4983 -0.2852
 1048SOL     OW14605   0.162   0.999   5.164  0.1601  0.0229 -0.2394
 1048SOL    HW114606   0.108   0.978   5.240 -0.4109  0.2532 -0.5846
 1048SOL    HW214607   0.095   1.012   5.097 -0.0083 -2.1014 -0.4616
 1049SOL     OW14608   3.355   2.891  14.486  0.3181 -0.7695  0.0345
 1049SOL    HW114609   3.287   2.913  14.550  0.6451 -0.7859  0.3857
 1049SOL    HW214610   3.305   2.829  14.433  0.9353  1.1592 -2.7700
 1050SOL     OW14611   3.369   3.597   2.319  0.2904  0.2423 -0.3803
 1050SOL    HW114612   3.334   3.652   2.389 -0.8275 -0.4310 -0.4244
 1050SOL    HW214613   3.462   3.622   2.327  0.0995  1.3880 -1.6744
 1051SOL     OW14614   3.752   0.759   9.203 -0.1646  0.2473  0.1596
 1051SOL    HW114615   3.671   0.757   9.152 -0.7091 -0.4758  1.0537
 1051SOL    HW214616   3.822   0.735   9.142  1.7666 -0.4071  2.6072
 1052SOL     OW14617   1.294   3.459   7.572 -0.3121 -0.3606 -0.4695
 1052SOL    HW114618   1.305   3.429   7.662  1.3643 -0.8605 -0.8420
 1052SOL    HW214619   1.202   3.486   7.578  0.9427  3.7403  0.1444
 1053SOL     OW14620   0.076   1.597   1.255  0.5055  0.4007  0.7104
 1053SOL    HW114621   0.119   1.535   1.196  0.3994 -0.9324  2.0455
 1053SOL    HW214622   4.714   1.553   1.270 -0.1056  1.7802  1.2407
 1054SOL     OW14623   3.244   0.354   1.600 -0.2907 -0.1798 -0.0041
 1054SOL    HW114624   3.265   0.302   1.523  1.2511  1.6673 -0.8356
 1054SOL    HW214625   3.239   0.444   1.567 -0.8400  0.2482  1.2326
 1055SOL     OW14626   0.513   2.643   7.496 -0.4115 -0.6462  0.1991
 1055SOL    HW114627   0.433   2.651   7.548 -0.7386  2.1089 -0.7460
 1055SOL    HW214628   0.577   2.698   7.540 -1.0582  0.4375 -0.2163
 1056SOL     OW14629   1.946   3.874   0.549  0.1036  0.3340 -0.3023
 1056SOL    HW114630   1.905   3.880   0.463 -4.2892  1.4363  1.8669
 1056SOL    HW214631   1.998   3.795   0.540 -1.2833 -0.6738  0.5597
 1057SOL     OW14632   3.838   4.323  17.373 -0.3747 -0.1970  0.3226
 1057SOL    HW114633   3.748   4.311  17.402 -1.4234  1.9609 -2.0584
 1057SOL    HW214634   3.885   4.293  17.452 -0.2617  1.2778  0.8273
 1058SOL     OW14635   4.162   0.826  13.656  0.4751 -0.4802  0.1447
 1058SOL    HW114636   4.183   0.912  13.619 -2.0339  0.0575 -0.0667
 1058SOL    HW214637   4.082   0.801  13.610 -0.4430  2.9964 -0.1223
 1059SOL     OW14638   0.972   0.708   8.118  0.1043 -0.6337  0.3494
 1059SOL    HW114639   0.907   0.646   8.085 -0.6041  0.1964  0.1988
 1059SOL    HW214640   0.928   0.789   8.093 -1.2892 -0.9654  1.7190
 1060SOL     OW14641   3.046   2.484   3.054 -0.3011 -0.1168 -0.4668
 1060SOL    HW114642   2.971   2.471   2.996 -1.9586  0.7335  1.4795
 1060SOL    HW214643   3.108   2.524   2.992  1.0020 -0.6138  0.5111
 1061SOL     OW14644   4.048   0.473   3.862 -0.5834 -0.5189  0.1794
 1061SOL    HW114645   4.125   0.417   3.869 -0.3393 -0.2973 -0.6172
 1061SOL    HW214646   4.083   0.560   3.843 -0.4674 -0.8212 -1.0119
 1062SOL     OW14647   3.490   4.009   0.414 -0.2347  0.3183 -0.0192
 1062SOL    HW114648   3.434   4.081   0.441 -2.1576 -1.5788  0.9991
 1062SOL    HW214649   3.430   3.958   0.359  1.4655  0.5494 -2.1312
 1063SOL     OW14650   2.692   0.568  14.301  0.5669  0.0748 -0.2359
 1063SOL    HW114651   2.668   0.646  14.352 -0.4694  0.6115 -1.5369
 1063SOL    HW214652   2.645   0.498  14.346  0.3512  0.0836 -0.4455
 1064SOL     OW14653   2.033   4.707   8.440  0.1402  0.1102 -0.2422
 1064SOL    HW114654   2.090   0.027   8.376  2.1242 -0.6997  0.9639
 1064SOL    HW214655   2.104   4.656   8.480  0.7037 -0.1390 -1.5717
 1065SOL     OW14656   0.930   4.457  10.486 -0.5732 -0.1503  0.2784
 1065SOL    HW114657   0.998   4.466  10.553 -0.8949  0.2926  0.5498
 1065SOL    HW214658   0.919   4.363  10.474  1.7382 -0.1277 -2.0495
 1066SOL     OW14659   3.668   2.409  17.431  0.3280  0.3263  0.2826
 1066SOL    HW114660   3.625   2.365  17.358  1.4910 -0.8142  0.2972
 1066SOL    HW214661   3.660   2.503  17.414  0.5306  0.2930  0.0095
 1067SOL     OW14662   3.511   3.224  14.491 -0.0115 -0.0748  0.6285
 1067SOL    HW114663   3.426   3.221  14.534 -0.8817  1.1553 -0.9832
 1067SOL    HW214664   3.560   3.151  14.528 -0.7517 -0.9101 -0.0532
 1068SOL     OW14665   1.440   3.518  12.875  0.0202  0.3365 -0.2678
 1068SOL    HW114666   1.494   3.439  12.866 -0.4079 -0.1066  0.9468
 1068SOL    HW214667   1.490   3.590  12.836 -0.6101  0.2221 -1.2782
 1069SOL     OW14668   1.994   2.003   6.332 -0.4981  0.5342 -0.4477
 1069SOL    HW114669   1.948   2.030   6.252 -0.0462 -2.8767 -1.8754
 1069SOL    HW214670   1.944   1.921   6.339 -1.4581  1.1360 -0.1845
 1070SOL     OW14671   4.077   2.405  12.207 -0.0698 -0.0875 -0.3846
 1070SOL    HW114672   4.104   2.487  12.165 -2.2065 -0.2686 -2.0845
 1070SOL    HW214673   4.085   2.337  12.141 -0.6346 -0.0868 -0.4540
 1071SOL     OW14674   3.786   2.508   2.718 -0.5139  0.2667 -0.1510
 1071SOL    HW114675   3.813   2.460   2.796 -3.7409 -1.4754 -0.1079
 1071SOL    HW214676   3.795   2.450   2.643 -2.2446 -0.0333 -0.1228
 1072SOL     OW14677   1.935   1.429  12.871  0.1396  0.5558  0.4441
 1072SOL    HW114678   1.925   1.339  12.902 -0.4628  0.3680 -0.3074
 1072SOL    HW214679   1.846   1.455  12.846 -0.2673 -1.1508  0.1413
 1073SOL     OW14680   0.763   3.524   6.280  0.5692  0.3152  0.1954
 1073SOL    HW114681   0.834   3.464   6.254  0.7708  0.8223 -0.4261
 1073SOL    HW214682   0.770   3.597   6.218 -1.7927  0.3652  0.0098
 1074SOL     OW14683   1.280   3.000  13.377  0.3031 -0.1696 -0.0721
 1074SOL    HW114684   1.306   3.090  13.396 -2.5271  0.5578  0.4734
 1074SOL    HW214685   1.326   2.954  13.447  0.1883  1.2926  0.9552
 1075SOL     OW14686   1.085   4.670  11.414 -0.0565 -0.5969 -0.2046
 1075SOL    HW114687   1.163   4.654  11.360 -0.3216  2.7520 -1.5645
 1075SOL    HW214688   1.029   4.693  11.341  3.3276  1.6272 -2.1160
 1076SOL     OW14689   0.273   2.445   6.855  0.4129 -0.3529  0.2167
 1076SOL    HW114690   0.349   2.396   6.823  0.7376  0.8550 -0.8673
 1076SOL    HW214691   0.283   2.455   6.949  0.9875  0.8990  0.0184
 1077SOL     OW14692   2.084   4.252  14.325  0.5714 -0.1168  0.6345
 1077SOL    HW114693   2.168   4.220  14.358  1.9028  1.2948 -1.4335
 1077SOL    HW214694   2.037   4.233  14.406  1.3114  2.1987  1.5941
 1078SOL     OW14695   3.161   2.895   1.909  0.1295 -0.6792  0.1623
 1078SOL    HW114696   3.085   2.873   1.964 -1.8478  1.7069 -1.6383
 1078SOL    HW214697   3.204   2.960   1.964 -0.7873 -0.1196  0.2116
 1079SOL     OW14698   2.928   1.022   7.464  0.1949  0.2522 -0.5080
 1079SOL    HW114699   3.022   1.009   7.474 -0.0414 -2.0659 -1.3597
 1079SOL    HW214700   2.891   1.038   7.551 -2.4143  2.6129 -2.0735
 1080SOL     OW14701   3.004   0.663  17.561 -0.2412  0.7856  0.2809
 1080SOL    HW114702   3.067   0.706  17.619  0.3842  0.8176 -0.4233
 1080SOL    HW214703   2.998   0.730  17.492  0.1139  1.2018  0.6612
 1081SOL     OW14704   0.639   0.341   5.195 -0.1215  0.4365  0.0601
 1081SOL    HW114705   0.654   0.251   5.226  1.3526  0.5359 -0.3334
 1081SOL    HW214706   0.549   0.331   5.166  0.8780 -3.2502 -1.8067
 1082SOL     OW14707   2.976   2.962  10.020 -0.3634 -0.1698  0.1177
 1082SOL    HW114708   2.924   3.014   9.959  0.9487 -0.4558 -1.2860
 1082SOL    HW214709   2.922   2.883  10.013 -0.8324  0.0187  1.8992
 1083SOL     OW14710   4.507   3.862   4.196 -0.5581 -1.2339  0.3751
 1083SOL    HW114711   4.530   3.939   4.248  1.6285 -2.4471  1.1938
 1083SOL    HW214712   4.593   3.821   4.183 -0.4342 -0.9908  0.4289
 1084SOL     OW14713   1.266   1.364   4.136  0.1622 -0.1329  0.1380
 1084SOL    HW114714   1.287   1.381   4.044 -1.3212  0.9468  0.0028
 1084SOL    HW214715   1.247   1.454   4.161 -0.2367 -0.4188  0.8439
 1085SOL     OW14716   1.880   3.428   4.310  0.4502 -0.2394 -0.2662
 1085SOL    HW114717   1.939   3.427   4.385 -1.3786  0.0719  1.1946
 1085SOL    HW214718   1.818   3.359   4.332 -0.1073  0.4709  0.4109
 1086SOL     OW14719   2.225   4.582   3.178 -0.0563 -0.3750 -1.0247
 1086SOL    HW114720   2.280   4.540   3.244  1.4978  1.3513 -1.2191
 1086SOL    HW214721   2.274   4.547   3.104  1.7734  1.1888 -0.5757
 1087SOL     OW14722   1.024   1.908   3.564  0.0682 -0.2401  0.3803
 1087SOL    HW114723   1.112   1.934   3.592  0.7411 -1.9484 -0.1260
 1087SOL    HW214724   0.999   1.861   3.644  0.0204 -1.0120 -0.0940
 1088SOL     OW14725   0.533   3.176   7.974  0.0338  0.9781 -0.5243
 1088SOL    HW114726   0.497   3.178   8.062 -3.0064 -2.3810 -1.6956
 1088SOL    HW214727   0.583   3.255   7.997 -0.2865  1.4488 -1.4537
 1089SOL     OW14728   4.346   3.688   1.926 -0.2013  0.8663 -0.0700
 1089SOL    HW114729   4.348   3.729   2.013 -0.5525 -1.5181  1.0618
 1089SOL    HW214730   4.385   3.759   1.874  1.4773  0.6814  0.9404
 1090SOL     OW14731   4.636   0.212   3.875  0.1640 -0.2424  0.2617
 1090SOL    HW114732   4.699   0.146   3.846  1.1275 -0.2280  2.3329
 1090SOL    HW214733   4.620   0.262   3.796 -0.5726  0.8903  1.1215
 1091SOL     OW14734   3.204   0.275   3.971  0.0195  0.3131  0.4825
 1091SOL    HW114735   3.218   0.369   3.966 -0.0213  0.2923 -0.1158
 1091SOL    HW214736   3.133   0.269   3.907  1.0593  0.7090 -0.7000
 1092SOL     OW14737   1.315   1.620   1.791 -0.0267  0.1823  0.3740
 1092SOL    HW114738   1.280   1.534   1.815 -0.3975 -0.3849 -2.2180
 1092SOL    HW214739   1.262   1.672   1.851 -0.2387  2.1707 -1.5479
 1093SOL     OW14740   2.846   2.909   2.240  0.0653  0.2880  0.0947
 1093SOL    HW114741   2.767   2.870   2.202  0.8456  0.5650 -1.8568
 1093SOL    HW214742   2.868   2.977   2.176 -1.8884  1.2740  0.4661
 1094SOL     OW14743   1.474   1.793  10.058 -0.5983 -0.0793  0.8722
 1094SOL    HW114744   1.474   1.701  10.086 -0.4122 -0.2488  0.2992
 1094SOL    HW214745   1.387   1.805  10.021 -0.3016  3.4884  1.3827
 1095SOL     OW14746   0.029   4.025   9.568 -0.1411 -0.2525 -0.2499
 1095SOL    HW114747   0.075   4.032   9.652  1.5004  4.4194 -1.5328
 1095SOL    HW214748   4.659   4.004   9.580 -0.0410 -0.0938  0.8731
 1096SOL     OW14749   0.439   4.680   5.390 -0.5041  0.1385 -0.2768
 1096SOL    HW114750   0.526   4.706   5.359 -0.4732  0.3103 -0.0426
 1096SOL    HW214751   0.439   4.588   5.364  1.8037 -0.0081  0.1949
 1097SOL     OW14752   4.103   4.528   4.058  0.0217 -0.1518 -0.5624
 1097SOL    HW114753   4.031   4.574   4.015  0.2609  0.0923 -0.7042
 1097SOL    HW214754   4.150   4.480   3.990  0.7232 -0.7459  0.3383
 1098SOL     OW14755   3.517   3.801   3.442 -0.6745  0.2770 -0.5150
 1098SOL    HW114756   3.464   3.729   3.406  1.4416 -1.4273 -0.1936
 1098SOL    HW214757   3.563   3.767   3.518  0.5363  2.7132 -0.1694
 1099SOL     OW14758   2.866   1.562   7.286 -0.1153 -1.1402 -0.8786
 1099SOL    HW114759   2.933   1.495   7.299 -0.1474 -1.3553 -1.7804
 1099SOL    HW214760   2.794   1.501   7.269 -0.6325 -0.1895 -2.1527
 1100SOL     OW14761   4.254   2.749   3.857  0.1402 -0.0700 -0.2845
 1100SOL    HW114762   4.207   2.707   3.928  0.0246  0.6989  0.0978
 1100SOL    HW214763   4.211   2.834   3.865 -2.1000 -1.3709  1.4567
 1101SOL     OW14764   1.177   3.279   7.415  0.3507 -0.1447  0.4043
 1101SOL    HW114765   1.240   3.346   7.440 -0.9506  0.9922  0.6799
 1101SOL    HW214766   1.240   3.228   7.365 -0.5954  0.1472 -1.0823
 1102SOL     OW14767   1.393   3.066   8.465 -0.5639  0.0005  0.0565
 1102SOL    HW114768   1.324   3.064   8.531  0.6682  1.0165  1.3625
 1102SOL    HW214769   1.421   3.156   8.475 -0.1177 -0.0649 -0.5801
 1103SOL     OW14770   2.860   3.229  15.068  0.1105 -0.0474 -0.0487
 1103SOL    HW114771   2.816   3.146  15.085  0.9592 -0.3263  0.7293
 1103SOL    HW214772   2.792   3.288  15.101 -0.9057 -0.0509 -2.0616
 1104SOL     OW14773   0.752   2.465  16.701  0.3978 -0.0867  0.0994
 1104SOL    HW114774   0.767   2.456  16.607  0.3014  0.6656  0.0096
 1104SOL    HW214775   0.764   2.377  16.735 -1.1184 -0.1434  0.4749
 1105SOL     OW14776   0.736   1.358   8.806 -0.0409 -0.4948 -0.1356
 1105SOL    HW114777   0.724   1.381   8.714  2.0906  3.7951  0.6605
 1105SOL    HW214778   0.775   1.440   8.836  0.0982 -0.2063 -1.1063
 1106SOL     OW14779   1.275   3.237   0.955 -0.3780 -0.6868 -0.2650
 1106SOL    HW114780   1.185   3.251   0.983 -0.9259 -2.1296 -1.2509
 1106SOL    HW214781   1.290   3.309   0.894  2.0372 -0.4971  0.5607
 1107SOL     OW14782   3.549   4.495   0.494 -0.3185 -0.2367 -0.1546
 1107SOL    HW114783   3.493   4.475   0.419 -1.4051 -0.8764  0.8251
 1107SOL    HW214784   3.483   4.480   0.561  0.4001 -2.7282 -0.0017
 1108SOL     OW14785   1.607   1.454  15.140 -0.2504  0.3165 -0.2262
 1108SOL    HW114786   1.700   1.474  15.155 -0.7396  0.5313  2.5259
 1108SOL    HW214787   1.578   1.518  15.075 -2.9828  0.1305  0.8057
 1109SOL     OW14788   1.984   3.743   4.568 -0.2177  0.3840 -0.5243
 1109SOL    HW114789   1.891   3.725   4.554 -0.5536  0.2072  1.9415
 1109SOL    HW214790   1.985   3.700   4.654 -0.6005 -2.6956 -2.0653
 1110SOL     OW14791   2.022   0.551   0.612  0.4666  0.2218  0.0557
 1110SOL    HW114792   2.045   0.600   0.691 -1.8440 -0.1043  0.9321
 1110SOL    HW214793   2.066   0.604   0.545 -0.2458 -1.1665 -1.4989
 1111SOL     OW14794   2.787   0.283  16.520  0.6538  0.1424 -0.1365
 1111SOL    HW114795   2.704   0.236  16.527  0.9089 -0.7226 -2.8748
 1111SOL    HW214796   2.847   0.210  16.507 -2.1334 -2.0738 -0.3669
 1112SOL     OW14797   2.501   2.844   0.362 -0.6002 -0.9742 -0.4453
 1112SOL    HW114798   2.560   2.768   0.358  0.5116 -0.0796 -1.3113
 1112SOL    HW214799   2.421   2.810   0.322 -0.7582 -2.1483  0.8846
 1113SOL     OW14800   0.602   1.386  11.058 -0.6997 -0.4496  0.2375
 1113SOL    HW114801   0.558   1.395  11.143  1.0780 -0.4974  1.1563
 1113SOL    HW214802   0.605   1.474  11.021  0.2634 -0.4256  0.3895
 1114SOL     OW14803   3.357   1.978   3.617 -0.5140  0.4698  0.2478
 1114SOL    HW114804   3.276   1.926   3.624  0.3158 -0.7403  0.9518
 1114SOL    HW214805   3.430   1.918   3.631 -0.4780  0.4252 -0.1518
 1115SOL     OW14806   0.834   0.928   6.543  0.4205 -0.0204 -0.2929
 1115SOL    HW114807   0.769   0.977   6.594 -0.0731 -2.1353  1.1427
 1115SOL    HW214808   0.907   0.990   6.545 -0.4719  0.9879  1.2668
 1116SOL     OW14809   0.869   3.490   5.011 -0.0196 -0.4331 -0.1381
 1116SOL    HW114810   0.801   3.479   5.079 -0.0613 -0.1275 -0.1279
 1116SOL    HW214811   0.847   3.565   4.955  1.9788 -0.1698 -0.5481
 1117SOL     OW14812   3.300   3.086   3.447  0.2407 -0.2148  0.5201
 1117SOL    HW114813   3.382   3.068   3.401 -0.3743 -2.3569  0.2446
 1117SOL    HW214814   3.261   3.158   3.399  0.9284  0.1394  0.5015
 1118SOL     OW14815   1.345   2.156   8.953  0.6270 -0.4486  0.4711
 1118SOL    HW114816   1.366   2.094   9.022  0.5646 -1.4042 -0.3585
 1118SOL    HW214817   1.291   2.218   9.002  0.5382  0.0866 -0.2922
 1119SOL     OW14818   2.350   0.193  12.242  0.0331  0.7084 -0.2362
 1119SOL    HW114819   2.386   0.196  12.331 -1.0006  0.7424  0.1800
 1119SOL    HW214820   2.352   0.098  12.224 -2.8254  0.3188  1.4828
 1120SOL     OW14821   2.243   4.594   6.529  0.0967  0.6034 -0.3097
 1120SOL    HW114822   2.161   4.634   6.559 -1.4128 -2.4514 -0.3995
 1120SOL    HW214823   2.308   4.660   6.554 -0.1821  0.6035  0.4256
 1121SOL     OW14824   4.402   0.296  15.250 -0.1693 -0.5532  0.7887
 1121SOL    HW114825   4.427   0.367  15.191  0.2160 -0.3968  1.1353
 1121SOL    HW214826   4.438   0.343  15.326 -0.4794  2.9389 -1.2211
 1122SOL     OW14827   1.636   0.557  14.145  0.0036  0.5997  0.1106
 1122SOL    HW114828   1.632   0.607  14.227 -0.9372 -0.2834  0.5997
 1122SOL    HW214829   1.729   0.541  14.133  0.1398  0.0634  1.9721
 1123SOL     OW14830   0.797   1.979  16.088 -0.0239  0.0634 -0.3098
 1123SOL    HW114831   0.713   2.006  16.126 -0.6278 -0.2821 -1.3911
 1123SOL    HW214832   0.769   1.947  16.002  1.0152 -1.9846  0.1324
 1124SOL     OW14833   3.618   2.901  12.789 -0.0545  0.0842  0.3621
 1124SOL    HW114834   3.616   2.809  12.761 -3.7721 -0.2007  1.6015
 1124SOL    HW214835   3.713   2.914  12.793  0.5103 -3.6544 -0.9162
 1125SOL     OW14836   2.403   0.984   6.570 -0.1826  0.4778  0.5827
 1125SOL    HW114837   2.406   1.069   6.615  1.6344  0.5841  0.2701
 1125SOL    HW214838   2.481   0.946   6.610 -0.4305 -1.0621 -0.4286
 1126SOL     OW14839   1.164   1.880   7.606 -0.1983  0.0784  0.0210
 1126SOL    HW114840   1.202   1.948   7.551 -0.0998 -1.1283 -1.3869
 1126SOL    HW214841   1.228   1.905   7.673  2.5512 -1.5337 -2.0193
 1127SOL     OW14842   3.772   0.489   2.525  0.9183  0.4548 -0.2050
 1127SOL    HW114843   3.845   0.550   2.525 -0.2121  1.8045 -0.6698
 1127SOL    HW214844   3.693   0.543   2.527  0.9185  0.3952  1.5797
 1128SOL     OW14845   0.913   1.750   8.429  0.1082 -0.6351  0.1215
 1128SOL    HW114846   0.932   1.658   8.451 -0.0614 -0.9748 -1.1464
 1128SOL    HW214847   0.858   1.773   8.504 -1.0894  0.9621 -1.2439
 1129SOL     OW14848   2.050   0.495   7.102  0.0696  0.3946 -0.1030
 1129SOL    HW114849   2.045   0.472   7.194 -1.5719  0.7058 -0.1143
 1129SOL    HW214850   2.097   0.578   7.101  2.9650 -1.2462 -1.7063
 1130SOL     OW14851   0.060   0.087   2.673  0.2993 -0.3621  0.1215
 1130SOL    HW114852   0.020   0.031   2.740 -1.3886  1.1658  0.3954
 1130SOL    HW214853   0.133   0.116   2.726  0.0657  1.2050 -0.4229
 1131SOL     OW14854   2.851   0.836   2.866 -0.1507 -0.3531 -0.0503
 1131SOL    HW114855   2.905   0.880   2.931 -1.0451 -0.6493  0.9034
 1131SOL    HW214856   2.772   0.889   2.860 -0.1182 -0.1982  0.8993
 1132SOL     OW14857   4.668   0.703   6.467  0.0325 -0.1412 -0.2736
 1132SOL    HW114858   0.006   0.726   6.539 -1.9156 -0.6457  1.5260
 1132SOL    HW214859   4.594   0.673   6.519  0.9715 -3.1968 -0.7084
 1133SOL     OW14860   4.125   4.392  15.270 -0.5795  0.2609  0.0956
 1133SOL    HW114861   4.128   4.450  15.194 -0.8372  2.0456  1.4536
 1133SOL    HW214862   4.064   4.324  15.240  0.4203 -0.9636  0.8651
 1134SOL     OW14863   0.608   4.211   5.969  0.0471  0.3178  0.2867
 1134SOL    HW114864   0.637   4.242   6.055  2.4976  0.6514 -0.6626
 1134SOL    HW214865   0.525   4.167   5.986  0.7566 -0.8207  0.7976
 1135SOL     OW14866   1.745   3.727  17.294  0.6655 -0.2320 -0.0738
 1135SOL    HW114867   1.769   3.750  17.383  1.2220 -2.0743  0.2644
 1135SOL    HW214868   1.734   3.632  17.305 -0.8868  0.0377  0.6576
 1136SOL     OW14869   4.135   2.979   6.357 -0.4131  0.1721  0.4776
 1136SOL    HW114870   4.211   3.010   6.406  1.0016 -0.9910 -0.9732
 1136SOL    HW214871   4.085   3.060   6.348  0.1350  0.4216 -0.2987
 1137SOL     OW14872   3.172   2.636   6.395 -0.0936  0.1456 -0.0856
 1137SOL    HW114873   3.078   2.629   6.375  0.1548  1.4849 -1.8083
 1137SOL    HW214874   3.180   2.731   6.403  3.5604 -0.3578  2.1880
 1138SOL     OW14875   1.452   1.050   5.372  0.1423 -0.6739 -0.0726
 1138SOL    HW114876   1.379   1.105   5.402  0.6860 -2.0206  3.6650
 1138SOL    HW214877   1.490   1.085   5.291 -0.8134 -0.9456 -0.6453
 1139SOL     OW14878   3.432   3.652   3.819  0.3633 -0.7556 -0.4519
 1139SOL    HW114879   3.502   3.638   3.756  1.4940  0.3493  0.5458
 1139SOL    HW214880   3.482   3.711   3.876 -1.4753 -0.4453  0.8479
 1140SOL     OW14881   1.847   2.169   0.637  0.0753  0.1737  0.1770
 1140SOL    HW114882   1.849   2.222   0.558 -1.9594  0.8642  0.5946
 1140SOL    HW214883   1.937   2.191   0.659  0.1576 -0.2704  0.2968
 1141SOL     OW14884   0.315   2.142   3.960 -0.3996  0.1670  0.4997
 1141SOL    HW114885   0.380   2.071   3.954  1.2235  1.6937 -0.1204
 1141SOL    HW214886   0.236   2.092   3.940  1.6042 -3.0764  0.6523
 1142SOL     OW14887   3.203   1.991   6.390 -0.0581 -0.0641 -0.1291
 1142SOL    HW114888   3.287   1.968   6.351  0.1105  1.3757 -0.6031
 1142SOL    HW214889   3.165   2.016   6.306  0.8281 -1.5284 -0.9674
 1143SOL     OW14890   2.003   3.598  11.449  0.2632  0.1456  0.1347
 1143SOL    HW114891   1.963   3.546  11.379 -1.5646 -1.6386  2.5037
 1143SOL    HW214892   2.087   3.552  11.454 -1.6162 -3.0854  1.9894
 1144SOL     OW14893   1.544   0.961   6.207 -0.7580  0.0702 -0.4715
 1144SOL    HW114894   1.561   1.032   6.270  1.1790 -1.3317  0.6131
 1144SOL    HW214895   1.457   0.928   6.227 -1.0472  0.1792 -1.5649
 1145SOL     OW14896   3.956   2.521  17.261 -0.6863  0.4650 -0.3356
 1145SOL    HW114897   4.035   2.471  17.280 -1.2678 -0.6455 -0.8735
 1145SOL    HW214898   3.947   2.563  17.347  1.2960  0.9300 -0.3681
 1146SOL     OW14899   3.901   4.255  12.729  0.7227 -0.0832 -0.1237
 1146SOL    HW114900   3.945   4.182  12.773 -2.0955 -2.0381 -0.5894
 1146SOL    HW214901   3.813   4.250  12.767  0.1383  0.0428 -1.4883
 1147SOL     OW14902   3.399   1.123   3.378  0.6185  0.3043 -0.5424
 1147SOL    HW114903   3.461   1.169   3.434  0.9422 -0.8649  0.0528
 1147SOL    HW214904   3.460   1.052   3.356 -0.8623 -1.9042  2.4519
 1148SOL     OW14905   0.759   1.831   5.883 -0.2765 -1.5908 -0.0406
 1148SOL    HW114906   0.735   1.863   5.796  0.4419  1.7130  0.9874
 1148SOL    HW214907   0.835   1.887   5.899 -0.9756 -0.8674  0.7108
 1149SOL     OW14908   3.228   3.615   6.879  0.3356  0.4481  0.4156
 1149SOL    HW114909   3.263   3.702   6.863  0.5573  0.1553 -0.6542
 1149SOL    HW214910   3.143   3.630   6.921  0.6844 -0.0795  1.3008
 1150SOL     OW14911   2.292   4.249   2.300 -0.0076  0.1328 -0.3149
 1150SOL    HW114912   2.229   4.178   2.318 -0.3287  0.2384 -1.0172
 1150SOL    HW214913   2.274   4.267   2.208 -1.0495 -0.8866 -0.3090
 1151SOL     OW14914   0.772   1.658   6.726  0.1134  0.5441  0.0189
 1151SOL    HW114915   0.803   1.604   6.798 -0.6165 -1.1676 -0.9526
 1151SOL    HW214916   0.686   1.623   6.705  1.9170 -3.3570 -0.9008
 1152SOL     OW14917   1.669   3.138   2.229 -0.3452 -0.2019 -0.6910
 1152SOL    HW114918   1.753   3.159   2.188 -0.6791  2.5930  0.0529
 1152SOL    HW214919   1.618   3.082   2.170 -1.4682 -0.8560  0.9046
 1153SOL     OW14920   4.543   2.354  15.805  0.5571  0.1970 -0.7268
 1153SOL    HW114921   4.553   2.411  15.881  0.8641 -0.5290 -0.2207
 1153SOL    HW214922   4.448   2.349  15.795  0.3123  0.4288  1.5446
 1154SOL     OW14923   4.703   3.997   2.502  0.5061  0.2165  0.3155
 1154SOL    HW114924   4.717   4.009   2.596  1.3208  0.3702  0.1748
 1154SOL    HW214925   0.070   3.995   2.467 -0.4132  1.5165 -2.1247
 1155SOL     OW14926   2.714   0.408   4.642  0.1339  0.1219  0.1202
 1155SOL    HW114927   2.725   0.475   4.575  0.7744  0.3979  0.4954
 1155SOL    HW214928   2.712   0.466   4.718  2.2315  1.3667 -0.7491
 1156SOL     OW14929   0.452   2.362   4.888  0.0284  0.1338 -0.2433
 1156SOL    HW114930   0.495   2.303   4.826  0.9320  1.4943 -0.9143
 1156SOL    HW214931   0.383   2.400   4.834 -0.0099  1.5733  0.8176
 1157SOL     OW14932   0.131   3.831   8.168 -0.4738  0.0219  0.0476
 1157SOL    HW114933   0.153   3.739   8.175 -0.8045 -0.1822 -1.6664
 1157SOL    HW214934   0.070   3.813   8.096 -0.8946 -1.1022  0.6812
 1158SOL     OW14935   2.741   1.309   8.329 -0.0250  0.1233  0.1602
 1158SOL    HW114936   2.654   1.341   8.302  0.2556  1.4991  0.9001
 1158SOL    HW214937   2.798   1.379   8.299  2.0709 -1.1460  1.1765
 1159SOL     OW14938   3.103   3.290   8.957 -0.3706  0.5501 -0.9387
 1159SOL    HW114939   3.018   3.324   8.983  0.8130  3.1524 -0.4262
 1159SOL    HW214940   3.067   3.204   8.935  1.0472  0.3914 -2.6682
 1160SOL     OW14941   0.410   4.126  11.245 -0.2251 -0.2651 -0.0018
 1160SOL    HW114942   0.422   4.086  11.159  0.1199 -0.6009  0.2028
 1160SOL    HW214943   0.348   4.197  11.228 -0.8432 -0.6012  0.8601
 1161SOL     OW14944   4.206   0.189   7.314  0.2081  0.1270  0.0427
 1161SOL    HW114945   4.175   0.168   7.403  0.9482 -0.0722  0.2526
 1161SOL    HW214946   4.123   0.222   7.280 -0.8019 -1.1666  1.2185
 1162SOL     OW14947   2.391   0.419   3.295 -0.4292 -0.2831 -0.1633
 1162SOL    HW114948   2.456   0.464   3.348  0.1858 -1.1335 -0.1886
 1162SOL    HW214949   2.346   0.367   3.362 -0.2369  1.5032  1.3472
 1163SOL     OW14950   0.643   4.339   5.258  0.5200  0.1556  0.5667
 1163SOL    HW114951   0.556   4.377   5.241  1.1625  2.8799  3.3902
 1163SOL    HW214952   0.674   4.396   5.328  0.1824  1.4613 -0.3573
 1164SOL     OW14953   0.504   3.983   3.647  0.0612  0.6659 -0.4115
 1164SOL    HW114954   0.534   4.003   3.736  1.0054 -0.7352 -0.4143
 1164SOL    HW214955   0.575   4.017   3.592  1.1815  0.8283  1.1386
 1165SOL     OW14956   2.301   1.082   2.600 -0.4908 -0.5483 -0.1372
 1165SOL    HW114957   2.374   1.022   2.620  0.7201  1.1351  0.5042
 1165SOL    HW214958   2.221   1.036   2.624 -0.6497 -1.8707 -3.2571
 1166SOL     OW14959   0.076   4.378   3.783 -0.0229 -0.2757  0.5641
 1166SOL    HW114960   0.004   4.432   3.817 -0.0599 -0.2784  0.4910
 1166SOL    HW214961   0.098   4.431   3.706 -2.7874  0.0433 -0.0094
 1167SOL     OW14962   0.788   4.365   8.386 -0.3229 -0.6799  0.1219
 1167SOL    HW114963   0.750   4.438   8.434  1.7749  1.7463 -1.9288
 1167SOL    HW214964   0.760   4.302   8.453  1.2537 -0.5049  0.9562
 1168SOL     OW14965   4.137   1.815   6.804  0.0606 -0.1344  0.0442
 1168SOL    HW114966   4.140   1.744   6.740  1.3431  0.3469 -0.4339
 1168SOL    HW214967   4.165   1.890   6.750 -2.8646 -1.1564 -2.9368
 1169SOL     OW14968   2.571   3.380  15.442 -0.3642 -0.2376 -0.3288
 1169SOL    HW114969   2.611   3.442  15.381  0.7656 -0.8586 -0.2170
 1169SOL    HW214970   2.529   3.310  15.393  1.0327  0.4537 -2.5095
 1170SOL     OW14971   1.251   1.302  15.858 -0.2244 -0.5674 -0.0249
 1170SOL    HW114972   1.301   1.222  15.871  0.0436 -0.1056  1.6596
 1170SOL    HW214973   1.166   1.282  15.898 -0.3594  0.2428  0.0860
 1171SOL     OW14974   0.685   1.577  15.039  0.0279  0.1289 -0.1710
 1171SOL    HW114975   0.666   1.671  15.048  0.3309  0.3312 -1.7317
 1171SOL    HW214976   0.739   1.585  14.961 -0.5839  1.2121 -0.4952
 1172SOL     OW14977   2.815   0.309   4.156  0.2356  0.3431  0.1245
 1172SOL    HW114978   2.733   0.344   4.190  0.5458  0.7052  0.5038
 1172SOL    HW214979   2.839   0.251   4.229 -2.6712 -1.3209 -0.2457
 1173SOL     OW14980   3.114   1.383   7.426 -0.1314  0.2307  0.1003
 1173SOL    HW114981   3.039   1.391   7.485 -1.7246 -3.2496 -1.5080
 1173SOL    HW214982   3.191   1.390   7.483  1.5566  1.9743 -2.3645
 1174SOL     OW14983   3.399   0.787   6.372  0.1041 -0.0367  0.3638
 1174SOL    HW114984   3.367   0.877   6.379  1.2015  0.4382 -0.6398
 1174SOL    HW214985   3.394   0.758   6.463 -1.1068 -0.2246  0.2320
 1175SOL     OW14986   4.178   2.426   3.955 -0.3800 -0.0333 -0.5094
 1175SOL    HW114987   4.094   2.464   3.981 -0.5002  0.7325 -2.0577
 1175SOL    HW214988   4.238   2.440   4.029  0.6174 -0.6591 -1.2033
 1176SOL     OW14989   3.711   3.352   5.529  0.0522  0.0550 -0.0368
 1176SOL    HW114990   3.657   3.390   5.598 -1.3649 -1.4359 -0.3010
 1176SOL    HW214991   3.746   3.427   5.481  2.0301  0.4035  1.9531
 1177SOL     OW14992   4.657   3.778   7.738 -0.5963 -0.1411  0.4833
 1177SOL    HW114993   4.701   3.763   7.822 -0.1601  2.4907  0.7134
 1177SOL    HW214994   4.568   3.749   7.759  0.7609 -2.5361  2.9484
 1178SOL     OW14995   0.997   3.133   6.951 -0.1641  0.1240  0.5074
 1178SOL    HW114996   1.017   3.181   7.031  2.0898 -3.4672  2.0704
 1178SOL    HW214997   0.912   3.174   6.934  0.9756  2.2119 -0.2316
 1179SOL     OW14998   1.437   0.037   7.286  0.0950  0.3415 -0.1410
 1179SOL    HW114999   1.451   0.013   7.377  0.5699 -0.9730 -0.5608
 1179SOL    HW215000   1.448   4.674   7.245 -2.1770 -1.2090  2.5151
 1180SOL     OW15001   2.656   2.051   7.192  0.4361  0.1741 -0.0660
 1180SOL    HW115002   2.615   1.969   7.166  0.2209  0.5012 -0.7717
 1180SOL    HW215003   2.745   2.030   7.165  0.8337  2.1335 -0.2761
 1181SOL     OW15004   1.175   4.133   5.495 -0.1790  0.2642  0.2648
 1181SOL    HW115005   1.115   4.109   5.566 -1.3754 -1.3345 -1.2800
 1181SOL    HW215006   1.242   4.064   5.494 -0.8479 -0.4069  1.2877
 1182SOL     OW15007   2.857   0.456  14.104  0.9353 -0.4221  0.2604
 1182SOL    HW115008   2.916   0.413  14.165  1.1483 -0.2528  0.1735
 1182SOL    HW215009   2.796   0.493  14.168 -0.8761 -1.2453 -0.9917
 1183SOL     OW15010   2.509   1.257  11.575  0.6987 -0.3540 -0.1772
 1183SOL    HW115011   2.534   1.339  11.617  1.3961 -0.8938  0.4768
 1183SOL    HW215012   2.499   1.210  11.658 -0.6996 -0.4315 -0.3783
 1184SOL     OW15013   2.388   1.477   6.132  0.0686  0.5021 -0.3627
 1184SOL    HW115014   2.373   1.570   6.149  0.8559  0.3118  1.4418
 1184SOL    HW215015   2.298   1.446   6.124 -0.2252  1.7344 -1.8317
 1185SOL     OW15016   4.357   0.551   8.485 -0.4047 -0.2217 -0.0643
 1185SOL    HW115017   4.309   0.493   8.543  2.7088 -0.6496  2.1318
 1185SOL    HW215018   4.295   0.579   8.418  0.8838 -0.3195 -1.3079
 1186SOL     OW15019   0.384   0.676  11.352 -0.1269  0.3233  0.2223
 1186SOL    HW115020   0.310   0.633  11.395 -1.4126  0.3151 -2.0077
 1186SOL    HW215021   0.352   0.758  11.316  3.7161  1.4808 -0.5764
 1187SOL     OW15022   3.686   1.136   6.143 -0.7624  0.0426 -0.3184
 1187SOL    HW115023   3.662   1.172   6.229 -0.2164 -1.6600  0.5493
 1187SOL    HW215024   3.607   1.087   6.118 -0.8937 -0.6615  1.4394
 1188SOL     OW15025   2.150   3.087   8.726  0.5386 -0.0200 -0.2389
 1188SOL    HW115026   2.200   3.167   8.745 -0.4224 -0.2065  3.1024
 1188SOL    HW215027   2.108   3.066   8.809  2.9943  0.7680  1.2158
 1189SOL     OW15028   1.583   0.893   0.066  0.4677 -0.3281 -0.0122
 1189SOL    HW115029   1.590   0.825  17.690 -1.8692  0.4441 -1.0483
 1189SOL    HW215030   1.507   0.864   0.117 -0.2878  0.0320 -0.9400
 1190SOL     OW15031   4.315   2.701   3.577  0.1383 -0.3816 -0.3372
 1190SOL    HW115032   4.230   2.745   3.581  1.2934  1.7111  1.2026
 1190SOL    HW215033   4.342   2.730   3.664  1.3194  0.9905 -1.1736
 1191SOL     OW15034   2.152   3.349   9.695  0.3616  0.7165  0.5017
 1191SOL    HW115035   2.084   3.389   9.749 -1.5043  1.4071 -2.3150
 1191SOL    HW215036   2.209   3.424   9.674  1.1112 -0.5409 -1.9756
 1192SOL     OW15037   3.345   0.768   3.584  0.7575 -0.4116 -0.6124
 1192SOL    HW115038   3.364   0.695   3.643 -0.1666  0.5631  0.9153
 1192SOL    HW215039   3.358   0.729   3.498 -0.3344  2.0571 -1.8810
 1193SOL     OW15040   1.876   3.547  14.425  0.0989 -0.0468  0.0138
 1193SOL    HW115041   1.952   3.549  14.367  0.4435 -0.6877  0.4441
 1193SOL    HW215042   1.891   3.456  14.450  2.1400  0.3859  0.3946
 1194SOL     OW15043   3.495   2.679   4.681 -0.6819  0.4654 -0.3495
 1194SOL    HW115044   3.564   2.628   4.722 -2.0992  0.0850  1.5805
 1194SOL    HW215045   3.540   2.698   4.599  1.2877  2.4706  1.1891
 1195SOL     OW15046   2.396   0.338   4.983 -0.3787  0.2844  0.1203
 1195SOL    HW115047   2.427   0.376   5.065  2.4068 -2.9222  0.5401
 1195SOL    HW215048   2.315   0.390   4.974 -0.6541 -0.0722  0.5195
 1196SOL     OW15049   4.431   1.099   2.676  0.3956  0.2875 -0.1102
 1196SOL    HW115050   4.341   1.095   2.708  0.3431 -1.9932 -0.6147
 1196SOL    HW215051   4.448   1.006   2.683  1.4096  0.4102 -1.0657
 1197SOL     OW15052   3.413   0.027   2.922  0.7004 -0.0620 -0.1406
 1197SOL    HW115053   3.379   4.684   2.983 -0.0305  0.0413 -0.4413
 1197SOL    HW215054   3.339   0.037   2.863  1.3770  1.6678 -0.7164
 1198SOL     OW15055   0.219   2.434   0.846  0.7306  0.4446  0.2827
 1198SOL    HW115056   0.271   2.511   0.870 -0.9797  2.0746 -1.2300
 1198SOL    HW215057   0.264   2.386   0.776  1.9196  3.7345 -1.2058
 1199SOL     OW15058   3.712   3.410  14.701  0.5400 -0.1135 -0.0934
 1199SOL    HW115059   3.740   3.381  14.614  0.8746  2.6666 -0.9461
 1199SOL    HW215060   3.778   3.376  14.760 -0.8220  0.4508  1.7598
 1200SOL     OW15061   3.780   4.451   6.923 -0.0380  0.1286  0.1237
 1200SOL    HW115062   3.723   4.435   6.998 -1.0523  4.6668  0.3001
 1200SOL    HW215063   3.855   4.493   6.965  0.1974 -0.3895  0.2187
 1201SOL     OW15064   2.284   3.599   2.303  0.1427  0.1109 -0.1242
 1201SOL    HW115065   2.356   3.540   2.325  0.2290  0.7191  1.1724
 1201SOL    HW215066   2.310   3.688   2.325 -0.9323  0.4220 -0.0842
 1202SOL     OW15067   2.755   4.355   0.597  0.1563  0.4138  0.9505
 1202SOL    HW115068   2.745   4.268   0.560 -0.9513  0.9796 -0.0876
 1202SOL    HW215069   2.665   4.385   0.582 -0.0524  0.1547  1.6971
 1203SOL     OW15070   3.394   1.840   2.577 -0.4854 -0.3288 -0.6514
 1203SOL    HW115071   3.335   1.913   2.592  0.4089  0.6610 -2.0359
 1203SOL    HW215072   3.359   1.770   2.522 -1.5781 -2.2411  2.4475
 1204SOL     OW15073   0.305   4.304   7.962 -0.0909  0.9240 -0.4324
 1204SOL    HW115074   0.243   4.369   7.929  0.7542  0.3814 -3.1800
 1204SOL    HW215075   0.281   4.227   7.911  0.3481  0.4844  0.0321
 1205SOL     OW15076   0.685   1.250   3.647  0.1672  0.3506 -0.1278
 1205SOL    HW115077   0.664   1.204   3.565  0.5414  0.3471 -0.2218
 1205SOL    HW215078   0.717   1.335   3.616  2.0174 -0.4876 -0.4996
 1206SOL     OW15079   3.650   2.093   9.388  0.0602 -0.0899 -0.8192
 1206SOL    HW115080   3.620   2.184   9.381 -0.9942 -0.6144 -3.0904
 1206SOL    HW215081   3.635   2.063   9.299  1.0982  1.1405 -1.4123
 1207SOL     OW15082   4.026   1.092   5.442 -0.1821  0.5748 -0.2103
 1207SOL    HW115083   3.981   1.076   5.525  0.2307 -0.0389 -0.1057
 1207SOL    HW215084   4.000   1.182   5.419 -1.3308  0.4461  0.5749
 1208SOL     OW15085   3.847   0.052   1.936 -0.4443 -0.1485  0.2213
 1208SOL    HW115086   3.939   0.046   1.962 -0.6456  1.3257  1.3066
 1208SOL    HW215087   3.855   0.036   1.842 -0.6923  0.1629  0.1456
 1209SOL     OW15088   3.804   4.678   7.298  0.0986 -0.1840  0.3855
 1209SOL    HW115089   3.791   4.619   7.372  0.0088  0.6186  1.0189
 1209SOL    HW215090   3.710   4.692   7.287  0.2477  0.4917 -0.0240
 1210SOL     OW15091   2.536   3.580   7.755 -0.1006 -0.6969 -0.0214
 1210SOL    HW115092   2.618   3.619   7.726 -0.5017 -0.8115 -1.3387
 1210SOL    HW215093   2.564   3.488   7.758  1.2404 -0.2279  1.6843
 1211SOL     OW15094   2.960   4.132   4.357  0.5143 -0.1273  0.2389
 1211SOL    HW115095   3.022   4.093   4.295  0.3996  0.7521 -0.4271
 1211SOL    HW215096   3.012   4.158   4.433  2.0634 -1.3664 -0.3880
 1212SOL     OW15097   3.172   0.794   6.172 -0.0295  0.7352  0.2759
 1212SOL    HW115098   3.258   0.820   6.207  0.1820  0.2285  0.1306
 1212SOL    HW215099   3.124   0.755   6.245  2.5792 -0.7489  1.1829
 1213SOL     OW15100   2.764   0.883   6.942 -0.6866  0.1832 -0.1416
 1213SOL    HW115101   2.794   0.956   6.889  1.1001 -0.5974 -0.2034
 1213SOL    HW215102   2.850   0.870   6.983 -0.6798 -0.7476 -0.4659
 1214SOL     OW15103   4.499   1.064   4.566  0.1351 -0.3594  0.8955
 1214SOL    HW115104   4.500   1.152   4.602  1.6431  1.2397 -3.1821
 1214SOL    HW215105   4.474   1.021   4.649  1.0936  0.9393  1.8522
 1215SOL     OW15106   2.937   3.427   1.713  0.1701 -0.2058  0.1154
 1215SOL    HW115107   2.895   3.508   1.743  0.5911 -0.5317  1.5765
 1215SOL    HW215108   3.017   3.453   1.667 -0.0973  0.0880 -0.1803
 1216SOL     OW15109   3.862   3.923  17.362  0.2909 -0.1753  0.3508
 1216SOL    HW115110   3.848   3.936  17.268  2.2730 -3.2461 -0.3693
 1216SOL    HW215111   3.812   3.999  17.391  2.0538  0.7113  1.0079
 1217SOL     OW15112   1.856   0.945  16.909  0.0970  0.4831  0.5133
 1217SOL    HW115113   1.912   1.023  16.903  1.4437 -0.4437  1.0817
 1217SOL    HW215114   1.801   0.960  16.832  2.6044 -0.1082 -1.3926
 1218SOL     OW15115   0.056   1.475   0.737 -0.2790  0.0722 -0.0267
 1218SOL    HW115116   0.082   1.552   0.788 -1.8044  1.5822 -1.5341
 1218SOL    HW215117   0.084   1.402   0.793 -0.8403  0.6711  1.0314
 1219SOL     OW15118   3.312   3.048  14.724 -0.4175  0.1910  0.0828
 1219SOL    HW115119   3.248   3.099  14.773  0.0909  0.8799  0.0243
 1219SOL    HW215120   3.385   3.034  14.784 -0.8072  1.2023  0.7908
 1220SOL     OW15121   0.183   1.131   8.564 -0.7566  0.0492  0.0966
 1220SOL    HW115122   0.096   1.094   8.549 -0.9418  0.7449 -0.5074
 1220SOL    HW215123   0.218   1.083   8.639 -1.4758 -0.8490 -0.1309
 1221SOL     OW15124   3.876   2.244   9.249  0.0872 -0.0730 -0.6208
 1221SOL    HW115125   3.859   2.268   9.340  0.5679  0.3490 -0.6429
 1221SOL    HW215126   3.970   2.255   9.235 -0.0352  1.6094 -0.1425
 1222SOL     OW15127   3.723   0.238   0.702 -0.1605 -0.5690 -0.6122
 1222SOL    HW115128   3.662   0.164   0.705  1.2931 -1.6624  1.4054
 1222SOL    HW215129   3.660   0.302   0.734 -1.1840 -1.4076 -0.9465
 1223SOL     OW15130   3.322   3.257   3.095 -0.0996 -0.3510  0.1941
 1223SOL    HW115131   3.352   3.187   3.037  1.4007  0.4856 -0.0513
 1223SOL    HW215132   3.373   3.319   3.043 -2.6806  2.2523  0.8109
 1224SOL     OW15133   2.050   3.286  16.799  0.0064  0.0446  0.0216
 1224SOL    HW115134   2.051   3.191  16.810  2.5664  0.0880  0.2226
 1224SOL    HW215135   2.139   3.306  16.828  0.0057  1.6241 -1.0243
 1225SOL     OW15136   1.411   3.156  16.193  0.3404 -0.4345  0.0350
 1225SOL    HW115137   1.457   3.165  16.276 -1.4788  4.2352  0.5518
 1225SOL    HW215138   1.325   3.185  16.223  0.1277 -1.8103  0.7795
 1226SOL     OW15139   4.425   2.065   8.117 -0.2192  0.3784  0.1806
 1226SOL    HW115140   4.418   2.113   8.034 -2.2463 -0.8278 -0.3397
 1226SOL    HW215141   4.517   2.046   8.102 -0.2373  0.8361 -0.5626
 1227SOL     OW15142   0.825   1.180   2.126  0.6368  0.1865 -0.8897
 1227SOL    HW115143   0.794   1.169   2.216 -2.9688  1.9312 -1.9159
 1227SOL    HW215144   0.906   1.132   2.143 -1.6465 -2.7919  1.5920
 1228SOL     OW15145   2.655   2.214   6.630  0.0800  0.2915  0.3947
 1228SOL    HW115146   2.653   2.137   6.688 -2.8109  0.3465  0.3742
 1228SOL    HW215147   2.737   2.259   6.648 -1.0623  2.0452  1.1728
 1229SOL     OW15148   1.040   3.884  12.786 -0.7865 -0.5262  0.1444
 1229SOL    HW115149   1.075   3.809  12.737 -0.9543  1.2534 -2.7059
 1229SOL    HW215150   1.105   3.951  12.762 -2.9262  0.8511 -1.8892
 1230SOL     OW15151   3.197   1.042   1.687 -0.1065  0.1698  0.2499
 1230SOL    HW115152   3.213   0.974   1.753 -0.3299  1.4024  1.5775
 1230SOL    HW215153   3.158   1.111   1.741  3.0854  2.6122 -0.5611
 1231SOL     OW15154   1.693   0.048   3.942  0.2372  0.0729 -0.3449
 1231SOL    HW115155   1.729   0.109   3.878 -2.7948  1.5797 -0.6285
 1231SOL    HW215156   1.700   4.691   3.889 -2.9662  0.5369 -1.4714
 1232SOL     OW15157   0.967   3.848   3.009  0.2179  0.5330  0.1132
 1232SOL    HW115158   1.021   3.843   3.088  1.2106  1.4963 -0.4898
 1232SOL    HW215159   0.973   3.756   2.986 -1.5237 -0.3720  3.3707
 1233SOL     OW15160   3.557   4.219   5.463  0.3614 -0.0785  0.3621
 1233SOL    HW115161   3.549   4.212   5.558 -1.3479  2.9033  0.4223
 1233SOL    HW215162   3.467   4.228   5.429  0.4661 -1.2192 -0.2376
 1234SOL     OW15163   1.535   2.617   4.841 -0.0490 -0.0317  0.1092
 1234SOL    HW115164   1.464   2.575   4.793  0.1739 -0.2232 -0.0555
 1234SOL    HW215165   1.494   2.689   4.888  1.6403  0.4031  0.9307
 1235SOL     OW15166   3.866   1.243  10.923  0.0731 -0.1642 -0.4821
 1235SOL    HW115167   3.844   1.175  10.859  0.7760  0.8429 -1.7919
 1235SOL    HW215168   3.836   1.201  11.003  1.4537  0.6415  0.4457
 1236SOL     OW15169   0.224   0.466   6.809  0.7210 -0.2528 -0.3821
 1236SOL    HW115170   0.131   0.487   6.808  1.0324  1.2358  1.5635
 1236SOL    HW215171   0.257   0.548   6.845 -0.7261  0.4012 -0.5363
 1237SOL     OW15172   3.738   2.559  13.517  0.1547  0.1082 -0.1707
 1237SOL    HW115173   3.728   2.465  13.530  1.2400 -0.2417 -1.6962
 1237SOL    HW215174   3.742   2.594  13.605  0.0965  0.4688 -0.3111
 1238SOL     OW15175   3.348   4.232  11.102 -0.5817  0.8485  0.2174
 1238SOL    HW115176   3.419   4.232  11.166 -0.0784  1.3118 -0.3433
 1238SOL    HW215177   3.389   4.290  11.039  1.2045 -0.1347  0.4941
 1239SOL     OW15178   0.412   1.552   2.804  0.1484 -0.0196 -0.1005
 1239SOL    HW115179   0.373   1.635   2.830  0.2260 -0.3203  0.9894
 1239SOL    HW215180   0.446   1.517   2.887 -0.8691  1.4079  0.9384
 1240SOL     OW15181   3.692   2.603  15.262 -0.2728 -0.3762 -0.3177
 1240SOL    HW115182   3.693   2.671  15.329 -0.4675 -1.2365  0.5557
 1240SOL    HW215183   3.713   2.527  15.316  3.3197 -1.0363 -2.6979
 1241SOL     OW15184   4.431   1.527  15.609 -0.3446  0.5632  0.6105
 1241SOL    HW115185   4.503   1.466  15.595  0.2955  1.2601  0.9059
 1241SOL    HW215186   4.367   1.496  15.544 -1.6103 -1.2534  2.6830
 1242SOL     OW15187   1.848   0.928  17.496 -0.3758 -0.1672  0.0670
 1242SOL    HW115188   1.754   0.940  17.478 -0.4641 -1.0812 -0.0973
 1242SOL    HW215189   1.848   0.929  17.592 -0.9943  1.5969  0.0516
 1243SOL     OW15190   1.448   2.148   8.110  0.2695  0.2231 -0.2499
 1243SOL    HW115191   1.504   2.082   8.069 -0.3601  0.0326 -0.7995
 1243SOL    HW215192   1.373   2.090   8.122 -0.1096  0.8410  0.3548
 1244SOL     OW15193   2.432   3.169  15.354  0.2865  0.4955 -0.0805
 1244SOL    HW115194   2.351   3.221  15.355 -1.9494 -3.0381  0.4269
 1244SOL    HW215195   2.416   3.101  15.419 -1.5565  1.8633  0.9077
 1245SOL     OW15196   2.946   0.252  13.950  0.3604 -0.0496 -0.2414
 1245SOL    HW115197   2.956   0.291  13.863 -1.6518  0.5490 -0.1990
 1245SOL    HW215198   2.911   0.327  13.998  2.3221 -0.1487  1.3750
 1246SOL     OW15199   0.518   2.250  12.077 -0.3519  0.0163 -0.1572
 1246SOL    HW115200   0.469   2.177  12.113 -0.9357  0.8100  0.6321
 1246SOL    HW215201   0.456   2.322  12.080 -0.4186  0.0866 -2.9313
 1247SOL     OW15202   2.808   4.298   3.277 -0.3641 -0.1911 -0.4336
 1247SOL    HW115203   2.840   4.208   3.275  1.5853  0.5124 -0.9655
 1247SOL    HW215204   2.762   4.301   3.193 -2.3141 -0.3246  0.6202
 1248SOL     OW15205   3.611   2.062  13.967 -0.9574 -0.2243  0.0801
 1248SOL    HW115206   3.669   1.987  13.977 -0.6599  0.0684  0.5675
 1248SOL    HW215207   3.531   2.011  13.958 -0.8228 -0.6065  1.0135
 1249SOL     OW15208   3.250   2.036   0.253  0.5093 -0.0539 -0.5443
 1249SOL    HW115209   3.338   2.032   0.291 -0.6919  0.6104  2.3313
 1249SOL    HW215210   3.265   2.093   0.178  3.6325 -0.9832 -0.6030
 1250SOL     OW15211   4.261   2.410   3.389 -0.8872 -0.4090 -0.1527
 1250SOL    HW115212   4.262   2.314   3.383 -1.9847 -0.4534  0.2797
 1250SOL    HW215213   4.335   2.422   3.448 -0.4493 -2.9142 -0.1777
 1251SOL     OW15214   3.738   0.377   7.962  0.0409 -0.5103  0.6878
 1251SOL    HW115215   3.728   0.467   7.992 -1.6291 -0.5848  0.3804
 1251SOL    HW215216   3.678   0.371   7.888 -0.4658 -0.1549  1.0696
 1252SOL     OW15217   2.458   0.967   3.010 -0.3445  0.6359  0.7077
 1252SOL    HW115218   2.536   1.014   2.980  0.7203 -0.5845  1.6089
 1252SOL    HW215219   2.493   0.881   3.030  0.3370  0.5707 -0.7901
 1253SOL     OW15220   3.261   0.149  10.556 -0.1226 -0.2544  0.0143
 1253SOL    HW115221   3.260   0.115  10.467 -0.7735  0.4756 -0.2590
 1253SOL    HW215222   3.337   0.207  10.555  0.2677 -0.8148 -1.6776
 1254SOL     OW15223   3.679   3.709   3.668  0.1203 -0.0642 -0.1357
 1254SOL    HW115224   3.663   3.782   3.727 -1.3569  0.5912 -1.3511
 1254SOL    HW215225   3.770   3.688   3.691 -0.2667  1.7979  3.1990
 1255SOL     OW15226   4.084   3.429   3.472  0.0071  0.7722 -0.2830
 1255SOL    HW115227   4.103   3.512   3.517 -1.4685  1.1454 -0.3398
 1255SOL    HW215228   4.110   3.369   3.542 -1.3657  0.6637  0.1506
 1256SOL     OW15229   0.816   2.022   0.713 -0.0952  0.0450 -0.0191
 1256SOL    HW115230   0.892   2.027   0.655 -0.5076  0.8545 -0.4930
 1256SOL    HW215231   0.742   2.040   0.655 -0.8092 -0.4538  0.7467
 1257SOL     OW15232   0.449   4.567   7.808 -0.0380  0.7647  0.0769
 1257SOL    HW115233   0.401   4.622   7.870 -1.6402 -0.7704  0.1971
 1257SOL    HW215234   0.390   4.493   7.793 -0.5064  0.7638  1.8601
 1258SOL     OW15235   0.852   1.777   4.738  0.0168 -0.2280  0.3011
 1258SOL    HW115236   0.804   1.771   4.655 -0.7888 -1.2958  0.8430
 1258SOL    HW215237   0.798   1.833   4.794 -1.9413 -1.8144  0.0084
 1259SOL     OW15238   1.608   1.094   3.277 -0.3044 -0.5332 -0.5403
 1259SOL    HW115239   1.571   1.021   3.227  0.0224 -0.6232 -0.6483
 1259SOL    HW215240   1.633   1.053   3.360 -0.4126 -0.1474 -0.3162
 1260SOL     OW15241   0.264   0.849   2.823 -0.1657  0.0898  0.2934
 1260SOL    HW115242   0.208   0.926   2.818  1.7731  1.6040  1.9525
 1260SOL    HW215243   0.302   0.870   2.908 -2.8200 -1.4806  1.8506
 1261SOL     OW15244   1.878   3.234   1.762 -0.6154 -0.4186 -0.0526
 1261SOL    HW115245   1.900   3.147   1.727 -0.3101 -0.2687 -0.2230
 1261SOL    HW215246   1.797   3.246   1.711  0.7151  0.6277 -1.8931
 1262SOL     OW15247   2.599   3.221   3.181  0.3513 -0.0903  0.0402
 1262SOL    HW115248   2.639   3.258   3.102  1.3772 -2.0568 -0.3723
 1262SOL    HW215249   2.546   3.149   3.145  0.8818  0.2275 -1.3736
 1263SOL     OW15250   3.465   4.483   4.154  0.1947 -0.2336 -0.4720
 1263SOL    HW115251   3.447   4.551   4.090 -2.8260 -0.0576  0.5711
 1263SOL    HW215252   3.505   4.534   4.225 -0.0056  0.0189 -0.5430
 1264SOL     OW15253   3.934   1.671   0.618 -0.3620 -0.2797  0.6380
 1264SOL    HW115254   3.930   1.754   0.570  1.0228 -1.2377 -1.1095
 1264SOL    HW215255   4.004   1.695   0.678 -0.5231  1.3096  0.1841
 1265SOL     OW15256   0.194   2.679   7.430 -0.4282 -0.1512 -0.0080
 1265SOL    HW115257   0.208   2.774   7.436  0.6775 -0.3883  1.2718
 1265SOL    HW215258   0.220   2.654   7.519 -0.6057 -1.0868 -0.2173
 1266SOL     OW15259   1.967   0.762  12.934 -0.0051  0.2901  0.6317
 1266SOL    HW115260   1.969   0.694  12.867 -2.5324  0.5309  0.3074
 1266SOL    HW215261   1.896   0.724  12.986  0.6887 -1.9580 -0.0789
 1267SOL     OW15262   1.201   4.688   3.781  0.3057  0.0730 -0.2947
 1267SOL    HW115263   1.264   0.036   3.798 -1.3166  1.6382 -0.8250
 1267SOL    HW215264   1.248   4.639   3.713 -0.0584 -0.0903 -0.4304
 1268SOL     OW15265   1.254   1.008   3.452  0.2470  0.3652 -0.1619
 1268SOL    HW115266   1.320   1.066   3.490  2.5603 -1.6442 -1.1218
 1268SOL    HW215267   1.318   0.939   3.436 -0.4273 -0.3170  0.0623
 1269SOL     OW15268   1.225   1.008   1.624  0.1316  0.6759  0.0968
 1269SOL    HW115269   1.247   0.919   1.654 -0.5572  0.4691 -0.0071
 1269SOL    HW215270   1.266   1.004   1.538 -0.2005  0.9317 -0.0724
 1270SOL     OW15271   1.290   3.517  15.361 -0.9569 -0.5620  0.1766
 1270SOL    HW115272   1.343   3.514  15.441  2.5172 -0.4902 -2.1044
 1270SOL    HW215273   1.310   3.430  15.327  2.0611  0.1329  0.0775
 1271SOL     OW15274   3.183   2.370   4.458  0.1986  0.2497 -0.2747
 1271SOL    HW115275   3.225   2.316   4.525 -0.0436 -0.4659 -0.7039
 1271SOL    HW215276   3.257   2.377   4.398 -0.4142 -3.3656 -1.4377
 1272SOL     OW15277   1.967   1.669   7.030 -0.1078 -0.3875 -0.3151
 1272SOL    HW115278   1.888   1.720   7.052  0.9346  0.9702  0.2613
 1272SOL    HW215279   1.929   1.592   6.989  0.2337 -0.1857 -1.0130
 1273SOL     OW15280   1.226   1.390  14.095  0.3340  0.1732 -0.4999
 1273SOL    HW115281   1.132   1.390  14.111  0.4430  1.8553  0.0994
 1273SOL    HW215282   1.236   1.456  14.027 -1.0449  0.4910 -0.3813
 1274SOL     OW15283   0.224   3.027  10.763 -0.6776  0.1279 -0.3319
 1274SOL    HW115284   0.188   3.092  10.702 -0.6250  0.4701  0.0005
 1274SOL    HW215285   0.298   3.073  10.803  0.0362 -0.6270 -0.7836
 1275SOL     OW15286   1.465   3.600  17.281 -0.2525  0.3060  0.1165
 1275SOL    HW115287   1.371   3.584  17.294 -0.6627  1.2775 -1.5680
 1275SOL    HW215288   1.479   3.695  17.276  0.1863  0.1320 -2.0216
 1276SOL     OW15289   4.501   1.403   6.598  0.1544 -0.0319  0.2736
 1276SOL    HW115290   4.417   1.375   6.562 -0.1623 -0.6311  1.4844
 1276SOL    HW215291   4.484   1.446   6.681 -1.3768 -0.0802 -0.0267
 1277SOL     OW15292   4.497   1.257   7.069  0.3933 -0.0259  0.3361
 1277SOL    HW115293   4.553   1.303   7.132  1.4758 -0.9882  0.0780
 1277SOL    HW215294   4.414   1.304   7.073  0.8262  0.5709  2.2385
 1278SOL     OW15295   2.838   0.221   2.750  0.3073 -0.2288  0.4971
 1278SOL    HW115296   2.777   0.149   2.739  0.6469 -0.6429  1.3595
 1278SOL    HW215297   2.922   0.180   2.733 -0.0483 -1.2544  1.2040
 1279SOL     OW15298   4.138   0.619  15.962 -0.0837  0.4009  0.0741
 1279SOL    HW115299   4.172   0.550  15.905 -1.1001 -0.0261 -0.0103
 1279SOL    HW215300   4.050   0.633  15.928  0.5253  3.8652 -0.0292
 1280SOL     OW15301   1.054   0.566   4.438 -0.1405  0.3605  0.1317
 1280SOL    HW115302   0.963   0.538   4.444  0.0956 -0.3808  0.2251
 1280SOL    HW215303   1.086   0.542   4.525 -0.7613  0.2716  0.3357
 1281SOL     OW15304   1.186   0.687   6.446 -0.4927  0.2040  0.1452
 1281SOL    HW115305   1.171   0.701   6.539  0.9038  0.3453  0.3468
 1281SOL    HW215306   1.263   0.630   6.451 -0.1184  0.9388  2.6154
 1282SOL     OW15307   0.395   4.017  10.286 -0.4779 -0.5449 -0.1708
 1282SOL    HW115308   0.424   3.955  10.220  0.0556  0.5171 -0.9277
 1282SOL    HW215309   0.328   3.964  10.329 -0.6412  0.1266  0.4080
 1283SOL     OW15310   1.582   1.508   3.376 -0.3392 -0.2529  0.1672
 1283SOL    HW115311   1.594   1.526   3.283  0.8025  2.8501  0.9190
 1283SOL    HW215312   1.493   1.474   3.377 -0.0440 -1.0231  0.6186
 1284SOL     OW15313   3.415   3.515   8.612 -0.1497 -0.2045  0.5556
 1284SOL    HW115314   3.396   3.433   8.658 -1.2067  1.3853  2.9739
 1284SOL    HW215315   3.397   3.575   8.684 -1.7572  1.4024 -1.1970
 1285SOL     OW15316   3.667   0.836   2.274  0.2773  0.2090 -0.2889
 1285SOL    HW115317   3.757   0.819   2.301  0.0778 -0.0419  0.2257
 1285SOL    HW215318   3.668   0.817   2.180  0.8885 -1.7431  0.1211
 1286SOL     OW15319   1.180   4.291   3.402  0.1209 -0.6253 -0.5099
 1286SOL    HW115320   1.272   4.295   3.378  0.1049 -2.1415 -0.8550
 1286SOL    HW215321   1.156   4.234   3.329 -0.1223 -0.3008 -0.6789
 1287SOL     OW15322   4.577   4.153   3.653 -0.0646 -0.8349 -0.0766
 1287SOL    HW115323   4.584   4.239   3.694  0.0212 -1.6838  1.6785
 1287SOL    HW215324   4.627   4.166   3.572  0.1153 -4.2961 -0.5123
 1288SOL     OW15325   3.977   1.614   6.925  0.2889  0.2867  0.3927
 1288SOL    HW115326   4.006   1.701   6.898 -1.1222  0.6116 -0.0776
 1288SOL    HW215327   4.026   1.551   6.870  0.6347 -0.6554  1.7893
 1289SOL     OW15328   0.915   1.734   2.069  0.1804  0.4436 -0.4440
 1289SOL    HW115329   1.010   1.732   2.079  0.1012  1.1965  0.5328
 1289SOL    HW215330   0.900   1.741   1.975 -1.5759 -2.2357 -0.3652
 1290SOL     OW15331   1.422   1.004   8.229 -0.4362 -0.7552  0.0840
 1290SOL    HW115332   1.372   1.050   8.296  0.4461  0.8803 -0.3689
 1290SOL    HW215333   1.489   0.987   8.295 -0.8926  0.5137  0.8705
 1291SOL     OW15334   0.063   1.975   6.580 -0.2630 -0.4862  0.5213
 1291SOL    HW115335   0.116   1.900   6.552 -1.4534 -0.1106 -2.7689
 1291SOL    HW215336   0.068   1.979   6.675 -0.0670  2.1043  0.4022
 1292SOL     OW15337   1.516   2.394  17.105 -0.2870 -0.7811 -0.0208
 1292SOL    HW115338   1.465   2.458  17.154  1.9185 -1.7736  3.5623
 1292SOL    HW215339   1.464   2.354  17.035 -0.3564  0.9040 -0.9090
 1293SOL     OW15340   3.420   3.087   2.925 -0.0341  0.0689  0.5465
 1293SOL    HW115341   3.482   3.054   2.859  0.0819 -0.7930  1.0877
 1293SOL    HW215342   3.357   3.015   2.919 -1.6798  1.5940 -0.7174
 1294SOL     OW15343   2.514   3.114   8.176  0.0402  0.1206 -0.1695
 1294SOL    HW115344   2.482   3.091   8.089 -0.8594 -0.4912  0.3188
 1294SOL    HW215345   2.600   3.071   8.178 -0.6527 -1.3699 -2.2038
 1295SOL     OW15346   1.020   2.057  12.260  0.0300  0.1716  0.2770
 1295SOL    HW115347   1.092   2.043  12.321 -0.9800  0.4681  1.5596
 1295SOL    HW215348   0.942   2.050  12.316 -1.2958  0.8207 -1.4716
 1296SOL     OW15349   1.692   0.419   3.567 -0.7206  0.4474 -0.4826
 1296SOL    HW115350   1.788   0.420   3.562 -0.8528  1.5205 -2.6551
 1296SOL    HW215351   1.699   0.384   3.656  1.2071  3.6614  0.6121
 1297SOL     OW15352   1.102   4.709   5.009 -0.2527  0.2098 -0.0469
 1297SOL    HW115353   1.118   4.652   5.085 -3.1622 -0.5442 -0.0040
 1297SOL    HW215354   1.186   0.019   4.977 -0.1741 -0.4241 -0.4705
 1298SOL     OW15355   2.733   1.551  14.336 -0.0251 -0.1546  0.0305
 1298SOL    HW115356   2.734   1.497  14.415  0.9796 -0.8356 -0.4493
 1298SOL    HW215357   2.826   1.559  14.315 -0.6445  1.9044 -1.9560
 1299SOL     OW15358   1.785   1.221   8.235  0.7552 -0.6392  0.0176
 1299SOL    HW115359   1.853   1.162   8.267 -2.1029 -2.1074  3.3101
 1299SOL    HW215360   1.755   1.246   8.322  1.5432  1.0885 -0.2245
 1300SOL     OW15361   0.513   0.330   2.262 -0.1523  0.1296  0.5801
 1300SOL    HW115362   0.599   0.368   2.278  0.3322 -0.5408 -0.4317
 1300SOL    HW215363   0.464   0.399   2.216 -0.3014  1.1536  2.2732
 1301SOL     OW15364   4.298   3.991   2.398  0.1177 -0.0074 -0.1019
 1301SOL    HW115365   4.247   3.975   2.478  1.2295 -2.8526  0.0291
 1301SOL    HW215366   4.288   4.086   2.388 -1.8231 -0.2355 -0.3908
 1302SOL     OW15367   3.046   1.942  12.795  0.0323 -0.8405 -0.1387
 1302SOL    HW115368   3.022   1.850  12.805  1.5712 -1.2229  0.0328
 1302SOL    HW215369   3.123   1.951  12.850 -0.3419  0.8239  0.1142
 1303SOL     OW15370   0.917   0.334  16.245 -0.3988 -0.4307 -0.8891
 1303SOL    HW115371   0.980   0.269  16.276  2.7276  3.1843  0.4954
 1303SOL    HW215372   0.968   0.404  16.205 -1.3084  0.7443 -0.0169
 1304SOL     OW15373   4.477   1.176   3.461 -0.0981  0.0376 -0.2835
 1304SOL    HW115374   4.494   1.123   3.384 -1.0313 -2.2897  1.1181
 1304SOL    HW215375   4.556   1.168   3.513 -1.7935  1.3747  2.5350
 1305SOL     OW15376   1.036   0.538   2.719 -0.2605 -0.2528 -0.2905
 1305SOL    HW115377   1.073   0.623   2.741 -1.5978  0.1177  0.5086
 1305SOL    HW215378   1.107   0.482   2.687  0.6665  0.5944  0.2789
 1306SOL     OW15379   3.012   0.839   3.622 -0.6450 -0.0794  0.2751
 1306SOL    HW115380   3.028   0.754   3.664  0.4732  0.3856  0.7624
 1306SOL    HW215381   3.076   0.887   3.674  1.3099 -3.5109  1.0174
 1307SOL     OW15382   3.927   2.627   6.184  0.1821 -0.0690 -0.3383
 1307SOL    HW115383   4.005   2.624   6.129 -1.1730  0.6793 -2.2674
 1307SOL    HW215384   3.855   2.620   6.122 -0.6180  0.0351  0.5873
 1308SOL     OW15385   2.792   2.551   3.228  0.3529 -0.7435 -0.0721
 1308SOL    HW115386   2.810   2.643   3.208 -1.2825 -0.7747 -1.6936
 1308SOL    HW215387   2.849   2.507   3.166  1.1425  0.0912  0.0548
 1309SOL     OW15388   0.612   4.354   9.834  0.0880 -0.0708 -0.0491
 1309SOL    HW115389   0.649   4.394   9.912 -0.4184 -1.2935  0.8262
 1309SOL    HW215390   0.660   4.272   9.820 -2.3696 -1.2647 -1.7486
 1310SOL     OW15391   0.094   1.322  16.562 -0.6244  0.1284 -0.4989
 1310SOL    HW115392   0.152   1.376  16.615  0.1687 -1.7158  0.5337
 1310SOL    HW215393   0.031   1.293  16.627  2.3375 -2.3144  1.2950
 1311SOL     OW15394   0.725   1.835   8.237 -0.4447 -0.1147  0.3543
 1311SOL    HW115395   0.790   1.797   8.296 -0.7893  0.7349  1.2886
 1311SOL    HW215396   0.777   1.843   8.157  1.6371 -1.4081  1.6049
 1312SOL     OW15397   3.255   3.863  13.136  0.3285 -0.0250  0.3721
 1312SOL    HW115398   3.257   3.770  13.114  0.8131  0.1567 -0.3660
 1312SOL    HW215399   3.350   3.878  13.140  0.4364 -0.6234  0.1434
 1313SOL     OW15400   2.736   4.666   7.230 -0.1211 -0.1416 -0.7450
 1313SOL    HW115401   2.697   0.023   7.267  1.4410  0.1804  0.1928
 1313SOL    HW215402   2.666   4.644   7.168 -0.7534  0.0748 -0.1160
 1314SOL     OW15403   4.502   3.382  10.515  0.4386 -0.4113 -0.4783
 1314SOL    HW115404   4.460   3.302  10.546  0.6563  0.2270  1.4796
 1314SOL    HW215405   4.560   3.349  10.447  1.0361  1.0299 -0.6800
 1315SOL     OW15406   1.582   2.452  16.312 -0.5812  0.0409 -0.1022
 1315SOL    HW115407   1.618   2.526  16.265 -1.1229 -0.6062 -1.5263
 1315SOL    HW215408   1.621   2.459  16.399 -1.5751 -0.6532  0.4043
 1316SOL     OW15409   0.298   2.477   5.506 -0.2104  0.1825 -0.1468
 1316SOL    HW115410   0.304   2.393   5.462  1.3837  0.8179 -1.1382
 1316SOL    HW215411   0.271   2.450   5.594 -1.1998 -0.1659 -0.5512
 1317SOL     OW15412   3.791   1.625   9.010  0.7019  0.2362 -0.3204
 1317SOL    HW115413   3.847   1.700   9.027  1.2940  0.0003 -1.2152
 1317SOL    HW215414   3.849   1.549   9.017  0.8832  0.3560 -0.5421
 1318SOL     OW15415   2.435   1.217   6.761  0.3284 -0.4206 -0.0004
 1318SOL    HW115416   2.529   1.221   6.778  0.8609  0.0115 -2.9257
 1318SOL    HW215417   2.406   1.307   6.748  0.5806 -0.0685  1.8587
 1319SOL     OW15418   3.656   3.547   5.761  0.8653  0.4638 -0.1202
 1319SOL    HW115419   3.743   3.586   5.770  0.3594  1.6920 -0.4693
 1319SOL    HW215420   3.604   3.618   5.799  0.4883 -0.3679  0.9031
 1320SOL     OW15421   1.480   0.063   4.292  0.1929  0.2664 -0.2389
 1320SOL    HW115422   1.550   0.009   4.256 -0.3193 -1.6415  1.6143
 1320SOL    HW215423   1.477   0.030   4.382  0.6526 -1.4612 -0.8586
 1321SOL     OW15424   1.912   3.630  17.092 -0.0344 -0.3589 -0.3249
 1321SOL    HW115425   1.921   3.690  17.018  1.6911 -0.0751  0.1164
 1321SOL    HW215426   1.828   3.665  17.122 -0.5879 -1.1693 -0.9370
 1322SOL     OW15427   3.059   1.312   8.281  0.4542 -0.4199 -0.4320
 1322SOL    HW115428   3.069   1.279   8.191  0.4826 -0.7082 -0.3223
 1322SOL    HW215429   3.005   1.387   8.257  1.8187  0.0673 -2.0637
 1323SOL     OW15430   3.747   0.539   1.015  0.0469  0.1567 -0.4932
 1323SOL    HW115431   3.694   0.462   1.035  1.6544 -1.1926 -1.3704
 1323SOL    HW215432   3.833   0.499   1.029 -1.4973 -2.3215  1.9584
 1324SOL     OW15433   3.394   4.484   6.456 -0.4344  0.2117  0.8286
 1324SOL    HW115434   3.305   4.449   6.458 -1.1428  1.9108 -1.1818
 1324SOL    HW215435   3.404   4.523   6.369  0.7500  3.4247  2.3975
 1325SOL     OW15436   4.632   0.399   6.062  0.4295 -0.5580 -0.1628
 1325SOL    HW115437   4.666   0.454   5.992  1.9847 -0.3266  0.7867
 1325SOL    HW215438   4.559   0.356   6.016  0.9541 -1.6226  0.0129
 1326SOL     OW15439   1.086   0.554  16.693 -0.0455 -0.7353  0.3901
 1326SOL    HW115440   1.037   0.523  16.617  1.2960 -2.6142  0.2718
 1326SOL    HW215441   1.168   0.571  16.646 -0.1833  0.3458  0.5382
 1327SOL     OW15442   3.840   3.826   7.478 -0.5884  0.7848 -0.1144
 1327SOL    HW115443   3.772   3.890   7.501 -0.4436  1.1770 -0.7701
 1327SOL    HW215444   3.800   3.741   7.493 -0.0908  0.2028 -2.1578
 1328SOL     OW15445   3.389   4.207   8.509 -0.5193 -0.6141 -0.3038
 1328SOL    HW115446   3.396   4.112   8.499 -0.5792 -0.6809  0.2726
 1328SOL    HW215447   3.431   4.223   8.594  2.4626  0.7253 -2.0210
 1329SOL     OW15448   3.742   2.320   2.518 -0.4945 -0.3631  0.4254
 1329SOL    HW115449   3.727   2.231   2.489  0.0830  0.4669 -2.4378
 1329SOL    HW215450   3.806   2.347   2.452  0.6576  1.0228  2.1000
 1330SOL     OW15451   1.923   1.182  16.582 -0.5609  0.6391 -0.1285
 1330SOL    HW115452   1.937   1.200  16.489  0.1322 -0.7242 -0.2786
 1330SOL    HW215453   1.943   1.265  16.625 -2.4826  1.2088 -0.3293
 1331SOL     OW15454   1.513   1.999  13.931  0.1358 -0.3340  0.5117
 1331SOL    HW115455   1.459   1.922  13.946  1.7653 -1.6399 -0.2917
 1331SOL    HW215456   1.484   2.030  13.845 -1.9816  0.7548  1.6344
 1332SOL     OW15457   2.582   4.127   9.444  0.1020  0.6273 -0.0899
 1332SOL    HW115458   2.566   4.192   9.511 -1.0933  0.2493 -0.0148
 1332SOL    HW215459   2.490   4.111   9.421  0.3750  2.4431 -2.4077
 1333SOL     OW15460   0.023   3.773  16.595 -0.4030  0.2825 -0.1706
 1333SOL    HW115461   0.118   3.760  16.604  0.0162  3.0482 -0.6426
 1333SOL    HW215462   0.012   3.807  16.506  2.2365  0.6877 -0.3505
 1334SOL     OW15463   0.477   3.436   7.349  0.0017  0.1887 -0.3022
 1334SOL    HW115464   0.418   3.483   7.408  0.6627  0.2324  0.3343
 1334SOL    HW215465   0.556   3.485   7.372 -1.3408  1.7959  0.8990
 1335SOL     OW15466   4.411   2.178   4.443  0.2387 -0.4689 -0.5290
 1335SOL    HW115467   4.402   2.117   4.516 -0.4921 -0.2917 -0.4711
 1335SOL    HW215468   4.332   2.153   4.395 -0.1743  1.4807 -0.8536
 1336SOL     OW15469   2.837   4.620   3.638 -0.1621 -0.3482  0.4335
 1336SOL    HW115470   2.812   4.531   3.613  0.1488 -0.7600  1.6234
 1336SOL    HW215471   2.786   4.646   3.715 -2.1825 -1.2342 -0.6012
 1337SOL     OW15472   3.412   3.319  14.219 -0.4389  0.1834 -0.4326
 1337SOL    HW115473   3.448   3.338  14.305  0.7390  0.0436 -0.8796
 1337SOL    HW215474   3.336   3.265  14.240  1.0506 -1.2725  1.2490
 1338SOL     OW15475   4.065   2.356   5.103 -0.2894 -0.1936  0.4056
 1338SOL    HW115476   4.147   2.326   5.141  1.0144 -0.4957 -2.6602
 1338SOL    HW215477   4.080   2.450   5.100 -0.3753 -0.2046 -0.4342
 1339SOL     OW15478   4.378   3.359   0.571  0.0228 -0.2590 -0.1485
 1339SOL    HW115479   4.377   3.413   0.492  0.5082  0.1772  0.1398
 1339SOL    HW215480   4.289   3.325   0.570 -1.1294  2.8238  0.1936
 1340SOL     OW15481   2.411   2.332   0.734 -0.0840 -0.0185 -0.2536
 1340SOL    HW115482   2.455   2.259   0.691  0.7919  0.4024 -0.0990
 1340SOL    HW215483   2.362   2.370   0.661  0.0954 -2.3815 -1.5864
 1341SOL     OW15484   0.779   1.067   9.342  0.4760 -0.2015 -0.1565
 1341SOL    HW115485   0.844   1.098   9.406  0.1455 -1.0919  0.6151
 1341SOL    HW215486   0.831   0.990   9.319 -1.4420 -1.6556  0.3679
 1342SOL     OW15487   1.202   4.550   6.078  0.5219  1.0629  0.1380
 1342SOL    HW115488   1.268   4.503   6.129 -0.2875  0.4603  0.6218
 1342SOL    HW215489   1.137   4.565   6.147  1.9808 -2.3876  2.2556
 1343SOL     OW15490   2.383   4.246  14.827  0.3120 -0.1113  0.6624
 1343SOL    HW115491   2.398   4.195  14.906  2.3971 -1.9270 -0.8772
 1343SOL    HW215492   2.352   4.177  14.767 -1.2110  1.2316 -0.0779
 1344SOL     OW15493   2.160   2.741   3.673  0.0203 -0.3144  0.3047
 1344SOL    HW115494   2.166   2.665   3.615 -0.7829 -0.5781  0.5794
 1344SOL    HW215495   2.250   2.775   3.667 -1.2854  3.0847  0.2396
 1345SOL     OW15496   0.714   4.581   7.120 -0.3138 -0.2222  0.6815
 1345SOL    HW115497   0.715   4.628   7.204 -0.1106  0.8108  0.0944
 1345SOL    HW215498   0.755   4.496   7.137 -0.3063 -0.1341  1.1157
 1346SOL     OW15499   1.609   1.173   0.088  0.3091  0.5580  0.1206
 1346SOL    HW115500   1.575   1.184   0.176  0.1295 -2.3492  0.4225
 1346SOL    HW215501   1.619   1.078   0.080 -1.1850  0.4238 -0.3175
 1347SOL     OW15502   2.134   0.830   4.130  0.5985  0.1779  0.2240
 1347SOL    HW115503   2.209   0.807   4.185  1.9280 -0.2940 -1.8162
 1347SOL    HW215504   2.137   0.755   4.071  0.9445 -0.7507  1.4276
 1348SOL     OW15505   0.151   1.470   6.348 -0.1548 -0.4330 -0.5144
 1348SOL    HW115506   0.088   1.400   6.331 -0.6895  0.8514 -3.7853
 1348SOL    HW215507   0.224   1.422   6.308 -0.3352  0.1728 -1.5670
 1349SOL     OW15508   1.385   2.552   6.271 -0.3762 -0.7096 -0.3337
 1349SOL    HW115509   1.463   2.588   6.313  0.1138  0.4668 -2.2481
 1349SOL    HW215510   1.328   2.555   6.348  0.3305 -2.4315  0.2486
 1350SOL     OW15511   2.654   3.931   8.278 -0.1905  0.1453 -0.2017
 1350SOL    HW115512   2.671   4.002   8.217  1.6641 -0.2942 -0.1825
 1350SOL    HW215513   2.738   3.888   8.268  0.1357  1.1008 -1.4613
 1351SOL     OW15514   1.547   0.549   3.002  0.1666  0.0873  0.6849
 1351SOL    HW115515   1.583   0.636   3.013 -0.9051  0.7492 -1.0784
 1351SOL    HW215516   1.567   0.522   2.912  2.0383  1.0954  0.7953
 1352SOL     OW15517   0.942   3.631   8.595  0.2413 -0.3580  0.1482
 1352SOL    HW115518   0.995   3.683   8.535 -0.9031  0.6884  0.0477
 1352SOL    HW215519   1.005   3.595   8.657  1.0886  0.5018 -0.2221
 1353SOL     OW15520   2.788   3.234   3.357 -0.7841  0.1561  0.0655
 1353SOL    HW115521   2.713   3.215   3.300  2.0267 -2.0643 -2.8891
 1353SOL    HW215522   2.841   3.282   3.293 -0.6503  0.6179  0.5217
 1354SOL     OW15523   0.452   3.015   4.526 -0.1968  0.2885  0.3359
 1354SOL    HW115524   0.472   2.957   4.599  1.0177  1.9655  1.3317
 1354SOL    HW215525   0.456   2.965   4.445 -0.1427  1.7627 -0.5747
 1355SOL     OW15526   4.130   0.888   6.593  0.0298  0.6526  0.1806
 1355SOL    HW115527   4.035   0.898   6.594 -0.1169 -0.6459  0.0618
 1355SOL    HW215528   4.150   0.901   6.501  1.7227 -0.3933  0.3956
 1356SOL     OW15529   3.176   1.273   5.645  0.6992 -0.7459  0.0116
 1356SOL    HW115530   3.110   1.339   5.668  0.9117 -0.8243  0.8446
 1356SOL    HW215531   3.252   1.316   5.683  0.5637 -0.8773  0.4220
 1357SOL     OW15532   2.688   3.581   7.431 -0.0438 -0.4895  0.0211
 1357SOL    HW115533   2.724   3.508   7.381  0.2982 -0.1678 -0.2031
 1357SOL    HW215534   2.751   3.583   7.503 -0.5079 -1.2317  0.4462
 1358SOL     OW15535   2.011   4.417   7.051 -0.6829  0.1774  0.3051
 1358SOL    HW115536   1.944   4.377   7.107  0.3033 -0.4247  1.0581
 1358SOL    HW215537   2.088   4.398   7.105 -1.8193 -0.0551  1.8294
 1359SOL     OW15538   1.044   3.163  12.804  0.5121 -0.1492 -0.1839
 1359SOL    HW115539   0.978   3.120  12.751  0.1860  1.5841 -1.1816
 1359SOL    HW215540   1.055   3.244  12.755  0.2787  0.5169  0.8702
 1360SOL     OW15541   4.074   1.470   3.093  0.5821  0.2612  0.1076
 1360SOL    HW115542   4.052   1.493   3.003  2.0134 -0.3675 -0.4089
 1360SOL    HW215543   4.079   1.374   3.084  1.5727  0.1647  1.7117
 1361SOL     OW15544   3.285   4.267  15.148 -0.1882 -0.2064  0.5085
 1361SOL    HW115545   3.365   4.247  15.099 -0.4538  0.2199 -0.1084
 1361SOL    HW215546   3.225   4.298  15.079 -0.5220 -2.0517 -0.0360
 1362SOL     OW15547   1.842   1.185  11.105  0.0533 -0.2616 -0.2982
 1362SOL    HW115548   1.820   1.249  11.172  0.0680 -0.0527 -0.4917
 1362SOL    HW215549   1.934   1.207  11.090  1.4988 -3.6346  3.7711
 1363SOL     OW15550   4.707   0.049  12.221 -0.3580 -0.0090  0.1121
 1363SOL    HW115551   4.722   4.681  12.248  1.0101  0.2193  0.1122
 1363SOL    HW215552   0.049   0.092  12.278 -0.1299 -0.7857  0.4450
 1364SOL     OW15553   3.524   2.084   3.236 -0.2809  0.4047  0.3220
 1364SOL    HW115554   3.464   2.013   3.213  1.1481 -0.6398 -0.2189
 1364SOL    HW215555   3.463   2.152   3.264 -0.4882  0.6910 -0.8026
 1365SOL     OW15556   0.484   2.165   2.968 -0.0605  0.4798  0.0227
 1365SOL    HW115557   0.460   2.213   2.889 -0.5045  0.8126  0.3640
 1365SOL    HW215558   0.397   2.138   2.997  0.3380 -0.8506  0.0092
 1366SOL     OW15559   0.481   1.423  14.013  0.3876  0.2503  0.1236
 1366SOL    HW115560   0.406   1.482  14.025  1.7344  1.9493  0.2440
 1366SOL    HW215561   0.448   1.334  14.026 -0.3022  0.3122 -1.2242
 1367SOL     OW15562   2.984   0.567  16.147  0.0162  0.6589 -0.8639
 1367SOL    HW115563   3.064   0.561  16.198  0.0373  4.2837 -0.4594
 1367SOL    HW215564   2.958   0.481  16.113  0.2129  0.7342 -1.2023
 1368SOL     OW15565   2.238   3.606   6.617 -0.1502 -0.2953  0.2123
 1368SOL    HW115566   2.244   3.648   6.532  3.0733  0.7111  0.9274
 1368SOL    HW215567   2.179   3.669   6.658  1.1689  0.4116  1.0590
 1369SOL     OW15568   1.451   1.670   5.981  0.3552  0.3063  0.0290
 1369SOL    HW115569   1.435   1.649   6.073 -2.4704  0.5696 -0.3820
 1369SOL    HW215570   1.447   1.583   5.940  0.8988  1.4581 -2.4492
 1370SOL     OW15571   2.878   3.041  10.757  0.0174 -0.4637 -0.0456
 1370SOL    HW115572   2.894   3.012  10.667  0.7951  1.7035 -0.6199
 1370SOL    HW215573   2.787   3.012  10.758  0.2512 -1.2045 -0.1020
 1371SOL     OW15574   0.454   4.438   8.185  0.4379 -0.4641 -0.2627
 1371SOL    HW115575   0.378   4.395   8.145  0.9883 -0.7051 -1.0615
 1371SOL    HW215576   0.493   4.375   8.246 -0.4390 -1.5951 -0.8633
 1372SOL     OW15577   3.653   3.676  12.579  0.0112 -0.1413  0.4101
 1372SOL    HW115578   3.692   3.627  12.507 -3.3322 -0.1239 -1.4404
 1372SOL    HW215579   3.728   3.700  12.633 -0.7159  0.0126  1.3433
 1373SOL     OW15580   0.590   0.492   6.265  0.2576  0.1934 -0.5035
 1373SOL    HW115581   0.617   0.486   6.356 -0.4129 -2.0727 -0.4689
 1373SOL    HW215582   0.552   0.580   6.260 -0.3652 -0.0605 -0.1789
 1374SOL     OW15583   4.086   0.289   2.261 -0.4135 -0.2948  0.3827
 1374SOL    HW115584   4.142   0.219   2.294  0.6729  0.4677  0.1346
 1374SOL    HW215585   4.144   0.364   2.272  0.9581 -1.5580  1.6566
 1375SOL     OW15586   2.721   3.175  11.266  0.0331  0.2994 -0.1080
 1375SOL    HW115587   2.801   3.126  11.287 -0.6410 -1.0747 -0.7307
 1375SOL    HW215588   2.701   3.210  11.353 -1.1776 -0.8815  0.0797
 1376SOL     OW15589   1.217   1.193   6.843 -0.0863  0.5304  0.1063
 1376SOL    HW115590   1.296   1.203   6.895 -0.1281  1.5942 -0.0460
 1376SOL    HW215591   1.207   1.287   6.831 -0.4170  0.5445  0.4963
 1377SOL     OW15592   2.640   3.641  13.581 -0.3283 -0.4878 -0.0043
 1377SOL    HW115593   2.612   3.732  13.588 -0.2584 -0.3728 -1.3110
 1377SOL    HW215594   2.713   3.637  13.643 -1.2264 -0.4574  1.0642
 1378SOL     OW15595   1.007   0.083   6.506 -0.1440  0.2376 -0.0008
 1378SOL    HW115596   1.034   0.154   6.564  1.0230 -1.2996  1.3298
 1378SOL    HW215597   1.095   0.052   6.487 -0.7649  0.3841 -3.0580
 1379SOL     OW15598   2.228   2.541   3.470  0.3171  0.4172 -0.2794
 1379SOL    HW115599   2.318   2.511   3.484 -0.2919 -1.5132 -0.5264
 1379SOL    HW215600   2.228   2.557   3.375  1.7926 -1.7980 -0.6570
 1380SOL     OW15601   2.863   2.374   6.052  0.5971  0.3779 -0.2916
 1380SOL    HW115602   2.873   2.324   6.133 -1.0573  1.2156  0.4346
 1380SOL    HW215603   2.777   2.358   6.012  1.0803 -0.7059 -0.8879
 1381SOL     OW15604   0.928   3.710   2.676 -0.0354  0.3017  0.2837
 1381SOL    HW115605   0.999   3.772   2.663 -1.0210  1.0296 -1.6842
 1381SOL    HW215606   0.965   3.651   2.742 -1.3335  0.7263  1.3904
 1382SOL     OW15607   0.205   4.331   4.022  1.0227  0.1272 -0.3439
 1382SOL    HW115608   0.154   4.389   4.078  0.4573 -0.3576 -0.3520
 1382SOL    HW215609   0.158   4.338   3.939  1.3677  2.8293 -0.3021
 1383SOL     OW15610   3.731   2.306   7.534  0.0845  0.8006  0.6963
 1383SOL    HW115611   3.766   2.247   7.600  0.4871  2.0380  1.5966
 1383SOL    HW215612   3.640   2.306   7.563 -0.1396 -3.4449  0.0347
 1384SOL     OW15613   3.663   4.276  17.582 -1.3626 -0.5611  0.0653
 1384SOL    HW115614   3.610   4.223  17.522 -1.3250 -1.2751  0.6627
 1384SOL    HW215615   3.618   4.293  17.664 -0.2111 -1.7534  0.9502
 1385SOL     OW15616   4.243   0.288  10.583  0.5930 -0.0720  0.8838
 1385SOL    HW115617   4.236   0.351  10.655 -0.7785  2.0236 -1.1117
 1385SOL    HW215618   4.224   0.208  10.632 -1.0630 -0.2791 -0.0988
 1386SOL     OW15619   1.804   3.717   8.236  0.0326  1.3176  0.3986
 1386SOL    HW115620   1.736   3.650   8.229  0.3788  0.9948  0.1358
 1386SOL    HW215621   1.751   3.793   8.212 -0.9624  0.8702  1.1714
 1387SOL     OW15622   3.033   4.416   3.401  0.4406  0.4259  0.4131
 1387SOL    HW115623   2.974   4.364   3.347  3.2127 -0.2597 -1.9678
 1387SOL    HW215624   3.046   4.489   3.341  1.2003  0.3587  0.4931
 1388SOL     OW15625   4.552   3.385   6.904  0.2232 -0.4980  0.1282
 1388SOL    HW115626   4.608   3.353   6.974 -0.7245 -2.2753  0.0810
 1388SOL    HW215627   4.544   3.311   6.844 -1.1392  0.5291 -0.9625
 1389SOL     OW15628   1.740   1.568   2.586 -0.7865  0.0164 -0.4297
 1389SOL    HW115629   1.731   1.662   2.602 -2.1722 -0.4721  1.6511
 1389SOL    HW215630   1.834   1.561   2.568 -0.7302  0.9576 -0.5215
 1390SOL     OW15631   3.836   4.188   6.518  0.0017 -0.1339 -0.4263
 1390SOL    HW115632   3.745   4.205   6.541  0.2155  0.3314  0.1131
 1390SOL    HW215633   3.886   4.242   6.580 -4.1794  1.0821  1.8388
 1391SOL     OW15634   0.167   4.316   7.498 -0.4235  0.0718 -0.2516
 1391SOL    HW115635   0.138   4.287   7.585  0.9062  0.9238  0.4822
 1391SOL    HW215636   0.247   4.365   7.517  1.1412 -2.5495  0.0153
 1392SOL     OW15637   3.235   3.566   5.544 -0.0183 -1.0852  0.3039
 1392SOL    HW115638   3.221   3.636   5.607 -0.0575  1.1284 -2.1747
 1392SOL    HW215639   3.159   3.576   5.486  0.1700 -2.5211 -0.2044
 1393SOL     OW15640   0.149   3.930  10.420 -0.0490 -0.0006 -0.3655
 1393SOL    HW115641   0.129   3.837  10.432  0.8750 -0.0255  0.9599
 1393SOL    HW215642   0.109   3.945  10.334  1.4002  0.0388 -1.0435
 1394SOL     OW15643   1.916   3.902  12.026  0.6775  0.4023  0.2704
 1394SOL    HW115644   1.982   3.835  12.004 -0.0020 -0.5393  1.0951
 1394SOL    HW215645   1.951   3.972  11.971  0.5784  1.7524  1.9649
 1395SOL     OW15646   4.455   2.492   1.310 -0.4391  0.0260 -0.0477
 1395SOL    HW115647   4.528   2.553   1.300 -0.5980 -0.0013 -1.3027
 1395SOL    HW215648   4.415   2.498   1.224 -1.1912  0.4787  0.3306
 1396SOL     OW15649   4.321   3.351  14.665  0.0858  0.4804 -0.7044
 1396SOL    HW115650   4.257   3.407  14.709  2.3443  0.6453  2.3508
 1396SOL    HW215651   4.313   3.270  14.716  1.1283  1.3687  0.8678
 1397SOL     OW15652   2.615   4.130   8.534 -0.7460 -0.6464  0.6707
 1397SOL    HW115653   2.523   4.109   8.549 -0.8844 -0.6258 -0.1247
 1397SOL    HW215654   2.611   4.200   8.468 -0.0686 -0.0565  1.2596
 1398SOL     OW15655   3.051   2.209   7.026 -0.6631  0.2127 -0.2245
 1398SOL    HW115656   3.012   2.194   6.940 -0.3881  1.2132 -0.5165
 1398SOL    HW215657   3.047   2.122   7.066  0.4271  0.4263  0.3319
 1399SOL     OW15658   1.425   0.053  16.523 -0.2896 -0.0105  0.0978
 1399SOL    HW115659   1.472   0.076  16.443 -1.2255  0.9142 -0.1874
 1399SOL    HW215660   1.447   4.682  16.520  1.8671  0.6199 -3.6468
 1400SOL     OW15661   1.726   4.117  14.082 -0.2391 -0.0157 -0.0168
 1400SOL    HW115662   1.677   4.144  14.004  1.6406  1.1103 -0.8078
 1400SOL    HW215663   1.712   4.184  14.149  2.4874  0.9174 -0.3680
 1401SOL     OW15664   0.741   1.096   0.398 -0.3459 -0.2450 -0.4564
 1401SOL    HW115665   0.836   1.083   0.393 -0.2655 -0.4002  1.6707
 1401SOL    HW215666   0.723   1.115   0.490  0.0097 -3.5994  0.3013
 1402SOL     OW15667   1.205   2.999   3.365  0.4183 -0.9340 -0.3881
 1402SOL    HW115668   1.172   2.915   3.398 -0.4930 -0.1725  0.6445
 1402SOL    HW215669   1.297   3.003   3.390  0.1926 -1.0710  0.4431
 1403SOL     OW15670   0.612   3.986   6.848 -0.6103 -0.1350 -0.1896
 1403SOL    HW115671   0.652   3.941   6.774 -0.9143 -0.1501 -0.3445
 1403SOL    HW215672   0.554   4.051   6.808  0.0350  1.9568  2.2771
 1404SOL     OW15673   1.318   0.846  17.474 -0.5693 -0.4730  0.4409
 1404SOL    HW115674   1.366   0.902  17.412  0.9337 -1.4400  0.7237
 1404SOL    HW215675   1.328   0.756  17.444 -1.3235 -0.4676  0.1838
 1405SOL     OW15676   2.509   2.529   7.953 -0.2169 -0.0477 -0.0719
 1405SOL    HW115677   2.478   2.463   8.015  0.4293 -0.0301  0.2726
 1405SOL    HW215678   2.427   2.578   7.952  0.3499  0.8163 -3.1987
 1406SOL     OW15679   3.947   3.442  12.133 -0.0446 -0.4586 -0.1368
 1406SOL    HW115680   3.905   3.434  12.047  0.6753  0.7770 -0.6023
 1406SOL    HW215681   4.012   3.373  12.129 -0.5760 -0.9112 -1.0181
 1407SOL     OW15682   4.525   2.694   4.226 -0.4618  0.6217  0.3096
 1407SOL    HW115683   4.509   2.677   4.133 -1.2727 -1.4177  0.8227
 1407SOL    HW215684   4.444   2.661   4.266 -0.0771 -1.2483 -0.4890
 1408SOL     OW15685   0.080   0.264   2.393  0.1592 -0.7992 -0.3248
 1408SOL    HW115686   0.144   0.231   2.456 -1.7393 -2.4958  0.6901
 1408SOL    HW215687   0.136   0.306   2.327  0.4650 -1.2466 -0.3513
 1409SOL     OW15688   1.258   2.183   4.832  0.1786 -0.1104 -0.0474
 1409SOL    HW115689   1.304   2.239   4.895 -0.9519  1.3618 -0.5493
 1409SOL    HW215690   1.333   2.143   4.787  1.4056 -0.4013  2.2048
 1410SOL     OW15691   0.003   4.077   2.070 -0.0746 -0.3262  0.7880
 1410SOL    HW115692   4.681   4.144   2.017 -0.5635 -0.2740  1.2587
 1410SOL    HW215693   4.667   4.076   2.146 -1.3631 -1.3768 -0.2442
 1411SOL     OW15694   4.544   1.736  14.179 -0.2271 -0.2104 -0.2317
 1411SOL    HW115695   4.508   1.664  14.231 -0.4982 -0.6908 -1.0831
 1411SOL    HW215696   4.481   1.803  14.202  0.3267 -0.1962  1.2324
 1412SOL     OW15697   1.221   3.902   5.187  0.2848 -0.0313  0.0040
 1412SOL    HW115698   1.161   3.828   5.198  0.3721  0.3417  2.9632
 1412SOL    HW215699   1.301   3.867   5.227  0.0609  0.6771  1.0828
 1413SOL     OW15700   1.205   0.463   2.118 -0.4151  0.3057  0.2117
 1413SOL    HW115701   1.168   0.441   2.203  0.6260  1.2997  0.9097
 1413SOL    HW215702   1.171   0.552   2.105 -0.1615  0.5376  1.1688
 1414SOL     OW15703   0.472   0.625   8.285 -0.0012  0.0180  0.0772
 1414SOL    HW115704   0.472   0.557   8.218  0.5546  0.7518 -0.6614
 1414SOL    HW215705   0.564   0.627   8.314 -0.3300 -2.1666  1.3060
 1415SOL     OW15706   0.009   3.315  10.352  0.0303  0.5109  0.1570
 1415SOL    HW115707   0.023   3.332  10.259 -1.1618  2.4387  0.3349
 1415SOL    HW215708   0.098   3.322  10.386 -0.4435  1.8927  1.1140
 1416SOL     OW15709   0.698   0.803   7.250 -0.4823 -0.1792 -0.3544
 1416SOL    HW115710   0.766   0.748   7.288  0.0285  0.2906 -0.5836
 1416SOL    HW215711   0.712   0.889   7.291 -0.1014 -0.4708  0.1318
 1417SOL     OW15712   4.294   3.314   5.287  0.2886 -0.0606  0.0048
 1417SOL    HW115713   4.365   3.378   5.283  1.0987 -0.9139  0.4593
 1417SOL    HW215714   4.263   3.311   5.196 -1.4474 -2.5095  0.6973
 1418SOL     OW15715   4.187   3.739   7.967  0.0120 -0.1786 -0.1549
 1418SOL    HW115716   4.237   3.774   8.041  0.5098 -0.6736 -0.2543
 1418SOL    HW215717   4.191   3.810   7.902  1.5290 -0.1067 -0.0002
 1419SOL     OW15718   1.371   2.088   0.236 -0.3459  0.3511 -0.6665
 1419SOL    HW115719   1.380   2.159   0.172 -0.8620 -0.4305 -1.6208
 1419SOL    HW215720   1.392   2.012   0.181 -0.4663  0.6522 -1.1343
 1420SOL     OW15721   1.257   0.751   6.761 -0.1702 -1.0685  0.0983
 1420SOL    HW115722   1.183   0.698   6.792  0.5232 -2.1605 -0.1191
 1420SOL    HW215723   1.326   0.690   6.736 -0.8044 -0.3540 -3.3667
 1421SOL     OW15724   1.912   4.384  14.169  0.1878 -0.4009 -0.3941
 1421SOL    HW115725   1.832   4.346  14.205  0.4808 -1.2787 -0.6580
 1421SOL    HW215726   1.978   4.362  14.235 -0.4568 -0.3664  0.2493
 1422SOL     OW15727   2.593   0.928   9.065 -0.8191 -0.0414 -0.5792
 1422SOL    HW115728   2.511   0.921   9.115 -0.9149 -0.4069 -0.7818
 1422SOL    HW215729   2.655   0.933   9.137 -0.8711 -3.0216 -0.3235
 1423SOL     OW15730   4.358   4.242   7.869 -0.0931  0.2309 -0.2999
 1423SOL    HW115731   4.330   4.325   7.831  0.3929  0.6067  0.1474
 1423SOL    HW215732   4.280   4.227   7.922 -0.4658 -2.9642 -1.7719
 1424SOL     OW15733   0.283   3.238  12.443  0.4983 -0.2605  0.5653
 1424SOL    HW115734   0.261   3.145  12.455 -0.5263 -0.2373 -1.0922
 1424SOL    HW215735   0.222   3.288  12.497 -0.0059  0.1656 -0.4122
 1425SOL     OW15736   3.270   2.375   8.441  0.3294 -0.2713 -0.1649
 1425SOL    HW115737   3.307   2.460   8.463 -1.0526 -0.1289  1.6364
 1425SOL    HW215738   3.265   2.388   8.347 -1.2847 -1.2088 -0.2103
 1426SOL     OW15739   3.006   2.587  15.528 -0.0555  0.2632  0.0559
 1426SOL    HW115740   3.061   2.512  15.505  2.5084  2.2164 -0.0759
 1426SOL    HW215741   2.931   2.534  15.557 -2.1550  3.9705  1.4453
 1427SOL     OW15742   0.727   1.005   4.956  0.4402  0.5334  0.3935
 1427SOL    HW115743   0.746   0.973   4.867  0.7346  1.1062  0.2506
 1427SOL    HW215744   0.671   1.082   4.948 -1.1735 -0.8721 -1.6996
 1428SOL     OW15745   4.226   0.772   4.092  0.6402 -0.0402  0.4613
 1428SOL    HW115746   4.304   0.826   4.078  0.0779 -0.0171 -2.4310
 1428SOL    HW215747   4.173   0.815   4.159 -1.0288 -0.8397 -0.3511
 1429SOL     OW15748   2.655   2.729   8.870 -0.3614  0.3896  0.4574
 1429SOL    HW115749   2.625   2.818   8.889 -1.5831  0.2571 -0.8323
 1429SOL    HW215750   2.627   2.692   8.955  1.6164  0.3027  1.0658
 1430SOL     OW15751   3.049   2.678   2.671  0.6577  0.4889  0.2939
 1430SOL    HW115752   3.027   2.606   2.730  3.2656 -0.8600 -0.3714
 1430SOL    HW215753   2.964   2.719   2.654  0.6088  0.0934 -0.4585
 1431SOL     OW15754   2.612   4.421   9.919  0.4349  0.4020 -0.0751
 1431SOL    HW115755   2.578   4.394   9.834  2.8291 -1.8688 -0.2996
 1431SOL    HW215756   2.539   4.473   9.953  0.3944  1.3580 -1.6641
 1432SOL     OW15757   0.729   1.662   7.140 -1.5039  0.4331  0.3301
 1432SOL    HW115758   0.638   1.636   7.158 -0.6290 -2.4755  0.5541
 1432SOL    HW215759   0.747   1.719   7.214 -0.2519  2.6427 -1.6627
 1433SOL     OW15760   0.040   1.423   7.589  0.3842  0.2530  0.0181
 1433SOL    HW115761   0.041   1.377   7.505 -0.5201 -0.4331  0.3741
 1433SOL    HW215762   0.034   1.357   7.659 -1.1957 -0.7576 -1.0618
 1434SOL     OW15763   4.162   0.274   6.398  0.1492 -0.2107 -0.1401
 1434SOL    HW115764   4.127   0.363   6.396  0.0940 -0.2889 -2.2633
 1434SOL    HW215765   4.235   0.285   6.338 -0.7024  0.0997 -1.1124
 1435SOL     OW15766   1.533   3.701  13.427 -0.8038 -0.1510  0.0222
 1435SOL    HW115767   1.566   3.787  13.454  0.2309 -0.8720  1.0441
 1435SOL    HW215768   1.601   3.681  13.363  0.3633 -0.5713  1.3956
 1436SOL     OW15769   4.277   2.090   5.984  0.0195  0.0892 -0.0103
 1436SOL    HW115770   4.246   2.115   5.897 -0.4697  1.4846  0.5565
 1436SOL    HW215771   4.355   2.145   5.992  0.8827 -1.5278  2.6618
 1437SOL     OW15772   0.794   4.405   0.749 -0.3097  0.2657 -0.0076
 1437SOL    HW115773   0.843   4.348   0.691  2.2281  0.8122  1.5786
 1437SOL    HW215774   0.764   4.346   0.819  0.4597  0.0378  0.1296
 1438SOL     OW15775   2.131   0.021   8.108 -0.7168  0.8101 -0.2388
 1438SOL    HW115776   2.082   4.672   8.066 -3.2153  1.4777  1.5881
 1438SOL    HW215777   2.062   0.087   8.115 -0.3910  1.3605 -2.1051
 1439SOL     OW15778   4.381   0.558   3.886  0.5491 -0.4046 -0.2236
 1439SOL    HW115779   4.331   0.555   3.804 -2.1052 -1.8445  1.4451
 1439SOL    HW215780   4.346   0.481   3.930  1.5386 -0.1206  1.0645
 1440SOL     OW15781   0.515   1.918   0.882 -0.6522  0.0531  0.0130
 1440SOL    HW115782   0.437   1.917   0.938 -0.1336  1.8739  0.7682
 1440SOL    HW215783   0.476   1.898   0.798  0.5233 -0.8338 -0.3195
 1441SOL     OW15784   3.955   1.181   2.589 -0.1097  0.5431  0.9706
 1441SOL    HW115785   3.896   1.252   2.616  0.0027  1.5267 -1.4067
 1441SOL    HW215786   4.017   1.229   2.535  0.4287  2.2144  3.0583
 1442SOL     OW15787   3.333   1.761   8.297 -0.2819 -0.1467  0.1083
 1442SOL    HW115788   3.359   1.721   8.380 -1.3037 -0.7523  0.1399
 1442SOL    HW215789   3.240   1.768   8.318 -0.4836 -0.9668 -0.5246
 1443SOL     OW15790   1.808   0.295   4.727  0.1623  0.5340 -0.1900
 1443SOL    HW115791   1.831   0.303   4.820  0.5466 -4.8597  0.1730
 1443SOL    HW215792   1.868   0.348   4.675  0.1141 -1.5483 -2.3546
 1444SOL     OW15793   2.354   1.310   5.286  0.0587  0.6244 -0.2412
 1444SOL    HW115794   2.364   1.370   5.212 -0.5937  0.2932 -0.5922
 1444SOL    HW215795   2.449   1.309   5.300  0.1703  2.7324 -0.7844
 1445SOL     OW15796   3.185   2.716   5.956 -0.8710 -0.3602 -0.0165
 1445SOL    HW115797   3.143   2.758   5.881  0.0612 -0.2875 -0.5087
 1445SOL    HW215798   3.108   2.695   6.008 -1.0240 -0.0246 -0.1066
 1446SOL     OW15799   3.166   2.043   3.905 -0.4084  0.1243  0.4466
 1446SOL    HW115800   3.238   2.007   3.957 -1.5136 -0.0543  1.8501
 1446SOL    HW215801   3.170   1.984   3.830 -1.6165  0.6203  0.0003
 1447SOL     OW15802   3.512   3.655   8.413  0.0563 -0.1989 -0.2107
 1447SOL    HW115803   3.470   3.611   8.487 -0.8655 -0.8185 -1.1061
 1447SOL    HW215804   3.602   3.673   8.440 -0.3957  1.4892  0.1514
 1448SOL     OW15805   2.952   3.746   1.636  0.1702  0.3481  0.0095
 1448SOL    HW115806   2.967   3.832   1.597  1.7889  0.2557  0.4205
 1448SOL    HW215807   3.041   3.709   1.644 -0.4987 -0.9172  1.5473
 1449SOL     OW15808   3.440   2.371   5.108  0.3101 -0.0504  0.4084
 1449SOL    HW115809   3.411   2.381   5.198 -0.7142 -0.7793  0.1638
 1449SOL    HW215810   3.457   2.460   5.079 -1.0464 -0.4806 -1.7298
 1450SOL     OW15811   4.403   3.958   0.531 -0.2224  0.5067  0.3376
 1450SOL    HW115812   4.362   3.905   0.598  1.5388 -0.5988  0.5325
 1450SOL    HW215813   4.491   3.972   0.568  0.2735  1.3536 -1.1313
 1451SOL     OW15814   2.475   4.463   6.636 -0.3690  0.6010 -0.3934
 1451SOL    HW115815   2.459   4.370   6.652  3.2188  0.5189  2.7384
 1451SOL    HW215816   2.392   4.495   6.601 -1.5787 -1.8873  0.2253
 1452SOL     OW15817   0.171   2.855   1.602  0.2751 -0.2317 -0.4490
 1452SOL    HW115818   0.111   2.793   1.562 -0.4276 -0.0505  0.3258
 1452SOL    HW215819   0.245   2.860   1.541  1.6819 -1.6483  1.1361
 1453SOL     OW15820   3.771   4.510   7.485 -0.9191 -0.0313  0.7141
 1453SOL    HW115821   3.742   4.428   7.447 -2.0111  0.0773  1.3142
 1453SOL    HW215822   3.798   4.481   7.572 -1.7098  0.1356  1.0189
 1454SOL     OW15823   1.250   1.490   0.718  0.3063 -0.0654 -0.2658
 1454SOL    HW115824   1.315   1.533   0.662  0.6854  2.0524  1.8091
 1454SOL    HW215825   1.248   1.408   0.669  0.6653  0.0362 -0.4541
 1455SOL     OW15826   0.704   2.244   8.502  0.0507 -0.4148  0.0655
 1455SOL    HW115827   0.769   2.192   8.549  0.0772 -0.3808  0.0663
 1455SOL    HW215828   0.741   2.332   8.511 -0.8413 -0.2608  2.4643
 1456SOL     OW15829   1.071   0.303  11.243 -0.0152 -0.3158  0.4566
 1456SOL    HW115830   1.103   0.393  11.235 -0.2274 -0.4187 -1.4753
 1456SOL    HW215831   1.090   0.290  11.336  0.6906  0.8167  0.4635
 1457SOL     OW15832   2.852   1.678   8.492  0.1826 -0.0582  0.2077
 1457SOL    HW115833   2.759   1.693   8.477 -0.4438 -2.3751  1.7712
 1457SOL    HW215834   2.862   1.583   8.503 -1.8867  0.0103  2.5243
 1458SOL     OW15835   2.779   2.530   4.694 -0.3175 -0.2266 -0.3491
 1458SOL    HW115836   2.832   2.486   4.761  3.2190  0.2646 -2.8375
 1458SOL    HW215837   2.827   2.513   4.613  0.8044 -1.4375  0.5586
 1459SOL     OW15838   1.185   3.757   8.461 -0.2545 -0.4554 -0.1547
 1459SOL    HW115839   1.281   3.754   8.462 -0.1852  1.0802 -1.7440
 1459SOL    HW215840   1.182   3.840   8.510 -0.7882  0.2442 -1.3633
 1460SOL     OW15841   3.614   2.711  14.018 -0.4045  0.9660 -0.2012
 1460SOL    HW115842   3.534   2.763  14.026 -0.8074  0.4940 -1.2015
 1460SOL    HW215843   3.576   2.623  14.017  1.4151  0.1618  2.1640
 1461SOL     OW15844   3.596   1.840   3.617  0.3744  0.4283  0.0272
 1461SOL    HW115845   3.676   1.862   3.664  1.0502 -1.3524 -0.3044
 1461SOL    HW215846   3.638   1.844   3.531  2.3543 -1.3554  0.9259
 1462SOL     OW15847   3.649   1.166   4.453  0.2855  0.3559 -0.0172
 1462SOL    HW115848   3.567   1.116   4.447  0.6545 -0.0874 -1.4160
 1462SOL    HW215849   3.688   1.140   4.369  1.9992 -2.8940  1.7708
 1463SOL     OW15850   2.429   3.050  13.406  0.0570 -0.0518  0.0603
 1463SOL    HW115851   2.426   3.026  13.498 -0.4543 -2.7170 -0.6413
 1463SOL    HW215852   2.522   3.071  13.392  0.4679 -0.6974  1.8568
 1464SOL     OW15853   0.260   0.595  15.825 -0.6322  0.0702 -0.8891
 1464SOL    HW115854   0.181   0.648  15.819  0.6131  1.7296 -2.6732
 1464SOL    HW215855   0.236   0.546  15.904  0.5830  1.9355  0.6581
 1465SOL     OW15856   3.458   0.263   2.417 -0.5876 -0.3397  0.3716
 1465SOL    HW115857   3.469   0.329   2.349  1.5460 -0.1269  0.9071
 1465SOL    HW215858   3.432   0.319   2.490  1.3307  0.3207  0.5617
 1466SOL     OW15859   4.595   0.014  14.417  0.2082  0.3242  0.1008
 1466SOL    HW115860   4.618   4.644  14.432 -0.5985  0.2160  0.7099
 1466SOL    HW215861   4.678   0.058  14.401  0.1714  0.1598 -0.5539
 1467SOL     OW15862   2.129   4.526   3.948  0.2157 -0.0262  0.0884
 1467SOL    HW115863   2.193   4.494   3.884  0.8461 -0.5595  0.9989
 1467SOL    HW215864   2.174   4.494   4.025 -0.4532 -0.5408  0.2713
 1468SOL     OW15865   1.268   0.726   1.742 -0.4804  0.2871  0.0896
 1468SOL    HW115866   1.183   0.718   1.786  0.1438 -1.7535  0.9285
 1468SOL    HW215867   1.306   0.643   1.770 -3.4758 -0.9950  0.2975
 1469SOL     OW15868   4.135   0.197   4.334 -0.1029 -0.0091  0.0721
 1469SOL    HW115869   4.188   0.277   4.329 -0.3229  0.1358  0.0945
 1469SOL    HW215870   4.161   0.165   4.420  0.5154 -0.9685 -0.4695
 1470SOL     OW15871   3.004   2.819   5.751  0.5741 -0.5018 -0.2628
 1470SOL    HW115872   2.994   2.728   5.722  0.2562  0.3512 -2.7712
 1470SOL    HW215873   2.938   2.863   5.698 -0.4334  0.0637  1.4732
 1471SOL     OW15874   0.165   3.472   9.302 -0.5411  0.4018 -0.1476
 1471SOL    HW115875   0.242   3.489   9.357 -0.1167  1.7152 -1.1549
 1471SOL    HW215876   0.142   3.380   9.314 -2.2190  0.8553  0.0787
 1472SOL     OW15877   2.127   2.086  13.135 -0.0072  0.1278  0.5123
 1472SOL    HW115878   2.151   1.994  13.124  0.5585  0.4607 -1.0211
 1472SOL    HW215879   2.050   2.095  13.079  1.8120 -2.0177 -2.3650
 1473SOL     OW15880   4.383   4.634   6.313  0.5715  0.1259 -0.4015
 1473SOL    HW115881   4.467   4.590   6.322  1.2990  1.9232  1.5748
 1473SOL    HW215882   4.368   4.655   6.405  1.2936 -1.3400  0.0431
 1474SOL     OW15883   4.023   3.826   6.729  0.0949  0.1119 -0.4844
 1474SOL    HW115884   4.091   3.759   6.722 -0.1740 -0.1152 -0.9222
 1474SOL    HW215885   3.959   3.773   6.776  1.8277 -2.5611 -1.1271
 1475SOL     OW15886   3.668   2.064   2.474 -0.3941  0.0217 -0.2180
 1475SOL    HW115887   3.685   1.994   2.410 -1.2895  1.6472 -2.2168
 1475SOL    HW215888   3.603   2.028   2.535 -0.9532  1.7082  0.1861
 1476SOL     OW15889   0.289   0.788   5.401  0.4152  0.8041  0.5570
 1476SOL    HW115890   0.268   0.792   5.308  0.5114 -0.0836  0.5000
 1476SOL    HW215891   0.286   0.882   5.422 -0.2805  0.8151  0.4101
 1477SOL     OW15892   1.735   2.199   4.015 -0.0124  0.1517 -0.3440
 1477SOL    HW115893   1.668   2.267   4.027  0.7037  0.7771  0.0868
 1477SOL    HW215894   1.748   2.213   3.921 -0.3677 -1.8621 -0.6760
 1478SOL     OW15895   1.428   1.166  12.656 -1.0098 -0.2120  0.1123
 1478SOL    HW115896   1.404   1.259  12.658 -2.7566 -0.6785  0.8717
 1478SOL    HW215897   1.342   1.127  12.667 -1.2050  0.9505  2.8046
 1479SOL     OW15898   2.357   1.711   5.269  0.1221  0.2476  0.5795
 1479SOL    HW115899   2.364   1.620   5.296 -1.5574 -0.2172 -0.6092
 1479SOL    HW215900   2.451   1.729   5.274  0.3961 -0.6581 -1.2948
 1480SOL     OW15901   0.222   1.340   8.371  0.0238  0.2316 -0.2711
 1480SOL    HW115902   0.227   1.258   8.420  0.3579 -1.3105 -2.8683
 1480SOL    HW215903   0.309   1.378   8.374  0.6566 -1.0208 -2.9000
 1481SOL     OW15904   1.946   3.471   3.537  0.1639 -0.3814  0.1312
 1481SOL    HW115905   1.884   3.503   3.602  1.4144 -1.8848  2.0419
 1481SOL    HW215906   1.998   3.410   3.589  2.7897  1.3185 -0.4925
 1482SOL     OW15907   0.322   3.256   3.090  0.2256 -0.5440 -0.4617
 1482SOL    HW115908   0.345   3.217   3.005 -4.0571 -0.0091 -1.8329
 1482SOL    HW215909   0.369   3.200   3.152 -1.3826 -0.8004  0.4953
 1483SOL     OW15910   4.509   2.868   6.264  0.5135  0.1037 -0.3501
 1483SOL    HW115911   4.584   2.849   6.319  1.1346 -0.3797 -1.3508
 1483SOL    HW215912   4.532   2.958   6.242  3.1079 -0.3129  0.7095
 1484SOL     OW15913   0.480   2.381  13.471 -0.0032  0.4868  0.7211
 1484SOL    HW115914   0.527   2.341  13.399 -1.5602 -2.8573  1.5772
 1484SOL    HW215915   0.528   2.347  13.547 -1.3252 -0.6579  1.0520
 1485SOL     OW15916   2.941   1.392   3.922 -0.3356  0.1750 -0.1922
 1485SOL    HW115917   2.928   1.454   3.851 -1.8922 -1.0461 -0.9725
 1485SOL    HW215918   3.016   1.345   3.884  0.0289  0.4825  0.1562
 1486SOL     OW15919   1.520   0.927   6.871  0.1408 -0.7861  0.0596
 1486SOL    HW115920   1.442   0.902   6.821  0.1904 -0.6545 -0.0860
 1486SOL    HW215921   1.592   0.892   6.818  1.7298  2.2296  0.2150
 1487SOL     OW15922   0.886   4.316   1.701 -0.7787  0.0549  0.5232
 1487SOL    HW115923   0.926   4.316   1.614  1.5400 -1.9173  1.6003
 1487SOL    HW215924   0.944   4.247   1.734  0.8149  1.5688  0.8924
 1488SOL     OW15925   1.808   1.038   4.780  0.4185  0.3427 -0.8991
 1488SOL    HW115926   1.750   0.972   4.820  1.8443  0.0402  0.6407
 1488SOL    HW215927   1.893   1.011   4.812 -0.8011  0.0228  2.0431
 1489SOL     OW15928   2.683   3.640  15.150 -0.1005 -0.0343 -0.4218
 1489SOL    HW115929   2.637   3.719  15.123  0.4282  0.1025 -0.9018
 1489SOL    HW215930   2.767   3.639  15.105  0.6870 -0.6528  1.0575
 1490SOL     OW15931   0.893   3.189   7.741 -0.1147 -0.3818  0.5644
 1490SOL    HW115932   0.829   3.253   7.709  1.6468  0.7469 -0.7069
 1490SOL    HW215933   0.934   3.176   7.655 -0.2507 -0.5779  0.5294
 1491SOL     OW15934   4.472   3.339  16.616  0.3616  0.1951  0.6266
 1491SOL    HW115935   4.454   3.295  16.533 -0.0071  0.2879  0.6573
 1491SOL    HW215936   4.567   3.330  16.622  0.4064 -1.4770 -2.3615
 1492SOL     OW15937   3.042   0.482   7.843 -0.4615  0.3061 -0.2632
 1492SOL    HW115938   3.115   0.540   7.866 -0.2470  0.2030 -0.6898
 1492SOL    HW215939   3.031   0.492   7.749  2.3580  0.4944 -0.5628
 1493SOL     OW15940   1.758   3.443  10.049 -0.0917  0.5030  0.5153
 1493SOL    HW115941   1.666   3.438  10.076 -0.2807  1.1073 -0.0059
 1493SOL    HW215942   1.802   3.392  10.117 -0.0888  1.6124  1.3489
 1494SOL     OW15943   0.221   1.322   8.794 -0.6805 -0.3979 -0.3359
 1494SOL    HW115944   0.263   1.268   8.727  0.7879  2.1332 -1.4599
 1494SOL    HW215945   0.226   1.410   8.756 -1.4990 -0.0936  0.2715
 1495SOL     OW15946   4.076   4.318   0.407 -0.0380 -0.2761 -0.1031
 1495SOL    HW115947   4.055   4.227   0.428  2.0151 -0.6793  0.2474
 1495SOL    HW215948   4.166   4.320   0.441 -0.3163  2.1271  0.5093
 1496SOL     OW15949   3.564   3.844  11.482 -0.0162  0.4852  0.0445
 1496SOL    HW115950   3.620   3.841  11.405  0.0452 -0.6203  0.1260
 1496SOL    HW215951   3.482   3.888  11.458  0.9224  2.4710  0.5264
 1497SOL     OW15952   3.813   0.091   5.689 -0.8152  0.0822 -0.1524
 1497SOL    HW115953   3.822   0.177   5.731  1.2547 -0.4665  0.5272
 1497SOL    HW215954   3.742   0.107   5.627  0.3980  1.5972 -1.1489
 1498SOL     OW15955   3.052   4.622   3.235  0.2751 -0.2028  0.2292
 1498SOL    HW115956   3.036   4.622   3.141 -0.7087  0.8005  0.3897
 1498SOL    HW215957   3.065   4.715   3.252  1.9719 -0.0241 -2.1236
 1499SOL     OW15958   0.982   4.588   3.460  0.3783 -0.1105 -0.3934
 1499SOL    HW115959   1.062   4.593   3.408  0.8269  0.5008  0.3543
 1499SOL    HW215960   1.001   4.524   3.528 -1.1265 -0.1696 -0.0280
 1500SOL     OW15961   2.154   1.887  14.860 -0.1981 -0.0207  0.1705
 1500SOL    HW115962   2.089   1.818  14.851 -1.0884  0.8749 -0.3101
 1500SOL    HW215963   2.095   1.961  14.842 -1.8220 -1.0594  1.3219
 1501SOL     OW15964   2.503   3.755   5.443  0.1782 -1.0339 -0.2499
 1501SOL    HW115965   2.466   3.834   5.405  1.3791 -0.1246  0.4597
 1501SOL    HW215966   2.505   3.700   5.365  0.3984 -0.1687 -0.8539
 1502SOL     OW15967   4.699   3.346  13.902  0.1559  0.9991  0.3184
 1502SOL    HW115968   4.708   3.282  13.832 -0.5728  0.2169  0.9505
 1502SOL    HW215969   4.622   3.313  13.948 -0.3956 -0.5256 -1.7020
 1503SOL     OW15970   2.529   1.618   8.613 -0.1866  0.5503 -0.8365
 1503SOL    HW115971   2.518   1.702   8.656  0.5933  0.6316 -0.7849
 1503SOL    HW215972   2.544   1.635   8.520 -0.5227 -3.0062 -1.5587
 1504SOL     OW15973   3.597   4.211   4.091  0.5861  0.6543  0.0847
 1504SOL    HW115974   3.561   4.299   4.093  1.7829  1.1783 -1.2407
 1504SOL    HW215975   3.659   4.222   4.162 -0.8642 -1.0591  1.6141
 1505SOL     OW15976   4.539   2.000   0.515  0.0677 -0.3374 -0.1641
 1505SOL    HW115977   4.498   2.015   0.430 -0.4376 -3.6037 -0.4820
 1505SOL    HW215978   4.627   1.975   0.485  0.8291  2.9220 -0.6835
 1506SOL     OW15979   0.811   4.478  11.416  0.1357 -0.1827 -0.7937
 1506SOL    HW115980   0.785   4.393  11.381  1.6785 -0.2375 -1.8380
 1506SOL    HW215981   0.824   4.540  11.344  0.1077  1.0795  0.2891
 1507SOL     OW15982   1.190   3.988   9.844  0.0616  0.3651 -0.0865
 1507SOL    HW115983   1.184   3.972   9.750 -1.3784  2.1029 -0.2955
 1507SOL    HW215984   1.101   4.009   9.875  0.1268  0.1935  0.2172
 1508SOL     OW15985   2.580   3.933  15.718 -0.0625 -0.7121 -0.3269
 1508SOL    HW115986   2.538   3.990  15.654 -0.8077 -0.0202  0.7828
 1508SOL    HW215987   2.504   3.898  15.765 -1.8781  4.0582  0.2252
 1509SOL     OW15988   1.495   3.060  15.943  0.2124 -0.0874 -0.0164
 1509SOL    HW115989   1.460   3.096  16.025  1.6279  0.0365  0.5325
 1509SOL    HW215990   1.415   3.017  15.913  0.1746 -0.1071  0.1138
 1510SOL     OW15991   2.627   0.209   5.705  0.0661 -0.0821  0.0416
 1510SOL    HW115992   2.644   0.119   5.678 -1.5010 -0.2583 -0.3429
 1510SOL    HW215993   2.574   0.240   5.631 -1.2521  1.3483  1.5889
 1511SOL     OW15994   3.693   0.865   3.852  0.0746 -0.1017 -0.1601
 1511SOL    HW115995   3.751   0.809   3.799 -0.0528 -1.5734  1.2611
 1511SOL    HW215996   3.701   0.798   3.919 -2.8790 -2.0472 -1.7364
 1512SOL     OW15997   1.866   0.479   1.449  0.0613  0.4088  0.0373
 1512SOL    HW115998   1.856   0.396   1.404  5.0393  0.0656 -0.4842
 1512SOL    HW215999   1.854   0.539   1.375  1.1682 -0.9505 -1.2377
 1513SOL     OW16000   4.451   0.103   0.244 -0.2685 -0.7496 -0.2901
 1513SOL    HW116001   4.365   0.092   0.285  0.0073  1.3229  0.8167
 1513SOL    HW216002   4.506   0.084   0.320  0.9052  0.0711 -0.9364
 1514SOL     OW16003   2.015   4.609   6.217 -0.1066 -0.0532  0.1792
 1514SOL    HW116004   2.105   4.625   6.245  0.1693 -0.7075 -0.3439
 1514SOL    HW216005   2.030   4.596   6.123 -1.0599 -1.0211  0.1678
 1515SOL     OW16006   0.953   1.252  14.137 -0.1946  0.8192 -0.4458
 1515SOL    HW116007   0.895   1.251  14.213  0.7590  2.4859  0.2955
 1515SOL    HW216008   0.897   1.197  14.082 -0.3845 -1.8694  2.4674
 1516SOL     OW16009   2.141   0.302   4.205 -0.0693 -0.5714  0.4932
 1516SOL    HW116010   2.189   0.242   4.148 -0.5730  1.3356 -1.9127
 1516SOL    HW216011   2.218   0.341   4.245  0.1353  1.4633 -1.8633
 1517SOL     OW16012   0.434   0.822   9.053 -0.1824 -0.4086  0.2930
 1517SOL    HW116013   0.463   0.906   9.087 -0.7006  0.3683 -1.1695
 1517SOL    HW216014   0.477   0.756   9.108  2.6701  0.1589 -1.2563
 1518SOL     OW16015   2.312   2.533   7.578 -0.0010  0.3395 -0.5580
 1518SOL    HW116016   2.244   2.557   7.641 -1.0462 -1.8198 -0.8403
 1518SOL    HW216017   2.370   2.608   7.581 -1.0540  1.1668 -0.7990
 1519SOL     OW16018   0.823   3.012  17.664  0.0172  0.5238 -0.5941
 1519SOL    HW116019   0.730   3.034  17.671 -0.2740 -0.7824 -0.1861
 1519SOL    HW216020   0.848   3.031   0.064  0.6580 -0.3038 -0.5987
 1520SOL     OW16021   3.689   3.634   2.465  0.2883  0.3000 -0.2035
 1520SOL    HW116022   3.665   3.644   2.557  1.6084  0.7327  0.0919
 1520SOL    HW216023   3.701   3.539   2.456 -2.1371 -0.2075  2.1809
 1521SOL     OW16024   1.415   0.889   2.572 -0.1786 -0.1978 -0.5639
 1521SOL    HW116025   1.388   0.849   2.490 -0.6418  1.5979 -1.2715
 1521SOL    HW216026   1.509   0.872   2.571  0.3626  2.6843  1.7959
 1522SOL     OW16027   2.705   4.142   8.071  0.1843  1.2391  0.1842
 1522SOL    HW116028   2.752   4.208   8.020  0.6233  0.7172 -0.0812
 1522SOL    HW216029   2.616   4.142   8.035 -0.0439 -0.1890  0.7575
 1523SOL     OW16030   4.722   4.653   2.894  0.1739  0.0420  0.3250
 1523SOL    HW116031   0.058   4.620   2.962  0.0956  0.9872  0.8576
 1523SOL    HW216032   4.652   4.587   2.897 -0.0498  0.1145 -2.7182
 1524SOL     OW16033   0.995   1.958  15.504 -0.4124  0.2080  0.7900
 1524SOL    HW116034   1.011   2.050  15.484  1.1852  0.2384  2.1918
 1524SOL    HW216035   1.018   1.917  15.420 -0.9253  0.2447  0.6347
 1525SOL     OW16036   4.383   3.085   5.425  0.0291  0.5632  0.3874
 1525SOL    HW116037   4.322   3.148   5.386  0.9104 -0.0787 -2.0101
 1525SOL    HW216038   4.382   3.019   5.356  0.3296  0.3445  0.5903
 1526SOL     OW16039   4.661   1.503   9.477 -1.3559 -0.7375  0.2047
 1526SOL    HW116040   4.641   1.475   9.567 -2.3515 -1.2898 -0.1892
 1526SOL    HW216041   4.589   1.563   9.456 -0.5331  0.3468  0.4530
 1527SOL     OW16042   2.944   3.140  15.693 -0.2081  0.1208  0.2657
 1527SOL    HW116043   2.877   3.108  15.633 -0.0531  1.0909 -0.4322
 1527SOL    HW216044   3.021   3.165  15.641 -0.4206 -0.7802 -0.4806
 1528SOL     OW16045   3.150   2.986   9.116  0.0605 -0.3065 -0.1784
 1528SOL    HW116046   3.176   2.900   9.082  3.3608  0.8719 -0.6873
 1528SOL    HW216047   3.095   3.007   9.040 -1.6513 -1.0337  0.8700
 1529SOL     OW16048   4.093   2.014   2.044  0.0108 -0.7853  0.0038
 1529SOL    HW116049   4.164   2.076   2.057 -0.5379  0.0817 -1.0857
 1529SOL    HW216050   4.144   1.942   2.007  0.6568 -2.1077  3.4957
 1530SOL     OW16051   1.326   4.424  13.008  0.3406 -0.4638 -0.5466
 1530SOL    HW116052   1.258   4.432  12.941  1.2124 -0.1973 -1.4006
 1530SOL    HW216053   1.298   4.353  13.066 -3.1422 -0.3552 -2.0868
 1531SOL     OW16054   1.067   1.925  13.400  0.3807  0.4541 -0.0701
 1531SOL    HW116055   1.115   1.973  13.332 -1.5917  0.7152 -1.2766
 1531SOL    HW216056   0.996   1.986  13.418 -0.2940 -0.6195  0.8903
 1532SOL     OW16057   3.618   0.028   0.956  0.1930  0.2680 -0.2162
 1532SOL    HW116058   3.564   4.712   0.886 -0.8454  0.3756  0.5296
 1532SOL    HW216059   3.695   4.693   0.952 -0.3209 -0.4779  0.4382
 1533SOL     OW16060   4.196   0.520   4.686  0.1905  0.1639  0.2143
 1533SOL    HW116061   4.213   0.606   4.724 -0.3675  0.9245 -1.2382
 1533SOL    HW216062   4.131   0.545   4.620 -0.9839 -1.8692  0.6055
 1534SOL     OW16063   2.250   3.692   4.105 -0.2943 -0.5931  0.3590
 1534SOL    HW116064   2.276   3.698   4.197 -1.3401  0.2187  0.6016
 1534SOL    HW216065   2.195   3.769   4.093  1.5359  0.5769 -0.5779
 1535SOL     OW16066   4.424   3.025   3.034  0.1412 -0.4491  0.2645
 1535SOL    HW116067   4.450   2.958   2.970 -3.1894 -2.6246  1.2064
 1535SOL    HW216068   4.396   2.971   3.108  3.1187 -2.2978  0.0326
 1536SOL     OW16069   0.101   3.739   3.913 -0.5536  0.0202  0.2755
 1536SOL    HW116070   0.182   3.789   3.922  0.5382 -1.8681  0.8768
 1536SOL    HW216071   0.105   3.717   3.820  1.4143 -0.7332  0.5374
 1537SOL     OW16072   4.197   1.037   7.578 -0.3087 -0.7723  0.0631
 1537SOL    HW116073   4.290   1.027   7.558 -0.5749 -1.3871 -0.8815
 1537SOL    HW216074   4.167   1.080   7.497  0.8169  0.2684  0.2073
 1538SOL     OW16075   2.436   3.722   5.731  0.1864 -0.2132  0.2433
 1538SOL    HW116076   2.387   3.645   5.757  1.5308 -1.1338  0.0739
 1538SOL    HW216077   2.411   3.726   5.639 -0.6888  2.1737  0.5743
 1539SOL     OW16078   2.748   2.111  17.067  0.1800  0.0890 -0.0443
 1539SOL    HW116079   2.758   2.205  17.052  0.2596 -0.2701 -2.1534
 1539SOL    HW216080   2.816   2.071  17.013  1.0889  0.9173  0.4970
 1540SOL     OW16081   1.802   0.159   9.956  0.3881 -0.3254 -0.2006
 1540SOL    HW116082   1.711   0.172   9.980 -0.2801 -1.9740 -1.8581
 1540SOL    HW216083   1.804   0.216   9.878 -3.6228  1.1024  0.7722
 1541SOL     OW16084   2.422   1.974   1.890 -0.5328 -0.1618  0.9833
 1541SOL    HW116085   2.356   1.954   1.824 -0.7997  2.3222  0.4830
 1541SOL    HW216086   2.458   2.054   1.851 -1.3970 -0.5788 -0.6853
 1542SOL     OW16087   3.185   1.993   7.678 -0.2885  0.1718 -0.2986
 1542SOL    HW116088   3.120   1.970   7.744  0.0818 -1.3831 -0.4797
 1542SOL    HW216089   3.159   2.079   7.644  0.6990  0.0032 -1.4584
 1543SOL     OW16090   3.981   4.067  11.077 -0.0582  0.8779 -0.2109
 1543SOL    HW116091   3.937   3.983  11.062  1.7262 -0.3332  1.2498
 1543SOL    HW216092   3.964   4.068  11.171 -0.3561 -1.5526 -0.2272
 1544SOL     OW16093   3.615   2.180   9.137  0.2105  0.2933 -0.2458
 1544SOL    HW116094   3.706   2.187   9.163  0.7985 -0.8131 -1.9803
 1544SOL    HW216095   3.606   2.254   9.077  0.1803  1.2364  0.9379
 1545SOL     OW16096   3.570   0.367  16.369  0.4441 -0.4530 -0.1748
 1545SOL    HW116097   3.601   0.323  16.289 -1.2322 -2.0576  0.0556
 1545SOL    HW216098   3.555   0.455  16.336 -1.9512 -1.5859 -2.1526
 1546SOL     OW16099   3.171   3.938   0.418  0.3449  0.0920 -0.6030
 1546SOL    HW116100   3.144   4.029   0.424 -0.5855 -0.1601 -0.9110
 1546SOL    HW216101   3.129   3.905   0.338 -0.8565  0.4002 -0.1002
 1547SOL     OW16102   0.332   1.151   2.959  0.1295  0.6753 -0.1178
 1547SOL    HW116103   0.381   1.215   2.908 -1.3830 -0.1135 -2.5310
 1547SOL    HW216104   0.261   1.139   2.896  0.0168  0.9922 -0.0521
 1548SOL     OW16105   0.752   0.266  11.385 -0.3595 -0.0063 -0.0588
 1548SOL    HW116106   0.843   0.280  11.412 -0.8251  0.2741  1.3379
 1548SOL    HW216107   0.772   0.302  11.298 -1.7914 -0.8241 -0.7323
 1549SOL     OW16108   0.058   2.601  16.516  0.0877 -0.8833 -0.3235
 1549SOL    HW116109   0.073   2.548  16.438 -1.1387 -0.6596 -0.7149
 1549SOL    HW216110   4.697   2.561  16.539 -0.6145  0.9517  0.3912
 1550SOL     OW16111   2.337   0.441  14.927 -0.6039  0.0702  0.0160
 1550SOL    HW116112   2.316   0.529  14.895  1.2907  0.6538  0.3663
 1550SOL    HW216113   2.260   0.421  14.980 -1.2126 -0.2667 -1.0047
 1551SOL     OW16114   1.936   3.270  15.451 -0.1833 -0.7121  0.3458
 1551SOL    HW116115   1.860   3.320  15.423 -1.7374 -2.8027  0.8576
 1551SOL    HW216116   1.926   3.191  15.399  1.3068 -0.0579 -0.9515
 1552SOL     OW16117   0.966   3.875   7.207  0.3228 -0.4008  0.0446
 1552SOL    HW116118   0.897   3.819   7.171  1.0403 -0.8680 -0.6087
 1552SOL    HW216119   0.981   3.829   7.290 -1.5211 -0.2902  0.4335
 1553SOL     OW16120   3.540   1.373   4.212 -0.6673 -0.2599  0.1896
 1553SOL    HW116121   3.559   1.404   4.124  0.4015  0.0474  0.5277
 1553SOL    HW216122   3.522   1.280   4.198  0.9585 -0.2980 -1.5742
 1554SOL     OW16123   0.611   3.696  13.818 -0.4164 -0.6973  0.3564
 1554SOL    HW116124   0.641   3.652  13.738  2.4537  0.4652  0.8200
 1554SOL    HW216125   0.550   3.764  13.787 -0.5135 -0.4679  1.0528
 1555SOL     OW16126   1.314   4.327  15.569  0.2531  0.1578  0.1712
 1555SOL    HW116127   1.409   4.321  15.558  0.6593  2.4397  2.4562
 1555SOL    HW216128   1.292   4.352  15.479  0.2340 -1.6147 -0.3081
 1556SOL     OW16129   3.800   4.276   4.263 -0.4835  1.2202  0.2389
 1556SOL    HW116130   3.793   4.272   4.359 -0.7733  0.2738  0.1809
 1556SOL    HW216131   3.894   4.287   4.247 -0.4331  0.1572 -0.1964
 1557SOL     OW16132   1.756   1.587   2.254  0.2863  0.1638 -0.2443
 1557SOL    HW116133   1.743   1.653   2.323 -0.1774 -1.3351  1.1106
 1557SOL    HW216134   1.804   1.518   2.301  1.3493  1.1718  0.1522
 1558SOL     OW16135   1.093   3.446   7.976  0.2232  0.2672 -0.1086
 1558SOL    HW116136   1.099   3.542   7.982 -0.7358  0.2780  0.5052
 1558SOL    HW216137   1.028   3.427   8.043  1.1532 -1.9957  0.1411
 1559SOL     OW16138   2.264   1.791   4.092  0.3393  0.0264 -0.0857
 1559SOL    HW116139   2.348   1.758   4.124 -0.9228 -1.5485  1.7107
 1559SOL    HW216140   2.271   1.885   4.103 -2.7282  0.5143 -2.1986
 1560SOL     OW16141   3.501   4.316   5.728  0.3208 -0.6346  0.1632
 1560SOL    HW116142   3.431   4.367   5.769 -1.6358 -3.0710 -0.1449
 1560SOL    HW216143   3.567   4.335   5.795 -1.3048  0.1974  1.5131
 1561SOL     OW16144   3.884   4.073   2.256 -0.1335  0.5664 -0.1768
 1561SOL    HW116145   3.917   4.158   2.285 -0.9658  0.8279 -0.0089
 1561SOL    HW216146   3.835   4.047   2.334  0.5052 -1.9533 -0.6140
 1562SOL     OW16147   2.590   2.671   6.720 -0.7457  0.1160  0.2604
 1562SOL    HW116148   2.577   2.665   6.625 -1.3998 -3.9458  0.6174
 1562SOL    HW216149   2.681   2.701   6.720 -0.9931  0.8742  0.6699
 1563SOL     OW16150   4.454   2.481   7.359  0.2567  0.4451 -0.2105
 1563SOL    HW116151   4.537   2.528   7.360 -1.1215  2.8893 -0.1985
 1563SOL    HW216152   4.468   2.417   7.289 -0.7350 -1.4218  1.3011
 1564SOL     OW16153   0.301   1.219   5.143  0.2667 -0.3543 -0.0743
 1564SOL    HW116154   0.268   1.130   5.150 -1.0850  0.0614 -1.0701
 1564SOL    HW216155   0.261   1.261   5.220 -0.5483  0.0790 -0.7255
 1565SOL     OW16156   4.554   4.486  14.576 -0.0072 -0.2283  0.3786
 1565SOL    HW116157   4.611   4.478  14.653  0.7994 -0.8712 -0.2841
 1565SOL    HW216158   4.532   4.393  14.569 -0.0956 -0.2073  0.3720
 1566SOL     OW16159   4.469   4.717   9.243  0.0948 -0.2637  0.0227
 1566SOL    HW116160   4.534   0.037   9.188  2.0683  0.5089  2.9285
 1566SOL    HW216161   4.463   0.057   9.316  0.5467 -1.9701  1.5320
 1567SOL     OW16162   4.211   1.220  11.586 -0.7526  0.3588  0.3808
 1567SOL    HW116163   4.250   1.285  11.528 -0.9301  0.1868  0.0694
 1567SOL    HW216164   4.281   1.224  11.652 -3.9178  0.9028  3.7386
 1568SOL     OW16165   4.620   0.421   3.722 -0.3467  0.1667  0.0996
 1568SOL    HW116166   4.698   0.433   3.775 -1.4675  1.2551  1.5234
 1568SOL    HW216167   4.543   0.417   3.779 -0.3078 -0.0452  0.1366
 1569SOL     OW16168   4.591   3.686   7.110  0.0787 -0.3152  0.3277
 1569SOL    HW116169   4.576   3.730   7.027 -0.2389 -0.6407  0.2154
 1569SOL    HW216170   4.539   3.741   7.169 -0.6253 -1.6915  0.9854
 1570SOL     OW16171   3.228   4.675   1.904 -0.4832 -0.5959  1.2602
 1570SOL    HW116172   3.151   4.661   1.959 -0.3839 -1.4348  1.1737
 1570SOL    HW216173   3.209   0.039   1.866  0.8886 -0.3960  1.0147
 1571SOL     OW16174   2.647   4.301  11.173  0.0616  0.5242 -0.0322
 1571SOL    HW116175   2.704   4.233  11.136  0.1507  0.0109  1.0434
 1571SOL    HW216176   2.703   4.353  11.231 -0.9457 -0.2947  1.6406
 1572SOL     OW16177   2.419   4.623   0.853  0.1551 -0.1005 -0.4431
 1572SOL    HW116178   2.363   4.600   0.780 -0.0699 -0.7442 -0.0654
 1572SOL    HW216179   2.432   4.539   0.898  0.7931  0.8156  1.0949
 1573SOL     OW16180   0.135   0.932   3.702  0.5951  0.0434 -0.5759
 1573SOL    HW116181   0.219   0.896   3.732  0.3801 -0.4925 -0.6066
 1573SOL    HW216182   0.161   0.986   3.627 -0.8041 -1.5423 -2.2014
 1574SOL     OW16183   1.110   4.094   3.973  0.8134  0.6897 -0.9978
 1574SOL    HW116184   1.123   4.144   4.053  0.4242 -1.0039  0.1129
 1574SOL    HW216185   1.026   4.051   3.990  1.4847  0.6920  2.2736
 1575SOL     OW16186   2.064   2.442   6.457  0.7452 -0.2011 -0.1319
 1575SOL    HW116187   2.069   2.476   6.368 -0.1093 -1.6237 -0.7233
 1575SOL    HW216188   2.023   2.517   6.498  1.4518  0.1492 -0.0619
 1576SOL     OW16189   2.991   4.632   2.981  0.2005  0.5701 -0.0588
 1576SOL    HW116190   2.903   4.606   2.955  1.0520 -0.7362 -1.5994
 1576SOL    HW216191   3.007   4.663   2.892  1.6672  1.0215  0.3700
 1577SOL     OW16192   3.969   3.557   2.295  0.0168 -0.4474  0.0159
 1577SOL    HW116193   4.049   3.554   2.242 -0.7347  0.0370 -1.1441
 1577SOL    HW216194   3.914   3.492   2.251 -0.0883  0.0549 -0.5944
 1578SOL     OW16195   3.230   2.574   0.681 -0.8069  0.2561 -0.0354
 1578SOL    HW116196   3.196   2.588   0.593 -0.8319  0.6872  0.0417
 1578SOL    HW216197   3.315   2.534   0.661 -0.4691  1.0979 -0.2636
 1579SOL     OW16198   4.260   1.670   5.287  0.5375  0.2799 -0.2514
 1579SOL    HW116199   4.254   1.764   5.306  1.4278  0.3753 -0.4257
 1579SOL    HW216200   4.252   1.661   5.193 -2.8899 -2.1289  0.2799
 1580SOL     OW16201   0.946   3.584   2.952 -0.6426  0.2580 -0.3198
 1580SOL    HW116202   0.887   3.511   2.934  0.2689 -0.4012 -0.6255
 1580SOL    HW216203   1.026   3.542   2.984 -1.4218  2.4368  4.6451
 1581SOL     OW16204   2.198   0.530   4.826 -0.5721  0.2753  0.2930
 1581SOL    HW116205   2.106   0.530   4.800 -0.0142 -1.1701 -1.7182
 1581SOL    HW216206   2.197   0.601   4.890  0.0743  0.1137  0.4811
 1582SOL     OW16207   3.620   3.478   0.908 -0.1567  0.3664  0.9966
 1582SOL    HW116208   3.526   3.472   0.922 -0.2936  1.2083  0.4203
 1582SOL    HW216209   3.624   3.398   0.856 -0.7316 -0.3608  2.0710
 1583SOL     OW16210   3.530   4.715   7.293 -0.7462 -0.1838 -0.2169
 1583SOL    HW116211   3.453   0.017   7.242 -0.4265 -0.2292 -0.7151
 1583SOL    HW216212   3.497   4.658   7.362 -1.4758 -0.2992 -0.6576
 1584SOL     OW16213   1.661   1.586   6.589  0.6479 -0.5094 -0.2140
 1584SOL    HW116214   1.736   1.537   6.621  0.1998  0.3538  2.1396
 1584SOL    HW216215   1.678   1.663   6.644  0.8257 -0.7043  0.0009
 1585SOL     OW16216   0.307   3.367   3.414 -0.0666 -0.1581  0.8619
 1585SOL    HW116217   0.314   3.275   3.387 -0.5589  0.0690 -0.0228
 1585SOL    HW216218   0.219   3.385   3.380  0.8159  2.1526 -0.2014
 1586SOL     OW16219   3.109   3.903   8.073  0.6263 -0.3262  0.2022
 1586SOL    HW116220   3.140   3.966   8.138 -1.0162 -0.2404  0.8894
 1586SOL    HW216221   3.098   3.957   7.995  1.4056 -0.9546 -0.3518
 1587SOL     OW16222   0.978   2.618   8.439  0.5948  0.4585  0.0680
 1587SOL    HW116223   1.026   2.689   8.480  0.5440  1.1899 -1.1251
 1587SOL    HW216224   1.032   2.544   8.465  1.7129  0.8908 -1.0204
 1588SOL     OW16225   0.869   2.769   3.345 -0.0393 -0.3367  0.3368
 1588SOL    HW116226   0.780   2.749   3.374 -0.6622  2.9253  0.6794
 1588SOL    HW216227   0.853   2.820   3.266 -1.6341 -1.7306 -0.2345
 1589SOL     OW16228   3.744   3.347   7.197  0.6506  0.4964 -0.1267
 1589SOL    HW116229   3.744   3.320   7.105 -0.8332  1.2032 -0.3180
 1589SOL    HW216230   3.776   3.268   7.242  2.5041  0.6352 -1.1974
 1590SOL     OW16231   0.159   1.523  14.961 -0.2110  0.3046 -0.4430
 1590SOL    HW116232   0.208   1.461  15.015 -0.2543 -0.4805 -1.3053
 1590SOL    HW216233   0.179   1.606  15.004 -0.6718  1.4496 -2.4505
 1591SOL     OW16234   4.716   3.703   9.242 -0.4647 -0.1589 -0.4277
 1591SOL    HW116235   4.653   3.685   9.173 -0.3000  0.4223 -0.7325
 1591SOL    HW216236   0.033   3.618   9.264  0.8818  0.8085  0.9732
 1592SOL     OW16237   0.023   2.574  12.561  0.1849  0.4541 -0.0516
 1592SOL    HW116238   0.058   2.518  12.631 -1.9177 -0.7113  0.0594
 1592SOL    HW216239   4.652   2.552  12.567  0.1492  0.3897 -0.8032
 1593SOL     OW16240   4.040   3.127   2.849 -0.4136  0.1819 -0.4217
 1593SOL    HW116241   4.018   3.211   2.890 -0.5821 -0.1551  0.1843
 1593SOL    HW216242   4.134   3.126   2.864 -0.4825  1.4124  0.1082
 1594SOL     OW16243   0.259   0.509   0.125  0.6556 -0.9619  0.1277
 1594SOL    HW116244   0.328   0.572   0.105 -0.9319  0.4997 -0.7033
 1594SOL    HW216245   0.275   0.434   0.068 -0.2972 -1.3515  0.3720
 1595SOL     OW16246   4.237   1.904   8.573  0.1526  0.0291  0.0224
 1595SOL    HW116247   4.196   1.829   8.529 -1.4519 -0.3260  2.1241
 1595SOL    HW216248   4.196   1.978   8.528 -0.6458 -1.0678 -1.0608
 1596SOL     OW16249   4.665   3.062   5.864  0.6678 -0.1241 -0.2017
 1596SOL    HW116250   4.673   2.966   5.868  0.3653 -0.2634 -2.9863
 1596SOL    HW216251   4.570   3.066   5.868  0.6755  0.4639 -0.6962
 1597SOL     OW16252   0.391   4.152  14.993 -0.3278 -0.3075 -0.1193
 1597SOL    HW116253   0.480   4.188  14.986  0.8655 -3.0633  0.8172
 1597SOL    HW216254   0.337   4.195  14.927 -2.4842 -0.5239  1.5117
 1598SOL     OW16255   3.348   1.398   8.146  0.6095  0.2662  0.3356
 1598SOL    HW116256   3.401   1.417   8.069  1.4837 -1.6517  0.4672
 1598SOL    HW216257   3.305   1.315   8.122  1.0435 -0.7086  2.9051
 1599SOL     OW16258   3.108   0.823   3.343  0.3809  0.0113  0.3087
 1599SOL    HW116259   3.199   0.795   3.336  1.1298  2.3315  0.8839
 1599SOL    HW216260   3.093   0.791   3.432  0.9428 -1.8673 -0.2715
 1600SOL     OW16261   1.013   0.148   5.790  0.1282 -0.1187  0.5903
 1600SOL    HW116262   1.050   0.063   5.811  0.5681 -0.2077 -0.5590
 1600SOL    HW216263   0.939   0.149   5.851 -0.1877 -0.0615  0.2113
 1601SOL     OW16264   0.678   0.398  14.572  0.2948 -0.3926  0.7064
 1601SOL    HW116265   0.767   0.431  14.577  0.9490 -2.1156  0.3132
 1601SOL    HW216266   0.648   0.398  14.663 -1.2217  2.5466  0.2246
 1602SOL     OW16267   4.465   1.524   2.681 -0.2680 -0.1047 -0.6365
 1602SOL    HW116268   4.520   1.600   2.664  0.3959 -0.9161 -2.0555
 1602SOL    HW216269   4.517   1.456   2.638  0.0289 -0.4600  0.2722
 1603SOL     OW16270   4.570   3.589  11.988  0.0309 -0.7766 -0.3465
 1603SOL    HW116271   4.598   3.681  11.983 -0.0552 -0.7158  0.3379
 1603SOL    HW216272   4.566   3.570  11.894 -1.7414 -1.3556 -0.1424
 1604SOL     OW16273   4.209   2.508  17.601 -0.2588 -0.3292 -0.2129
 1604SOL    HW116274   4.297   2.532  17.630 -0.4888 -1.5125  1.4337
 1604SOL    HW216275   4.207   2.419  17.636  0.3520 -1.3603 -2.7658
 1605SOL     OW16276   0.921   4.018   9.089  0.4813  0.0802 -0.1250
 1605SOL    HW116277   0.856   3.961   9.132 -1.2921  0.8576 -1.8004
 1605SOL    HW216278   0.978   4.035   9.164  0.1353  0.4666  0.0480
 1606SOL     OW16279   3.024   0.706  16.951  0.4698 -0.2464  0.4156
 1606SOL    HW116280   3.009   0.685  16.859  0.6087 -0.9192  0.5474
 1606SOL    HW216281   3.036   0.617  16.984  0.1582 -0.0953  0.9253
 1607SOL     OW16282   0.090   4.290   4.574 -0.0403 -0.4388 -0.4939
 1607SOL    HW116283   0.142   4.220   4.614 -1.2312 -0.2657  1.3710
 1607SOL    HW216284   0.070   4.245   4.492 -2.7380 -0.9098  0.4466
 1608SOL     OW16285   2.306   1.699   1.742 -0.4372 -0.4562 -0.0709
 1608SOL    HW116286   2.318   1.757   1.666  1.7541 -1.8076 -0.7858
 1608SOL    HW216287   2.219   1.721   1.774 -0.2226  0.1375  0.1058
 1609SOL     OW16288   0.988   3.073   0.179 -0.4655 -0.6872 -0.9135
 1609SOL    HW116289   1.044   3.030   0.245 -0.7503  2.9376  1.6573
 1609SOL    HW216290   1.048   3.077   0.105  0.0350  2.0349 -0.3469
 1610SOL     OW16291   3.270   1.233  16.478 -1.1542  0.0956  0.0860
 1610SOL    HW116292   3.315   1.148  16.477 -1.0158  0.1596  1.0934
 1610SOL    HW216293   3.217   1.225  16.557 -2.4579 -0.9447 -0.8823
 1611SOL     OW16294   3.763   2.922  11.119 -0.0139  0.4093  0.2124
 1611SOL    HW116295   3.717   2.869  11.055  0.8472  3.2041 -2.7610
 1611SOL    HW216296   3.848   2.943  11.080 -0.7343  2.5243 -0.2434
 1612SOL     OW16297   2.719   1.349   4.588  0.2525  0.0179 -0.0231
 1612SOL    HW116298   2.805   1.337   4.628  0.4542 -1.4861 -0.9085
 1612SOL    HW216299   2.663   1.282   4.628  3.1629 -2.7237 -0.5101
 1613SOL     OW16300   0.666   4.445   3.682  0.1145  0.0054 -0.1278
 1613SOL    HW116301   0.685   4.378   3.748  0.2050  0.8322  0.7049
 1613SOL    HW216302   0.583   4.406   3.656  0.4192  0.1316 -1.2915
 1614SOL     OW16303   3.411   1.727   1.731 -0.1618 -0.1852  0.1839
 1614SOL    HW116304   3.461   1.665   1.678 -3.3499 -1.4727 -1.3011
 1614SOL    HW216305   3.473   1.734   1.804  0.6225  2.5551 -0.7428
 1615SOL     OW16306   0.039   3.012   9.383 -0.0680 -0.4035 -0.6383
 1615SOL    HW116307   4.674   2.972   9.375 -1.1374  1.8561 -0.1534
 1615SOL    HW216308   0.101   2.951   9.343  1.5717  1.9504 -1.6677
 1616SOL     OW16309   1.890   3.216   3.991  0.2699 -0.6622 -0.2635
 1616SOL    HW116310   1.916   3.199   3.900  2.2385  0.8149  0.0297
 1616SOL    HW216311   1.867   3.308   3.975  0.9367 -0.3359  0.7020
 1617SOL     OW16312   1.352   4.197   8.193  0.1863 -0.3771 -0.3092
 1617SOL    HW116313   1.303   4.247   8.128 -1.8645 -1.0017  0.7836
 1617SOL    HW216314   1.353   4.261   8.265 -0.8660 -2.1180  1.2425
 1618SOL     OW16315   3.596   1.391   5.607  0.3747 -0.2138 -0.5962
 1618SOL    HW116316   3.557   1.304   5.614  2.0956 -0.7742  2.1746
 1618SOL    HW216317   3.523   1.445   5.637  2.2806  2.0828 -0.0880
 1619SOL     OW16318   0.109   3.044   6.397  0.4310 -0.3159  0.2825
 1619SOL    HW116319   0.141   3.012   6.481  0.2534  1.1755  0.9103
 1619SOL    HW216320   0.189   3.028   6.347  1.3051  0.4137  1.4659
 1620SOL     OW16321   4.652   0.106   6.393  0.3456  0.4570  0.3370
 1620SOL    HW116322   4.684   0.195   6.405  1.1818 -0.0503  1.9337
 1620SOL    HW216323   4.632   0.092   6.300  0.2404  0.9260  0.2887
 1621SOL     OW16324   4.395   1.623  15.281 -0.7618 -0.5611  0.2664
 1621SOL    HW116325   4.328   1.562  15.250 -1.3240  0.1583  0.0511
 1621SOL    HW216326   4.347   1.671  15.349  1.4989 -0.0345  1.4806
 1622SOL     OW16327   3.224   2.434   2.831  0.1125 -0.1593 -0.2208
 1622SOL    HW116328   3.174   2.369   2.783  0.5412 -0.0444 -0.8172
 1622SOL    HW216329   3.301   2.434   2.775  0.6638  0.0870  0.5263
 1623SOL     OW16330   3.695   3.417   8.292  0.1569 -0.3297  0.5399
 1623SOL    HW116331   3.715   3.511   8.282 -2.2749  0.0616 -0.5584
 1623SOL    HW216332   3.600   3.410   8.282  0.5004  1.2495 -3.7774
 1624SOL     OW16333   2.991   2.444   3.929  0.8927 -0.2541 -0.0671
 1624SOL    HW116334   3.040   2.518   3.895 -1.2348  0.7648 -0.9455
 1624SOL    HW216335   2.958   2.402   3.850 -0.3423  1.4636 -0.4675
 1625SOL     OW16336   2.076   3.265  15.791 -0.5298 -0.0520 -0.3736
 1625SOL    HW116337   2.113   3.248  15.877  0.3941  1.3716 -0.4725
 1625SOL    HW216338   2.101   3.358  15.798  1.1632 -0.4150 -1.4261
 1626SOL     OW16339   1.818   0.647   6.923  0.3082 -0.0657  0.2632
 1626SOL    HW116340   1.812   0.552   6.931  1.9517 -0.0395  1.8866
 1626SOL    HW216341   1.913   0.656   6.915  0.5118 -1.7822  0.6287
 1627SOL     OW16342   0.452   3.671   4.165  0.4822 -0.1267 -0.0455
 1627SOL    HW116343   0.495   3.597   4.206  1.6119 -0.0656 -1.1172
 1627SOL    HW216344   0.383   3.625   4.118 -1.5260  1.3731  1.3948
 1628SOL     OW16345   2.120   3.652   2.828  0.1318  0.5114 -0.0338
 1628SOL    HW116346   2.214   3.647   2.848  0.3209  1.1553 -0.7768
 1628SOL    HW216347   2.077   3.646   2.913 -2.6547  0.4153 -1.4440
 1629SOL     OW16348   1.550   3.664  16.958 -0.2877 -0.3442 -0.1473
 1629SOL    HW116349   1.559   3.588  17.015  1.0753 -0.0900 -0.0232
 1629SOL    HW216350   1.576   3.737  17.014 -1.2908 -0.9145  1.0652
 1630SOL     OW16351   2.338   3.696   4.710 -0.3874  0.0736 -0.4023
 1630SOL    HW116352   2.350   3.750   4.788  3.5279 -1.8122  0.2754
 1630SOL    HW216353   2.292   3.618   4.740  4.0324 -2.4054 -0.0746
 1631SOL     OW16354   1.385   4.423   6.895  0.1354  0.0833 -0.3521
 1631SOL    HW116355   1.429   4.343   6.923 -1.9141 -0.1301  2.2111
 1631SOL    HW216356   1.298   4.390   6.913  0.4383 -1.5136 -1.8764
 1632SOL     OW16357   0.956   0.749   3.821  0.2306  0.2503 -0.0290
 1632SOL    HW116358   0.866   0.777   3.801  1.5004  2.9685 -1.8754
 1632SOL    HW216359   1.007   0.813   3.771  1.6592  0.1757  1.3534
 1633SOL     OW16360   1.315   3.225  17.237 -0.4440 -0.4221 -0.0107
 1633SOL    HW116361   1.267   3.180  17.306  1.9869  0.6266  2.3405
 1633SOL    HW216362   1.401   3.233  17.277 -0.0736  0.2029 -0.9206
 1634SOL     OW16363   4.647   0.226   2.005 -0.1757  0.4118  0.5066
 1634SOL    HW116364   4.634   0.161   1.936  1.7125 -0.4429  0.9474
 1634SOL    HW216365   0.014   0.253   1.983 -0.2233  1.0245  1.0772
 1635SOL     OW16366   1.909   0.876   1.737 -0.4639  0.0310 -0.2871
 1635SOL    HW116367   1.891   0.871   1.831 -0.8341  2.3470 -0.2440
 1635SOL    HW216368   1.831   0.832   1.704 -0.4390  0.0489 -0.3707
 1636SOL     OW16369   0.425   1.774   9.032 -0.5832  0.0080 -0.4970
 1636SOL    HW116370   0.411   1.709   8.963 -1.7186  1.0861 -1.2979
 1636SOL    HW216371   0.507   1.746   9.073 -1.9966 -2.4745  0.6793
 1637SOL     OW16372   2.023   4.192   2.312 -0.4207 -0.4104  0.5257
 1637SOL    HW116373   2.011   4.278   2.272  0.8648 -0.5196 -0.0689
 1637SOL    HW216374   1.938   4.173   2.353 -1.4918  0.9176 -1.0627
 1638SOL     OW16375   4.270   2.141  17.593  0.1459 -0.5859 -0.4745
 1638SOL    HW116376   4.330   2.122  17.521  2.0612  0.6550  0.7913
 1638SOL    HW216377   4.331   2.164  17.663 -3.5061  3.0356  1.4551
 1639SOL     OW16378   2.870   1.420   8.558 -0.0745 -0.2955  0.4373
 1639SOL    HW116379   2.885   1.389   8.647  1.0635  0.1276  0.3991
 1639SOL    HW216380   2.838   1.340   8.517  0.8962  0.0526 -1.0255
 1640SOL     OW16381   2.117   0.709   2.220  0.4687 -0.0771  0.4035
 1640SOL    HW116382   2.203   0.746   2.237  0.9796 -1.5124  0.9870
 1640SOL    HW216383   2.142   0.619   2.197 -0.3772 -0.1953 -0.0652
 1641SOL     OW16384   1.222   1.720  11.496 -0.0442 -0.2866  0.0322
 1641SOL    HW116385   1.199   1.718  11.589 -1.4401  2.6351 -0.2517
 1641SOL    HW216386   1.219   1.812  11.471  0.8318  0.0931  1.3599
 1642SOL     OW16387   0.377   4.416   5.228 -0.2260 -0.2552 -0.0010
 1642SOL    HW116388   0.295   4.382   5.263  0.1726 -0.9021  0.2937
 1642SOL    HW216389   0.352   4.484   5.165  2.8984  0.6144 -0.3513
 1643SOL     OW16390   4.689   3.892   8.590  0.1458  0.4800 -0.8617
 1643SOL    HW116391   4.667   3.982   8.615 -0.3435  0.6838 -2.0208
 1643SOL    HW216392   0.039   3.904   8.528  0.4210  1.9168 -0.2458
 1644SOL     OW16393   0.936   0.895   7.787  0.1392 -0.0859 -0.3653
 1644SOL    HW116394   0.842   0.879   7.793 -0.2928  1.8660 -1.6815
 1644SOL    HW216395   0.936   0.988   7.811  0.3327  0.1679 -1.3277
 1645SOL     OW16396   4.240   0.252   5.993  0.3442 -0.7733  1.0083
 1645SOL    HW116397   4.335   0.250   5.982  0.4055 -1.8524  1.7312
 1645SOL    HW216398   4.241   0.178   6.054  1.5025 -0.9540  0.7757
 1646SOL     OW16399   0.578   2.159   5.617 -0.2527  0.3587  0.1014
 1646SOL    HW116400   0.659   2.170   5.667 -0.9340 -0.4898  1.3964
 1646SOL    HW216401   0.611   2.106   5.544  1.4684 -0.0208  1.1467
 1647SOL     OW16402   3.193   3.715   3.407  0.2948  0.4346  0.0969
 1647SOL    HW116403   3.116   3.684   3.359 -1.1295  1.3545  1.7808
 1647SOL    HW216404   3.262   3.653   3.384 -0.9601 -0.5745 -0.9432
 1648SOL     OW16405   3.133   4.367   0.426 -0.6417 -0.2910 -0.5376
 1648SOL    HW116406   3.061   4.306   0.407 -0.8496 -0.3890  0.6014
 1648SOL    HW216407   3.083   4.433   0.474 -0.7941 -1.3803  0.8125
 1649SOL     OW16408   2.360   1.157  12.661  0.2084 -0.4644 -0.2394
 1649SOL    HW116409   2.275   1.198  12.645  1.1674  0.9572 -1.6687
 1649SOL    HW216410   2.386   1.209  12.737  1.2867 -2.5601  0.8201
 1650SOL     OW16411   0.069   0.085  11.113 -0.0046 -0.3473 -0.1501
 1650SOL    HW116412   0.053   0.180  11.114  1.3746 -0.1021 -1.8669
 1650SOL    HW216413   0.058   0.068  11.020  2.0412  1.0649 -0.6477
 1651SOL     OW16414   3.898   4.232  15.210 -0.1553 -0.4619 -0.6182
 1651SOL    HW116415   3.859   4.147  15.230  0.1507 -0.3643  0.4111
 1651SOL    HW216416   3.978   4.209  15.164  1.5688  4.1735  0.0887
 1652SOL     OW16417   1.735   3.715   2.738  0.4448  0.3639  0.0415
 1652SOL    HW116418   1.806   3.671   2.692  0.9566 -1.3006  2.4081
 1652SOL    HW216419   1.652   3.681   2.706  1.3198 -0.1128 -1.6673
 1653SOL     OW16420   2.300   1.329  16.695  0.3701  0.2030 -0.2647
 1653SOL    HW116421   2.254   1.268  16.638 -1.7220  1.8485 -0.3551
 1653SOL    HW216422   2.386   1.288  16.690  1.5586  2.4273  1.9138
 1654SOL     OW16423   1.339   1.890   7.185  0.3745  0.2778 -0.4570
 1654SOL    HW116424   1.359   1.822   7.120  1.6087 -2.0037  2.3116
 1654SOL    HW216425   1.262   1.928   7.143 -0.7066 -0.2973  1.0221
 1655SOL     OW16426   0.871   1.189   0.000 -0.1726 -0.0377 -0.6304
 1655SOL    HW116427   0.882   1.094   0.005 -0.7443 -0.1475 -1.5441
 1655SOL    HW216428   0.776   1.195   0.007 -0.0175 -1.2899  2.7805
 1656SOL     OW16429   4.552   0.525  11.008  0.6850  0.1574  0.1507
 1656SOL    HW116430   4.462   0.539  11.038  0.3858 -2.1780  0.3953
 1656SOL    HW216431   4.594   0.611  11.006  2.5183 -0.6816  2.8714
 1657SOL     OW16432   0.251   1.934   9.306 -0.1876 -0.0371 -0.0225
 1657SOL    HW116433   0.314   2.004   9.319 -1.0077  0.4026  1.5240
 1657SOL    HW216434   0.309   1.858   9.309  0.3255  0.2961 -1.3634
 1658SOL     OW16435   1.346   2.511  13.172  0.2740  0.0713  0.2633
 1658SOL    HW116436   1.397   2.589  13.148  0.5080  0.6055  2.4896
 1658SOL    HW216437   1.413   2.466  13.224 -0.3512 -0.5281  0.5552
 1659SOL     OW16438   2.234   4.091   7.150 -0.1717 -0.3545  0.6465
 1659SOL    HW116439   2.270   4.005   7.172  0.2892 -0.3891 -0.2494
 1659SOL    HW216440   2.247   4.135   7.234 -0.9980  0.8895  0.1068
 1660SOL     OW16441   3.536   3.207  11.524  0.4469  0.6922 -0.2751
 1660SOL    HW116442   3.547   3.209  11.429 -0.2818 -0.7973 -0.4011
 1660SOL    HW216443   3.451   3.167  11.543  0.4439  0.2567 -1.1788
 1661SOL     OW16444   4.489   1.851   5.553  0.5055 -0.6102  0.0298
 1661SOL    HW116445   4.497   1.790   5.480  0.9807 -0.2028 -0.2544
 1661SOL    HW216446   4.499   1.933   5.505  0.4690 -1.7721 -1.9622
 1662SOL     OW16447   2.470   3.527   2.041  0.8375 -0.2202 -0.3173
 1662SOL    HW116448   2.455   3.530   2.136 -0.8166 -1.1037 -0.5438
 1662SOL    HW216449   2.393   3.477   2.013 -0.4380  0.0125  2.6497
 1663SOL     OW16450   0.726   0.579   3.893  0.4022  0.6526  0.2769
 1663SOL    HW116451   0.718   0.514   3.823 -1.7320  0.2805  0.8667
 1663SOL    HW216452   0.638   0.614   3.899  0.5578  0.8049  1.5093
 1664SOL     OW16453   3.065   0.970  12.239 -0.2824  0.0032  0.0038
 1664SOL    HW116454   2.996   0.915  12.276  0.3725 -0.6073  0.3066
 1664SOL    HW216455   3.149   0.927  12.253 -0.2472 -0.1601 -0.7072
 1665SOL     OW16456   4.484   1.529   7.927 -0.3127  0.0357  0.1989
 1665SOL    HW116457   4.542   1.603   7.942 -0.2466  0.2538 -1.1334
 1665SOL    HW216458   4.401   1.570   7.904 -1.0271 -2.8131 -2.3466
 1666SOL     OW16459   3.772   2.826  11.440 -0.0640  0.4461  0.7327
 1666SOL    HW116460   3.851   2.875  11.417  0.6451 -1.4284 -0.7198
 1666SOL    HW216461   3.734   2.888  11.503  1.0090  0.1855  1.6349
 1667SOL     OW16462   3.568   1.529   2.583 -0.0064 -0.1387 -0.2890
 1667SOL    HW116463   3.512   1.601   2.612  0.1816  0.1717 -0.7022
 1667SOL    HW216464   3.512   1.457   2.555 -1.4604  0.2707  1.5543
 1668SOL     OW16465   2.841   4.330   7.539  0.0160  0.3290 -0.6442
 1668SOL    HW116466   2.884   4.249   7.512 -0.9118 -0.2440 -0.4134
 1668SOL    HW216467   2.866   4.389   7.468 -1.2268  0.1841 -1.2144
 1669SOL     OW16468   2.172   0.070   4.744  0.2997  0.0382  0.3194
 1669SOL    HW116469   2.257   0.071   4.698  0.2731  2.8237  0.3151
 1669SOL    HW216470   2.125   0.140   4.698  0.6634 -0.0362 -0.1716
 1670SOL     OW16471   1.916   2.748   2.831  0.4935 -0.0010 -0.3010
 1670SOL    HW116472   1.828   2.712   2.825 -0.1103  1.1683  1.5428
 1670SOL    HW216473   1.938   2.769   2.740  0.6425 -0.7707 -0.4408
 1671SOL     OW16474   0.489   4.664  11.784  0.4216  0.1509  0.3197
 1671SOL    HW116475   0.413   4.643  11.838  0.5326 -1.1374 -0.0307
 1671SOL    HW216476   0.554   4.654  11.854  0.2411  0.6930  0.5698
 1672SOL     OW16477   4.115   2.473  14.948  0.0192 -0.2633  0.8767
 1672SOL    HW116478   4.049   2.404  14.941  0.2298 -0.7307  3.3709
 1672SOL    HW216479   4.088   2.494  15.038 -1.3246  0.4506  0.3114
 1673SOL     OW16480   1.178   3.066  15.298 -0.7235 -0.3117 -0.3124
 1673SOL    HW116481   1.206   2.991  15.247  3.0429 -0.1523  1.5011
 1673SOL    HW216482   1.091   3.075  15.259 -1.5698 -0.2002  1.5903
 1674SOL     OW16483   4.476   1.632   8.326  0.3462 -0.2259  0.1491
 1674SOL    HW116484   4.401   1.592   8.282 -1.3884  3.6252 -0.4092
 1674SOL    HW216485   4.546   1.580   8.286 -1.3128 -2.3339 -0.0050
 1675SOL     OW16486   0.683   4.461  12.191  0.6872  0.0037 -0.0547
 1675SOL    HW116487   0.602   4.410  12.191  0.9050 -0.3593 -1.2278
 1675SOL    HW216488   0.668   4.510  12.271  1.8996  1.0181 -0.4494
 1676SOL     OW16489   2.183   2.391  16.210 -0.1266  0.0021 -0.5592
 1676SOL    HW116490   2.089   2.377  16.221 -0.0962  0.3924  0.2499
 1676SOL    HW216491   2.214   2.326  16.148 -0.0327 -0.6213  0.1451
 1677SOL     OW16492   3.838   2.543   5.019 -0.4456 -0.5508  0.3222
 1677SOL    HW116493   3.744   2.525   5.031 -0.4621  0.0053  1.0130
 1677SOL    HW216494   3.870   2.550   5.108 -2.1879 -0.3252  0.9380
 1678SOL     OW16495   1.351   2.894   5.506  0.3721  0.3921 -0.1828
 1678SOL    HW116496   1.330   2.906   5.598  2.6732  3.3516 -0.0424
 1678SOL    HW216497   1.387   2.978   5.479 -2.8212  0.6022 -3.7157
 1679SOL     OW16498   1.577   2.685  13.074 -0.2224 -0.1236 -0.2327
 1679SOL    HW116499   1.498   2.737  13.087 -0.4186  0.1308 -2.3651
 1679SOL    HW216500   1.628   2.710  13.151 -1.3867 -0.2879  0.5847
 1680SOL     OW16501   4.259   4.478  16.507  0.3179 -0.4244  0.2814
 1680SOL    HW116502   4.172   4.487  16.467  0.7431  2.3891 -0.0070
 1680SOL    HW216503   4.304   4.557  16.475 -0.7315 -0.3005 -0.9256
 1681SOL     OW16504   1.004   2.142   6.844  0.1076 -0.3915 -0.4729
 1681SOL    HW116505   0.935   2.075   6.846  0.7016 -1.1109 -4.1442
 1681SOL    HW216506   0.960   2.226   6.855  0.6663 -0.2951  0.9661
 1682SOL     OW16507   1.780   2.517   4.221 -0.0401 -0.2565  0.3135
 1682SOL    HW116508   1.728   2.453   4.270  1.5406 -1.9820 -0.2545
 1682SOL    HW216509   1.747   2.489   4.136 -2.1351 -1.9368  1.6557
 1683SOL     OW16510   3.948   1.554   3.663 -0.6366 -0.0756 -0.1826
 1683SOL    HW116511   3.999   1.578   3.741  1.1698 -1.0983 -1.0561
 1683SOL    HW216512   4.004   1.508   3.600 -1.1759 -0.4751 -0.3628
 1684SOL     OW16513   3.887   0.582   8.706 -0.1287 -0.0062 -0.3836
 1684SOL    HW116514   3.907   0.489   8.705  0.9625  0.1966  1.5689
 1684SOL    HW216515   3.915   0.612   8.620  0.7945 -0.5194 -0.2544
 1685SOL     OW16516   3.485   0.383  14.063  0.3133  0.3096  0.3552
 1685SOL    HW116517   3.434   0.346  13.991  0.2674  0.4188  0.3315
 1685SOL    HW216518   3.571   0.381  14.020 -0.0327 -1.6844 -0.2260
 1686SOL     OW16519   3.140   3.041   3.667 -0.6486  0.4665 -0.2051
 1686SOL    HW116520   3.073   3.084   3.615  0.6962  0.1319 -2.2205
 1686SOL    HW216521   3.213   3.041   3.605 -0.2537  0.7976  0.2543
 1687SOL     OW16522   0.759   4.004   0.483 -0.5570  0.0814  0.0534
 1687SOL    HW116523   0.736   3.912   0.496  2.2767 -0.1267  3.4152
 1687SOL    HW216524   0.760   4.007   0.387  0.9834 -0.9842  0.0302
 1688SOL     OW16525   1.733   3.918   3.229  0.3788 -0.2119  0.6270
 1688SOL    HW116526   1.688   3.988   3.182 -0.1474 -1.4698 -0.7562
 1688SOL    HW216527   1.667   3.861   3.268 -1.7896  2.6210  1.0979
 1689SOL     OW16528   2.846   2.607  13.337 -0.6975 -0.1998 -0.4926
 1689SOL    HW116529   2.799   2.545  13.393 -0.1596  0.0926  0.2857
 1689SOL    HW216530   2.929   2.559  13.335 -0.0749  0.7729  2.1838
 1690SOL     OW16531   3.123   4.047  15.256 -0.1158 -0.5924 -0.1784
 1690SOL    HW116532   3.204   3.996  15.258 -0.0292 -0.5504 -1.8971
 1690SOL    HW216533   3.157   4.127  15.214  0.1071 -0.8886 -0.5712
 1691SOL     OW16534   3.865   2.531   5.327 -0.0591 -0.0032 -0.0112
 1691SOL    HW116535   3.851   2.441   5.297 -1.7940 -0.2779  1.6587
 1691SOL    HW216536   3.882   2.504   5.418  2.0794 -1.0694 -0.7060
 1692SOL     OW16537   3.771   1.063   3.578 -0.3419 -0.2380  0.4454
 1692SOL    HW116538   3.804   0.975   3.595  0.7320 -0.1731 -1.3014
 1692SOL    HW216539   3.740   1.106   3.657  0.5663 -0.6333  1.0059
 1693SOL     OW16540   3.200   4.425  11.376  0.0773  0.1273  0.1674
 1693SOL    HW116541   3.201   4.510  11.419  0.6837 -0.2827  0.9665
 1693SOL    HW216542   3.245   4.445  11.294  0.1646 -1.8748 -0.2832
 1694SOL     OW16543   0.617   0.163   8.867 -0.5961  1.0278 -0.1546
 1694SOL    HW116544   0.572   0.091   8.912  0.5791  2.0515  2.6563
 1694SOL    HW216545   0.564   0.240   8.891 -0.6517  0.3181  2.0540
 1695SOL     OW16546   3.294   1.657  16.827  0.2626 -0.1170  0.2156
 1695SOL    HW116547   3.374   1.637  16.778 -0.4889 -0.7554 -0.7684
 1695SOL    HW216548   3.238   1.583  16.801  0.8398  0.0673 -1.6146
 1696SOL     OW16549   0.159   0.628   7.352  0.2105 -0.1172  0.3925
 1696SOL    HW116550   0.216   0.697   7.320  0.5301  0.0399  1.3093
 1696SOL    HW216551   0.220   0.574   7.402  1.0406  0.6740  0.2169
 1697SOL     OW16552   2.634   0.913   4.853 -0.2790  0.0173 -0.2851
 1697SOL    HW116553   2.650   0.893   4.760 -2.2753 -0.8106 -0.4480
 1697SOL    HW216554   2.723   0.907   4.888 -1.4371  1.2571  2.8739
 1698SOL     OW16555   3.217   0.600   7.553 -0.2728 -0.0694 -0.3922
 1698SOL    HW116556   3.236   0.685   7.512 -0.3782 -0.9091 -2.1922
 1698SOL    HW216557   3.121   0.605   7.556 -0.3021  0.2917 -1.7809
 1699SOL     OW16558   4.580   3.014   3.658 -0.3756 -0.4082  0.1760
 1699SOL    HW116559   4.531   2.971   3.728 -2.1993 -0.0714 -0.9069
 1699SOL    HW216560   4.638   2.945   3.627  0.3731  0.0950  0.4426
 1700SOL     OW16561   4.406   3.296   3.698  0.2974 -1.0837 -0.0499
 1700SOL    HW116562   4.429   3.389   3.695 -0.9998 -0.7100  1.4077
 1700SOL    HW216563   4.486   3.245   3.687  0.2776 -1.5260  1.8516
 1701SOL     OW16564   2.044   4.503  10.301 -0.0527  0.3412 -0.0281
 1701SOL    HW116565   2.038   4.547  10.386  0.6399  3.1084 -1.4150
 1701SOL    HW216566   1.952   4.481  10.294  0.0829  0.2559 -1.6471
 1702SOL     OW16567   1.745   0.684   8.196  0.2517  0.0500  0.0705
 1702SOL    HW116568   1.663   0.676   8.146 -1.0203 -2.1602  2.4850
 1702SOL    HW216569   1.729   0.602   8.242  0.5518 -0.7254 -1.2227
 1703SOL     OW16570   3.276   1.697   2.354 -0.2101 -0.2850  0.2383
 1703SOL    HW116571   3.248   1.662   2.269  0.1388  0.3791 -0.1490
 1703SOL    HW216572   3.371   1.695   2.343  0.1549  0.8490  3.1387
 1704SOL     OW16573   0.486   0.047   2.591 -0.0001 -0.4745 -0.1020
 1704SOL    HW116574   0.440   4.716   2.656  0.9658 -1.9483 -0.6250
 1704SOL    HW216575   0.460   4.714   2.517 -1.3033  0.1454 -0.1190
 1705SOL     OW16576   3.176   4.595   7.891  0.0716 -0.2743 -0.2581
 1705SOL    HW116577   3.146   4.619   7.979 -0.1280  5.0656 -1.8025
 1705SOL    HW216578   3.270   4.610   7.895 -0.2955  2.0464 -0.1226
 1706SOL     OW16579   3.496   0.426   6.825 -0.0204  0.3190 -0.1648
 1706SOL    HW116580   3.488   0.380   6.742  0.9123 -0.7541  0.3533
 1706SOL    HW216581   3.492   0.355   6.889  0.0045 -0.6573 -1.2428
 1707SOL     OW16582   4.643   1.206   2.023  0.2386  0.3154  0.2479
 1707SOL    HW116583   4.677   1.189   2.111  2.6274  0.6681 -0.6213
 1707SOL    HW216584   4.646   1.302   2.024 -0.4813  0.3536 -1.2718
 1708SOL     OW16585   4.597   3.516  16.273  0.3239 -0.7489  0.0285
 1708SOL    HW116586   4.545   3.524  16.353  0.1601 -0.6829 -0.0839
 1708SOL    HW216587   4.681   3.498  16.313  0.8910 -0.9912 -1.2721
 1709SOL     OW16588   2.828   2.817   3.153  0.0319  0.2116  0.2031
 1709SOL    HW116589   2.868   2.890   3.200 -0.0499 -0.0991  0.7486
 1709SOL    HW216590   2.751   2.811   3.209 -0.2853 -0.2120 -0.2754
 1710SOL     OW16591   4.242   2.979   5.666 -0.2683  0.0349 -0.2696
 1710SOL    HW116592   4.160   3.024   5.646  0.8574  1.5441 -1.5118
 1710SOL    HW216593   4.302   3.014   5.600 -0.0969  1.0902  0.4426
 1711SOL     OW16594   0.309   4.589  16.531 -0.0906 -0.3122 -0.3601
 1711SOL    HW116595   0.309   4.578  16.436  1.5782 -0.4266 -0.3420
 1711SOL    HW216596   0.220   4.621  16.547  0.3168  1.4921 -1.8130
 1712SOL     OW16597   1.391   1.314  11.037 -0.4096 -0.0990  0.0701
 1712SOL    HW116598   1.322   1.379  11.048  1.0216  1.1228  1.7540
 1712SOL    HW216599   1.454   1.374  10.998  0.8966 -0.9669  0.8348
 1713SOL     OW16600   1.068   0.228   9.910 -0.0544  0.2532 -0.0482
 1713SOL    HW116601   1.070   0.231  10.005 -0.4360 -0.0734 -0.0301
 1713SOL    HW216602   0.989   0.179   9.886 -0.0312 -1.1684  2.8968
 1714SOL     OW16603   1.667   0.714   6.684 -0.6526 -0.5508 -0.0457
 1714SOL    HW116604   1.586   0.668   6.708 -0.7286 -0.2516  0.2612
 1714SOL    HW216605   1.711   0.692   6.766 -1.9553  0.8841  1.0137
 1715SOL     OW16606   2.782   3.732   5.492 -0.1162  0.0469  0.5329
 1715SOL    HW116607   2.691   3.752   5.471  0.1938  1.6068  0.6767
 1715SOL    HW216608   2.772   3.643   5.526 -0.5835 -0.3279 -0.5801
 1716SOL     OW16609   2.803   0.098   8.353  0.0354  0.3805  0.1760
 1716SOL    HW116610   2.851   0.016   8.357  0.6960  0.7678  0.3330
 1716SOL    HW216611   2.818   0.118   8.261  0.2323  0.7061  0.2765
 1717SOL     OW16612   4.188   1.884   4.192  0.1954  0.3948 -0.2355
 1717SOL    HW116613   4.258   1.842   4.143 -1.6958 -1.2893 -1.4383
 1717SOL    HW216614   4.237   1.911   4.270  0.6738  0.1008 -0.4391
 1718SOL     OW16615   2.390   0.822   8.014  0.1330  0.2256 -0.3131
 1718SOL    HW116616   2.312   0.845   8.065 -0.0545  1.0496 -0.9652
 1718SOL    HW216617   2.451   0.819   8.088  1.2248  0.3839 -1.2172
 1719SOL     OW16618   0.035   2.724   4.925  0.1530 -1.0095 -0.7844
 1719SOL    HW116619   4.704   2.645   4.914  0.0187 -0.9447 -0.6043
 1719SOL    HW216620   0.077   2.726   4.839 -0.2790 -1.9465 -1.0142
 1720SOL     OW16621   3.329   4.509   3.041  0.6077 -0.8753 -0.0401
 1720SOL    HW116622   3.267   4.461   3.096 -0.0763 -0.0695 -0.1035
 1720SOL    HW216623   3.391   4.439   3.020 -0.6576 -1.5062 -1.7071
 1721SOL     OW16624   0.173   0.515   4.767 -0.2254  0.0961 -0.0227
 1721SOL    HW116625   0.212   0.587   4.817 -0.8164  0.5603 -0.2275
 1721SOL    HW216626   0.151   0.555   4.683 -0.3358 -1.9465 -0.9466
 1722SOL     OW16627   1.709   4.578  14.829 -0.5069 -0.1337  0.9334
 1722SOL    HW116628   1.621   4.545  14.812  0.1944 -0.7899 -1.3806
 1722SOL    HW216629   1.748   4.514  14.769 -0.8094  1.6104 -1.1032
 1723SOL     OW16630   1.048   4.614   5.853  0.3350  0.5316 -0.5750
 1723SOL    HW116631   1.091   4.587   5.934 -2.8528  0.4862  1.0825
 1723SOL    HW216632   0.975   4.552   5.846 -0.5440  1.8809 -3.2084
 1724SOL     OW16633   3.252   0.027   9.809 -0.2506  0.1541  0.2005
 1724SOL    HW116634   3.250   0.099   9.745 -2.8838  0.5001  0.6844
 1724SOL    HW216635   3.341   4.722   9.785 -0.5155 -0.3902 -0.1572
 1725SOL     OW16636   0.036   4.203   6.190  0.4742  0.1815  0.2895
 1725SOL    HW116637   0.069   4.267   6.253 -1.2507  0.2716  1.0999
 1725SOL    HW216638   0.031   4.121   6.239  1.1908 -1.4263 -2.3324
 1726SOL     OW16639   0.749   3.871   2.093 -0.3277  0.1530 -0.7984
 1726SOL    HW116640   0.766   3.901   2.004 -2.1621  0.3297 -1.0861
 1726SOL    HW216641   0.667   3.915   2.117 -0.7927 -1.7370  1.1350
 1727SOL     OW16642   1.896   2.151   4.760  0.3296  0.2865  0.6479
 1727SOL    HW116643   1.926   2.068   4.798  1.7347  1.6519  2.5145
 1727SOL    HW216644   1.952   2.214   4.807  0.9999 -0.2694  0.5995
 1728SOL     OW16645   3.319   3.334   4.616 -0.2229  0.0310 -0.4323
 1728SOL    HW116646   3.268   3.262   4.579  0.2547 -1.7244  2.3250
 1728SOL    HW216647   3.389   3.346   4.552  0.7958 -1.6270  0.3958
 1729SOL     OW16648   3.618   0.121   4.464 -0.2351  0.4773  0.1087
 1729SOL    HW116649   3.686   0.165   4.412  0.3380 -1.8323 -1.0821
 1729SOL    HW216650   3.666   0.111   4.546  1.2217  1.2887 -0.6304
 1730SOL     OW16651   3.494   0.175   6.922  0.6162  0.1406  0.0945
 1730SOL    HW116652   3.469   0.087   6.893  1.3948  0.6201 -2.0419
 1730SOL    HW216653   3.582   0.177   6.885  0.6124  0.3651  0.0979
 1731SOL     OW16654   3.479   3.694   4.289 -0.0893  0.3604 -0.5295
 1731SOL    HW116655   3.570   3.685   4.315 -0.2756  0.6347  0.2247
 1731SOL    HW216656   3.469   3.764   4.224 -0.2644 -0.3723 -1.2906
 1732SOL     OW16657   0.091   4.017  11.812 -0.3669  0.3238 -0.3230
 1732SOL    HW116658   0.173   4.041  11.769  0.6645 -0.3068  1.2850
 1732SOL    HW216659   0.119   3.988  11.899  0.1693 -2.1018 -1.3062
 1733SOL     OW16660   4.065   3.510   9.777  0.0011  0.0482 -0.3291
 1733SOL    HW116661   3.980   3.550   9.794  0.8727  1.9829 -0.5618
 1733SOL    HW216662   4.061   3.478   9.687 -2.5514  1.6440 -0.7725
 1734SOL     OW16663   2.412   3.229  14.255 -0.4169 -0.2023  0.3333
 1734SOL    HW116664   2.345   3.165  14.231  1.2820 -0.9970 -2.3407
 1734SOL    HW216665   2.421   3.264  14.167 -0.9103  0.0840  0.3982
 1735SOL     OW16666   2.787   3.993   0.878 -0.6071  0.0120  0.8104
 1735SOL    HW116667   2.852   4.003   0.948 -1.6002  0.1934  1.7037
 1735SOL    HW216668   2.802   4.083   0.849  1.3778 -0.4762  0.2984
 1736SOL     OW16669   3.495   1.511  12.345  0.1568 -0.3821  0.6002
 1736SOL    HW116670   3.538   1.480  12.266 -1.6726 -1.5030  0.0467
 1736SOL    HW216671   3.534   1.445  12.402 -0.2174  0.5673  1.9614
 1737SOL     OW16672   1.668   0.859  13.912 -0.4446  0.5846 -0.5630
 1737SOL    HW116673   1.764   0.852  13.906 -0.3226  0.7454  1.1454
 1737SOL    HW216674   1.671   0.916  13.989  0.2152 -0.4656  0.2039
 1738SOL     OW16675   2.187   4.110  11.576  0.2069  0.3758  0.2924
 1738SOL    HW116676   2.151   4.031  11.536 -0.4948  0.6099  0.4534
 1738SOL    HW216677   2.235   4.081  11.653 -1.5457 -3.8640 -0.2134
 1739SOL     OW16678   1.317   3.162   7.968  0.1020  0.7054 -0.0761
 1739SOL    HW116679   1.304   3.196   8.056 -0.6462  2.4730 -0.8560
 1739SOL    HW216680   1.229   3.128   7.950 -0.3767  0.8786  1.9950
 1740SOL     OW16681   0.121   0.038   3.785 -0.6756 -0.4949  0.6843
 1740SOL    HW116682   0.211   0.070   3.791 -0.9985  0.3523  0.9178
 1740SOL    HW216683   0.137   4.671   3.754 -0.4348 -0.7142  1.4357
 1741SOL     OW16684   0.165   3.005   8.024 -0.2512  0.3219  0.4732
 1741SOL    HW116685   0.105   2.985   7.952  1.1227 -3.2621  0.3139
 1741SOL    HW216686   0.145   3.097   8.042  1.1074  1.2915 -2.8526
 1742SOL     OW16687   3.073   0.590  12.116 -0.1587 -0.3184 -0.2712
 1742SOL    HW116688   3.023   0.607  12.196  1.2125 -0.6616  0.6685
 1742SOL    HW216689   3.011   0.540  12.064 -0.7639  1.6196 -1.3622
 1743SOL     OW16690   0.058   2.641   1.491 -0.1175 -0.1707  0.1779
 1743SOL    HW116691   4.685   2.648   1.483  0.0220  1.9900  0.5841
 1743SOL    HW216692   0.053   2.552   1.527 -0.1578 -0.5791 -0.8256
 1744SOL     OW16693   1.280   3.982   5.772  0.1072  0.3720  0.1894
 1744SOL    HW116694   1.365   3.954   5.805 -0.1101 -1.7983 -1.0542
 1744SOL    HW216695   1.222   3.942   5.837  2.1570 -1.0029  1.1427
 1745SOL     OW16696   1.800   3.760  17.568 -0.1991 -0.7325 -0.0986
 1745SOL    HW116697   1.892   3.736  17.556 -0.4259 -2.1673  1.0512
 1745SOL    HW216698   1.816   3.854  17.575 -4.6350  0.0460 -0.3473
 1746SOL     OW16699   1.534   0.654   9.632  0.3952 -0.2215  0.4226
 1746SOL    HW116700   1.609   0.702   9.667  0.9361 -0.6622 -0.1175
 1746SOL    HW216701   1.475   0.692   9.697 -0.1993  1.5261 -1.1214
 1747SOL     OW16702   2.735   2.682  13.084  0.2069 -0.5741 -0.2073
 1747SOL    HW116703   2.811   2.642  13.040  0.4352 -0.6829  0.2836
 1747SOL    HW216704   2.746   2.668  13.178 -0.7229  0.0936  0.0005
 1748SOL     OW16705   4.344   1.982   3.696 -0.4250 -0.5846 -0.6002
 1748SOL    HW116706   4.335   2.077   3.705  0.5533 -0.4361 -1.2350
 1748SOL    HW216707   4.375   1.967   3.607  1.4762 -1.9179  0.2900
 1749SOL     OW16708   0.639   4.695  10.030 -0.2411  0.7664  0.1968
 1749SOL    HW116709   0.707   4.631  10.052 -2.0905 -0.7757  1.3002
 1749SOL    HW216710   0.682   0.020   9.959 -0.1304  2.2854  1.2694
 1750SOL     OW16711   3.067   1.019   0.551 -0.4649  0.2048  0.0412
 1750SOL    HW116712   3.109   1.105   0.539 -0.2415 -0.0134 -0.7044
 1750SOL    HW216713   3.129   0.972   0.607  0.0278 -0.1259 -0.7950
 1751SOL     OW16714   1.455   1.132   3.719  0.4041  0.0702 -0.2361
 1751SOL    HW116715   1.525   1.073   3.691  0.3884  0.2516 -0.6639
 1751SOL    HW216716   1.430   1.079   3.794 -0.8038  1.7339  0.5396
 1752SOL     OW16717   3.804   1.706  13.315  0.8449  0.0306  0.0598
 1752SOL    HW116718   3.763   1.638  13.262  1.1049 -0.0770 -0.0012
 1752SOL    HW216719   3.758   1.785  13.288  0.9920  0.4719  1.0832
 1753SOL     OW16720   4.515   3.474   3.126  0.4906  0.7724  0.1356
 1753SOL    HW116721   4.569   3.509   3.055 -0.6212 -0.8179 -1.4717
 1753SOL    HW216722   4.547   3.384   3.124 -0.4632  0.4005  1.2282
 1754SOL     OW16723   4.542   0.810   4.035 -0.0491 -0.0213 -0.7319
 1754SOL    HW116724   4.543   0.905   4.027 -1.0020  0.3330  3.3919
 1754SOL    HW216725   4.625   0.796   4.081  0.1487 -2.0445 -1.6831
 1755SOL     OW16726   2.415   0.074   9.797 -0.0133  0.3149 -0.5397
 1755SOL    HW116727   2.334   0.065   9.747 -1.6430  0.2985  2.1046
 1755SOL    HW216728   2.472   0.069   9.721 -0.4161 -1.2581 -0.7412
 1756SOL     OW16729   2.486   4.396   0.613 -0.2023  0.0610  0.3629
 1756SOL    HW116730   2.425   4.326   0.589  0.4615 -0.0054 -1.1222
 1756SOL    HW216731   2.437   4.470   0.577 -0.6846 -0.4764 -0.0978
 1757SOL     OW16732   4.495   4.707   4.357  0.5372 -0.0102  0.1381
 1757SOL    HW116733   4.556   4.640   4.386  1.8663  1.2366  0.2459
 1757SOL    HW216734   4.542   0.060   4.394  1.4938 -0.0558 -0.9633
 1758SOL     OW16735   3.401   1.083   5.966 -0.5996 -0.7567 -0.4783
 1758SOL    HW116736   3.378   1.166   5.923  1.1939 -0.9212 -1.7145
 1758SOL    HW216737   3.321   1.063   6.016 -0.0309 -0.8540  0.4016
 1759SOL     OW16738   1.513   2.845   4.433  0.0510  0.1434  0.2023
 1759SOL    HW116739   1.605   2.836   4.410  0.1480  0.8894  0.2884
 1759SOL    HW216740   1.475   2.758   4.443  0.8554 -0.2323 -0.0308
 1760SOL     OW16741   2.034   3.429   3.285  0.5596 -0.1508  0.2211
 1760SOL    HW116742   1.984   3.461   3.360 -0.6008  0.7788 -0.9548
 1760SOL    HW216743   2.024   3.334   3.288 -0.5162  0.0516  2.5259
 1761SOL     OW16744   0.509   1.581   3.070  0.1505  0.3654  0.2349
 1761SOL    HW116745   0.453   1.524   3.121  1.1296 -0.1579  0.7348
 1761SOL    HW216746   0.458   1.662   3.076 -0.7411 -0.1665 -0.3124
 1762SOL     OW16747   4.236   3.057   0.441  0.6074 -0.2230  0.3054
 1762SOL    HW116748   4.174   3.056   0.369 -0.1353  1.7349  0.9286
 1762SOL    HW216749   4.199   3.125   0.497 -0.0972  1.0864 -1.7744
 1763SOL     OW16750   4.216   0.253   6.704  0.0658  0.6657  0.1594
 1763SOL    HW116751   4.280   0.323   6.717 -0.1473  0.6994  1.0553
 1763SOL    HW216752   4.192   0.263   6.612 -3.5980 -1.8015  0.8089
 1764SOL     OW16753   3.069   0.025   2.722  0.0475 -0.5083  0.0289
 1764SOL    HW116754   3.020   4.695   2.658 -1.0369 -1.3886  1.5835
 1764SOL    HW216755   3.156   0.027   2.681  1.1921 -2.8703  2.3952
 1765SOL     OW16756   2.192   1.381   4.342 -0.6550 -0.3438  0.4154
 1765SOL    HW116757   2.132   1.441   4.385  0.5101  0.8667  0.3431
 1765SOL    HW216758   2.239   1.441   4.285 -0.4473  0.5047  1.4739
 1766SOL     OW16759   2.163   2.273   7.398 -0.5104 -0.1180 -1.4071
 1766SOL    HW116760   2.212   2.354   7.384  1.3933 -0.8309  1.1345
 1766SOL    HW216761   2.229   2.235   7.456 -1.2947 -0.5939 -0.8290
 1767SOL     OW16762   3.182   0.910   5.287 -0.0135 -0.4903  0.2299
 1767SOL    HW116763   3.209   0.912   5.195 -0.6129 -0.1286  0.0584
 1767SOL    HW216764   3.114   0.843   5.283 -0.4090  0.0344 -1.7546
 1768SOL     OW16765   3.010   2.195  17.221 -0.6575 -0.2516 -0.3353
 1768SOL    HW116766   2.971   2.119  17.264  1.4762 -1.0954  0.1389
 1768SOL    HW216767   3.012   2.171  17.128  0.3360  0.3231 -0.4626
 1769SOL     OW16768   2.427   0.520   8.725 -0.1730  0.4006 -0.0802
 1769SOL    HW116769   2.423   0.457   8.654 -1.5835  2.1026 -1.5069
 1769SOL    HW216770   2.347   0.484   8.763  0.1157 -0.0778  0.0721
 1770SOL     OW16771   3.200   1.995   7.166  0.5683  0.0966  0.0816
 1770SOL    HW116772   3.245   2.039   7.238  0.9333 -2.5543  1.4611
 1770SOL    HW216773   3.180   1.909   7.201 -2.1360  0.8910  0.5047
 1771SOL     OW16774   0.962   2.943  17.092  0.0651 -0.8685 -0.4948
 1771SOL    HW116775   1.044   2.909  17.130  0.8373 -0.0862 -1.4488
 1771SOL    HW216776   0.976   3.034  17.116 -1.1828 -0.4312 -1.4554
 1772SOL     OW16777   1.233   1.676  17.027 -0.0520  0.7810  0.4132
 1772SOL    HW116778   1.303   1.727  16.988  1.2841 -0.0613  1.7267
 1772SOL    HW216779   1.167   1.673  16.957  0.1551 -1.6551  0.3254
 1773SOL     OW16780   1.413   2.003  13.077  0.0258 -0.2275 -0.3442
 1773SOL    HW116781   1.434   2.004  13.171  1.5700  0.0637 -0.6960
 1773SOL    HW216782   1.502   2.001  13.042  0.0632  1.3143 -0.3384
 1774SOL     OW16783   1.599   1.927   8.021 -0.4693  0.7004  0.0920
 1774SOL    HW116784   1.670   1.903   8.080 -2.0573  0.3640  1.8700
 1774SOL    HW216785   1.535   1.856   8.020 -0.2196  0.4357  2.0710
 1775SOL     OW16786   1.359   4.093   7.092 -0.1704  0.5181  0.6175
 1775SOL    HW116787   1.315   4.031   7.150  1.2994 -1.9244 -0.8634
 1775SOL    HW216788   1.447   4.057   7.083 -0.4544 -0.4017  1.6279
 1776SOL     OW16789   4.175   0.385   8.634  0.2652  0.1973 -0.2019
 1776SOL    HW116790   4.083   0.359   8.633 -0.3860  2.4855  0.8512
 1776SOL    HW216791   4.174   0.437   8.714  1.0917  0.4497 -0.3504
 1777SOL     OW16792   4.062   3.502   2.699  0.7419  0.3229  0.1547
 1777SOL    HW116793   4.107   3.587   2.699  1.4713 -0.0637 -1.6564
 1777SOL    HW216794   4.138   3.447   2.678 -1.7019 -3.2892  0.6961
 1778SOL     OW16795   1.938   1.194   1.775  0.0149  0.2644 -0.1640
 1778SOL    HW116796   2.007   1.174   1.839 -1.1827  0.6097  1.2461
 1778SOL    HW216797   1.945   1.117   1.718  1.7831  0.9529 -0.8646
 1779SOL     OW16798   0.411   3.515   5.582  0.1207 -0.4163  0.4909
 1779SOL    HW116799   0.404   3.554   5.670 -2.5759  0.4524 -0.1343
 1779SOL    HW216800   0.321   3.524   5.551  0.4056 -0.9037 -0.4455
 1780SOL     OW16801   3.492   0.872   5.786  0.7932 -0.1253 -0.6013
 1780SOL    HW116802   3.459   0.941   5.843  1.7309  0.6318 -0.9783
 1780SOL    HW216803   3.411   0.838   5.748  0.5169 -0.4812  0.2936
 1781SOL     OW16804   0.973   1.497   8.434  0.7576  0.9091 -0.0586
 1781SOL    HW116805   1.003   1.434   8.499  0.5985  0.3730 -0.4987
 1781SOL    HW216806   1.039   1.487   8.365  2.1085  3.6398  0.8210
 1782SOL     OW16807   0.965   0.214   1.307  0.3934  0.5022 -0.0826
 1782SOL    HW116808   0.972   0.226   1.402 -1.6422  0.7247  0.0475
 1782SOL    HW216809   0.996   0.295   1.266 -3.4985  1.9253 -0.2634
 1783SOL     OW16810   1.553   2.455  10.454 -0.0182 -0.2711  0.3069
 1783SOL    HW116811   1.621   2.394  10.426  0.8189  0.6425  0.3483
 1783SOL    HW216812   1.482   2.423  10.399 -0.0085 -1.0680  0.7681
 1784SOL     OW16813   2.733   3.022   1.139 -0.0098 -0.7703 -0.1943
 1784SOL    HW116814   2.736   3.059   1.051  2.1032  0.9290  0.5949
 1784SOL    HW216815   2.640   3.006   1.151  0.2337 -2.0417 -0.0133
 1785SOL     OW16816   1.188   3.908   8.178 -0.1843  0.5012 -0.4765
 1785SOL    HW116817   1.262   3.954   8.218 -0.9152  1.4078 -0.1912
 1785SOL    HW216818   1.150   3.867   8.255  2.1940  0.8676  0.8847
 1786SOL     OW16819   3.482   3.645   5.437  0.9791 -0.5400  0.0584
 1786SOL    HW116820   3.519   3.603   5.361 -1.8423 -1.7228 -0.6597
 1786SOL    HW216821   3.417   3.587   5.476 -0.0376  1.5482  1.4987
 1787SOL     OW16822   3.982   3.808  15.960  0.3419  0.4454  0.2223
 1787SOL    HW116823   3.966   3.811  16.054 -0.1528 -1.4750  0.2023
 1787SOL    HW216824   4.034   3.727  15.961 -1.6719 -0.7997  2.4135
 1788SOL     OW16825   0.553   3.646   9.973 -0.6416  0.6453  0.1641
 1788SOL    HW116826   0.554   3.550   9.978 -0.2899  0.5984 -0.7189
 1788SOL    HW216827   0.647   3.665   9.981 -0.0791 -1.2560 -1.8773
 1789SOL     OW16828   0.367   2.985   5.242  0.1986  0.6983  0.4711
 1789SOL    HW116829   0.453   2.942   5.247  0.3438  0.7448 -1.8605
 1789SOL    HW216830   0.328   2.979   5.155 -1.3044  1.5706  1.0799
 1790SOL     OW16831   2.213   2.011   8.422  0.1681 -0.1975  0.3234
 1790SOL    HW116832   2.212   1.998   8.517 -2.3285  1.0571  0.4983
 1790SOL    HW216833   2.186   2.103   8.422 -0.8470 -0.4920 -1.6819
 1791SOL     OW16834   2.971   3.881   2.429 -0.0364  0.4771  0.2539
 1791SOL    HW116835   3.000   3.829   2.354 -0.5635 -0.0736  0.4371
 1791SOL    HW216836   3.036   3.952   2.430 -0.9072  1.3016 -0.8346
 1792SOL     OW16837   0.184   1.382   7.074  0.4739  0.2322  0.7948
 1792SOL    HW116838   0.164   1.317   7.006 -0.6631  1.8916 -0.4598
 1792SOL    HW216839   0.222   1.448   7.016  0.1480 -0.1018  0.1950
 1793SOL     OW16840   3.958   2.179   4.617  0.5166 -0.1836  0.3049
 1793SOL    HW116841   3.975   2.273   4.609  0.7015 -0.2140  0.3208
 1793SOL    HW216842   3.907   2.174   4.698  1.6556  1.6856  1.1685
 1794SOL     OW16843   1.080   1.071   7.031 -0.3505  0.0519 -0.0387
 1794SOL    HW116844   1.122   1.105   6.952  1.3373  0.7291  1.1532
 1794SOL    HW216845   1.156   1.050   7.085 -1.6819  0.4647  1.9895
 1795SOL     OW16846   0.821   3.596   1.921 -0.2195  0.2863 -0.2473
 1795SOL    HW116847   0.763   3.620   1.849  2.2967  0.9981 -2.0681
 1795SOL    HW216848   0.766   3.612   1.998 -0.2176 -0.9654  0.0116
 1796SOL     OW16849   3.329   3.937  14.666 -0.7823 -0.0303  0.0539
 1796SOL    HW116850   3.397   3.889  14.618  1.3893  0.5365  2.5767
 1796SOL    HW216851   3.364   3.947  14.754  1.7421  0.8194 -1.0304
 1797SOL     OW16852   1.550   3.232   1.221  0.4984  0.1294  0.7124
 1797SOL    HW116853   1.552   3.187   1.306  0.5827  0.0466  0.6668
 1797SOL    HW216854   1.571   3.322   1.247 -0.7015  1.3038 -2.4361
 1798SOL     OW16855   4.485   1.278   3.143 -0.0081 -0.0637  0.5381
 1798SOL    HW116856   4.447   1.333   3.076  1.4419 -2.3318 -2.1295
 1798SOL    HW216857   4.430   1.201   3.151  0.9287 -0.7491  0.4188
 1799SOL     OW16858   2.498   1.512   4.501  0.2850 -0.2050  0.1311
 1799SOL    HW116859   2.480   1.477   4.414  4.9702 -2.4577  0.0220
 1799SOL    HW216860   2.587   1.477   4.513  0.7713  0.8160 -0.4448
 1800SOL     OW16861   0.422   0.743   2.594 -0.4417  0.1965 -0.5592
 1800SOL    HW116862   0.348   0.704   2.547 -1.2494  0.8198  0.1872
 1800SOL    HW216863   0.378   0.793   2.663  0.7016 -1.3546  1.2758
 1801SOL     OW16864   3.173   1.169   8.065  0.3183  0.3574 -0.2740
 1801SOL    HW116865   3.099   1.185   8.006  1.9085 -0.9262 -2.6015
 1801SOL    HW216866   3.155   1.084   8.104  0.5730  0.2228 -0.4515
 1802SOL     OW16867   1.943   2.598   4.576 -0.3354  0.0847  0.7543
 1802SOL    HW116868   1.938   2.599   4.671  0.1757  1.4758  0.7702
 1802SOL    HW216869   1.944   2.505   4.555 -2.3356  0.4520 -1.0467
 1803SOL     OW16870   1.733   0.723   7.581 -0.5856  0.4053 -0.1858
 1803SOL    HW116871   1.755   0.816   7.584  2.0227 -0.1887 -0.5199
 1803SOL    HW216872   1.688   0.707   7.664 -0.1742 -0.7583 -0.1769
 1804SOL     OW16873   1.533   2.046  12.054  0.4899  0.3644  0.1694
 1804SOL    HW116874   1.627   2.046  12.067  0.4822  0.5733  0.2166
 1804SOL    HW216875   1.531   1.963  12.005 -1.3784 -0.3709  1.4775
 1805SOL     OW16876   3.196   4.445   6.049 -0.3962 -0.9086  0.3746
 1805SOL    HW116877   3.246   4.374   6.089  1.5193 -1.0263 -2.2325
 1805SOL    HW216878   3.141   4.475   6.122  1.5623  2.5143  0.4498
 1806SOL     OW16879   1.676   1.072  12.250  0.1004 -0.3960  0.3906
 1806SOL    HW116880   1.762   1.042  12.220 -1.0936 -2.3134 -1.0769
 1806SOL    HW216881   1.646   1.139  12.189 -0.8813 -1.7671 -0.6392
 1807SOL     OW16882   3.913   0.636   3.442  0.4360  0.0653  0.4366
 1807SOL    HW116883   3.944   0.550   3.415  2.8540  0.3330  2.3187
 1807SOL    HW216884   3.980   0.685   3.394  0.9140 -0.4706  0.5563
 1808SOL     OW16885   0.535   3.281   6.969 -0.0331 -0.0994  0.4494
 1808SOL    HW116886   0.584   3.218   7.022 -0.8224 -0.6794  0.4906
 1808SOL    HW216887   0.490   3.221   6.909 -1.0026 -0.6061  1.6869
 1809SOL     OW16888   3.115   0.178  15.739  0.2410  0.0174  0.0866
 1809SOL    HW116889   3.207   0.204  15.726  0.4259 -0.2245  0.9745
 1809SOL    HW216890   3.103   0.218  15.825  1.0783  1.4928 -0.4654
 1810SOL     OW16891   2.452   0.416   2.921 -0.4490 -0.4127  0.2699
 1810SOL    HW116892   2.465   0.504   2.956  1.7895  0.9412 -4.0034
 1810SOL    HW216893   2.544   0.387   2.924 -0.5718 -0.5117  3.0060
 1811SOL     OW16894   0.313   1.525  12.314  0.5467 -0.6249 -0.0291
 1811SOL    HW116895   0.345   1.612  12.290  0.5816 -0.5782  0.1796
 1811SOL    HW216896   0.252   1.507  12.243  2.5664 -0.5729 -1.7494
 1812SOL     OW16897   0.534   1.955   2.678 -0.4515 -0.1030 -0.1049
 1812SOL    HW116898   0.541   2.034   2.624 -1.8176 -0.6245 -1.0482
 1812SOL    HW216899   0.611   1.963   2.733  0.1021 -1.7634 -0.6393
 1813SOL     OW16900   3.348   0.014   5.988 -0.2481  0.1502  0.0281
 1813SOL    HW116901   3.428   0.011   5.934 -0.9522  1.0822 -1.0800
 1813SOL    HW216902   3.289   0.013   5.913 -0.1856 -1.9278  0.0134
 1814SOL     OW16903   4.710   1.037   9.498 -0.3530  0.1466 -0.2110
 1814SOL    HW116904   4.661   0.956   9.513 -3.3299  2.0497  0.3444
 1814SOL    HW216905   0.016   1.058   9.587 -1.1107  0.9459 -0.1646
 1815SOL     OW16906   2.299   2.637  13.663 -0.2580  0.5006  0.0442
 1815SOL    HW116907   2.387   2.612  13.635 -0.7235 -2.1960  0.9933
 1815SOL    HW216908   2.289   2.701  13.593  2.5129 -1.1139 -1.8737
 1816SOL     OW16909   1.226   3.701  12.951  0.4322 -0.5870 -0.4230
 1816SOL    HW116910   1.309   3.662  12.925 -0.1088 -1.3763 -0.9675
 1816SOL    HW216911   1.187   3.653  13.024  0.9375 -2.5544 -1.4712
 1817SOL     OW16912   3.341   3.553   2.712 -0.2587 -0.0102 -0.2035
 1817SOL    HW116913   3.263   3.569   2.766  0.5457  0.4242  0.8207
 1817SOL    HW216914   3.338   3.459   2.694 -0.2171  0.5187 -2.9671
 1818SOL     OW16915   0.251   3.230   1.317 -0.0885 -0.1694 -0.0894
 1818SOL    HW116916   0.262   3.311   1.267  1.2926 -1.8376 -2.5155
 1818SOL    HW216917   0.167   3.254   1.354  0.1617  1.4259 -0.5362
 1819SOL     OW16918   0.286   1.580   4.469  0.6882 -0.2734 -0.0865
 1819SOL    HW116919   0.368   1.560   4.515  1.7515 -0.7979 -2.2160
 1819SOL    HW216920   0.313   1.660   4.424  2.2320  0.2812  1.8054
 1820SOL     OW16921   3.683   0.312  13.888 -0.0542 -0.1363 -1.1496
 1820SOL    HW116922   3.770   0.302  13.849 -0.1915  0.1610 -1.5333
 1820SOL    HW216923   3.638   0.361  13.819 -0.3256 -1.5043 -1.9531
 1821SOL     OW16924   2.475   2.408   3.554  0.2204 -0.4006  0.5474
 1821SOL    HW116925   2.560   2.432   3.518  0.6550 -0.6932  1.3676
 1821SOL    HW216926   2.456   2.477   3.618  0.3411 -0.3905  0.5733
 1822SOL     OW16927   3.563   0.136  11.187 -0.4220 -0.2037 -0.1314
 1822SOL    HW116928   3.632   0.116  11.251  0.7498 -1.0884 -1.6793
 1822SOL    HW216929   3.483   0.124  11.239 -0.2128  1.9785  0.7156
 1823SOL     OW16930   2.114   1.882   4.526 -0.4339  0.1980  0.6186
 1823SOL    HW116931   2.062   1.876   4.446  0.4749  0.5909  0.0109
 1823SOL    HW216932   2.153   1.969   4.518  0.0403  0.1775  2.5673
 1824SOL     OW16933   2.102   3.418   1.690  0.1330  0.1940  0.2056
 1824SOL    HW116934   2.160   3.350   1.654 -0.0440  0.1917 -0.0697
 1824SOL    HW216935   2.015   3.381   1.678  1.2853 -3.1433  2.0014
 1825SOL     OW16936   0.868   4.687   4.242  0.3795 -0.3544  0.6584
 1825SOL    HW116937   0.957   4.658   4.221  1.0747 -0.1820  3.4327
 1825SOL    HW216938   0.883   0.059   4.230 -2.9514 -0.2608 -2.6511
 1826SOL     OW16939   2.517   2.623   6.097  0.3894  1.1768  0.0622
 1826SOL    HW116940   2.457   2.670   6.039  0.5935 -1.2242 -2.0975
 1826SOL    HW216941   2.602   2.636   6.055  0.2386 -0.4628 -0.7189
 1827SOL     OW16942   0.761   0.563   2.866 -0.2719  0.4129 -0.2214
 1827SOL    HW116943   0.688   0.625   2.868  0.8497  1.7615 -0.7851
 1827SOL    HW216944   0.816   0.613   2.806  0.9649  0.5300  0.9975
 1828SOL     OW16945   2.091   3.687   3.508  0.0229 -0.0738  0.3060
 1828SOL    HW116946   2.042   3.605   3.518 -2.6093  1.6146  1.2350
 1828SOL    HW216947   2.026   3.740   3.462  1.2372 -1.3963 -3.0101
 1829SOL     OW16948   1.706   2.966   3.652  0.3090  0.8817  0.0602
 1829SOL    HW116949   1.758   3.046   3.645  2.3874 -0.5729 -1.1726
 1829SOL    HW216950   1.626   2.989   3.700  1.0716 -0.7656  2.1246
 1830SOL     OW16951   1.424   1.812   6.484  0.7538  0.2091  0.3201
 1830SOL    HW116952   1.492   1.759   6.526  0.4814 -0.1591  0.2920
 1830SOL    HW216953   1.356   1.800   6.550  0.8348  2.4062  0.7961
 1831SOL     OW16954   1.247   0.713   2.806  0.6960  0.2284 -0.4667
 1831SOL    HW116955   1.304   0.739   2.878  0.2896  0.4082 -0.2075
 1831SOL    HW216956   1.291   0.755   2.732 -0.0497  0.5660 -0.7144
 1832SOL     OW16957   2.410   2.144   6.155 -0.0063 -0.2558  0.4178
 1832SOL    HW116958   2.365   2.227   6.135  0.2929 -0.0034  0.8009
 1832SOL    HW216959   2.411   2.138   6.250 -0.4039 -0.2175  0.4270
 1833SOL     OW16960   3.384   2.526  10.680  0.0317 -0.3252 -0.0732
 1833SOL    HW116961   3.335   2.573  10.748 -0.0892 -1.0478  0.3424
 1833SOL    HW216962   3.348   2.438  10.695 -1.9468  0.6720  1.0316
 1834SOL     OW16963   2.186   1.016   7.188  0.7759  0.1970 -0.2215
 1834SOL    HW116964   2.199   1.077   7.116 -0.0245  1.2552  0.5372
 1834SOL    HW216965   2.235   1.047   7.263 -3.4311  3.9718  0.9330
 1835SOL     OW16966   4.034   3.202   6.254  0.3506  0.2397 -0.0974
 1835SOL    HW116967   3.952   3.246   6.279  0.2563 -0.1450  0.2709
 1835SOL    HW216968   4.015   3.162   6.169  2.2443 -0.4262 -0.2011
 1836SOL     OW16969   3.476   4.316   4.500  0.2729 -0.0715 -0.4387
 1836SOL    HW116970   3.435   4.376   4.437 -1.0115 -0.2547  0.2291
 1836SOL    HW216971   3.452   4.228   4.470  2.5526 -0.7053 -0.3924
 1837SOL     OW16972   2.764   0.709   3.157 -0.5869  0.2424 -0.0847
 1837SOL    HW116973   2.821   0.750   3.092  0.7918  0.3880  1.2005
 1837SOL    HW216974   2.741   0.788   3.207 -0.8359  1.4706 -2.1482
 1838SOL     OW16975   3.485   1.439  14.430  0.8462 -0.2594  0.2710
 1838SOL    HW116976   3.566   1.389  14.440  0.3767 -1.2307 -0.6858
 1838SOL    HW216977   3.471   1.430  14.336 -0.1601  0.2842  0.3709
 1839SOL     OW16978   0.356   1.941   7.154 -0.0067 -0.1831 -0.6254
 1839SOL    HW116979   0.369   1.859   7.106  0.8612 -0.5407  0.2128
 1839SOL    HW216980   0.450   1.954   7.170  0.1995 -1.6370 -0.6027
 1840SOL     OW16981   1.242   3.546  17.594 -0.4883  0.2370 -0.4546
 1840SOL    HW116982   1.301   3.485  17.639  0.3390  0.2008 -1.5700
 1840SOL    HW216983   1.261   3.518  17.504  2.5438 -1.3373  0.6676
 1841SOL     OW16984   1.615   4.074   6.141 -0.4452  0.2276 -0.3881
 1841SOL    HW116985   1.536   4.025   6.165 -0.3735  0.0475 -0.5108
 1841SOL    HW216986   1.571   4.156   6.118 -2.5474  0.0321  2.9759
 1842SOL     OW16987   2.464   2.155  17.075  0.0032 -0.2147 -0.2936
 1842SOL    HW116988   2.559   2.148  17.076  0.0247  0.3365  2.0263
 1842SOL    HW216989   2.435   2.065  17.089  1.9394 -0.1927  4.0484
 1843SOL     OW16990   4.041   2.327  15.431  0.2208  0.6348  0.2238
 1843SOL    HW116991   4.028   2.334  15.336  0.2819  1.6498  0.2884
 1843SOL    HW216992   3.970   2.273  15.464  1.0418  0.9966  2.6041
 1844SOL     OW16993   1.016   0.426  14.754  0.2061  0.3107  0.4775
 1844SOL    HW116994   0.951   0.358  14.772  0.1167  0.0585 -0.7965
 1844SOL    HW216995   1.070   0.413  14.832  1.2394  3.1024  0.2256
 1845SOL     OW16996   2.694   1.750   5.644 -0.3039  0.1550  1.3202
 1845SOL    HW116997   2.665   1.742   5.735 -1.4574  0.3538  0.9624
 1845SOL    HW216998   2.652   1.829   5.609 -1.0786 -0.4199  0.9356
 1846SOL     OW16999   3.402   3.756   4.563 -0.2001 -0.0990  0.1079
 1846SOL    HW117000   3.402   3.727   4.471 -2.3313 -1.3723  0.4969
 1846SOL    HW217001   3.489   3.730   4.594 -0.3837 -1.2542 -0.3252
 1847SOL     OW17002   1.100   0.656  14.907  0.3249 -0.2960  0.5561
 1847SOL    HW117003   1.154   0.577  14.918 -0.5159 -1.1959 -1.8161
 1847SOL    HW217004   1.036   0.642  14.977  0.3005  0.7096  0.7264
 1848SOL     OW17005   0.255   0.168  16.876 -0.1698  0.5772  0.3208
 1848SOL    HW117006   0.271   0.208  16.791 -2.2592 -0.9906 -0.8164
 1848SOL    HW217007   0.305   0.086  16.872  1.2653  1.5365 -1.1782
 1849SOL     OW17008   3.596   2.636   8.082  0.5894  1.1036  0.2231
 1849SOL    HW117009   3.552   2.691   8.147 -2.8022 -2.5223  1.0328
 1849SOL    HW217010   3.681   2.680   8.087  2.0936 -2.0661  2.8797
 1850SOL     OW17011   1.316   1.488  13.838 -0.1604 -0.0384 -0.7773
 1850SOL    HW117012   1.233   1.464  13.796  0.6335 -2.1305 -1.1074
 1850SOL    HW217013   1.367   1.412  13.810 -2.1704 -1.9276  0.6360
 1851SOL     OW17014   0.176   3.870   7.615  0.3179 -0.4400  0.2046
 1851SOL    HW117015   0.091   3.854   7.658 -0.6895 -0.5615 -1.8622
 1851SOL    HW217016   0.171   3.962   7.590 -1.0059 -0.6026 -0.1192
 1852SOL     OW17017   0.144   1.940   8.786 -0.4257 -0.2855  0.1340
 1852SOL    HW117018   0.191   1.912   8.864  1.2034  0.6189 -0.4997
 1852SOL    HW217019   0.156   2.035   8.788  2.0969 -0.6213  0.7113
 1853SOL     OW17020   2.501   2.843   2.789 -0.3237 -0.4881  0.9971
 1853SOL    HW117021   2.529   2.783   2.720  0.1833  2.1438 -1.0588
 1853SOL    HW217022   2.419   2.799   2.812 -1.3295  0.8050 -0.1278
 1854SOL     OW17023   0.894   0.858   8.902  0.3637 -0.5280 -0.1998
 1854SOL    HW117024   0.801   0.850   8.884  0.5198 -0.1046 -1.2036
 1854SOL    HW217025   0.937   0.871   8.817  0.0745 -2.4398 -0.6412
 1855SOL     OW17026   1.263   3.352  12.000 -0.2436 -0.3921  0.8578
 1855SOL    HW117027   1.202   3.308  11.941  0.1440 -0.0072  0.1587
 1855SOL    HW217028   1.275   3.295  12.075  1.1323 -3.3451 -1.6024
 1856SOL     OW17029   0.917   3.954   9.931  0.3909  0.2935  0.2957
 1856SOL    HW117030   0.922   3.867   9.891  1.2391  1.1107 -1.3617
 1856SOL    HW217031   0.873   3.928  10.012 -0.8755  0.3279 -0.3913
 1857SOL     OW17032   3.975   1.778   4.331  0.1249 -0.3987 -0.4595
 1857SOL    HW117033   3.933   1.737   4.255 -0.0003 -2.8650  0.9164
 1857SOL    HW217034   4.051   1.814   4.284  0.7671  1.5868  2.1581
 1858SOL     OW17035   2.817   3.897   4.438 -0.1740  0.5003 -0.1075
 1858SOL    HW117036   2.835   3.964   4.372 -0.9455  1.2321  0.4250
 1858SOL    HW217037   2.900   3.852   4.451 -1.6659 -2.8036 -2.1366
 1859SOL     OW17038   1.949   2.800   2.566  0.2121 -0.0785 -0.0557
 1859SOL    HW117039   2.009   2.820   2.493  0.6557  0.9516  0.5991
 1859SOL    HW217040   1.887   2.872   2.554 -0.0246 -0.8162 -3.4041
 1860SOL     OW17041   0.922   1.187   4.725 -0.0083 -0.1036  0.0629
 1860SOL    HW117042   0.995   1.249   4.717  1.1303 -1.5258 -0.6486
 1860SOL    HW217043   0.847   1.246   4.726  1.7147  2.0863  0.5140
 1861SOL     OW17044   1.449   0.652   7.023  0.0766 -0.1502 -0.1036
 1861SOL    HW117045   1.535   0.683   7.049 -1.4411  3.0833  1.0214
 1861SOL    HW217046   1.430   0.619   7.111 -0.3715  1.1877  0.2955
 1862SOL     OW17047   3.379   4.175   2.207 -0.0332  0.4074  0.7343
 1862SOL    HW117048   3.338   4.224   2.278  1.6122 -1.9845  3.3148
 1862SOL    HW217049   3.466   4.214   2.199 -0.3072  0.4959 -1.8960
 1863SOL     OW17050   3.528   2.929   5.710 -0.2174 -0.0672 -0.3506
 1863SOL    HW117051   3.542   2.995   5.641 -0.4779 -0.2123 -0.5400
 1863SOL    HW217052   3.435   2.946   5.725 -0.3943 -0.8963 -0.5338
 1864SOL     OW17053   1.246   0.024   2.795  0.7447  0.7226  0.1832
 1864SOL    HW117054   1.298   4.672   2.825 -0.3153 -0.3411 -0.5933
 1864SOL    HW217055   1.159   4.711   2.780  2.2328 -3.3054  1.0012
 1865SOL     OW17056   4.537   2.751   6.887 -0.8394 -0.7976  0.4663
 1865SOL    HW117057   4.510   2.739   6.979  3.1448 -1.3246  1.5602
 1865SOL    HW217058   4.452   2.775   6.849 -0.6839 -1.9722 -0.5916
 1866SOL     OW17059   2.232   1.144   6.922  0.5923  0.1499  0.2639
 1866SOL    HW117060   2.168   1.116   6.857  0.7693  0.1716  0.0793
 1866SOL    HW217061   2.307   1.147   6.862  0.3340 -0.2353 -0.0824
 1867SOL     OW17062   0.652   1.666  12.201  0.2387 -0.3152  0.4765
 1867SOL    HW117063   0.589   1.721  12.247 -1.7316 -0.9509 -1.4692
 1867SOL    HW217064   0.632   1.574  12.218  2.5328 -0.9572 -0.3110
 1868SOL     OW17065   2.837   1.512  12.635  0.1201  0.1576  0.6901
 1868SOL    HW117066   2.776   1.474  12.699  0.5141  0.8118  1.4492
 1868SOL    HW217067   2.912   1.455  12.655  1.1733  0.9515 -0.9893
 1869SOL     OW17068   0.724   0.083   8.154 -0.2904 -0.5430 -0.3673
 1869SOL    HW117069   0.759   0.006   8.197 -3.2829 -1.3785  0.5859
 1869SOL    HW217070   0.754   0.072   8.063 -2.4944  2.6488 -1.4713
 1870SOL     OW17071   2.969   4.504  13.167  0.4661  0.1009  0.5952
 1870SOL    HW117072   2.892   4.549  13.132  1.8696  1.2389 -1.0114
 1870SOL    HW217073   2.985   4.423  13.119 -3.3273  0.4626 -1.3336
 1871SOL     OW17074   3.778   3.173   8.547 -0.8233 -0.3808 -0.2957
 1871SOL    HW117075   3.797   3.170   8.454 -2.0718 -1.5989 -0.5072
 1871SOL    HW217076   3.688   3.142   8.545 -1.0634  0.3199 -0.3416
 1872SOL     OW17077   0.824   2.125   8.254  0.8052 -0.8234  0.2959
 1872SOL    HW117078   0.783   2.117   8.340  0.3847 -0.2738  0.1453
 1872SOL    HW217079   0.902   2.175   8.277 -1.0591  2.5512 -0.6948
 1873SOL     OW17080   2.712   3.734   7.995  0.2542 -0.9984  0.4106
 1873SOL    HW117081   2.704   3.806   7.932  1.6155 -0.9235  0.3071
 1873SOL    HW217082   2.620   3.709   8.002 -0.2065  0.3854 -0.5467
 1874SOL     OW17083   4.032   1.551   2.460 -0.4676 -0.1832  0.1186
 1874SOL    HW117084   3.950   1.600   2.454 -0.1310  0.6058  1.8348
 1874SOL    HW217085   4.084   1.621   2.499 -1.5662  1.3389 -1.1453
 1875SOL     OW17086   2.196   0.908   0.488  0.0541  0.3756  0.1628
 1875SOL    HW117087   2.159   0.992   0.514 -0.3442 -0.1225  1.2255
 1875SOL    HW217088   2.274   0.900   0.543  0.1658 -2.7531 -0.4545
 1876SOL     OW17089   3.115   3.670   6.529  0.3295 -0.2064 -0.1518
 1876SOL    HW117090   3.162   3.753   6.522 -0.5147  0.2984  0.0939
 1876SOL    HW217091   3.040   3.700   6.579  0.3837  0.2757 -0.3627
 1877SOL     OW17092   2.852   2.168   3.164  0.3162  0.2185 -0.5146
 1877SOL    HW117093   2.854   2.072   3.160  0.5259  0.1860  0.2167
 1877SOL    HW217094   2.818   2.184   3.077 -0.3967 -1.8837 -0.6352
 1878SOL     OW17095   1.312   1.019  16.008 -0.4641 -0.6225  0.1357
 1878SOL    HW117096   1.337   0.998  15.918 -0.9256  0.7450 -0.3160
 1878SOL    HW217097   1.352   0.947  16.056 -1.1642 -1.1509 -0.0681
 1879SOL     OW17098   1.383   4.233   8.671 -0.6553  0.0526  0.1570
 1879SOL    HW117099   1.377   4.221   8.765  0.9127  0.2114  0.2772
 1879SOL    HW217100   1.474   4.204   8.664 -0.3645  1.4792 -2.2160
 1880SOL     OW17101   0.686   4.392  14.201  0.2517  0.0232 -0.1760
 1880SOL    HW117102   0.726   4.468  14.243 -1.1964 -0.1727  1.5234
 1880SOL    HW217103   0.690   4.322  14.266  3.6308 -0.4359 -0.8605
 1881SOL     OW17104   2.880   0.792  12.332  0.3089 -0.2742  0.0231
 1881SOL    HW117105   2.861   0.738  12.408  0.4788  0.5455  0.6435
 1881SOL    HW217106   2.839   0.873  12.360  0.9373  0.1703 -0.3276
 1882SOL     OW17107   3.158   2.242   7.576  0.2875  0.0023 -0.8506
 1882SOL    HW117108   3.228   2.276   7.520 -0.4314  0.6827 -1.3396
 1882SOL    HW217109   3.082   2.274   7.527  0.6592  1.0970 -0.7136
 1883SOL     OW17110   4.675   4.127   1.736  0.1035 -0.5933  0.8952
 1883SOL    HW117111   0.033   4.092   1.696  0.8890 -0.0551  1.9803
 1883SOL    HW217112   4.679   4.213   1.696  0.0504 -1.6387 -1.3439
 1884SOL     OW17113   2.358   3.624  15.225  0.3240  0.2189  0.3179
 1884SOL    HW117114   2.420   3.686  15.262 -0.3869  0.9632  0.2705
 1884SOL    HW217115   2.414   3.573  15.166 -0.4986  0.7320 -0.9064
 1885SOL     OW17116   0.615   0.550   0.944  1.2442  0.4134  0.1955
 1885SOL    HW117117   0.588   0.641   0.957  0.3118  0.2570 -0.5909
 1885SOL    HW217118   0.564   0.512   1.015 -1.6943  0.4434 -1.8720
 1886SOL     OW17119   4.021   3.152   2.538  0.2836  0.3082 -0.6457
 1886SOL    HW117120   4.064   3.149   2.624  0.3773  0.3501 -0.6914
 1886SOL    HW217121   4.087   3.164   2.470 -0.4904  1.3598 -1.2157
 1887SOL     OW17122   1.304   4.377   4.708 -0.1762  0.5036 -0.0616
 1887SOL    HW117123   1.212   4.400   4.719 -0.9177 -1.3659 -2.2844
 1887SOL    HW217124   1.303   4.296   4.759  0.7290 -0.1676 -1.1001
 1888SOL     OW17125   4.401   0.990  16.518  0.2637  0.2619  0.3996
 1888SOL    HW117126   4.494   0.980  16.499  0.0451  0.2694 -0.6815
 1888SOL    HW217127   4.384   1.082  16.496 -0.3569  0.7075  2.7641
 1889SOL     OW17128   3.355   3.331   0.668  0.4990 -0.2156 -0.2146
 1889SOL    HW117129   3.266   3.338   0.634  0.7881  0.2984 -0.8836
 1889SOL    HW217130   3.336   3.295   0.754  0.8272 -0.9916 -0.4591
 1890SOL     OW17131   2.343   3.638   3.348  0.0704 -0.2351 -0.2124
 1890SOL    HW117132   2.266   3.590   3.378 -0.0996  0.6289  0.7177
 1890SOL    HW217133   2.400   3.565   3.322  0.3683 -1.0208  2.6965
 1891SOL     OW17134   2.621   4.532  13.285  0.0275  0.5813 -0.2233
 1891SOL    HW117135   2.668   4.614  13.266 -0.0632  0.9231  1.0536
 1891SOL    HW217136   2.599   4.551  13.376 -0.4903 -2.4685  0.2728
 1892SOL     OW17137   3.527   0.270   6.594  0.1745  0.3050 -0.2620
 1892SOL    HW117138   3.500   0.178   6.600  0.9160  0.2428  2.0556
 1892SOL    HW217139   3.510   0.286   6.501 -1.2434  0.1733 -0.0240
 1893SOL     OW17140   0.446   2.738   7.205 -0.4710  0.1563  0.5883
 1893SOL    HW117141   0.435   2.830   7.226  0.1859  0.6826 -1.3392
 1893SOL    HW217142   0.462   2.704   7.292  2.0246  1.2336  0.5485
 1894SOL     OW17143   4.465   0.222   7.443 -0.3262  0.4456 -0.9059
 1894SOL    HW117144   4.510   0.186   7.366  0.2777 -0.4024 -0.1493
 1894SOL    HW217145   4.372   0.215   7.423 -0.8072  2.4498  0.6078
 1895SOL     OW17146   3.726   4.598   5.410 -0.0440 -0.2456  0.0073
 1895SOL    HW117147   3.815   4.590   5.443  0.4625  0.4449 -1.2027
 1895SOL    HW217148   3.734   4.675   5.354 -1.4860  0.0077  0.1353
 1896SOL     OW17149   1.031   0.573   6.816  0.3025 -0.0984 -0.1707
 1896SOL    HW117150   0.959   0.540   6.870  1.3172 -1.7676  0.1459
 1896SOL    HW217151   0.989   0.606   6.737  1.8470 -2.1031 -1.8219
 1897SOL     OW17152   2.830   2.592  17.600 -0.4232  0.0987  0.4600
 1897SOL    HW117153   2.804   2.500  17.591 -0.6916 -0.0570  2.8386
 1897SOL    HW217154   2.823   2.590   0.005  0.4889  1.5811  0.5581
 1898SOL     OW17155   2.546   2.674   3.939  0.3095 -0.1903  0.3231
 1898SOL    HW117156   2.529   2.600   3.997 -0.3356 -0.4262 -0.1624
 1898SOL    HW217157   2.584   2.731   4.006  0.1980 -4.1637  3.7283
 1899SOL     OW17158   3.774   4.095   8.400  0.7960  0.0312  0.5984
 1899SOL    HW117159   3.692   4.105   8.351  1.4531  1.8607 -0.1230
 1899SOL    HW217160   3.746   4.028   8.462  0.5520  0.9324  1.4624
 1900SOL     OW17161   0.644   4.371   7.955  0.3827 -0.0144 -0.3698
 1900SOL    HW117162   0.558   4.399   7.924  0.8222  1.7765  0.0565
 1900SOL    HW217163   0.619   4.309   8.023  1.3400  0.8294  0.7374
 1901SOL     OW17164   1.408   0.306   7.362  0.1581 -0.2236  0.4414
 1901SOL    HW117165   1.420   0.216   7.332  0.7360  0.2996 -0.8907
 1901SOL    HW217166   1.438   0.297   7.453  2.7087 -0.3955 -0.4065
 1902SOL     OW17167   3.111   0.085   6.650  0.0572  0.0429  0.5689
 1902SOL    HW117168   3.196   0.043   6.652  0.5159  0.7789 -2.3034
 1902SOL    HW217169   3.124   0.144   6.724 -3.0469  3.0227 -1.2211
 1903SOL     OW17170   3.163   0.017   5.777 -0.2809 -0.2790  0.4218
 1903SOL    HW117171   3.073   4.709   5.767  0.4683 -2.0444 -0.9580
 1903SOL    HW217172   3.142   0.100   5.821  0.4312 -0.3637  0.9261
 1904SOL     OW17173   1.865   3.596   6.802  0.0774  0.1104 -0.0107
 1904SOL    HW117174   1.891   3.562   6.887  0.2708 -0.1740 -0.1856
 1904SOL    HW217175   1.853   3.511   6.760  0.6173  1.1256 -2.2078
 1905SOL     OW17176   1.991   1.679  11.731  0.7637  0.3513 -0.3204
 1905SOL    HW117177   1.923   1.718  11.676 -0.2843 -0.9520  0.0358
 1905SOL    HW217178   2.067   1.720  11.690 -0.4813  0.4183 -2.5289
 1906SOL     OW17179   0.323   2.806   1.822  0.0377 -0.5532 -0.2537
 1906SOL    HW117180   0.259   2.830   1.755  0.4045  0.6629 -0.1662
 1906SOL    HW217181   0.381   2.864   1.771 -0.6907  0.3181 -0.0959
 1907SOL     OW17182   3.930   1.999   8.794  0.0155 -0.6910  0.0164
 1907SOL    HW117183   3.857   2.059   8.776  0.6004 -0.6100 -1.9829
 1907SOL    HW217184   3.917   1.967   8.884  2.4774  0.2119  0.6796
 1908SOL     OW17185   0.183   3.566   8.211 -0.3495 -0.4183 -0.7367
 1908SOL    HW117186   0.274   3.544   8.191  0.2351  2.5853 -1.3880
 1908SOL    HW217187   0.186   3.548   8.305  1.0004 -0.5786 -0.8124
 1909SOL     OW17188   1.371   4.541  14.501 -0.1316  0.3520 -0.0901
 1909SOL    HW117189   1.363   4.456  14.544 -1.1510  0.8171  0.6412
 1909SOL    HW217190   1.296   4.588  14.537  0.0211  0.7658 -0.3148
 1910SOL     OW17191   1.556   2.405   3.973  0.3052  0.4844 -0.2580
 1910SOL    HW117192   1.533   2.485   3.925  0.2212 -0.4796 -1.8172
 1910SOL    HW217193   1.499   2.410   4.049  1.3084  0.1127  0.5211
 1911SOL     OW17194   3.031   1.989   5.021 -0.1624  0.2479  0.5597
 1911SOL    HW117195   3.037   2.044   5.099 -0.6761  1.1367 -0.0379
 1911SOL    HW217196   3.094   2.042   4.972  0.9109  1.3287  3.1211
 1912SOL     OW17197   3.340   2.412   8.156  0.2865 -0.1331 -0.2293
 1912SOL    HW117198   3.297   2.470   8.093 -0.8252 -0.4636  0.2445
 1912SOL    HW217199   3.293   2.331   8.137 -0.5017  0.4171 -0.5733
 1913SOL     OW17200   3.625   3.166   2.603  0.5676  0.2048 -0.3751
 1913SOL    HW117201   3.635   3.072   2.612  0.2972  0.0680 -1.4288
 1913SOL    HW217202   3.582   3.173   2.688 -2.3576 -2.1923 -1.6396
 1914SOL     OW17203   0.803   4.114   2.692 -0.1801  0.3662 -0.2753
 1914SOL    HW117204   0.764   4.029   2.710  1.9841  0.0813  3.0855
 1914SOL    HW217205   0.739   4.173   2.653 -1.1143  0.8316  1.9565
 1915SOL     OW17206   0.287   1.510   1.429  0.4982 -0.0524 -0.0836
 1915SOL    HW117207   0.253   1.467   1.507  2.3223  1.5139  1.5631
 1915SOL    HW217208   0.211   1.564   1.408  1.3551  1.3994  0.5748
 1916SOL     OW17209   0.388   1.873   5.513 -0.8331  0.3680  0.2105
 1916SOL    HW117210   0.416   1.782   5.499 -0.3552  0.6512 -0.7021
 1916SOL    HW217211   0.356   1.890   5.424  1.4704 -0.6704 -0.8033
 1917SOL     OW17212   0.560   0.859  13.541  0.6344 -0.4566  0.2534
 1917SOL    HW117213   0.512   0.861  13.458  0.1924 -0.8590  0.4996
 1917SOL    HW217214   0.506   0.834  13.616 -2.4048  3.8677 -0.5278
 1918SOL     OW17215   1.394   2.246   7.830  0.2316  0.3656 -0.3319
 1918SOL    HW117216   1.411   2.254   7.924 -0.8215  0.6122 -0.1647
 1918SOL    HW217217   1.328   2.314   7.816  0.9977  1.4125  1.2043
 1919SOL     OW17218   3.776   3.991  16.010 -0.0733 -0.5171 -0.1744
 1919SOL    HW117219   3.848   3.949  15.964 -0.7511 -1.4820 -0.3384
 1919SOL    HW217220   3.731   4.034  15.937 -3.1334  1.5229  2.9500
 1920SOL     OW17221   1.134   3.841   6.950 -0.3001 -0.0819  0.0148
 1920SOL    HW117222   1.065   3.901   6.979  0.2644  0.5479  0.0762
 1920SOL    HW217223   1.070   3.800   6.892 -1.2783 -0.4401  1.3477
 1921SOL     OW17224   3.408   2.013   9.169 -0.5447 -0.2195 -0.0684
 1921SOL    HW117225   3.351   2.088   9.189 -2.4807 -1.9325  0.7708
 1921SOL    HW217226   3.475   2.062   9.122 -0.6145 -0.8364 -0.8195
 1922SOL     OW17227   4.348   3.834   5.484  0.6301  0.1114 -0.0573
 1922SOL    HW117228   4.273   3.795   5.530  1.1878 -1.5956 -0.6070
 1922SOL    HW217229   4.337   3.927   5.506 -1.0933 -0.1832  0.3543
 1923SOL     OW17230   1.631   4.721   3.487 -0.4193 -0.1237  0.2405
 1923SOL    HW117231   1.636   0.079   3.435  1.4518 -0.0836  0.4745
 1923SOL    HW217232   1.708   4.666   3.473 -1.2096 -0.7799 -1.5992
 1924SOL     OW17233   0.211   3.604  14.312 -0.2647 -0.5763 -0.2698
 1924SOL    HW117234   0.273   3.669  14.344 -0.1012 -0.7142 -0.3033
 1924SOL    HW217235   0.267   3.527  14.324 -0.8138 -0.8245  0.6663
 1925SOL     OW17236   4.271   2.899   2.775 -0.9559 -0.1291  0.0202
 1925SOL    HW117237   4.233   2.812   2.788 -0.6696 -0.2326  0.1573
 1925SOL    HW217238   4.360   2.873   2.799 -1.7916 -2.6690  0.3277
 1926SOL     OW17239   1.685   1.447   6.367  0.5504 -0.3447  0.1223
 1926SOL    HW117240   1.683   1.497   6.449  0.5491 -1.0233  0.5356
 1926SOL    HW217241   1.771   1.471   6.333  0.2211 -0.0843 -0.5069
 1927SOL     OW17242   3.307   4.375   2.399  0.1896  0.2546  0.0237
 1927SOL    HW117243   3.299   4.428   2.320 -2.5531  1.0516  0.8635
 1927SOL    HW217244   3.354   4.437   2.454  0.6597 -0.5451  0.5378
 1928SOL     OW17245   0.472   3.118  15.056  0.3885 -0.0068 -0.4168
 1928SOL    HW117246   0.532   3.125  15.131 -0.8265  1.6049  0.3997
 1928SOL    HW217247   0.404   3.066  15.098 -0.5647  0.8742 -0.8753
 1929SOL     OW17248   1.659   4.289   7.365  0.4236 -0.1124  0.9646
 1929SOL    HW117249   1.708   4.268   7.445  2.4210 -2.0311 -0.7351
 1929SOL    HW217250   1.574   4.303   7.406 -0.6607  0.8912 -1.6497
 1930SOL     OW17251   2.029   3.886   8.348  0.1069  0.0773  0.3881
 1930SOL    HW117252   1.946   3.842   8.330 -1.3048  2.5693  0.7536
 1930SOL    HW217253   2.052   3.852   8.435  1.1079  1.6983  0.7623
 1931SOL     OW17254   1.571   0.637   5.547  0.6022  1.0496  0.0008
 1931SOL    HW117255   1.477   0.636   5.562  0.3187  3.3231 -1.6239
 1931SOL    HW217256   1.578   0.586   5.466 -0.6089  0.3492  0.3346
 1932SOL     OW17257   0.277   0.124  15.565 -0.2668 -0.1856  0.1866
 1932SOL    HW117258   0.296   0.103  15.657 -2.0627 -2.3510  0.0559
 1932SOL    HW217259   0.314   0.212  15.561 -0.8499  0.0452 -0.1068
 1933SOL     OW17260   3.966   0.734  12.076  0.2110  0.4629  0.5147
 1933SOL    HW117261   4.021   0.671  12.121  0.4675 -0.4317 -1.0470
 1933SOL    HW217262   3.977   0.816  12.125  1.1159 -0.2870  1.5288
 1934SOL     OW17263   0.994   3.802   2.221 -0.3431  0.1576 -0.0288
 1934SOL    HW117264   0.909   3.812   2.178 -0.9125  0.0536  1.0749
 1934SOL    HW217265   0.988   3.880   2.276 -1.8353 -0.3122  0.4856
 1935SOL     OW17266   2.082   3.429   5.034  0.9146  0.1603  0.3484
 1935SOL    HW117267   2.006   3.461   5.083  0.0327  0.3350 -1.1371
 1935SOL    HW217268   2.136   3.506   5.052  0.1486  0.5628  0.9677
 1936SOL     OW17269   0.230   2.950   8.554 -0.2951  0.2094 -0.1358
 1936SOL    HW117270   0.178   2.893   8.496  0.2034 -0.7939  0.4009
 1936SOL    HW217271   0.155   2.998   8.588  0.9331  0.7065  1.8361
 1937SOL     OW17272   2.612   0.314   4.361 -0.4330 -0.1041  0.3149
 1937SOL    HW117273   2.648   0.326   4.449 -2.4023  3.5663  0.6233
 1937SOL    HW217274   2.601   0.219   4.372  0.1185 -0.4573 -2.1761
 1938SOL     OW17275   1.875   0.832   4.175  0.1797  0.0029 -0.1404
 1938SOL    HW117276   1.969   0.837   4.159 -0.5498  1.1966 -3.8921
 1938SOL    HW217277   1.865   0.771   4.249  2.7444 -0.6691 -0.3457
 1939SOL     OW17278   2.027   3.968  13.848 -0.2137 -0.2109 -0.4219
 1939SOL    HW117279   1.985   3.886  13.872  0.4537 -0.2205  0.6939
 1939SOL    HW217280   2.045   4.002  13.936 -1.4612 -1.1835  0.1992
 1940SOL     OW17281   4.408   4.406   7.382 -0.0359 -0.3561  0.1138
 1940SOL    HW117282   4.385   4.350   7.308 -3.5195 -0.4625  1.2494
 1940SOL    HW217283   4.467   4.346   7.428 -1.2004 -2.0985 -0.6643
 1941SOL     OW17284   2.477   3.797  11.069  0.2626  0.2123 -0.1944
 1941SOL    HW117285   2.438   3.828  10.987  0.2148  0.9270  0.0975
 1941SOL    HW217286   2.553   3.856  11.070  0.6222 -0.2449 -0.4596
 1942SOL     OW17287   4.352   0.798   9.908 -0.2215 -0.6422  0.5239
 1942SOL    HW117288   4.415   0.846   9.963 -2.7589  2.1544  0.9669
 1942SOL    HW217289   4.393   0.711   9.915  0.2960 -0.3036  1.9044
 1943SOL     OW17290   3.803   3.504  10.735  0.3582 -0.0371 -0.4728
 1943SOL    HW117291   3.835   3.432  10.789 -0.6327  0.9538  1.4369
 1943SOL    HW217292   3.870   3.567  10.763 -1.3126  1.3751  0.3413
 1944SOL     OW17293   1.408   2.836   6.787  0.3788 -0.2916  0.0992
 1944SOL    HW117294   1.398   2.930   6.801  1.8074  0.1275 -1.7151
 1944SOL    HW217295   1.319   2.802   6.787 -0.0187  0.7536 -0.4208
 1945SOL     OW17296   3.832   4.188   6.840  0.4096  0.1818 -0.9270
 1945SOL    HW117297   3.886   4.157   6.912  0.9535  1.1150 -0.9382
 1945SOL    HW217298   3.820   4.280   6.861 -0.8179  0.3650 -2.3866
 1946SOL     OW17299   2.288   0.720   2.612  0.0268 -0.2613  0.0368
 1946SOL    HW117300   2.379   0.705   2.637  0.3818  2.1680  0.2621
 1946SOL    HW217301   2.254   0.765   2.690 -1.8023  1.3540 -1.6939
 1947SOL     OW17302   4.639   2.301   9.086  0.4998  0.5440 -0.0178
 1947SOL    HW117303   4.663   2.391   9.106  2.4877  0.0745 -0.2457
 1947SOL    HW217304   4.699   2.282   9.013  0.5774 -1.4502  0.5806
 1948SOL     OW17305   2.250   1.636   4.649  0.0488 -0.2710 -0.0591
 1948SOL    HW117306   2.173   1.636   4.592 -1.4016  0.1960  1.9150
 1948SOL    HW217307   2.321   1.601   4.595  1.3208  1.2662  0.6221
 1949SOL     OW17308   4.577   4.511   6.721  0.0859 -0.3389 -0.5411
 1949SOL    HW117309   4.571   4.501   6.816 -0.7531 -1.0340 -0.6695
 1949SOL    HW217310   4.630   4.434   6.701  0.8569  0.4535 -1.5678
 1950SOL     OW17311   0.982   4.078   6.969  0.2714 -0.1313  0.0518
 1950SOL    HW117312   0.954   4.081   6.877  1.0906 -2.5775 -0.2922
 1950SOL    HW217313   0.906   4.051   7.019 -0.7048 -0.3084 -1.5163
 1951SOL     OW17314   1.276   0.544  14.424 -0.2800  0.2706 -0.0336
 1951SOL    HW117315   1.256   0.629  14.462  0.7617 -0.6553  2.5539
 1951SOL    HW217316   1.225   0.486  14.481 -0.3635 -0.4286 -0.8137
 1952SOL     OW17317   2.299   3.491   5.818 -0.3274  0.2052  0.4892
 1952SOL    HW117318   2.256   3.454   5.741  0.5174  0.0495  0.1007
 1952SOL    HW217319   2.327   3.409   5.857  0.6004 -0.5282 -1.7573
 1953SOL     OW17320   0.672   2.593   6.759 -0.8953 -0.3603  0.3070
 1953SOL    HW117321   0.640   2.675   6.722  2.0976  1.3002  1.3685
 1953SOL    HW217322   0.594   2.544   6.784 -0.7429 -0.5293  0.4593
 1954SOL     OW17323   0.823   3.667   4.815  0.5102 -0.4908 -0.7808
 1954SOL    HW117324   0.918   3.682   4.813  0.5409 -0.2213  2.0807
 1954SOL    HW217325   0.812   3.604   4.744 -1.1597 -3.1369  1.8353
 1955SOL     OW17326   0.687   4.243   5.710 -0.6906  0.3852  0.2405
 1955SOL    HW117327   0.621   4.209   5.650 -1.0406 -0.3359  1.0226
 1955SOL    HW217328   0.641   4.244   5.794 -0.0371 -1.1352  0.6219
 1956SOL     OW17329   1.051   2.121   4.634  0.1039  0.4235  0.1737
 1956SOL    HW117330   1.032   2.042   4.685  0.2224 -0.0742 -0.5554
 1956SOL    HW217331   1.101   2.176   4.695  1.1086 -2.2899  1.7954
 1957SOL     OW17332   2.534   4.590  14.672  0.4512 -0.6130  0.9312
 1957SOL    HW117333   2.452   4.594  14.721  1.7265 -1.9340  3.1440
 1957SOL    HW217334   2.600   4.577  14.740 -0.9910  1.3801  2.7101
 1958SOL     OW17335   4.401   1.270   5.998 -0.4001 -0.1226  0.5861
 1958SOL    HW117336   4.473   1.273   6.061 -1.5687 -0.1384  1.9052
 1958SOL    HW217337   4.445   1.327   5.934 -2.1501  0.8455  0.2546
 1959SOL     OW17338   0.470   3.997   9.767 -0.2797 -0.0207 -0.6116
 1959SOL    HW117339   0.562   4.011   9.743 -0.2118  0.1768 -0.2395
 1959SOL    HW217340   0.425   4.081   9.755  0.5165  0.4696 -0.1592
 1960SOL     OW17341   4.145   4.330   6.057  0.1136 -0.2467 -0.0166
 1960SOL    HW117342   4.162   4.264   6.125 -0.1530  0.1566  0.4474
 1960SOL    HW217343   4.053   4.357   6.061  0.4783  0.6764  2.2603
 1961SOL     OW17344   4.697   2.614   7.884 -0.0984  0.2621  0.0871
 1961SOL    HW117345   4.624   2.571   7.928 -0.3684  0.4914 -0.1411
 1961SOL    HW217346   0.048   2.552   7.896  1.7720  2.1807 -1.5306
 1962SOL     OW17347   1.904   3.838   7.353 -0.1417 -0.3372 -0.2642
 1962SOL    HW117348   1.849   3.770   7.314 -0.4154 -0.8523  0.9973
 1962SOL    HW217349   1.908   3.900   7.280  1.6401  2.4201  2.1655
 1963SOL     OW17350   2.349   0.795  10.789 -0.4265 -1.2396  0.2759
 1963SOL    HW117351   2.361   0.703  10.813 -1.5871 -0.4219  3.9130
 1963SOL    HW217352   2.255   0.787  10.768 -0.6107 -0.5229  0.8625
 1964SOL     OW17353   4.046   2.718   5.396  0.4178  0.2167  0.5519
 1964SOL    HW117354   4.020   2.809   5.378 -0.3496 -0.2379 -0.6754
 1964SOL    HW217355   3.983   2.665   5.347  0.3179 -0.9823  2.0121
 1965SOL     OW17356   0.414   0.301   8.224  0.2072 -0.4196  0.2355
 1965SOL    HW117357   0.413   0.210   8.256  0.7631 -0.6067 -0.2821
 1965SOL    HW217358   0.506   0.314   8.203 -0.3990 -0.1601 -2.2591
 1966SOL     OW17359   4.341   3.548  16.894  0.7169 -0.3881 -0.6621
 1966SOL    HW117360   4.283   3.619  16.920  1.3903 -1.0929  2.7210
 1966SOL    HW217361   4.426   3.592  16.891 -0.7305  2.1166 -4.8234
 1967SOL     OW17362   1.832   3.003   5.497  0.3806  0.3656  0.3811
 1967SOL    HW117363   1.781   2.930   5.533  0.4805  0.5140  0.8252
 1967SOL    HW217364   1.869   2.954   5.423  1.6077 -0.5322  1.5854
 1968SOL     OW17365   0.565   4.194   8.864  0.4723  0.5186 -0.4170
 1968SOL    HW117366   0.640   4.137   8.846  0.3476  0.6297 -1.3010
 1968SOL    HW217367   0.495   4.162   8.807  0.7023 -0.9230  0.1103
 1969SOL     OW17368   3.801   1.235   8.579 -0.2745 -0.2791 -0.2250
 1969SOL    HW117369   3.744   1.173   8.534  0.9982 -0.5093 -1.5130
 1969SOL    HW217370   3.879   1.182   8.594  0.5898  1.5848  1.7817
 1970SOL     OW17371   0.217   4.396   0.837 -0.1767 -0.4751 -0.2520
 1970SOL    HW117372   0.188   4.487   0.829 -0.9737 -0.7238 -0.2693
 1970SOL    HW217373   0.305   4.406   0.871 -0.5602  1.4352  0.1749
 1971SOL     OW17374   2.756   0.901   9.960 -0.2135 -0.6252 -0.4076
 1971SOL    HW117375   2.847   0.889   9.990  0.3914 -0.0860 -1.9994
 1971SOL    HW217376   2.712   0.896  10.044 -0.4959  0.7139 -0.4754
 1972SOL     OW17377   2.374   3.227   5.917 -0.5048  0.3488  0.0072
 1972SOL    HW117378   2.395   3.187   6.001  0.8142  1.5815  0.2706
 1972SOL    HW217379   2.338   3.150   5.873 -0.0221  0.6958 -0.9972
 1973SOL     OW17380   1.939   1.214   9.158  0.1541 -0.1036  0.0567
 1973SOL    HW117381   2.018   1.159   9.164 -0.2959 -0.7838 -0.2324
 1973SOL    HW217382   1.870   1.155   9.189 -1.3207  2.7806  2.2176
 1974SOL     OW17383   3.140   3.672   1.896 -0.3046  0.4011  0.0649
 1974SOL    HW117384   3.070   3.644   1.955  0.4500  1.4497  1.4551
 1974SOL    HW217385   3.202   3.600   1.899 -0.0538  0.6481  0.6588
 1975SOL     OW17386   2.445   0.966  16.913 -0.0850 -0.3794  0.0581
 1975SOL    HW117387   2.352   0.945  16.913 -0.4677  1.3275  0.3019
 1975SOL    HW217388   2.472   0.897  16.974  1.3983 -0.2308 -0.4320
 1976SOL     OW17389   2.442   0.770   5.763  0.5028 -0.2799  0.3926
 1976SOL    HW117390   2.468   0.853   5.723  0.1248 -0.6526 -0.6258
 1976SOL    HW217391   2.484   0.774   5.849  1.3871  0.4079 -0.0716
 1977SOL     OW17392   3.910   4.410   9.648  0.3275  0.1935  0.2118
 1977SOL    HW117393   3.949   4.330   9.611  1.3730  1.0801 -0.6236
 1977SOL    HW217394   3.984   4.462   9.679 -0.1231  0.9413  0.0199
 1978SOL     OW17395   1.286   3.048   0.707 -0.0445  0.6565  0.0733
 1978SOL    HW117396   1.372   3.009   0.718 -1.1471 -2.2399 -1.3000
 1978SOL    HW217397   1.269   3.087   0.792 -0.2951  0.6293  0.0386
 1979SOL     OW17398   2.733   2.523   3.504 -0.0632 -0.2938  0.4353
 1979SOL    HW117399   2.755   2.436   3.471 -3.7029 -0.4906 -1.4893
 1979SOL    HW217400   2.757   2.577   3.429 -2.6406 -2.4966 -1.9714
 1980SOL     OW17401   2.917   2.767   2.903 -0.2507  0.3238 -0.3860
 1980SOL    HW117402   2.876   2.787   2.987 -0.8209 -0.9002 -0.3777
 1980SOL    HW217403   2.853   2.709   2.862 -0.5671 -0.6671  1.5023
 1981SOL     OW17404   1.070   0.321   6.639 -0.0059 -0.2459  0.2668
 1981SOL    HW117405   1.152   0.285   6.673  0.9527  0.5509 -1.2242
 1981SOL    HW217406   1.049   0.386   6.706  1.0222 -0.4837  0.8260
 1982SOL     OW17407   0.116   0.409   4.329  0.2094 -0.3180  0.1524
 1982SOL    HW117408   0.209   0.406   4.351 -0.1029 -2.1207  1.3126
 1982SOL    HW217409   0.109   0.442   4.240 -1.1399 -1.4752 -0.1754
 1983SOL     OW17410   0.828   1.998   8.001 -0.0461  0.4229 -0.1730
 1983SOL    HW117411   0.880   2.061   7.951 -0.8694 -0.5000 -2.2126
 1983SOL    HW217412   0.814   2.047   8.082  1.4797 -0.7893  0.8176
 1984SOL     OW17413   1.809   4.347   8.192 -0.4059 -0.0089  0.0123
 1984SOL    HW117414   1.870   4.274   8.206  1.8062  1.1733 -3.3943
 1984SOL    HW217415   1.740   4.312   8.136 -0.6210  1.2948 -0.5404
 1985SOL     OW17416   2.661   0.623   2.183 -0.8886  0.2675 -0.6009
 1985SOL    HW117417   2.666   0.625   2.088 -0.9220  2.9292 -0.5507
 1985SOL    HW217418   2.606   0.547   2.202 -2.7607  1.7130 -0.2298
 1986SOL     OW17419   1.164   1.545   5.404  0.1181  0.1068  0.5639
 1986SOL    HW117420   1.256   1.522   5.417  0.0371 -0.0149  0.9123
 1986SOL    HW217421   1.124   1.459   5.414 -1.6874  0.9853  1.0473
 1987SOL     OW17422   0.308   1.286   3.980 -0.4623  0.2322  0.2663
 1987SOL    HW117423   0.383   1.341   3.958 -1.7546  1.8055 -0.1911
 1987SOL    HW217424   0.289   1.334   4.060 -1.4293  3.1769 -1.7192
 1988SOL     OW17425   2.456   1.397   0.935  0.2840 -0.1802  0.4219
 1988SOL    HW117426   2.523   1.385   1.002  0.3985  0.2473  0.3812
 1988SOL    HW217427   2.502   1.474   0.901  0.0983 -1.0163 -1.7449
 1989SOL     OW17428   4.328   2.495   1.080  0.5889 -0.2147 -0.1980
 1989SOL    HW117429   4.288   2.451   1.005  2.1522 -2.0188  0.0157
 1989SOL    HW217430   4.261   2.561   1.098  1.3071  0.1202  1.2896
 1990SOL     OW17431   1.043   1.104   9.059 -0.3725 -0.7498 -0.2478
 1990SOL    HW117432   1.047   1.079   9.151  0.8082 -0.6311 -0.2621
 1990SOL    HW217433   1.047   1.016   9.022 -1.5517 -1.0068  0.2478
 1991SOL     OW17434   4.041   1.499   9.311 -0.1070  0.1076  0.0935
 1991SOL    HW117435   4.036   1.405   9.293  2.4103 -0.4501  2.2345
 1991SOL    HW217436   4.125   1.501   9.357  0.0818 -0.9564 -0.1941
 1992SOL     OW17437   2.519   0.147  10.070 -0.5308  0.5172 -0.3409
 1992SOL    HW117438   2.439   0.181  10.110  0.4533  0.2502  1.8603
 1992SOL    HW217439   2.488   0.124   9.982 -1.4845 -0.1775  0.1694
 1993SOL     OW17440   4.558   0.763  17.540 -0.9194  0.1846 -0.2921
 1993SOL    HW117441   4.586   0.822  17.470  0.9019 -0.2970  0.0456
 1993SOL    HW217442   4.633   0.706  17.552 -1.0803 -0.3089 -1.6910
 1994SOL     OW17443   0.481   2.178   1.186  0.6451 -0.0400 -0.2591
 1994SOL    HW117444   0.525   2.094   1.198  3.1308  1.3024 -0.0767
 1994SOL    HW217445   0.463   2.209   1.275  2.1807  0.2288 -0.0558
 1995SOL     OW17446   0.781   0.663  15.540 -0.0358  0.5464  0.3531
 1995SOL    HW117447   0.794   0.607  15.617 -0.8610  0.2315  0.2578
 1995SOL    HW217448   0.733   0.738  15.574 -2.5687 -1.2034  0.6266
 1996SOL     OW17449   1.159   4.589  13.293 -0.1889 -0.0672  0.1608
 1996SOL    HW117450   1.152   4.498  13.263  2.7834 -0.7450  1.5486
 1996SOL    HW217451   1.093   4.636  13.242 -1.7776 -1.3952  0.9502
 1997SOL     OW17452   0.229   1.158   7.359 -0.3867 -0.3539  0.1239
 1997SOL    HW117453   0.316   1.176   7.323 -0.5328  0.8292  0.3659
 1997SOL    HW217454   0.248   1.074   7.400  1.5940  0.8709  1.7354
 1998SOL     OW17455   2.778   2.341  17.535 -0.2986 -0.2556  0.4102
 1998SOL    HW117456   2.738   2.319  17.451  0.6565 -0.3752 -0.0149
 1998SOL    HW217457   2.764   2.261  17.586 -0.6852 -1.5566 -1.7749
 1999SOL     OW17458   4.509   3.569   3.599  0.2698  0.2036  0.0417
 1999SOL    HW117459   4.445   3.547   3.531  1.0967 -2.0808  0.0079
 1999SOL    HW217460   4.583   3.594   3.543  0.8541 -0.9760  0.2804
 2000SOL     OW17461   0.757   0.325   1.064  0.1032 -0.3724  0.3895
 2000SOL    HW117462   0.773   0.368   1.148 -3.7121 -0.3764  1.1392
 2000SOL    HW217463   0.728   0.402   1.016  2.4545 -0.0342 -0.4733
 2001SOL     OW17464   1.407   3.375  15.599  0.1438 -0.0210  0.0011
 2001SOL    HW117465   1.444   3.318  15.666 -1.6581 -1.6519 -0.3902
 2001SOL    HW217466   1.323   3.335  15.577 -0.1017  0.5324 -0.0630
 2002SOL     OW17467   1.670   1.321   3.697  0.5826 -0.2307  0.3901
 2002SOL    HW117468   1.604   1.253   3.717  1.5051 -0.5228  2.4833
 2002SOL    HW217469   1.622   1.404   3.697 -0.2336 -0.7024  0.0870
 2003SOL     OW17470   2.950   3.392  15.511  0.1099  0.1765  0.3019
 2003SOL    HW117471   2.902   3.457  15.461  0.4717 -0.9597 -1.5230
 2003SOL    HW217472   2.997   3.336  15.449 -0.8509 -0.2925  0.0046
 2004SOL     OW17473   3.706   3.558   9.627  0.3755 -0.0576 -0.1462
 2004SOL    HW117474   3.648   3.488   9.658  1.4175  0.1322  2.1601
 2004SOL    HW217475   3.679   3.550   9.535 -0.9841 -3.3710  0.5349
 2005SOL     OW17476   2.244   3.441  12.840  0.5201 -0.1980  0.3660
 2005SOL    HW117477   2.269   3.349  12.848 -0.7235 -0.2722  3.3688
 2005SOL    HW217478   2.176   3.438  12.908  0.6158  1.4916  0.5482
 2006SOL     OW17479   1.497   0.542   7.279  0.0039  0.2076  0.6730
 2006SOL    HW117480   1.471   0.455   7.309  0.1894 -0.5086 -1.2475
 2006SOL    HW217481   1.590   0.552   7.300  0.5642  0.7877 -2.0105
 2007SOL     OW17482   0.957   3.769   6.767 -0.3418  0.3954  0.1708
 2007SOL    HW117483   0.894   3.706   6.732 -0.6118  2.1256 -2.4423
 2007SOL    HW217484   0.925   3.856   6.742  0.2506  1.0651  1.6987
 2008SOL     OW17485   4.645   3.457  10.048  0.3065  0.3882  0.1414
 2008SOL    HW117486   4.641   3.513   9.970  1.8750 -0.3527 -0.4751
 2008SOL    HW217487   0.007   3.492  10.080  0.2108  1.9011 -1.2834
 2009SOL     OW17488   4.695   0.786  11.087  0.6221 -0.5987  0.0664
 2009SOL    HW117489   0.067   0.773  11.083  0.7281 -0.1974  1.3201
 2009SOL    HW217490   4.677   0.873  11.123  0.1194 -1.7245  2.5916
 2010SOL     OW17491   2.192   0.472   2.093  0.2661  0.0232  0.1463
 2010SOL    HW117492   2.206   0.382   2.065  1.1937  0.1235  0.2837
 2010SOL    HW217493   2.185   0.521   2.011 -0.0491 -1.4513 -0.6954
 2011SOL     OW17494   2.009   4.125   0.133  0.2684  0.2061  0.3540
 2011SOL    HW117495   2.016   4.136   0.038  0.1012  1.3597  0.4856
 2011SOL    HW217496   2.067   4.191   0.168 -0.4437  0.8640  0.2940
 2012SOL     OW17497   0.675   0.130  11.091  0.1780 -0.3202  0.1349
 2012SOL    HW117498   0.626   0.068  11.037  0.4438  2.0827 -2.8981
 2012SOL    HW217499   0.762   0.090  11.080  0.3574  0.1118 -0.0175
 2013SOL     OW17500   1.287   1.947  15.816 -0.2339  0.1776 -0.0792
 2013SOL    HW117501   1.303   2.019  15.876 -1.9007 -0.2426  0.8900
 2013SOL    HW217502   1.197   1.927  15.843 -0.6020  0.2953 -1.1954
 2014SOL     OW17503   1.654   0.200  14.662 -0.1297  1.3004 -0.0765
 2014SOL    HW117504   1.622   0.283  14.625 -0.7646  0.8240 -0.5903
 2014SOL    HW217505   1.619   0.133  14.603  2.7502  0.0349 -0.3352
 2015SOL     OW17506   1.668   1.034   2.866 -0.0986  0.2483 -0.2232
 2015SOL    HW117507   1.654   1.126   2.886  0.2859  0.5263 -1.2399
 2015SOL    HW217508   1.763   1.023   2.876 -0.4252 -1.0326  1.5465
 2016SOL     OW17509   0.709   0.659   8.382  0.3605 -0.4942  0.7427
 2016SOL    HW117510   0.715   0.699   8.295  1.0144  1.8286  1.8398
 2016SOL    HW217511   0.668   0.733   8.428 -0.3220 -1.4747  1.7142
 2017SOL     OW17512   1.247   2.970   3.019  0.2392 -0.0743 -0.2136
 2017SOL    HW117513   1.179   2.988   3.083  0.3226 -1.1244  0.1700
 2017SOL    HW217514   1.306   3.041   3.044  0.4907 -1.2719  2.5914
 2018SOL     OW17515   1.997   0.698  15.960 -0.5384 -0.2233 -0.2709
 2018SOL    HW117516   2.010   0.711  15.866  2.2113 -1.1088 -0.0027
 2018SOL    HW217517   1.957   0.611  15.953 -0.1316 -0.4479  0.1395
 2019SOL     OW17518   0.923   1.792   6.539  0.3017 -0.3417  0.5643
 2019SOL    HW117519   0.879   1.737   6.603  0.9696  0.7871  2.0070
 2019SOL    HW217520   0.919   1.748   6.454  0.2938 -1.1002  0.9582
 2020SOL     OW17521   4.113   1.347   5.208 -0.3139 -0.1715  0.0485
 2020SOL    HW117522   4.085   1.403   5.136 -0.2592  0.2017  0.3149
 2020SOL    HW217523   4.026   1.317   5.235 -0.4692  0.2827  0.0701
 2021SOL     OW17524   2.517   4.523   4.564 -0.1626 -0.0904  0.1354
 2021SOL    HW117525   2.533   4.575   4.485  1.7356 -0.2864  0.3975
 2021SOL    HW217526   2.566   4.576   4.626 -1.4924  0.6528  0.5528
 2022SOL     OW17527   1.660   1.935   3.689 -0.1654 -0.1316  0.0680
 2022SOL    HW117528   1.631   1.867   3.628  3.0874 -2.2249  0.8522
 2022SOL    HW217529   1.746   1.896   3.702  0.0208  0.3575  0.2856
 2023SOL     OW17530   0.730   2.113  11.947 -0.3664  0.2132  0.0243
 2023SOL    HW117531   0.728   2.193  11.999  0.2722  0.4291 -0.2847
 2023SOL    HW217532   0.637   2.094  11.961 -0.1271 -0.7085  0.3674
 2024SOL     OW17533   1.693   4.692   5.664 -0.3754 -0.7630 -0.3565
 2024SOL    HW117534   1.682   4.700   5.569 -3.1018  2.1426  0.1989
 2024SOL    HW217535   1.684   4.597   5.674 -1.2142 -0.4495  1.7651
 2025SOL     OW17536   1.920   0.507   6.543  0.1467 -0.3545 -0.0782
 2025SOL    HW117537   1.865   0.585   6.554 -1.1197 -1.1797 -0.6266
 2025SOL    HW217538   1.970   0.526   6.622  1.1824  0.4198 -0.9147
 2026SOL     OW17539   3.490   2.479   2.946 -0.3841  0.9569  0.0107
 2026SOL    HW117540   3.488   2.473   2.851 -0.8118 -2.1272  0.2193
 2026SOL    HW217541   3.447   2.396   2.965 -0.2188  1.5512  2.9583
 2027SOL     OW17542   1.291   3.410  11.521 -0.0489 -0.1896 -1.2078
 2027SOL    HW117543   1.269   3.498  11.491  0.4246  0.6669  0.9474
 2027SOL    HW217544   1.338   3.432  11.602 -1.1895 -0.0217 -0.5992
 2028SOL     OW17545   0.834   4.090   6.186  0.3284  0.0015  0.5808
 2028SOL    HW117546   0.842   4.182   6.210 -0.5001  0.2492 -0.0689
 2028SOL    HW217547   0.913   4.058   6.229 -0.2721 -1.1216  0.8471
 2029SOL     OW17548   2.639   0.706   8.768  0.1113 -0.4498  0.3489
 2029SOL    HW117549   2.564   0.764   8.783 -0.9314 -1.0602 -2.5418
 2029SOL    HW217550   2.720   0.750   8.793  0.3336  0.1354 -1.4056
 2030SOL     OW17551   2.381   4.109   7.373  0.5709 -0.1774  0.1819
 2030SOL    HW117552   2.414   4.188   7.417  2.1596 -0.9466  0.3912
 2030SOL    HW217553   2.393   4.040   7.438 -3.2306  0.9047  1.9679
 2031SOL     OW17554   2.209   1.230   0.958  0.1069  0.1096  0.0524
 2031SOL    HW117555   2.262   1.308   0.942 -1.4706  1.1120 -0.2651
 2031SOL    HW217556   2.163   1.257   1.037 -0.5014  2.4872 -1.1080
 2032SOL     OW17557   2.354   1.672  12.708  0.1740  0.5768 -0.2436
 2032SOL    HW117558   2.399   1.604  12.657  0.8651  1.6179 -1.0161
 2032SOL    HW217559   2.268   1.631  12.721  1.8898 -3.3482 -1.3117
 2033SOL     OW17560   0.174   1.951   5.889 -0.0576  0.1975  0.3716
 2033SOL    HW117561   0.171   1.984   5.799  3.3668  1.3985  0.6980
 2033SOL    HW217562   0.260   1.912   5.879 -0.2337 -0.3471  0.9611
 2034SOL     OW17563   0.674   0.995   2.910  0.3026  0.7088  0.3820
 2034SOL    HW117564   0.630   0.910   2.913  0.2105  0.7699  0.7827
 2034SOL    HW217565   0.715   0.992   2.997  0.3710  0.6503  0.3484
 2035SOL     OW17566   0.403   0.475   8.545  0.2431  0.5008 -0.8109
 2035SOL    HW117567   0.337   0.421   8.502 -1.5379  1.7661  0.3214
 2035SOL    HW217568   0.405   0.550   8.485 -4.1197  1.3235  0.0964
 2036SOL     OW17569   4.015   2.939   9.044 -0.7681  0.0905  0.2555
 2036SOL    HW117570   3.923   2.965   9.052 -0.7343  0.0287  0.9061
 2036SOL    HW217571   4.049   3.003   8.982 -0.9937 -0.2971 -0.2702
 2037SOL     OW17572   3.332   1.199  14.163 -0.0358 -0.0039 -0.5773
 2037SOL    HW117573   3.395   1.271  14.167 -0.3252  0.1643  1.0157
 2037SOL    HW217574   3.267   1.215  14.231  0.0446  0.2962 -0.5691
 2038SOL     OW17575   2.491   0.942   5.277 -0.0484  0.3825 -0.3719
 2038SOL    HW117576   2.493   0.987   5.193 -0.0977  1.3818  0.1608
 2038SOL    HW217577   2.581   0.908   5.279  0.2319  1.0013 -2.9898
 2039SOL     OW17578   3.876   0.906   6.481 -0.0727  0.3934  0.0859
 2039SOL    HW117579   3.923   0.965   6.422  0.4092 -1.6358 -1.5880
 2039SOL    HW217580   3.796   0.889   6.430  0.1002  1.1722 -0.4469
 2040SOL     OW17581   2.819   0.902   3.942 -0.1225  0.5508 -0.6451
 2040SOL    HW117582   2.894   0.957   3.919  0.3683 -1.2246 -3.4159
 2040SOL    HW217583   2.750   0.928   3.881 -1.3382  0.8096  0.8722
 2041SOL     OW17584   3.181   2.807   2.494  0.5315 -0.2775 -0.0700
 2041SOL    HW117585   3.121   2.739   2.526  0.8833 -0.8446 -0.6182
 2041SOL    HW217586   3.257   2.807   2.551  0.0272 -2.7067  0.6296
 2042SOL     OW17587   2.426   2.161  12.696  0.2963 -0.2502 -0.4609
 2042SOL    HW117588   2.371   2.177  12.619  0.4279 -0.7545 -0.6610
 2042SOL    HW217589   2.372   2.195  12.768 -0.3895  2.0237 -2.0308
 2043SOL     OW17590   0.057   4.671   2.443 -0.2728 -0.3907  0.2781
 2043SOL    HW117591   0.151   4.657   2.454 -0.0039  1.8514  0.9712
 2043SOL    HW217592   0.057   0.016   2.511  0.3140 -0.0358 -0.0758
 2044SOL     OW17593   2.585   1.294  17.080  0.1126  0.0233 -0.1765
 2044SOL    HW117594   2.615   1.242  17.005  0.6357 -0.3213  0.2727
 2044SOL    HW217595   2.666   1.332  17.113  0.8265 -0.0767 -1.7689
 2045SOL     OW17596   2.260   4.543  11.183 -0.2931  0.3624  0.1625
 2045SOL    HW117597   2.337   4.571  11.134 -1.7260 -0.5124 -2.5941
 2045SOL    HW217598   2.286   4.451  11.197  0.0348  0.5970  1.0904
 2046SOL     OW17599   2.176   3.573   0.710 -0.1683  0.2493  0.0332
 2046SOL    HW117600   2.210   3.484   0.703 -0.4149  0.1345  0.3303
 2046SOL    HW217601   2.091   3.573   0.665 -0.1528  1.7303 -0.0007
 2047SOL     OW17602   2.389   1.214   4.442 -0.5452  0.2650  0.7824
 2047SOL    HW117603   2.420   1.181   4.358  0.4298 -0.4541  1.4276
 2047SOL    HW217604   2.308   1.255   4.413 -0.2401  0.2386 -0.0828
 2048SOL     OW17605   2.323   2.329  13.939 -0.2983  0.6716  0.0382
 2048SOL    HW117606   2.383   2.254  13.941 -1.6976 -0.3750  2.3283
 2048SOL    HW217607   2.325   2.355  14.031 -1.8647  2.6668 -0.5083
 2049SOL     OW17608   3.574   1.587   4.365  0.0954  0.5389  0.0315
 2049SOL    HW117609   3.564   1.516   4.301  0.2776  0.4508  0.1012
 2049SOL    HW217610   3.480   1.607   4.365  1.3276  6.3291 -0.4682
 2050SOL     OW17611   4.720   2.046   1.026  0.1272  0.2434 -0.4051
 2050SOL    HW117612   4.694   1.970   1.077  0.9787 -1.5809 -2.7320
 2050SOL    HW217613   4.708   2.019   0.935  0.1206 -0.5000 -0.1791
 2051SOL     OW17614   1.934   4.287   9.238  0.6471 -1.2895  0.0036
 2051SOL    HW117615   1.972   4.199   9.238 -0.5433 -1.7969 -1.5189
 2051SOL    HW217616   1.966   4.313   9.325  1.8795  0.8974 -1.1141
 2052SOL     OW17617   0.104   4.567   4.980 -0.2170  0.2144  0.0709
 2052SOL    HW117618   0.091   4.659   4.955  1.9003  0.8213  1.2102
 2052SOL    HW217619   0.023   4.551   5.028  0.7988 -0.5708  1.4942
 2053SOL     OW17620   2.373   2.495  12.511  0.3473 -0.2368  0.1971
 2053SOL    HW117621   2.310   2.555  12.551 -1.6023 -1.3623 -1.2165
 2053SOL    HW217622   2.340   2.492  12.421 -0.9068 -0.3515  0.6605
 2054SOL     OW17623   2.276   2.443   4.720  0.3574 -0.2827 -0.0283
 2054SOL    HW117624   2.310   2.475   4.803 -0.2827 -0.2920  0.2374
 2054SOL    HW217625   2.291   2.521   4.667  1.2336  0.3653  1.1788
 2055SOL     OW17626   2.110   3.569  13.362 -0.7375 -0.6557 -0.4952
 2055SOL    HW117627   2.172   3.550  13.291 -0.3567  1.2517 -0.6749
 2055SOL    HW217628   2.140   3.653  13.397 -0.9634  0.1887 -2.3419
 2056SOL     OW17629   2.594   1.343  14.773 -0.1791 -0.0298 -0.4959
 2056SOL    HW117630   2.639   1.427  14.777 -0.6765  0.2849 -1.7465
 2056SOL    HW217631   2.603   1.320  14.681  2.3737 -0.8028 -0.0563
 2057SOL     OW17632   3.428   0.820  10.708  0.1009  0.0500 -0.2808
 2057SOL    HW117633   3.480   0.819  10.788  1.6833 -0.4439 -1.3186
 2057SOL    HW217634   3.339   0.801  10.737  0.5598 -1.7295 -0.0557
 2058SOL     OW17635   2.277   4.517   7.758 -0.0011 -0.8112 -0.2319
 2058SOL    HW117636   2.258   4.479   7.844  0.3562  0.7425  0.5285
 2058SOL    HW217637   2.355   4.466   7.736  0.6088 -0.3675  0.9549
 2059SOL     OW17638   4.590   2.998   1.056 -0.7420 -0.0830  0.1992
 2059SOL    HW117639   4.619   2.953   0.977  1.1476  0.1763  0.7317
 2059SOL    HW217640   4.495   3.003   1.045 -0.9848 -1.3878  1.6361
 2060SOL     OW17641   3.656   0.816  10.918  0.0036  0.3655 -0.3073
 2060SOL    HW117642   3.727   0.881  10.912 -0.7859  1.3217  0.7936
 2060SOL    HW217643   3.704   0.752  10.971  0.1746 -0.1093 -1.0410
 2061SOL     OW17644   3.757   3.088  12.039 -0.5424 -0.1673  0.0200
 2061SOL    HW117645   3.798   3.171  12.013 -0.9079 -0.2139 -0.7096
 2061SOL    HW217646   3.689   3.078  11.972 -0.4653  1.7866 -0.3534
 2062SOL     OW17647   0.343   3.601   4.566 -0.2240  0.7323 -0.2615
 2062SOL    HW117648   0.398   3.675   4.539  2.1785 -2.7088 -4.7653
 2062SOL    HW217649   0.402   3.526   4.559  1.3349  1.9712 -0.2634
 2063SOL     OW17650   4.097   1.230   9.357 -0.0479 -0.2847  0.1537
 2063SOL    HW117651   4.095   1.156   9.296 -0.1237 -0.5665  0.5003
 2063SOL    HW217652   4.180   1.204   9.397  1.3529  2.6648 -0.7929
 2064SOL     OW17653   2.923   1.273  17.682 -0.2461 -0.8007  0.1951
 2064SOL    HW117654   2.948   1.191   0.032 -0.2858 -0.5351  0.7551
 2064SOL    HW217655   2.873   1.317   0.060 -0.9625  1.2873 -1.6549
 2065SOL     OW17656   1.163   0.497  16.234 -0.1860 -0.0594  0.7626
 2065SOL    HW117657   1.165   0.501  16.330  2.7653  0.7974  0.6644
 2065SOL    HW217658   1.240   0.445  16.210 -1.9262 -1.2887 -2.1051
 2066SOL     OW17659   2.705   1.175   3.798 -0.2460 -0.1999  0.0624
 2066SOL    HW117660   2.787   1.210   3.833 -0.0980 -1.4739  1.0129
 2066SOL    HW217661   2.702   1.206   3.708 -1.3706  1.6557  0.7552
 2067SOL     OW17662   4.409   4.698   5.362  0.1391  0.3163 -0.1065
 2067SOL    HW117663   4.407   4.602   5.360  0.1279  0.3472 -1.3722
 2067SOL    HW217664   4.504   4.703   5.359  0.1627  1.0762  1.7876
 2068SOL     OW17665   3.593   2.458   6.290  0.1547 -0.3400 -0.1300
 2068SOL    HW117666   3.509   2.458   6.244  1.0580 -1.5852 -1.7749
 2068SOL    HW217667   3.650   2.425   6.221  0.5085  0.6815 -0.3378
 2069SOL     OW17668   1.663   4.625   6.738 -0.1796  0.2778 -0.1553
 2069SOL    HW117669   1.672   4.611   6.643 -2.0597 -2.5533  0.0830
 2069SOL    HW217670   1.724   4.697   6.754 -0.9873  0.6987  1.0107
 2070SOL     OW17671   3.197   0.843   2.417  0.0176  0.4216 -0.1095
 2070SOL    HW117672   3.120   0.899   2.404 -0.4897 -1.2101 -4.0499
 2070SOL    HW217673   3.222   0.881   2.501 -0.8745 -0.5275  0.5857
 2071SOL     OW17674   0.887   0.140   6.035  0.0245 -0.2910 -0.4728
 2071SOL    HW117675   0.979   0.147   6.061 -0.2451  1.0325  0.1443
 2071SOL    HW217676   0.853   0.154   6.123 -0.6630  0.6461 -0.8786
 2072SOL     OW17677   2.386   2.496  15.116  0.5949  0.3562 -0.0193
 2072SOL    HW117678   2.372   2.575  15.064 -1.8047  0.6862  1.1264
 2072SOL    HW217679   2.480   2.480  15.105  0.5697 -0.3521  0.8097
 2073SOL     OW17680   4.559   0.542  10.201  0.6373 -0.9117 -0.5022
 2073SOL    HW117681   4.543   0.447  10.195 -2.1089 -0.5121  0.4764
 2073SOL    HW217682   4.509   0.581  10.129  2.0857 -0.3925 -1.2368
 2074SOL     OW17683   1.158   1.017   7.424  0.0905  0.4867  0.2780
 2074SOL    HW117684   1.161   1.051   7.335 -0.5337  2.4382  1.0065
 2074SOL    HW217685   1.073   1.043   7.458  0.4995 -0.6165  2.1520
 2075SOL     OW17686   0.457   0.673   4.540 -0.2774  0.3828  0.3290
 2075SOL    HW117687   0.362   0.663   4.548 -0.2367  2.0258  2.8120
 2075SOL    HW217688   0.477   0.734   4.611  0.9689 -0.2207  0.4905
 2076SOL     OW17689   2.656   3.535   4.057 -0.1682  0.0710 -0.3519
 2076SOL    HW117690   2.587   3.475   4.087  0.8151 -2.3582 -2.9757
 2076SOL    HW217691   2.707   3.463   4.021  0.4011 -0.5857  1.7283
 2077SOL     OW17692   2.754   2.083  17.633 -0.2628 -0.3140 -0.7384
 2077SOL    HW117693   2.766   2.000  17.680 -0.6901 -0.7599 -1.4145
 2077SOL    HW217694   2.691   2.050  17.568  0.5890  0.8548 -2.1536
 2078SOL     OW17695   2.975   3.058   6.890 -0.2311  0.1331  0.2581
 2078SOL    HW117696   2.885   3.088   6.892 -0.2685 -0.0543  1.1565
 2078SOL    HW217697   3.024   3.140   6.883  1.2320 -0.5886  1.9129
 2079SOL     OW17698   0.500   1.338   5.646 -0.0984  0.3164 -0.6420
 2079SOL    HW117699   0.489   1.243   5.646 -0.7963  0.3976  1.9429
 2079SOL    HW217700   0.535   1.360   5.559 -1.1903 -0.9521 -1.4047
 2080SOL     OW17701   3.709   0.640   5.494 -0.1720  0.5514  0.0189
 2080SOL    HW117702   3.623   0.600   5.482 -1.0603  2.5018 -0.0895
 2080SOL    HW217703   3.705   0.681   5.580  0.1323  0.1117  0.2405
 2081SOL     OW17704   1.598   4.236   9.805 -0.3941  0.5236  0.1122
 2081SOL    HW117705   1.685   4.209   9.833 -1.1600 -0.8888  1.1421
 2081SOL    HW217706   1.617   4.259   9.714 -0.5861 -1.1239 -0.3391
 2082SOL     OW17707   1.396   3.183   9.867  0.5297  0.2386  0.3934
 2082SOL    HW117708   1.315   3.215   9.827 -0.7808 -1.7719  1.4304
 2082SOL    HW217709   1.461   3.229   9.814  0.9041  0.1911  0.8168
 2083SOL     OW17710   0.629   1.198  17.539  0.1526  0.4112  0.0302
 2083SOL    HW117711   0.562   1.263  17.517 -0.6850 -0.7874 -1.0231
 2083SOL    HW217712   0.707   1.216  17.487 -0.5029  1.3279 -0.6439
 2084SOL     OW17713   3.600   0.062   3.691 -0.0328 -0.4378 -0.1730
 2084SOL    HW117714   3.521   0.049   3.640  0.6990 -2.1653 -0.8642
 2084SOL    HW217715   3.655   4.712   3.662  0.2365 -0.9620  1.5917
 2085SOL     OW17716   3.376   0.480   5.639 -0.1312 -0.3282 -0.0188
 2085SOL    HW117717   3.410   0.438   5.719  0.6675  1.6525  0.6993
 2085SOL    HW217718   3.311   0.543   5.671  0.0332  0.9029 -2.1094
 2086SOL     OW17719   2.474   1.761   2.919  0.0194 -0.2085 -0.5785
 2086SOL    HW117720   2.449   1.850   2.944 -0.5104 -0.0947 -1.5237
 2086SOL    HW217721   2.457   1.714   3.001  1.8804 -1.4979 -0.9209
 2087SOL     OW17722   3.065   4.081   7.304 -0.0427  0.0172  0.3885
 2087SOL    HW117723   3.138   4.043   7.352  0.7462 -1.2533 -1.8270
 2087SOL    HW217724   3.104   4.168   7.301 -0.7955  0.3849  1.1325
 2088SOL     OW17725   0.249   2.084  12.554  0.0528  0.0262  0.3522
 2088SOL    HW117726   0.184   2.031  12.508  2.6397 -0.7941 -2.3022
 2088SOL    HW217727   0.239   2.168  12.509  0.2326 -0.3662 -0.4295
 2089SOL     OW17728   3.745   1.349   7.164  0.8127 -0.5651  0.1277
 2089SOL    HW117729   3.739   1.420   7.099  0.4688 -0.0760  0.6923
 2089SOL    HW217730   3.768   1.401   7.241  1.6203 -1.3833  0.4451
 2090SOL     OW17731   4.199   0.842   8.613  0.3897 -0.3897 -0.5864
 2090SOL    HW117732   4.174   0.848   8.705 -1.2953  3.2522 -1.2917
 2090SOL    HW217733   4.145   0.765   8.591  1.7819 -1.5041 -0.1362
 2091SOL     OW17734   4.018   0.855   8.019 -0.0825  0.1830 -0.1279
 2091SOL    HW117735   4.007   0.761   8.025 -3.6037  0.7097  1.3993
 2091SOL    HW217736   4.089   0.885   8.076  1.5011 -1.3091 -1.3134
 2092SOL     OW17737   3.181   0.615  10.530  0.2599  0.2295  0.1357
 2092SOL    HW117738   3.141   0.651  10.451  0.4832 -2.2063 -1.0660
 2092SOL    HW217739   3.127   0.659  10.595  0.5322  0.6301  0.0957
 2093SOL     OW17740   0.623   0.851   9.543 -0.1939 -0.2399  0.8533
 2093SOL    HW117741   0.618   0.911   9.468 -1.0566 -1.7103 -0.2709
 2093SOL    HW217742   0.573   0.782   9.501 -0.7188 -1.1671  3.0297
 2094SOL     OW17743   0.588   0.352   9.290  0.2555 -0.5428  0.2925
 2094SOL    HW117744   0.496   0.331   9.307  0.2278 -1.0644 -0.4969
 2094SOL    HW217745   0.626   0.266   9.272 -0.8834 -0.9470 -0.2380
 2095SOL     OW17746   1.113   1.645   7.714  0.3078  0.3754 -0.1233
 2095SOL    HW117747   1.156   1.727   7.691  0.2548  0.4159 -0.0780
 2095SOL    HW217748   1.018   1.654   7.700 -0.0973  0.6971  2.8442
 2096SOL     OW17749   4.402   2.215   3.096  0.4862 -0.2589 -0.2978
 2096SOL    HW117750   4.475   2.154   3.096  1.6317  1.1000 -0.5995
 2096SOL    HW217751   4.325   2.161   3.115  2.2771 -2.2512  1.2602
 2097SOL     OW17752   3.959   1.157   4.705  0.3551 -0.1589 -0.1449
 2097SOL    HW117753   3.977   1.070   4.669  1.4806 -0.7235  1.7946
 2097SOL    HW217754   3.933   1.145   4.796 -0.2999  1.1558 -0.1655
 2098SOL     OW17755   1.897   3.881   5.077  0.0098  0.0989 -0.4762
 2098SOL    HW117756   1.932   3.832   5.003 -0.0760  1.5119 -1.4487
 2098SOL    HW217757   1.841   3.939   5.026 -0.5495  0.1423  0.1907
 2099SOL     OW17758   3.006   1.467   5.058 -0.0030 -0.5101 -0.2357
 2099SOL    HW117759   3.093   1.435   5.032  0.1086 -0.4138  0.0181
 2099SOL    HW217760   2.993   1.532   4.990 -1.2292 -1.9539 -1.3892
 2100SOL     OW17761   0.727   3.394   1.353  0.4703 -0.1034  0.0437
 2100SOL    HW117762   0.658   3.443   1.398  0.1508 -2.6425  2.3013
 2100SOL    HW217763   0.672   3.337   1.300  1.1991 -1.1449  0.4044
 2101SOL     OW17764   4.111   2.909  14.191  0.4232  0.6359 -0.1400
 2101SOL    HW117765   4.191   2.957  14.213 -0.0184  1.0931  0.4888
 2101SOL    HW217766   4.074   2.885  14.277  1.1779  1.9495  0.5486
 2102SOL     OW17767   3.340   1.361   2.536  0.4564 -0.1805  0.6412
 2102SOL    HW117768   3.294   1.280   2.559  0.5252 -0.2450  0.5509
 2102SOL    HW217769   3.334   1.359   2.440 -0.4165 -4.0336  0.7651
 2103SOL     OW17770   1.203   3.671   9.137  0.3652  0.1082  0.4025
 2103SOL    HW117771   1.167   3.584   9.119  0.1673  0.4173 -0.6779
 2103SOL    HW217772   1.185   3.719   9.057 -0.2172  1.3877  1.3081
 2104SOL     OW17773   0.367   3.551  13.579 -0.6075 -0.1567 -0.4335
 2104SOL    HW117774   0.387   3.631  13.628 -1.2471 -0.5193  0.4209
 2104SOL    HW217775   0.439   3.550  13.516 -1.4368  0.1105 -1.3757
 2105SOL     OW17776   1.190   4.388   3.043 -0.0149  0.3983 -0.0895
 2105SOL    HW117777   1.215   4.337   2.966 -0.8755  0.3458 -0.3398
 2105SOL    HW217778   1.164   4.313   3.097  1.1335 -0.3733 -0.6069
 2106SOL     OW17779   0.235   2.792   3.002  0.2684 -0.0130 -0.2989
 2106SOL    HW117780   0.193   2.844   2.933  2.8232  1.0682 -1.0662
 2106SOL    HW217781   0.314   2.842   3.021 -0.0453  0.2055  0.4292
 2107SOL     OW17782   0.124   2.584  13.651  0.4764 -0.3296  0.0359
 2107SOL    HW117783   0.037   2.544  13.646 -0.7951  2.1613  2.1815
 2107SOL    HW217784   0.155   2.571  13.562 -0.5356 -0.3578 -0.3113
 2108SOL     OW17785   2.514   1.593  14.175 -0.1258 -0.4593 -0.2815
 2108SOL    HW117786   2.579   1.583  14.244 -0.3268  0.1694  0.0034
 2108SOL    HW217787   2.482   1.505  14.157  0.6279 -0.8312  0.2051
 2109SOL     OW17788   3.262   3.602  13.100 -0.3521 -0.4044  0.1754
 2109SOL    HW117789   3.189   3.566  13.151  0.1276 -0.7593  0.6256
 2109SOL    HW217790   3.239   3.576  13.011 -2.2860  0.7761  0.3270
 2110SOL     OW17791   0.309   0.298   7.172  0.5795 -0.0076 -0.3690
 2110SOL    HW117792   0.251   0.300   7.249  0.2850  0.1045 -0.5947
 2110SOL    HW217793   0.282   0.221   7.123  1.4795 -1.5930  1.6327
 2111SOL     OW17794   3.037   2.351   6.512  0.4237  0.0529 -0.9432
 2111SOL    HW117795   3.126   2.385   6.517  0.0408  0.8822  0.1214
 2111SOL    HW217796   3.046   2.259   6.536  0.1302  0.7581  1.7826
 2112SOL     OW17797   3.857   2.825   4.330 -0.0501  0.0903  0.6602
 2112SOL    HW117798   3.856   2.860   4.241  1.6658  1.6905  1.2745
 2112SOL    HW217799   3.793   2.877   4.378  1.3526  3.0734 -0.6937
 2113SOL     OW17800   4.040   3.456   6.086  0.2660  0.2365  0.2324
 2113SOL    HW117801   3.971   3.418   6.031  0.4277  2.0943 -1.2344
 2113SOL    HW217802   4.095   3.496   6.018  2.8659 -0.1336  2.1211
 2114SOL     OW17803   2.238   0.246   5.391  0.5371  0.0149  0.2951
 2114SOL    HW117804   2.152   0.207   5.377  0.1899  0.6360  0.7144
 2114SOL    HW217805   2.288   0.209   5.318 -2.4828  0.9421 -2.2657
 2115SOL     OW17806   1.780   3.435   9.561 -0.1319 -0.6283 -0.3529
 2115SOL    HW117807   1.823   3.370   9.504 -0.3555 -0.5763 -0.5791
 2115SOL    HW217808   1.778   3.515   9.509  1.2453  0.7990  1.7814
 2116SOL     OW17809   2.150   1.146   5.850  0.3727  0.0282 -0.0990
 2116SOL    HW117810   2.230   1.132   5.797 -0.0554  1.7935 -1.2042
 2116SOL    HW217811   2.088   1.106   5.789 -0.5708  1.1751  0.1118
 2117SOL     OW17812   3.741   2.009   5.286 -0.0216  0.1919  0.2706
 2117SOL    HW117813   3.724   1.962   5.204 -0.0847  0.3507  0.1923
 2117SOL    HW217814   3.656   2.038   5.319 -0.6643  1.5044 -2.5587
 2118SOL     OW17815   0.871   4.413   4.050 -0.0105  0.6814  0.4001
 2118SOL    HW117816   0.877   4.507   4.065  0.2376  0.5834  0.9243
 2118SOL    HW217817   0.922   4.395   3.971  0.5230 -0.5999  1.0332
 2119SOL     OW17818   4.705   0.697   4.378 -0.0000 -0.0821  0.0700
 2119SOL    HW117819   0.015   0.754   4.308 -0.3291 -1.8063 -1.4696
 2119SOL    HW217820   4.702   0.616   4.327 -0.3104 -0.2217  0.3086
 2120SOL     OW17821   4.143   1.728   7.343 -0.5409 -0.2424 -0.0109
 2120SOL    HW117822   4.100   1.798   7.391  0.0282 -0.6020  1.0116
 2120SOL    HW217823   4.235   1.754   7.343 -0.8456  0.8885 -2.2269
 2121SOL     OW17824   3.660   4.556  11.442  0.4771 -0.7189 -0.7892
 2121SOL    HW117825   3.612   4.538  11.523  1.2171  0.0305 -0.1844
 2121SOL    HW217826   3.669   4.651  11.447 -1.9756 -0.6002  1.1210
 2122SOL     OW17827   0.712   2.698  12.273  0.1565 -0.2261  0.5250
 2122SOL    HW117828   0.700   2.627  12.209  2.3462 -1.3388  1.3558
 2122SOL    HW217829   0.801   2.726  12.254 -0.2776  1.0305  0.3537
 2123SOL     OW17830   2.904   4.034   3.296 -0.2064  0.5124  0.3067
 2123SOL    HW117831   2.852   3.953   3.299  1.0130 -0.3204 -0.9790
 2123SOL    HW217832   2.956   4.030   3.376 -1.2381 -0.8401  0.9020
 2124SOL     OW17833   3.876   0.050   3.359 -0.9223 -0.0893  0.1885
 2124SOL    HW117834   3.786   0.034   3.330 -0.9588  1.5270 -0.5874
 2124SOL    HW217835   3.917   0.017   3.279  0.9476  0.3605  0.9711
 2125SOL     OW17836   3.606   3.273   1.385 -0.3798 -0.7885  1.0272
 2125SOL    HW117837   3.635   3.283   1.294  0.1723  2.7527  1.6057
 2125SOL    HW217838   3.534   3.211   1.375 -0.7443  0.0686 -1.9038
 2126SOL     OW17839   3.513   3.679   6.834 -0.1295 -0.4251 -0.8048
 2126SOL    HW117840   3.514   3.727   6.751  0.5671  0.8687 -0.0439
 2126SOL    HW217841   3.520   3.759   6.885  1.7662 -0.1554 -1.5050
 2127SOL     OW17842   2.960   1.701   7.049 -0.2828  0.6696  0.3474
 2127SOL    HW117843   3.023   1.670   7.114 -1.6512  1.2260  1.9628
 2127SOL    HW217844   2.891   1.636   7.058 -0.1526  0.8066  2.2922
 2128SOL     OW17845   1.812   4.353   2.779 -0.3089 -0.2687  0.2846
 2128SOL    HW117846   1.774   4.429   2.736  0.3958  0.0838  0.2787
 2128SOL    HW217847   1.876   4.331   2.712  0.2019  1.0483  0.3413
 2129SOL     OW17848   1.213   3.201  15.553  0.0559  1.2818 -0.1857
 2129SOL    HW117849   1.249   3.162  15.473  0.3172  2.5955 -0.7072
 2129SOL    HW217850   1.208   3.121  15.606 -1.3557  1.4547 -0.0577
 2130SOL     OW17851   4.250   3.426   3.072 -0.2743 -0.4179  0.6116
 2130SOL    HW117852   4.218   3.372   3.145  1.1181 -1.4186  0.4757
 2130SOL    HW217853   4.344   3.412   3.070 -0.4572 -1.8703  1.4428
 2131SOL     OW17854   3.401   1.652   5.613  0.1771  0.1506  0.9392
 2131SOL    HW117855   3.346   1.729   5.608  1.7373  1.1798 -0.6119
 2131SOL    HW217856   3.352   1.591   5.557  1.0707  0.1262  0.1789
 2132SOL     OW17857   3.136   2.193   3.600  0.3900 -0.2073 -0.5169
 2132SOL    HW117858   3.205   2.154   3.654 -1.1678 -1.6457  0.4334
 2132SOL    HW217859   3.167   2.283   3.604  0.4171 -0.2642  0.4952
 2133SOL     OW17860   1.818   0.916   3.478 -0.2617  0.0906 -1.0880
 2133SOL    HW117861   1.766   0.835   3.477  0.0061 -0.0948  0.7761
 2133SOL    HW217862   1.895   0.887   3.429 -1.4664  0.3891 -3.1505
 2134SOL     OW17863   3.350   3.332  10.143 -1.1307 -0.4183  0.2413
 2134SOL    HW117864   3.344   3.413  10.193 -1.5777 -0.8900  0.9485
 2134SOL    HW217865   3.435   3.333  10.099 -0.0381 -0.3257  2.3500
 2135SOL     OW17866   2.451   1.250  11.302  0.4594  0.2667  0.3794
 2135SOL    HW117867   2.396   1.327  11.291 -1.6635 -1.4012 -0.6265
 2135SOL    HW217868   2.475   1.253  11.395 -0.8735  0.3866  0.7170
 2136SOL     OW17869   0.591   3.646   1.215  0.3278 -0.1812  0.0568
 2136SOL    HW117870   0.652   3.614   1.148  0.0540 -0.3677 -0.1036
 2136SOL    HW217871   0.642   3.713   1.260 -0.1749 -1.1803  2.0986
 2137SOL     OW17872   4.274   1.226   8.437  0.0068  0.0827 -0.0870
 2137SOL    HW117873   4.204   1.264   8.384 -0.3212  0.1436  0.3886
 2137SOL    HW217874   4.326   1.302   8.460 -0.8891  0.4103  0.8515
 2138SOL     OW17875   2.719   0.984  15.512 -0.6227  0.4827  0.6306
 2138SOL    HW117876   2.808   0.963  15.539 -0.9584 -0.9193  0.6428
 2138SOL    HW217877   2.713   0.944  15.426  0.4724  0.1101  0.7247
 2139SOL     OW17878   4.198   3.046   4.907  0.1653  0.5033 -0.6607
 2139SOL    HW117879   4.225   3.041   4.815 -1.5679  0.1170 -1.1445
 2139SOL    HW217880   4.136   3.118   4.900 -1.1402 -0.6293 -0.6227
 2140SOL     OW17881   3.669   4.281   8.951  0.2973 -0.3779  0.1011
 2140SOL    HW117882   3.648   4.317   9.037 -0.7100  0.8732 -0.6774
 2140SOL    HW217883   3.763   4.288   8.965 -0.1928 -0.4198  3.2802
 2141SOL     OW17884   4.666   0.094   9.064 -0.6015 -0.1906 -0.8394
 2141SOL    HW117885   4.645   0.142   8.985 -3.7954  3.5562  2.2972
 2141SOL    HW217886   4.664   0.006   9.027  1.8891 -0.4257 -0.4171
 2142SOL     OW17887   1.882   4.287   3.277 -0.4776  0.4169  0.3428
 2142SOL    HW117888   1.976   4.300   3.283 -0.6630  0.5173  2.7303
 2142SOL    HW217889   1.857   4.344   3.203 -0.9103 -0.3354 -0.0861
 2143SOL     OW17890   3.001   0.808   7.063  0.2555  0.2822  0.2310
 2143SOL    HW117891   2.963   0.751   7.130 -1.6921  0.4035 -0.7682
 2143SOL    HW217892   3.085   0.838   7.096  0.3007  0.1789  0.2107
 2144SOL     OW17893   1.160   2.804   5.733 -0.3272  0.4913  0.8306
 2144SOL    HW117894   1.083   2.761   5.698  0.8756 -0.7649 -0.2667
 2144SOL    HW217895   1.126   2.829   5.820 -0.6297 -1.8122  1.3630
 2145SOL     OW17896   4.700   2.420   5.834 -0.4650  0.8706 -0.2319
 2145SOL    HW117897   4.712   2.393   5.925 -1.9328 -2.3059 -1.0013
 2145SOL    HW217898   4.612   2.393   5.807 -0.7398  1.3202  0.1943
 2146SOL     OW17899   1.336   1.121   4.187  0.0847  0.3650 -0.5364
 2146SOL    HW117900   1.301   1.209   4.175 -2.6942 -0.6103  0.4617
 2146SOL    HW217901   1.261   1.067   4.210 -0.2395  1.2606  0.5514
 2147SOL     OW17902   1.563   4.429  13.573 -0.1594  0.7181 -0.3243
 2147SOL    HW117903   1.603   4.403  13.490  0.7768  0.4206  0.2233
 2147SOL    HW217904   1.643   4.450  13.620 -1.2779 -0.3874  2.0771
 2148SOL     OW17905   0.613   3.800   0.717  0.2618  0.4007 -0.4423
 2148SOL    HW117906   0.664   3.769   0.643  2.6610  0.2198  1.3004
 2148SOL    HW217907   0.674   3.861   0.760 -0.1769  0.2526  0.3934
 2149SOL     OW17908   0.420   1.569  15.297 -0.2096 -0.1048 -0.0200
 2149SOL    HW117909   0.402   1.620  15.218 -1.3674 -0.9347 -0.2865
 2149SOL    HW217910   0.512   1.547  15.284  0.1840  1.1571  0.6187
 2150SOL     OW17911   0.324   4.173   8.428 -0.0654 -0.1663  0.5693
 2150SOL    HW117912   0.286   4.085   8.424  0.6112 -0.2766 -3.6024
 2150SOL    HW217913   0.302   4.194   8.337  1.1570  3.4520  1.1000
 2151SOL     OW17914   1.500   2.712  14.950  0.3416  0.1893 -0.0611
 2151SOL    HW117915   1.495   2.659  14.871  0.6177 -0.1187  0.1325
 2151SOL    HW217916   1.551   2.655  15.006  0.4951  0.1173 -0.2723
 2152SOL     OW17917   0.300   2.233   5.403 -0.0485  0.0209 -0.3373
 2152SOL    HW117918   0.289   2.141   5.426  0.4415 -0.2495 -1.2095
 2152SOL    HW217919   0.313   2.230   5.308  1.7628 -0.2153 -0.0742
 2153SOL     OW17920   4.679   4.041   4.781 -0.1410  0.6393 -0.2382
 2153SOL    HW117921   4.682   4.115   4.721  1.1826 -1.3086 -2.5813
 2153SOL    HW217922   4.686   4.093   4.862  1.6134 -0.2092  0.1616
 2154SOL     OW17923   0.380   4.243  11.977  0.1490  0.0342  0.2019
 2154SOL    HW117924   0.335   4.308  11.923  1.2373 -0.2036 -0.9991
 2154SOL    HW217925   0.426   4.199  11.906 -1.9370  1.6635 -2.1826
 2155SOL     OW17926   2.427   0.135   4.655  0.0008  0.2227 -0.5917
 2155SOL    HW117927   2.419   0.228   4.632 -0.1675  0.1293 -0.9041
 2155SOL    HW217928   2.477   0.144   4.736  0.3169  0.3428 -0.7990
 2156SOL     OW17929   1.692   4.592   4.679 -0.1058  0.0451  0.5928
 2156SOL    HW117930   1.599   4.595   4.698 -0.6775  2.6666 -2.6182
 2156SOL    HW217931   1.707   4.668   4.622  0.6968 -1.4264 -1.1802
 2157SOL     OW17932   2.197   4.406   9.654  0.8176 -0.1227 -0.5675
 2157SOL    HW117933   2.260   4.361   9.598 -0.9676 -1.3802 -1.5588
 2157SOL    HW217934   2.260   4.441   9.716  0.3509  0.8439 -0.6199
 2158SOL     OW17935   3.376   0.317  13.831 -0.8200  0.3751  0.3278
 2158SOL    HW117936   3.447   0.357  13.782  0.7419  1.1321  3.2008
 2158SOL    HW217937   3.346   0.249  13.770  0.0112 -0.4933  0.8867
 2159SOL     OW17938   1.797   0.277  16.492  0.6253  0.2753 -0.2320
 2159SOL    HW117939   1.824   0.241  16.576  0.8219  0.3669 -0.2561
 2159SOL    HW217940   1.711   0.311  16.517  1.1269  0.5353  1.1079
 2160SOL     OW17941   4.719   0.121   3.531  0.6691  0.1756 -0.0013
 2160SOL    HW117942   0.054   0.109   3.607  1.9018 -0.1710 -0.9831
 2160SOL    HW217943   0.058   0.174   3.479  0.1099 -1.2439 -2.0727
 2161SOL     OW17944   2.480   3.111  15.092 -0.4995 -0.0422  0.1692
 2161SOL    HW117945   2.567   3.073  15.078 -0.5936  0.9427 -3.2425
 2161SOL    HW217946   2.476   3.113  15.187  2.8337  0.4258  0.3227
 2162SOL     OW17947   1.226   1.743   6.255  0.4031  0.1668  0.2151
 2162SOL    HW117948   1.156   1.678   6.249 -0.2687  0.8392  0.8128
 2162SOL    HW217949   1.287   1.694   6.310  0.9344  0.4239 -0.1463
 2163SOL     OW17950   0.641   3.913   7.299  0.0241  0.3027 -0.6426
 2163SOL    HW117951   0.699   3.837   7.297  0.9177  0.9193  2.2344
 2163SOL    HW217952   0.578   3.884   7.366 -2.8260  1.3998 -2.8316
 2164SOL     OW17953   1.120   1.409   5.081  0.3788 -0.1066 -0.2610
 2164SOL    HW117954   1.177   1.367   5.017 -1.3331 -3.5501  0.5164
 2164SOL    HW217955   1.137   1.356   5.159 -1.3113 -0.0473  0.1446
 2165SOL     OW17956   1.106   4.619  10.346 -0.6230  0.2621  1.0855
 2165SOL    HW117957   1.182   4.609  10.403 -0.3553  1.2895  0.9027
 2165SOL    HW217958   1.048   4.566  10.400 -3.2250 -1.6058 -3.4641
 2166SOL     OW17959   3.000   4.324   8.133 -0.1681 -0.2502 -0.3990
 2166SOL    HW117960   3.031   4.240   8.167 -1.3446 -0.5940 -0.1670
 2166SOL    HW217961   2.941   4.351   8.203  0.0969 -0.4214 -0.1114
 2167SOL     OW17962   1.732   1.416  11.225 -0.0806 -0.0311 -0.5879
 2167SOL    HW117963   1.743   1.388  11.315  2.2948  0.2821 -0.7961
 2167SOL    HW217964   1.643   1.452  11.233  0.8788  1.3913  3.4211
 2168SOL     OW17965   0.634   4.261  11.235  0.3265  0.0620  0.2652
 2168SOL    HW117966   0.579   4.189  11.265  1.4508 -1.3449 -1.0705
 2168SOL    HW217967   0.569   4.331  11.232 -0.6755 -0.9663 -2.0280
 2169SOL     OW17968   3.381   2.003  12.148 -0.0804 -0.4248  0.2470
 2169SOL    HW117969   3.317   2.052  12.097 -2.2544 -3.0920  0.3950
 2169SOL    HW217970   3.317   1.962  12.206 -0.7705  0.0707 -0.1688
 2170SOL     OW17971   1.692   0.595   4.762 -0.5807  0.0852  0.4183
 2170SOL    HW117972   1.640   0.604   4.682 -0.3593 -1.2841  0.1085
 2170SOL    HW217973   1.622   0.565   4.820 -0.7316 -1.4845 -0.5652
 2171SOL     OW17974   2.897   1.149   5.372  0.2868 -0.1779  0.8695
 2171SOL    HW117975   2.989   1.174   5.388  1.2720 -2.5195 -1.2000
 2171SOL    HW217976   2.878   1.144   5.466  0.5979  0.7376  0.9845
 2172SOL     OW17977   3.312   0.164   6.396 -0.5756  0.1063  0.1816
 2172SOL    HW117978   3.348   0.080   6.423 -0.9077 -0.1047 -0.0299
 2172SOL    HW217979   3.250   0.141   6.326  0.7741 -2.3069 -0.1978
 2173SOL     OW17980   3.365   1.099   3.107 -0.5027  0.4899 -0.2025
 2173SOL    HW117981   3.381   1.106   3.201 -2.7789  1.0570  0.1514
 2173SOL    HW217982   3.405   1.178   3.071  2.0145 -0.7221 -0.0451
 2174SOL     OW17983   4.375   0.040   6.569  0.3341  0.1608 -0.2932
 2174SOL    HW117984   4.375   0.076   6.658 -1.2398 -2.2678  0.6857
 2174SOL    HW217985   4.283   0.032   6.545 -0.3816  0.7561  2.2015
 2175SOL     OW17986   0.231   4.699   2.138  0.6542  0.2620 -0.0237
 2175SOL    HW117987   0.163   0.034   2.102 -1.1147 -2.7699 -1.4795
 2175SOL    HW217988   0.298   0.045   2.147  0.2686  0.4731  1.2529
 2176SOL     OW17989   0.211   1.962   7.597  0.3767  0.6718  0.2519
 2176SOL    HW117990   0.191   1.967   7.690 -1.9519  0.3111 -0.2392
 2176SOL    HW217991   0.306   1.949   7.606  0.6644  1.4672 -1.5346
 2177SOL     OW17992   0.445   0.364   8.869 -0.2245  0.4705  0.3689
 2177SOL    HW117993   0.456   0.456   8.842 -1.3705 -0.3103 -2.8096
 2177SOL    HW217994   0.351   0.352   8.859  0.5849 -3.4584 -2.4342
 2178SOL     OW17995   4.284   0.987  14.200 -0.0332 -0.3476  0.2596
 2178SOL    HW117996   4.277   0.892  14.190  3.0526 -0.6147  0.4463
 2178SOL    HW217997   4.192   1.013  14.207  0.5533  1.9316 -0.5134
 2179SOL     OW17998   2.542   4.577   7.925 -0.5831  0.3599 -0.5692
 2179SOL    HW117999   2.603   4.572   7.999 -0.4061  0.2114 -0.7227
 2179SOL    HW218000   2.459   4.575   7.972  0.0684 -0.5082  0.5327
 2180SOL     OW18001   2.278   3.356   1.928 -0.3708 -0.1596 -1.3017
 2180SOL    HW118002   2.250   3.392   1.844 -1.0835 -2.0098 -1.8631
 2180SOL    HW218003   2.243   3.267   1.916 -0.9542 -0.5565  3.1201
 2181SOL     OW18004   1.123   4.435   7.840 -0.0392  0.3779  0.1404
 2181SOL    HW118005   1.032   4.409   7.823  0.0599  0.3389 -0.3269
 2181SOL    HW218006   1.110   4.498   7.911  0.4780 -1.7624  2.1646
 2182SOL     OW18007   0.429   0.638   6.984  0.0489  0.3176 -0.5131
 2182SOL    HW118008   0.492   0.690   6.933 -1.9306  1.5262 -1.6951
 2182SOL    HW218009   0.395   0.699   7.049  0.7437 -0.3932  0.5367
 2183SOL     OW18010   1.877   2.713   0.193 -0.1154 -0.3596  0.4617
 2183SOL    HW118011   1.937   2.649   0.154  1.7571  1.4142  0.4545
 2183SOL    HW218012   1.928   2.721   0.273 -0.2489 -1.4195  0.6519
 2184SOL     OW18013   3.567   1.250   5.341  0.1997 -0.2060  0.3387
 2184SOL    HW118014   3.557   1.332   5.389  0.5264  0.7736 -1.2422
 2184SOL    HW218015   3.578   1.193   5.416 -1.8117 -0.0402  0.7718
 2185SOL     OW18016   1.137   0.174  16.319  0.5267 -0.5214 -0.5166
 2185SOL    HW118017   1.182   0.090  16.324  1.2434 -0.2424 -2.4569
 2185SOL    HW218018   1.153   0.211  16.406 -1.7700  1.2993 -0.8486
 2186SOL     OW18019   1.980   0.359   2.666  0.2919  0.2777 -0.0133
 2186SOL    HW118020   2.048   0.381   2.731 -0.5070  0.9227  0.5981
 2186SOL    HW218021   1.971   0.264   2.674 -1.5691  0.5031  0.5323
 2187SOL     OW18022   2.837   3.836  16.252 -0.0173 -0.2749 -0.1567
 2187SOL    HW118023   2.878   3.767  16.201 -0.6207 -0.7062 -0.0667
 2187SOL    HW218024   2.913   3.886  16.281 -0.0531  1.0617 -2.3661
 2188SOL     OW18025   2.966   0.890  15.675 -0.7886  0.5938 -0.0015
 2188SOL    HW118026   2.973   0.804  15.715 -0.4436  0.6279  0.0125
 2188SOL    HW218027   3.043   0.897  15.617  0.1240  2.1115  1.3817
 2189SOL     OW18028   2.455   0.345   1.815  0.2691  0.0971 -0.0087
 2189SOL    HW118029   2.549   0.344   1.798 -0.0416  0.7870 -1.7555
 2189SOL    HW218030   2.427   0.385   1.733  1.3652  1.8689  0.4759
 2190SOL     OW18031   3.887   2.083   5.894 -0.3843 -0.0338 -0.3653
 2190SOL    HW118032   3.860   2.003   5.850 -0.8189 -1.4296  2.4472
 2190SOL    HW218033   3.855   2.059   5.981 -1.0873  1.8908 -0.0941
 2191SOL     OW18034   2.267   1.283   8.483  0.8960  0.2092 -0.4020
 2191SOL    HW118035   2.245   1.239   8.401 -0.8101 -2.8263  1.6813
 2191SOL    HW218036   2.359   1.263   8.496  1.0285  0.3363 -1.1422
 2192SOL     OW18037   2.044   0.705   2.549 -0.2240 -0.3432  0.4518
 2192SOL    HW118038   2.137   0.704   2.571  0.2220  0.4951 -1.3898
 2192SOL    HW218039   2.050   0.649   2.471 -0.6545  0.6069 -0.2609
 2193SOL     OW18040   3.502   4.241   8.746 -0.1941 -0.0838 -0.3242
 2193SOL    HW118041   3.496   4.145   8.742 -0.4191 -0.1101  0.5773
 2193SOL    HW218042   3.537   4.254   8.835 -1.7400  3.2306 -0.2013
 2194SOL     OW18043   0.584   3.567  11.020 -0.1383 -0.5645  0.8278
 2194SOL    HW118044   0.580   3.545  11.112 -1.5967  2.3351  1.4758
 2194SOL    HW218045   0.541   3.489  10.985  1.6158  0.0499 -2.7402
 2195SOL     OW18046   3.026   3.304   2.577 -0.2164 -0.0876 -0.0031
 2195SOL    HW118047   3.073   3.231   2.536 -2.6656 -2.3971  1.2585
 2195SOL    HW218048   3.066   3.377   2.530 -0.8941  0.8459  0.8763
 2196SOL     OW18049   4.376   3.593   3.335 -0.3605  0.0319  0.0444
 2196SOL    HW118050   4.422   3.547   3.265 -0.9308  0.1845 -0.4279
 2196SOL    HW218051   4.406   3.681   3.314 -0.4609 -0.0398 -0.4095
 2197SOL     OW18052   4.151   4.339   6.442 -0.0069  0.6693 -0.0455
 2197SOL    HW118053   4.065   4.378   6.458  0.8866  2.6289  0.0461
 2197SOL    HW218054   4.129   4.252   6.410 -0.5145  1.2695 -1.3031
 2198SOL     OW18055   0.349   2.498   6.428  0.0379 -0.0579 -0.5537
 2198SOL    HW118056   0.308   2.460   6.506 -0.0583  0.3111 -0.4273
 2198SOL    HW218057   0.421   2.436   6.418  0.5608  0.3489  0.6974
 2199SOL     OW18058   2.165   1.316   6.635  0.4987 -0.0771 -0.1239
 2199SOL    HW118059   2.146   1.222   6.639 -1.7750  0.4116  0.2268
 2199SOL    HW218060   2.225   1.328   6.562 -0.7758 -1.1000 -1.3207
 2200SOL     OW18061   4.173   2.647  14.148  0.2308 -0.1998 -0.1895
 2200SOL    HW118062   4.090   2.624  14.107 -1.1653  2.7841  0.9461
 2200SOL    HW218063   4.157   2.740  14.166 -1.9704 -0.2468 -1.9050
 2201SOL     OW18064   1.285   1.859   5.016 -0.2232 -0.2647  0.0997
 2201SOL    HW118065   1.306   1.887   4.927  1.7704 -0.6489  0.4389
 2201SOL    HW218066   1.362   1.804   5.029 -0.3144 -0.4796 -0.2688
 2202SOL     OW18067   1.523   1.130   0.351  0.0459 -0.3163  0.5640
 2202SOL    HW118068   1.508   1.156   0.442 -0.5777  0.5896  0.2028
 2202SOL    HW218069   1.458   1.060   0.343 -0.0294 -0.1895  0.0700
 2203SOL     OW18070   1.562   0.611  15.238 -0.3381  0.2775  0.4680
 2203SOL    HW118071   1.548   0.690  15.186  0.8423  0.5087  0.5122
 2203SOL    HW218072   1.496   0.641  15.301 -0.6887  0.8588 -0.1775
 2204SOL     OW18073   3.000   4.639   2.099  0.3419  0.2024 -0.4367
 2204SOL    HW118074   2.922   4.585   2.109  0.5780 -0.2411 -0.9537
 2204SOL    HW218075   2.970   0.001   2.133  0.4994 -0.2556  0.8776
 2205SOL     OW18076   2.937   4.022  11.918 -0.0201 -0.4530  0.9965
 2205SOL    HW118077   2.962   4.095  11.975  0.3667  0.9742 -0.9940
 2205SOL    HW218078   2.919   4.064  11.834 -1.4042 -3.1667 -0.0623
 2206SOL     OW18079   3.793   1.451   6.471  0.6394  0.0061 -0.4448
 2206SOL    HW118080   3.811   1.404   6.389 -0.5622 -0.2371 -0.5566
 2206SOL    HW218081   3.770   1.381   6.532 -0.4071  0.8267  0.0929
 2207SOL     OW18082   4.604   2.991  16.440  0.1982  0.1321 -0.0174
 2207SOL    HW118083   4.692   3.024  16.421 -0.6708  2.2995 -0.3514
 2207SOL    HW218084   4.549   3.066  16.418  0.0896 -0.6807 -2.5837
 2208SOL     OW18085   2.379   4.050   6.162  0.1401 -0.2012 -0.2642
 2208SOL    HW118086   2.430   4.031   6.083  0.3810 -0.1528 -0.1214
 2208SOL    HW218087   2.443   4.060   6.233 -0.3020 -0.5835  0.1835
 2209SOL     OW18088   0.249   1.780  15.147 -0.1844 -0.4207  0.4385
 2209SOL    HW118089   0.175   1.841  15.145 -1.7258 -2.2502  2.0505
 2209SOL    HW218090   0.319   1.843  15.162 -0.6736  0.5175 -1.1027
 2210SOL     OW18091   2.286   3.280  11.804 -0.1459 -0.4087 -0.2858
 2210SOL    HW118092   2.216   3.344  11.796  0.2813  0.1074  0.1254
 2210SOL    HW218093   2.365   3.327  11.781 -1.0346  2.7790  3.2628
 2211SOL     OW18094   0.743   4.176   8.586  0.5425  0.2761 -0.4897
 2211SOL    HW118095   0.779   4.146   8.670  0.0452  0.6576 -0.1400
 2211SOL    HW218096   0.669   4.116   8.585 -0.1669  1.1420  1.9174
 2212SOL     OW18097   1.646   4.326   4.337  0.5297  0.3055  0.3822
 2212SOL    HW118098   1.612   4.341   4.425 -0.1437  0.4133  0.1060
 2212SOL    HW218099   1.711   4.257   4.339 -1.7332 -1.8054  0.9377
 2213SOL     OW18100   4.450   4.522  10.782 -0.3780 -0.0912 -0.3551
 2213SOL    HW118101   4.459   4.452  10.717  1.5394 -0.1982  0.0456
 2213SOL    HW218102   4.358   4.542  10.763 -1.0793 -0.6457  2.5267
 2214SOL     OW18103   1.726   2.583  10.600 -1.1704 -0.1122 -0.2756
 2214SOL    HW118104   1.657   2.556  10.539 -0.5157 -1.4236 -0.4502
 2214SOL    HW218105   1.758   2.503  10.641  0.2985  0.4984 -0.2399
 2215SOL     OW18106   2.180   4.287   3.237  0.9133  0.6269  0.4360
 2215SOL    HW118107   2.272   4.283   3.212  0.7389 -1.9330  0.2352
 2215SOL    HW218108   2.201   4.340   3.314 -0.1488  1.8052 -0.0776
 2216SOL     OW18109   3.071   0.813  10.313  0.2050  0.2201 -0.5156
 2216SOL    HW118110   2.985   0.848  10.290 -0.7675 -0.9846  1.2931
 2216SOL    HW218111   3.120   0.892  10.293 -0.3726  0.0910 -2.4082
 2217SOL     OW18112   3.849   2.003   1.919  0.4491  0.1159 -0.7546
 2217SOL    HW118113   3.793   1.938   1.962  1.1243  0.8065  1.1541
 2217SOL    HW218114   3.916   2.006   1.987 -0.3814 -1.3539  0.1427
 2218SOL     OW18115   2.318   3.283   9.091  0.2408  0.0323  0.1468
 2218SOL    HW118116   2.252   3.347   9.119 -0.6314 -0.8554  0.1124
 2218SOL    HW218117   2.388   3.313   9.149  0.4069  1.8705 -1.0017
 2219SOL     OW18118   0.503   3.661   8.925 -0.3841  0.9450 -0.6498
 2219SOL    HW118119   0.493   3.606   9.002  0.6644  1.4443 -0.1622
 2219SOL    HW218120   0.452   3.734   8.958  0.3915  2.1548 -2.0939
 2220SOL     OW18121   3.713   0.348  15.587 -0.6014  0.8912  0.3949
 2220SOL    HW118122   3.625   0.315  15.602 -0.2165 -0.7583 -0.9423
 2220SOL    HW218123   3.711   0.401  15.508 -0.1506  0.6385  0.2090
 2221SOL     OW18124   3.385   3.110   4.892 -0.6389  0.0636 -0.4752
 2221SOL    HW118125   3.336   3.185   4.927 -1.5071 -0.9018  0.4140
 2221SOL    HW218126   3.325   3.080   4.823  0.5505 -0.8073 -1.1238
 2222SOL     OW18127   0.333   1.941   0.542 -0.1013 -0.4820  0.0230
 2222SOL    HW118128   0.280   1.977   0.612 -2.0058 -1.2363 -1.0388
 2222SOL    HW218129   0.267   1.939   0.473 -0.2850 -3.7461  0.2864
 2223SOL     OW18130   2.575   3.121   4.644 -0.3241  0.4275  0.2368
 2223SOL    HW118131   2.509   3.057   4.674 -1.3374  1.5514  0.4187
 2223SOL    HW218132   2.647   3.059   4.646  0.2250  0.9319 -4.2225
 2224SOL     OW18133   1.749   4.211   5.168 -0.1871 -0.5158 -0.3160
 2224SOL    HW118134   1.653   4.211   5.165 -0.1608 -0.1047 -1.0626
 2224SOL    HW218135   1.764   4.190   5.076 -0.1022  0.0501 -0.4325
 2225SOL     OW18136   0.008   3.840   6.089 -0.4764  0.2869  0.0202
 2225SOL    HW118137   4.645   3.883   6.100 -1.7518 -2.3176  0.2925
 2225SOL    HW218138   0.029   3.868   6.000 -0.9196  0.6681  0.0340
 2226SOL     OW18139   1.674   0.832   8.861 -0.1049  0.3545 -0.4076
 2226SOL    HW118140   1.671   0.804   8.953  1.0939  2.7864  0.3801
 2226SOL    HW218141   1.605   0.776   8.826 -1.6835  1.3126  1.1938
 2227SOL     OW18142   0.178   3.501   1.392 -0.5469 -0.0044 -0.3343
 2227SOL    HW118143   0.082   3.497   1.396 -0.5983  1.2149 -0.3096
 2227SOL    HW218144   0.201   3.586   1.429 -1.5471 -0.5063  1.4450
 2228SOL     OW18145   4.700   4.147   8.650 -0.6381  0.0738 -0.1976
 2228SOL    HW118146   0.033   4.217   8.683  1.0317 -1.4402  0.1976
 2228SOL    HW218147   4.630   4.159   8.715  1.0750 -0.6545  1.7554
 2229SOL     OW18148   1.254   2.812   4.716 -0.1901 -0.2618  0.3163
 2229SOL    HW118149   1.282   2.893   4.674  4.5594 -2.6855 -1.2102
 2229SOL    HW218150   1.305   2.816   4.797  2.7664 -0.2464 -1.5554
 2230SOL     OW18151   4.234   3.894  12.917 -0.2373 -0.1002  0.0666
 2230SOL    HW118152   4.165   3.850  12.868 -1.1747  0.5349  0.8130
 2230SOL    HW218153   4.176   3.930  12.985 -0.8776 -0.1675 -0.4382
 2231SOL     OW18154   2.517   0.060   9.526 -0.0912 -0.0676  0.0133
 2231SOL    HW118155   2.433   0.055   9.481  0.8041  1.9351 -1.8574
 2231SOL    HW218156   2.545   0.146   9.495  4.6641 -1.7740 -0.4082
 2232SOL     OW18157   1.814   3.463   3.903 -0.3236 -0.1066 -0.8017
 2232SOL    HW118158   1.830   3.556   3.889 -0.8420 -0.1171 -1.4267
 2232SOL    HW218159   1.718   3.462   3.904 -0.3256  0.2834 -0.6563
 2233SOL     OW18160   2.447   0.316   5.520  0.3233 -0.1776 -0.5177
 2233SOL    HW118161   2.394   0.382   5.565  0.7060  0.4432 -0.9748
 2233SOL    HW218162   2.379   0.275   5.467 -0.2584  0.1430 -0.0158
 2234SOL     OW18163   3.824   3.279  11.542 -0.2815 -0.0564 -0.3287
 2234SOL    HW118164   3.824   3.350  11.478  0.8431 -1.4498 -1.8658
 2234SOL    HW218165   3.736   3.244  11.526 -0.8340  0.6411  1.1136
 2235SOL     OW18166   1.009   0.265  11.518 -0.3083 -0.5031 -0.0076
 2235SOL    HW118167   1.065   0.289  11.591 -1.9592  3.1542  0.1010
 2235SOL    HW218168   0.988   0.178  11.551  0.2622 -0.3330  0.7856
 2236SOL     OW18169   4.230   3.754  11.302 -0.0391 -0.1560 -0.3231
 2236SOL    HW118170   4.313   3.727  11.264  0.5595 -1.4017  1.8749
 2236SOL    HW218171   4.228   3.845  11.274 -0.8234 -0.3550 -0.9490
 2237SOL     OW18172   0.937   4.552   3.185  0.2984  0.0058 -0.0467
 2237SOL    HW118173   0.856   4.594   3.215 -0.0058 -2.8343  3.2115
 2237SOL    HW218174   0.970   4.524   3.271  3.0402 -2.5984 -1.9620
 2238SOL     OW18175   4.642   3.031   2.568  0.3284  0.5682  0.1674
 2238SOL    HW118176   4.606   2.975   2.499  0.4522 -1.1681  1.4955
 2238SOL    HW218177   4.557   3.062   2.601  1.1491 -0.3577  3.1457
 2239SOL     OW18178   3.496   2.617  13.031 -0.0186  0.3364 -0.1034
 2239SOL    HW118179   3.513   2.710  13.046  2.9064 -0.3075  0.4834
 2239SOL    HW218180   3.538   2.601  12.947 -0.7628  0.3134 -0.4785
 2240SOL     OW18181   3.194   1.244   4.578 -0.1462 -0.0931  0.0627
 2240SOL    HW118182   3.220   1.152   4.578 -0.6142 -0.2092 -2.6188
 2240SOL    HW218183   3.243   1.284   4.651 -1.8936  2.4623 -0.1698
 2241SOL     OW18184   1.342   4.307   7.456 -0.0621 -0.0307  0.2364
 2241SOL    HW118185   1.283   4.242   7.417 -1.8761  1.2660  0.8440
 2241SOL    HW218186   1.283   4.381   7.447  1.1581  1.1991  2.1618
 2242SOL     OW18187   3.327   0.484   8.514  0.0011 -0.3900 -0.2568
 2242SOL    HW118188   3.239   0.447   8.510  0.2524 -0.8608 -1.6495
 2242SOL    HW218189   3.395   0.416   8.506 -0.3423 -0.6936 -0.6074
 2243SOL     OW18190   2.598   2.114   3.638  0.0074 -0.3771 -0.3431
 2243SOL    HW118191   2.507   2.123   3.609 -0.7684 -2.0051  1.5138
 2243SOL    HW218192   2.642   2.076   3.562  1.1506  0.0166  0.1134
 2244SOL     OW18193   3.210   2.636   8.811 -0.3479 -0.2486 -0.2093
 2244SOL    HW118194   3.267   2.609   8.738 -0.3790 -2.4927  0.5721
 2244SOL    HW218195   3.158   2.704   8.770 -1.2560 -0.5803  0.3974
 2245SOL     OW18196   2.332   2.053   4.064  0.1196 -0.1233  0.3165
 2245SOL    HW118197   2.292   2.140   4.055  0.8604  0.1453 -0.2839
 2245SOL    HW218198   2.426   2.068   4.062  0.0681  0.1652  0.0371
 2246SOL     OW18199   1.776   0.804   8.607  0.0699 -0.1675  0.5388
 2246SOL    HW118200   1.752   0.815   8.699  0.6609 -1.3728  0.8347
 2246SOL    HW218201   1.796   0.895   8.584  0.2621 -0.3374  0.0334
 2247SOL     OW18202   0.477   1.736   9.382  0.3733  0.3416  0.2452
 2247SOL    HW118203   0.495   1.769   9.470  1.6627 -2.9465  1.2492
 2247SOL    HW218204   0.503   1.802   9.318 -0.0249  0.9157  0.6789
 2248SOL     OW18205   1.957   0.288   1.785 -0.1076 -0.1364  0.1245
 2248SOL    HW118206   2.035   0.265   1.733  0.9125  2.8644  0.2780
 2248SOL    HW218207   1.922   0.200   1.795 -0.4966 -0.1196 -1.0593
 2249SOL     OW18208   2.866   2.744  13.588 -0.2215 -0.6993  0.1201
 2249SOL    HW118209   2.854   2.689  13.511  0.2602 -0.4919 -0.1030
 2249SOL    HW218210   2.936   2.797  13.551 -1.3105  0.9469  0.4566
 2250SOL     OW18211   3.122   4.126  10.993 -0.1953  0.0796 -0.2177
 2250SOL    HW118212   3.114   4.177  11.074  1.3402  0.0050 -0.0082
 2250SOL    HW218213   3.217   4.123  11.003 -0.4717  0.8182  2.6122
 2251SOL     OW18214   3.565   4.062   1.705  0.0299  0.4416  0.4318
 2251SOL    HW118215   3.557   4.148   1.748  0.4613  2.3115 -3.1966
 2251SOL    HW218216   3.612   4.016   1.775  0.0080  2.0272  1.5104
 2252SOL     OW18217   0.117   3.168   6.096 -0.2896 -0.3829  0.0026
 2252SOL    HW118218   0.111   3.190   6.003  0.0375  0.6025  0.2180
 2252SOL    HW218219   0.177   3.232   6.135 -0.9543  0.4330 -0.3197
 2253SOL     OW18220   1.482   4.165   5.163 -0.4201  0.5915 -0.2936
 2253SOL    HW118221   1.393   4.176   5.128 -1.2923  1.3665  2.2131
 2253SOL    HW218222   1.485   4.225   5.237 -2.1258  0.0253  0.2424
 2254SOL     OW18223   4.626   1.871  11.029 -0.4461  0.0872  0.3995
 2254SOL    HW118224   4.542   1.826  11.034  0.3050 -1.3081  0.4727
 2254SOL    HW218225   4.607   1.962  11.053 -0.0747  0.8899 -2.4012
 2255SOL     OW18226   1.590   4.100   3.103 -0.1904  0.4558  0.1665
 2255SOL    HW118227   1.661   4.162   3.086  0.8915 -0.8219 -0.0153
 2255SOL    HW218228   1.556   4.090   3.014  0.1335 -0.9741  0.2118
 2256SOL     OW18229   1.220   4.513   0.484  0.1937  0.5021 -1.3615
 2256SOL    HW118230   1.272   4.440   0.517  2.7692  2.7935 -0.3719
 2256SOL    HW218231   1.288   4.554   0.430  1.2095 -1.6892 -1.7312
 2257SOL     OW18232   3.468   1.879   8.597  0.8978  0.0243 -0.0917
 2257SOL    HW118233   3.453   1.892   8.691 -0.1005 -0.0238 -0.2455
 2257SOL    HW218234   3.443   1.787   8.594  0.5128  0.1827 -1.5598
 2258SOL     OW18235   4.711   2.051   3.005 -0.9489 -0.3310  0.2212
 2258SOL    HW118236   0.078   2.019   3.022 -1.6845 -3.5133 -1.7558
 2258SOL    HW218237   0.001   2.140   2.972  1.4667 -0.3949  0.9755
 2259SOL     OW18238   0.796   3.478  15.082 -0.0947 -0.0331  0.0306
 2259SOL    HW118239   0.837   3.392  15.091 -1.6543 -0.9999 -2.1611
 2259SOL    HW218240   0.771   3.485  14.990 -0.5046 -2.4150 -0.0522
 2260SOL     OW18241   2.113   3.319   3.709 -0.1514 -0.6853  0.5325
 2260SOL    HW118242   2.106   3.356   3.797 -2.4844 -4.0798  1.8042
 2260SOL    HW218243   2.207   3.320   3.692  0.4421 -2.5874  3.5365
 2261SOL     OW18244   3.181   2.324   7.873 -0.5281 -0.0051  0.1734
 2261SOL    HW118245   3.202   2.288   7.787 -1.1450  1.4864 -0.6089
 2261SOL    HW218246   3.242   2.271   7.924 -0.3214 -0.5859 -0.6840
 2262SOL     OW18247   2.851   1.916   0.183  0.0297 -0.0659 -0.0019
 2262SOL    HW118248   2.900   1.996   0.205 -0.0928  0.0866 -0.2830
 2262SOL    HW218249   2.924   1.855   0.180  0.0592 -0.2161  3.1203
 2263SOL     OW18250   1.147   1.056  11.447  0.6184 -0.1694 -0.0951
 2263SOL    HW118251   1.086   1.128  11.429 -1.3290 -1.4628  1.3780
 2263SOL    HW218252   1.220   1.101  11.404  2.6460 -2.8202  0.6168
 2264SOL     OW18253   2.961   4.119   0.361 -0.5013  0.3203 -0.1828
 2264SOL    HW118254   2.931   4.046   0.307  3.6687  1.7608 -4.3567
 2264SOL    HW218255   2.885   4.126   0.419 -0.3013  0.8388  0.0132
 2265SOL     OW18256   3.492   4.540   5.585  0.2260  0.5184 -0.5857
 2265SOL    HW118257   3.555   4.530   5.513 -0.0727 -1.7289 -0.5608
 2265SOL    HW218258   3.491   4.453   5.626 -0.5593  1.6962  1.8563
 2266SOL     OW18259   3.508   2.737   7.845  0.1665 -0.4724 -0.0477
 2266SOL    HW118260   3.515   2.679   7.921  0.5967  1.7734  1.6420
 2266SOL    HW218261   3.541   2.814   7.891  1.5890  0.9713 -3.5095
 2267SOL     OW18262   0.522   3.384   9.675 -0.5357 -0.7303  0.5262
 2267SOL    HW118263   0.607   3.352   9.704  0.2958  2.0187  1.0807
 2267SOL    HW218264   0.516   3.322   9.602 -0.5367  0.7122 -0.7007
 2268SOL     OW18265   4.038   3.608   4.311  0.2088  0.1995  0.0174
 2268SOL    HW118266   4.087   3.528   4.329 -1.1189 -0.8281 -0.9084
 2268SOL    HW218267   4.111   3.670   4.313  2.3352 -2.2995 -0.9233
 2269SOL     OW18268   1.075   2.925   0.383  0.3863 -0.0621 -0.4108
 2269SOL    HW118269   1.020   2.848   0.371  0.7199 -0.4321  0.4743
 2269SOL    HW218270   1.152   2.880   0.416 -0.2047 -0.4984  0.3521
 2270SOL     OW18271   4.710   2.896   7.787 -0.3950 -0.0192  0.0663
 2270SOL    HW118272   0.010   2.814   7.831 -2.0795 -1.3904 -1.6604
 2270SOL    HW218273   4.713   2.870   7.695  1.3910  0.0738  0.0839
 2271SOL     OW18274   3.720   2.846  15.629  0.3475 -0.0732  0.5896
 2271SOL    HW118275   3.654   2.903  15.668 -1.5816 -0.8503 -1.5934
 2271SOL    HW218276   3.684   2.838  15.541 -1.8027  1.5322  1.3358
 2272SOL     OW18277   1.912   2.849  12.880 -0.1630  0.3265  0.1060
 2272SOL    HW118278   1.946   2.922  12.932 -0.9430  0.7984 -0.0543
 2272SOL    HW218279   1.946   2.869  12.793 -1.3692  1.0681 -0.1842
 2273SOL     OW18280   2.905   0.621   4.266  0.2286 -0.1741  0.4391
 2273SOL    HW118281   2.980   0.678   4.247  0.9879 -2.1765 -2.6551
 2273SOL    HW218282   2.903   0.562   4.191 -2.0600 -0.1753  0.5221
 2274SOL     OW18283   4.556   1.578   4.170 -0.6867  0.0513 -0.2347
 2274SOL    HW118284   4.648   1.572   4.194 -0.1608  1.0872 -2.0053
 2274SOL    HW218285   4.510   1.563   4.252 -0.2386  3.7203  0.6797
 2275SOL     OW18286   3.351   3.251  16.838 -0.1001 -0.5618  0.0838
 2275SOL    HW118287   3.415   3.196  16.883  0.5802  0.5210  0.4512
 2275SOL    HW218288   3.283   3.186  16.823 -1.1198  0.4890  0.1260
 2276SOL     OW18289   3.142   4.025  16.046 -0.4454  0.0122 -0.2465
 2276SOL    HW118290   3.168   3.946  16.094 -0.3364 -0.1691 -0.6014
 2276SOL    HW218291   3.173   4.004  15.958 -0.7172  1.8818 -0.7907
 2277SOL     OW18292   1.710   1.005  17.137 -0.4110 -0.8171  0.2629
 2277SOL    HW118293   1.751   0.995  17.051  1.7497  2.7402  0.8910
 2277SOL    HW218294   1.727   1.098  17.153 -1.4836 -0.5122 -0.3418
 2278SOL     OW18295   1.810   4.168  13.430 -0.5444  0.1665  0.3875
 2278SOL    HW118296   1.765   4.235  13.379  0.7607  0.3262 -0.5409
 2278SOL    HW218297   1.843   4.224  13.500  2.4366 -0.8128 -0.2434
 2279SOL     OW18298   2.616   4.287   8.318 -0.1125 -0.1764  0.4671
 2279SOL    HW118299   2.705   4.323   8.325  0.5209 -1.4025 -1.4533
 2279SOL    HW218300   2.620   4.241   8.235 -0.6420  0.1812  0.2461
 2280SOL     OW18301   1.213   1.522  11.053 -0.5230 -0.2271  0.6376
 2280SOL    HW118302   1.127   1.531  11.011 -0.8566 -1.0406  1.1470
 2280SOL    HW218303   1.185   1.544  11.142 -1.8002 -1.6841  0.6007
 2281SOL     OW18304   1.690   2.029  10.435  0.2166  0.3256  0.0195
 2281SOL    HW118305   1.687   1.985  10.520  1.2196 -1.5272 -0.9082
 2281SOL    HW218306   1.600   2.018  10.406  0.1001 -0.7055  0.7663
 2282SOL     OW18307   4.513   3.870   7.510 -0.3283 -0.1790  0.2292
 2282SOL    HW118308   4.588   3.925   7.489  0.0842 -0.9988 -0.4604
 2282SOL    HW218309   4.533   3.846   7.600 -0.6511  0.7430  0.5473
 2283SOL     OW18310   3.236   3.983   2.643  0.2050  0.4755  0.3013
 2283SOL    HW118311   3.176   3.999   2.716 -1.6245 -0.7491 -0.9292
 2283SOL    HW218312   3.300   4.053   2.650 -1.2570  1.8807 -0.4318
 2284SOL     OW18313   1.236   4.278   4.125  0.2903  0.4709 -0.3976
 2284SOL    HW118314   1.319   4.312   4.156 -0.0854  0.1218  0.9651
 2284SOL    HW218315   1.185   4.359   4.116  1.9371  1.2154 -2.9495
 2285SOL     OW18316   4.030   0.306  16.096 -0.0105 -0.3065  0.4925
 2285SOL    HW118317   4.084   0.299  16.017  0.1429  1.6589  0.4309
 2285SOL    HW218318   4.098   0.342  16.152  1.1824 -0.2203 -1.0150
 2286SOL     OW18319   0.967   3.309   7.157 -0.2805  0.6384 -0.1646
 2286SOL    HW118320   1.018   3.321   7.237 -0.3062  0.3785 -0.1091
 2286SOL    HW218321   0.899   3.372   7.177  0.2380  0.6986  1.3671
 2287SOL     OW18322   1.076   0.989   3.019  0.2144  0.3146  0.2064
 2287SOL    HW118323   1.028   1.033   2.949 -1.3319  0.5294  1.3899
 2287SOL    HW218324   1.154   1.045   3.024  1.8408 -1.9738  0.4292
 2288SOL     OW18325   0.696   1.798  12.539 -0.1272 -0.3066 -0.1122
 2288SOL    HW118326   0.632   1.727  12.548 -3.1975  2.6424  1.4099
 2288SOL    HW218327   0.636   1.871  12.557  0.2080  0.0070 -0.2569
 2289SOL     OW18328   3.677   3.247   0.365 -0.2137 -0.2351  1.0116
 2289SOL    HW118329   3.626   3.212   0.438 -1.2582  1.2275  0.9829
 2289SOL    HW218330   3.646   3.187   0.297 -0.4178 -0.5987  1.4232
 2290SOL     OW18331   2.847   2.277  11.330  0.0528  0.3908 -0.4743
 2290SOL    HW118332   2.859   2.353  11.274 -0.5439  1.9806  1.5456
 2290SOL    HW218333   2.786   2.322  11.389  0.0882  1.2286 -1.0866
 2291SOL     OW18334   3.845   1.677  16.504 -0.5093 -0.8520 -0.2728
 2291SOL    HW118335   3.904   1.721  16.565  2.2917  0.8062 -4.2245
 2291SOL    HW218336   3.763   1.727  16.507  0.1076  0.0795  0.8074
 2292SOL     OW18337   0.944   0.361   5.374  0.7352  0.6505 -0.0998
 2292SOL    HW118338   0.902   0.306   5.440  0.6325  0.5674 -0.2368
 2292SOL    HW218339   0.951   0.298   5.302  0.7905  0.7329 -0.1662
 2293SOL     OW18340   1.605   1.612   5.719 -0.2966  0.4383 -0.6561
 2293SOL    HW118341   1.619   1.583   5.630  0.7264 -1.6602  0.1946
 2293SOL    HW218342   1.580   1.705   5.712  1.4242  0.9016 -0.6484
 2294SOL     OW18343   1.670   2.116  13.047 -0.7222 -0.6849 -0.6547
 2294SOL    HW118344   1.730   2.186  13.021 -0.4595 -1.5651 -2.4564
 2294SOL    HW218345   1.648   2.086  12.958 -1.2121 -2.6521  0.1214
 2295SOL     OW18346   1.805   4.372  11.795  1.0381 -0.0719  0.0193
 2295SOL    HW118347   1.825   4.315  11.720 -1.0452 -3.4138  2.0309
 2295SOL    HW218348   1.794   4.457  11.752  0.0913  0.2328  0.8752
 2296SOL     OW18349   3.271   0.609  13.477  0.2943 -0.2711  0.1875
 2296SOL    HW118350   3.361   0.614  13.508  1.4939  2.0203 -3.5943
 2296SOL    HW218351   3.256   0.515  13.486 -0.8458 -0.1894 -0.7262
 2297SOL     OW18352   2.647   4.711   3.100 -0.0857 -0.0866  0.1466
 2297SOL    HW118353   2.559   0.009   3.069 -0.3823 -1.1736  0.2841
 2297SOL    HW218354   2.681   4.661   3.026 -2.5080 -0.2706 -0.8428
 2298SOL     OW18355   1.073   3.054   7.559 -0.0953  0.0039  0.3962
 2298SOL    HW118356   1.149   3.005   7.593  1.2451  2.5535  1.0836
 2298SOL    HW218357   1.104   3.120   7.498 -1.5109  0.7411  0.4989
 2299SOL     OW18358   4.409   4.694   5.073  0.1262 -0.2609  0.3194
 2299SOL    HW118359   4.364   4.705   5.157 -0.7114  0.1058 -0.1734
 2299SOL    HW218360   4.437   0.062   5.055 -0.5444  0.2590  1.8256
 2300SOL     OW18361   0.845   3.160   6.362 -0.1130  0.3124  0.0144
 2300SOL    HW118362   0.845   3.152   6.458 -1.0811 -0.2600 -0.0357
 2300SOL    HW218363   0.751   3.171   6.349 -0.0802  2.5616  1.6664
 2301SOL     OW18364   2.357   2.696  11.024 -0.1070  0.4151  0.2768
 2301SOL    HW118365   2.392   2.651  11.100 -0.3686  0.1300  0.2273
 2301SOL    HW218366   2.267   2.664  11.034 -1.2287  4.1917  2.1715
 2302SOL     OW18367   0.812   1.561   4.917 -0.8258 -0.0225  0.2055
 2302SOL    HW118368   0.853   1.581   5.002 -0.1039 -0.0415 -0.1410
 2302SOL    HW218369   0.847   1.636   4.869  2.8835 -2.0779 -0.2829
 2303SOL     OW18370   1.414   4.598   2.477 -0.0290  0.2756  0.5683
 2303SOL    HW118371   1.369   4.533   2.423  1.1180 -0.5573  0.6072
 2303SOL    HW218372   1.464   4.643   2.408 -0.5091 -0.3288 -0.1754
 2304SOL     OW18373   1.755   4.550  10.347  0.6764  0.1601  0.0004
 2304SOL    HW118374   1.808   4.627  10.329  0.8038 -0.0918 -0.7084
 2304SOL    HW218375   1.672   4.597  10.346  0.1088 -0.8396 -0.0378
 2305SOL     OW18376   3.790   2.821   6.305 -0.4945  0.3567  0.1566
 2305SOL    HW118377   3.734   2.845   6.232 -1.6714  0.9967  1.2640
 2305SOL    HW218378   3.837   2.753   6.258 -1.0264  1.1247 -1.4742
 2306SOL     OW18379   3.126   0.636   9.800 -0.5003 -0.6233 -0.4205
 2306SOL    HW118380   3.040   0.605   9.772  1.0113 -2.5549 -2.8468
 2306SOL    HW218381   3.124   0.724   9.761  1.1971  0.2553  1.4757
 2307SOL     OW18382   4.160   2.413   8.821  0.1587 -0.2820 -0.0826
 2307SOL    HW118383   4.091   2.480   8.817  0.6361  0.2360  0.3904
 2307SOL    HW218384   4.125   2.348   8.761 -2.4362  0.7543  0.3112
 2308SOL     OW18385   0.855   4.645   2.070  0.1971 -0.0513 -0.1764
 2308SOL    HW118386   0.865   4.703   1.994  1.9544  0.3991  0.3910
 2308SOL    HW218387   0.803   4.574   2.032 -0.8559  1.2493 -1.1590
 2309SOL     OW18388   4.715   1.360   7.875 -0.1796  0.1445  0.3859
 2309SOL    HW118389   4.661   1.422   7.925 -0.0935  1.0658 -0.6599
 2309SOL    HW218390   4.653   1.287   7.870  0.3628 -0.4659  2.4830
 2310SOL     OW18391   3.402   2.855   3.602  0.2810  0.3380 -0.0309
 2310SOL    HW118392   3.438   2.931   3.555  3.3929  0.0801  1.9375
 2310SOL    HW218393   3.407   2.873   3.695 -0.5107 -0.7263  0.2216
 2311SOL     OW18394   0.220   1.635   0.892  0.0924 -0.4600  0.3563
 2311SOL    HW118395   0.248   1.716   0.936  1.2666 -0.9496  0.5044
 2311SOL    HW218396   0.235   1.570   0.960  0.5655  1.7350  2.3487
 2312SOL     OW18397   3.582   3.845  16.599  0.0855 -0.1192 -0.1748
 2312SOL    HW118398   3.507   3.787  16.586  1.7521 -2.5902  1.3051
 2312SOL    HW218399   3.557   3.927  16.556 -1.7789 -0.1339  0.9315
 2313SOL     OW18400   0.506   1.363   9.523 -0.6781 -0.0088 -0.4418
 2313SOL    HW118401   0.467   1.412   9.451  0.2028  0.4805 -0.5872
 2313SOL    HW218402   0.484   1.275   9.492 -0.9252 -1.7885  4.8792
 2314SOL     OW18403   3.936   3.248   6.603  0.4759 -0.2666  0.5159
 2314SOL    HW118404   3.996   3.213   6.668 -1.4798  1.3538  3.2045
 2314SOL    HW218405   3.903   3.174   6.552  2.2042 -0.3697 -0.4530
 2315SOL     OW18406   2.549   1.029  17.186  0.1420 -0.0961 -0.0873
 2315SOL    HW118407   2.557   1.119  17.153 -0.8172 -0.1122 -0.3609
 2315SOL    HW218408   2.470   1.033  17.239  0.0418 -2.5371 -0.0562
 2316SOL     OW18409   1.863   0.994   6.885  0.0613 -0.3304 -0.4402
 2316SOL    HW118410   1.800   1.049   6.839 -0.9715 -0.1595  1.1675
 2316SOL    HW218411   1.856   1.016   6.978 -0.5969 -0.2695 -0.5012
 2317SOL     OW18412   3.163   2.194   8.598  0.2463  0.2722 -0.1422
 2317SOL    HW118413   3.107   2.247   8.655 -0.2988 -0.3867 -0.0621
 2317SOL    HW218414   3.211   2.263   8.552  2.3147 -0.5264  0.7936
 2318SOL     OW18415   1.343   2.349   5.329 -0.0373  0.0359  0.7637
 2318SOL    HW118416   1.390   2.274   5.290 -0.4597 -0.9862  2.2094
 2318SOL    HW218417   1.336   2.410   5.255 -1.1724 -0.6622  0.2910
 2319SOL     OW18418   1.720   4.534   2.602  0.2672 -0.7796  0.5689
 2319SOL    HW118419   1.652   4.481   2.559 -2.8264  2.1602  1.8125
 2319SOL    HW218420   1.765   4.559   2.521 -0.5899 -0.1575  0.2751
 2320SOL     OW18421   2.043   3.406   6.166 -0.3067  0.6965 -0.6591
 2320SOL    HW118422   2.108   3.475   6.182  0.1272 -0.6553  3.3261
 2320SOL    HW218423   1.957   3.446   6.164 -0.1564  1.0043 -0.9348
 2321SOL     OW18424   4.113   0.179   8.407  0.0458 -0.3601  0.7137
 2321SOL    HW118425   4.169   0.257   8.407  1.7488 -1.5707  0.7622
 2321SOL    HW218426   4.149   0.134   8.330  0.4146  0.1986  0.5498
 2322SOL     OW18427   4.314   1.472  15.870 -0.0071 -0.4974 -0.1082
 2322SOL    HW118428   4.392   1.417  15.880  0.0254 -0.5996 -0.9246
 2322SOL    HW218429   4.328   1.498  15.779 -0.5668 -0.2776 -0.1307
 2323SOL     OW18430   0.288   0.275  13.492  0.0363  0.1197  0.0636
 2323SOL    HW118431   0.299   0.341  13.559  0.7735 -4.1257  4.1177
 2323SOL    HW218432   0.206   0.235  13.521  0.0868 -0.4485 -0.5550
 2324SOL     OW18433   0.381   1.268   7.636  0.3153  0.2143 -0.0838
 2324SOL    HW118434   0.292   1.247   7.666 -1.0807  1.6641 -3.2239
 2324SOL    HW218435   0.403   1.339   7.697 -1.2971  0.5722  0.1052
 2325SOL     OW18436   1.672   4.592   2.916  0.0809 -0.2165 -0.0314
 2325SOL    HW118437   1.585   4.554   2.904  0.9174 -1.5703 -1.9093
 2325SOL    HW218438   1.647   4.681   2.891 -1.9435 -1.0338 -0.8732
 2326SOL     OW18439   0.562   2.700  15.678 -0.0337 -0.6614  0.5563
 2326SOL    HW118440   0.579   2.790  15.704  3.7867 -1.1711 -0.0244
 2326SOL    HW218441   0.550   2.707  15.583  0.0740  0.7963  0.6500
 2327SOL     OW18442   3.884   0.685  15.867 -0.2731  0.9801 -0.3954
 2327SOL    HW118443   3.863   0.771  15.832  1.0567  0.0728 -3.4239
 2327SOL    HW218444   3.818   0.625  15.833 -0.4598  0.9618 -0.0039
 2328SOL     OW18445   1.627   4.199   8.011  0.1897 -0.6007  0.0035
 2328SOL    HW118446   1.539   4.237   8.017  1.1976  1.1003  3.6794
 2328SOL    HW218447   1.659   4.245   7.933 -1.8420  1.5377  0.4437
 2329SOL     OW18448   1.871   0.306  14.435 -0.5245 -0.6230  0.7456
 2329SOL    HW118449   1.898   0.245  14.368 -1.4539 -0.0390 -0.1592
 2329SOL    HW218450   1.782   0.311  14.400  0.0615  2.6949 -0.3314
 2330SOL     OW18451   0.550   0.916   0.773  0.0209  0.1006  0.3889
 2330SOL    HW118452   0.640   0.917   0.741 -0.3342 -0.9598 -0.6798
 2330SOL    HW218453   0.558   0.861   0.851 -2.1967  3.0824  2.7152
 2331SOL     OW18454   3.767   0.938   8.865 -0.2661  0.3635  0.5201
 2331SOL    HW118455   3.722   0.878   8.805  0.3164 -1.2599  1.7125
 2331SOL    HW218456   3.837   0.881   8.895  1.0270  1.4910 -0.3909
 2332SOL     OW18457   2.034   0.142  14.238 -0.1620  0.1592  0.1617
 2332SOL    HW118458   2.096   0.085  14.283 -0.8204  0.1414  1.0332
 2332SOL    HW218459   1.969   0.076  14.213  0.0581  0.0359 -0.0877
 2333SOL     OW18460   1.213   1.068  17.662 -0.3860  0.7099  0.0657
 2333SOL    HW118461   1.149   1.060  17.591  0.1113  1.4565 -0.4610
 2333SOL    HW218462   1.295   1.071  17.613 -0.1605 -0.2606  0.3747
 2334SOL     OW18463   0.450   3.500   2.664 -0.1917 -0.6052 -0.9012
 2334SOL    HW118464   0.364   3.489   2.624 -0.4184 -1.5570 -0.1460
 2334SOL    HW218465   0.501   3.545   2.597 -0.6074  0.3021 -0.6081
 2335SOL     OW18466   0.885   4.360   7.777 -0.1035 -0.5631 -0.2624
 2335SOL    HW118467   0.806   4.358   7.830  0.1565  0.9673  0.1887
 2335SOL    HW218468   0.843   4.357   7.691  1.5761 -2.5168 -1.0200
 2336SOL     OW18469   0.578   2.658   5.440  0.6503  0.6204  0.1674
 2336SOL    HW118470   0.490   2.627   5.459  1.3476 -1.2743  0.2310
 2336SOL    HW218471   0.638   2.593   5.477  0.7084  0.9926  0.7333
 2337SOL     OW18472   2.688   0.415   1.683  0.4226  0.3495 -0.3885
 2337SOL    HW118473   2.698   0.489   1.624 -1.1285  1.3112  0.5478
 2337SOL    HW218474   2.636   0.360   1.625 -0.6268 -0.6382  1.4866
 2338SOL     OW18475   4.062   1.867   0.754  0.8567  0.0541 -0.2967
 2338SOL    HW118476   4.044   1.949   0.708 -0.2826 -0.5704 -0.9826
 2338SOL    HW218477   4.023   1.893   0.837 -0.2561 -1.3916 -0.3584
 2339SOL     OW18478   2.999   3.404   4.651  0.2598  0.6484 -0.0173
 2339SOL    HW118479   3.054   3.401   4.573  0.4831  1.4907  0.1109
 2339SOL    HW218480   2.913   3.392   4.611 -0.1719  2.2063  0.4501
 2340SOL     OW18481   2.578   4.716   4.143  0.0785  0.4973 -0.3714
 2340SOL    HW118482   2.637   4.664   4.088  0.0470 -2.4980  2.3703
 2340SOL    HW218483   2.594   4.678   4.230  0.7979  0.5116 -0.5056
 2341SOL     OW18484   0.472   3.550  11.634  0.6074  0.6474 -0.1474
 2341SOL    HW118485   0.512   3.634  11.611  1.4164  0.3703  0.2327
 2341SOL    HW218486   0.506   3.549  11.724  0.3170  1.2506 -0.0241
 2342SOL     OW18487   0.319   3.984   7.996  0.0420 -0.4080  0.0493
 2342SOL    HW118488   0.385   4.009   8.060 -0.6139 -2.4138  1.4898
 2342SOL    HW218489   0.270   3.927   8.055 -0.4160  0.7127  0.7412
 2343SOL     OW18490   3.268   0.498  11.642  0.0620  0.2912 -0.0632
 2343SOL    HW118491   3.239   0.506  11.733 -1.4760  0.9614 -0.6025
 2343SOL    HW218492   3.191   0.464  11.596  0.4007 -0.3294 -0.1652
 2344SOL     OW18493   1.106   2.245   5.039  0.1721 -0.4537  0.0250
 2344SOL    HW118494   1.142   2.199   4.963  0.7301  0.0607 -0.0286
 2344SOL    HW218495   1.094   2.331   4.998 -0.9793 -1.3989 -1.6071
 2345SOL     OW18496   0.413   3.396   5.297  0.3217  0.2547  0.5933
 2345SOL    HW118497   0.497   3.400   5.343  0.1760  0.2763  0.8576
 2345SOL    HW218498   0.381   3.486   5.291  1.6575  0.8240  2.1841
 2346SOL     OW18499   1.323   2.161   3.414 -0.2004  0.0005 -0.6067
 2346SOL    HW118500   1.302   2.116   3.496  1.5113  0.2907 -0.0153
 2346SOL    HW218501   1.288   2.249   3.423 -2.3281 -0.8978 -0.0130
 2347SOL     OW18502   1.640   0.446  11.904  0.0795  0.0341 -0.7964
 2347SOL    HW118503   1.584   0.517  11.934  1.1627  0.1917  0.8353
 2347SOL    HW218504   1.664   0.473  11.815 -0.2162 -0.4608 -1.0277
 2348SOL     OW18505   3.158   0.084   6.189 -0.1801  0.1084 -0.3545
 2348SOL    HW118506   3.216   0.053   6.119  0.1924 -0.7234  0.3245
 2348SOL    HW218507   3.077   0.033   6.178 -0.2233  0.3834 -1.3261
 2349SOL     OW18508   3.705   4.620  14.369  0.3830  0.0522  0.2120
 2349SOL    HW118509   3.684   4.597  14.459 -2.2450 -0.3529 -0.4947
 2349SOL    HW218510   3.664   4.546  14.325 -0.5082  1.1191 -0.7461
 2350SOL     OW18511   3.815   2.747   3.868  0.0399 -0.7671  0.2600
 2350SOL    HW118512   3.751   2.676   3.859  0.2218 -0.9104  0.1070
 2350SOL    HW218513   3.858   2.731   3.784  0.5895  1.3389  0.1408
 2351SOL     OW18514   0.050   1.732  14.036 -0.0644 -0.2514  0.5512
 2351SOL    HW118515   0.077   1.643  14.055 -1.0577 -0.7167 -0.1889
 2351SOL    HW218516   4.684   1.742  14.073 -0.6566 -0.5386 -0.7712
 2352SOL     OW18517   3.007   3.443  12.928 -0.2066 -0.5393 -0.4609
 2352SOL    HW118518   3.063   3.491  12.867  1.5022 -0.6922  0.9896
 2352SOL    HW218519   3.044   3.357  12.911 -0.5279 -0.6303 -0.6916
 2353SOL     OW18520   2.374   0.471   4.265 -0.8087  0.1086 -0.2972
 2353SOL    HW118521   2.384   0.442   4.175  0.3103  1.0266 -0.4662
 2353SOL    HW218522   2.453   0.429   4.299 -1.4526  0.3946  1.5541
 2354SOL     OW18523   3.733   3.985   4.546 -0.3309  0.9117  0.1198
 2354SOL    HW118524   3.731   4.080   4.558 -0.6628  1.2604 -2.7214
 2354SOL    HW218525   3.828   3.976   4.538 -0.5870 -0.5921 -1.0951
 2355SOL     OW18526   4.705   0.954   6.843  0.5122  0.2189 -0.3317
 2355SOL    HW118527   4.695   0.862   6.865  3.2878 -0.1150 -0.4013
 2355SOL    HW218528   0.079   0.955   6.844  0.5093 -1.2518  0.8869
 2356SOL     OW18529   0.399   4.622   2.826  0.3774 -0.1273 -0.3934
 2356SOL    HW118530   0.389   4.527   2.823  1.1795 -0.2007 -0.8082
 2356SOL    HW218531   0.474   4.628   2.885  0.2885  2.3618 -0.5213
 2357SOL     OW18532   0.014   1.292   6.567 -0.4468  0.1966 -0.4721
 2357SOL    HW118533   4.649   1.314   6.598  0.0514 -2.4445  2.8276
 2357SOL    HW218534   0.001   1.288   6.473 -1.4902  0.8360 -0.3483
 2358SOL     OW18535   4.136   3.863  11.787  0.7354  0.2692  0.3254
 2358SOL    HW118536   4.142   3.801  11.715  0.9693  2.1863 -1.3062
 2358SOL    HW218537   4.182   3.939  11.751  1.7800 -0.6848 -0.3648
 2359SOL     OW18538   0.070   1.494   3.370  0.1996 -0.3046  0.3390
 2359SOL    HW118539   0.007   1.543   3.318  1.1415  0.3700 -0.1713
 2359SOL    HW218540   0.048   1.402   3.359  0.3052 -0.5786  2.4897
 2360SOL     OW18541   3.089   4.714   3.677 -0.6004  0.2251 -0.4749
 2360SOL    HW118542   3.079   4.660   3.756  3.3279  0.1987  0.0103
 2360SOL    HW218543   3.008   4.687   3.633  0.1044 -0.0892 -1.5780
 2361SOL     OW18544   4.486   1.864  10.278  0.1408  0.6831  0.1936
 2361SOL    HW118545   4.428   1.792  10.251  0.6063 -0.7190  2.9531
 2361SOL    HW218546   4.563   1.844  10.225  1.8861 -0.8461  3.3525
 2362SOL     OW18547   3.323   2.180   6.940 -0.0909 -0.6795 -0.3179
 2362SOL    HW118548   3.294   2.271   6.932  1.1853 -0.2162  0.3540
 2362SOL    HW218549   3.258   2.146   7.001  0.8108 -1.3039  0.2920
 2363SOL     OW18550   3.242   1.388   6.969  0.1017  0.1355  0.0692
 2363SOL    HW118551   3.295   1.463   6.941 -0.0152 -0.1778 -0.9967
 2363SOL    HW218552   3.217   1.421   7.055 -1.2381  0.1965 -0.3381
 2364SOL     OW18553   0.207   0.293   7.436  0.1318  0.1432 -0.7918
 2364SOL    HW118554   0.119   0.256   7.449  1.0761 -1.3700  1.1573
 2364SOL    HW218555   0.194   0.378   7.477 -0.5596  0.7318 -2.2227
 2365SOL     OW18556   1.059   2.697   2.796  0.2799  0.2851  0.5202
 2365SOL    HW118557   0.979   2.663   2.833  0.2598  0.3031  0.4934
 2365SOL    HW218558   1.033   2.724   2.708  0.6696  1.5308  0.7871
 2366SOL     OW18559   1.980   3.090  14.772 -0.2106 -0.1668 -0.1734
 2366SOL    HW118560   1.900   3.090  14.824 -0.3886  2.0368 -0.4168
 2366SOL    HW218561   2.036   3.145  14.827  1.0108 -0.8807 -0.7220
 2367SOL     OW18562   4.645   1.747   2.655  0.0633 -0.6166 -0.0240
 2367SOL    HW118563   4.652   1.815   2.588  1.1523 -0.5968  0.1113
 2367SOL    HW218564   4.720   1.694   2.629  2.0500  1.7120  0.9220
 2368SOL     OW18565   0.619   3.141   7.509  1.1899  0.2730 -0.2044
 2368SOL    HW118566   0.632   3.224   7.556  0.9485 -0.8035  1.7987
 2368SOL    HW218567   0.578   3.088   7.578 -3.9014 -0.3838 -3.6705
 2369SOL     OW18568   4.245   4.330   4.884 -0.3296  0.0727 -0.0657
 2369SOL    HW118569   4.313   4.300   4.823  0.0563  1.7333 -0.4528
 2369SOL    HW218570   4.207   4.250   4.920 -1.0775  0.5887  0.2937
 2370SOL     OW18571   3.693   3.644   6.439  0.5650 -0.1185  0.4029
 2370SOL    HW118572   3.633   3.647   6.365  0.4182 -0.8721  0.4923
 2370SOL    HW218573   3.776   3.629   6.394  0.0231 -0.8365 -0.3514
 2371SOL     OW18574   0.794   4.498   9.437 -0.0606 -0.0591  0.5343
 2371SOL    HW118575   0.857   4.566   9.413  0.2989 -0.8917 -0.9108
 2371SOL    HW218576   0.776   4.537   9.522  0.4188 -1.6081  1.3383
 2372SOL     OW18577   0.893   2.191  15.138  0.1251  0.8626 -0.3744
 2372SOL    HW118578   0.864   2.101  15.153  1.6669  0.7198  1.8190
 2372SOL    HW218579   0.924   2.214  15.226 -0.7726 -0.5144  0.2910
 2373SOL     OW18580   2.945   4.567   6.584 -0.5137 -0.0472 -0.3384
 2373SOL    HW118581   3.013   4.518   6.538 -1.8854 -1.2672 -1.0760
 2373SOL    HW218582   2.987   4.652   6.589 -0.9634  0.1588 -0.0983
 2374SOL     OW18583   1.564   1.579   2.871 -0.4412  0.1927  0.3319
 2374SOL    HW118584   1.483   1.629   2.859 -0.7064  0.1468  1.9060
 2374SOL    HW218585   1.623   1.646   2.838  0.8644 -1.0293  0.1917
 2375SOL     OW18586   3.562   0.400  11.225  0.6451  0.3500  0.1078
 2375SOL    HW118587   3.588   0.308  11.232  3.9434  1.1619 -1.2188
 2375SOL    HW218588   3.639   0.448  11.255 -0.3376  1.9003  0.1532
 2376SOL     OW18589   3.661   2.346   9.664  0.2155 -0.8024  0.1614
 2376SOL    HW118590   3.643   2.296   9.744  0.0758 -0.9186  0.0565
 2376SOL    HW218591   3.586   2.317   9.612  0.8708 -0.0293 -1.2091
 2377SOL     OW18592   1.587   1.240   9.201  0.7042 -0.6184  0.5924
 2377SOL    HW118593   1.624   1.152   9.209  1.8512 -0.1135  0.8908
 2377SOL    HW218594   1.508   1.238   9.255 -0.6683  0.9719 -1.3530
 2378SOL     OW18595   1.444   1.993  10.293 -0.2725  0.5329 -0.5245
 2378SOL    HW118596   1.353   2.014  10.274 -0.2578 -0.8631 -2.1431
 2378SOL    HW218597   1.461   1.911  10.246 -0.7513 -0.4222  0.9708
 2379SOL     OW18598   2.182   2.572  12.884 -0.2709 -0.1733 -0.0703
 2379SOL    HW118599   2.268   2.587  12.922 -1.2031  0.1499  1.8843
 2379SOL    HW218600   2.140   2.529  12.959  1.9912 -3.0977 -0.4636
 2380SOL     OW18601   0.530   3.850   5.835  0.5039 -0.4265  0.6129
 2380SOL    HW118602   0.477   3.807   5.768  1.0630  1.0072 -0.7533
 2380SOL    HW218603   0.459   3.868   5.896 -1.4846 -2.8870 -0.9723
 2381SOL     OW18604   1.204   2.607  11.716  0.2845  0.5250  0.3454
 2381SOL    HW118605   1.285   2.607  11.767  0.2289  0.8865  0.4365
 2381SOL    HW218606   1.220   2.527  11.666 -0.1109 -0.2332  1.4282
 2382SOL     OW18607   1.802   1.783   3.063  0.0370  0.0872  0.8112
 2382SOL    HW118608   1.798   1.878   3.057  2.5658  0.2309  1.3440
 2382SOL    HW218609   1.869   1.764   2.997  0.1083  0.1613  0.8625
 2383SOL     OW18610   2.765   2.618   3.770  0.3453 -0.0749 -0.1129
 2383SOL    HW118611   2.759   2.572   3.686 -1.0266  0.1508 -0.1302
 2383SOL    HW218612   2.689   2.590   3.820 -0.7437  1.2307 -1.0395
 2384SOL     OW18613   1.837   1.923   5.726 -0.2500 -0.0885 -0.1294
 2384SOL    HW118614   1.881   1.925   5.641 -2.1689  0.4069 -1.1198
 2384SOL    HW218615   1.765   1.981   5.700 -0.2044 -0.2364 -0.5790
 2385SOL     OW18616   2.943   0.272   7.309  0.3250 -0.2675  0.1781
 2385SOL    HW118617   2.979   0.354   7.276  0.6391 -0.7495 -0.6676
 2385SOL    HW218618   3.021   0.241   7.357  1.0816 -0.5884 -1.2623
 2386SOL     OW18619   2.404   3.090   5.189  0.2843 -0.3465  0.0297
 2386SOL    HW118620   2.400   3.161   5.124  0.8231  0.8043  1.2713
 2386SOL    HW218621   2.318   3.097   5.230  0.4849  0.9738  0.2317
 2387SOL     OW18622   0.463   3.280   2.817 -0.1130 -0.2992  0.0530
 2387SOL    HW118623   0.459   3.369   2.782 -1.8870 -1.2185 -2.0976
 2387SOL    HW218624   0.548   3.258   2.780 -0.5214 -2.7490  0.5654
 2388SOL     OW18625   1.847   0.950   8.237 -0.1268  0.1369 -0.6432
 2388SOL    HW118626   1.827   0.863   8.202 -1.4293  0.8525 -1.6722
 2388SOL    HW218627   1.778   1.015   8.221  0.9191  0.9304 -1.9483
 2389SOL     OW18628   0.361   3.805  11.185 -0.2840  0.0838 -0.2616
 2389SOL    HW118629   0.291   3.757  11.141  0.7112 -1.9024  0.3240
 2389SOL    HW218630   0.377   3.871  11.118  1.9890 -0.1428  0.0608
 2390SOL     OW18631   0.732   2.057   3.025  0.3660 -0.1422  0.3163
 2390SOL    HW118632   0.763   2.051   2.935 -1.5160 -1.5981 -0.2179
 2390SOL    HW218633   0.642   2.089   3.026  0.4407  0.0804 -0.0743
 2391SOL     OW18634   2.195   3.607   9.680 -0.1727 -0.5455 -0.1476
 2391SOL    HW118635   2.223   3.641   9.765  1.3248 -0.1873 -0.7806
 2391SOL    HW218636   2.106   3.641   9.684  0.1870  0.5477 -1.5858
 2392SOL     OW18637   4.667   0.501   4.102 -0.4707 -0.0902  0.2621
 2392SOL    HW118638   4.583   0.546   4.102 -0.4053  0.0239 -0.6502
 2392SOL    HW218639   4.708   0.540   4.025  0.9817 -1.1676  0.4922
 2393SOL     OW18640   4.717   1.289   5.989 -0.9037 -0.1037 -0.0203
 2393SOL    HW118641   4.690   1.334   5.909 -1.6898 -0.5876 -0.0244
 2393SOL    HW218642   0.044   1.363   6.025  1.3765 -0.7983 -1.7361
 2394SOL     OW18643   1.968   1.196  16.893  0.0015 -0.5546 -0.1779
 2394SOL    HW118644   2.015   1.223  16.972  1.5368 -1.0832 -0.9166
 2394SOL    HW218645   1.993   1.270  16.838  0.7115  1.3048  2.6368
 2395SOL     OW18646   0.161   4.291   4.922  0.0352 -0.0110  0.4123
 2395SOL    HW118647   0.248   4.265   4.893  0.3989  1.5723  0.0999
 2395SOL    HW218648   0.161   4.384   4.903 -0.9329 -0.1479 -0.2989
 2396SOL     OW18649   0.851   4.276   1.116  0.0279  0.3135  0.3464
 2396SOL    HW118650   0.886   4.204   1.063 -1.3069  0.9246 -1.3871
 2396SOL    HW218651   0.888   4.247   1.199  0.8984  0.9351  0.1720
 2397SOL     OW18652   3.791   2.116  15.332 -0.2049  0.3176  0.3320
 2397SOL    HW118653   3.856   2.084  15.394 -0.1723  2.6059  1.5165
 2397SOL    HW218654   3.810   2.073  15.249  0.5090 -1.0817  1.2165
 2398SOL     OW18655   3.273   0.453   6.392 -0.1992  0.4104  0.5089
 2398SOL    HW118656   3.283   0.358   6.393  0.7535  0.5152  0.8050
 2398SOL    HW218657   3.317   0.481   6.311  0.5873  0.9246  1.1086
 2399SOL     OW18658   0.039   0.877   8.228 -0.0653 -0.2406  0.6080
 2399SOL    HW118659   4.667   0.896   8.216 -0.4231 -1.6763  1.1668
 2399SOL    HW218660   0.064   0.955   8.278 -0.1631  0.0962  0.1268
 2400SOL     OW18661   3.677   2.813   5.007 -0.3327 -0.5512 -0.1735
 2400SOL    HW118662   3.752   2.865   4.978  1.5609 -2.2606  1.6307
 2400SOL    HW218663   3.615   2.883   5.025 -0.2282 -1.1595  2.5884
 2401SOL     OW18664   0.638   4.127   3.468 -0.3939 -0.1497  0.0077
 2401SOL    HW118665   0.646   4.102   3.376  2.6446 -1.4976  0.6344
 2401SOL    HW218666   0.610   4.218   3.461 -0.4199 -0.0913  0.8162
 2402SOL     OW18667   0.176   4.343   6.365 -0.2519  0.5013 -0.0531
 2402SOL    HW118668   0.201   4.332   6.457  0.7305  0.0083 -0.3769
 2402SOL    HW218669   0.246   4.386   6.315  0.3581  0.2745  0.6083
 2403SOL     OW18670   3.670   4.526   2.926  0.0890  0.6818 -0.3772
 2403SOL    HW118671   3.758   4.491   2.933 -1.3416 -2.7975  0.0788
 2403SOL    HW218672   3.631   4.450   2.883  2.5458 -1.5530  1.3775
 2404SOL     OW18673   2.370   3.980   3.856  0.1201 -0.4360  0.2276
 2404SOL    HW118674   2.414   4.047   3.803 -0.3564  1.0129  1.6596
 2404SOL    HW218675   2.308   3.940   3.795 -0.0525 -0.9718  0.7572
 2405SOL     OW18676   3.900   4.351   8.460  0.6332 -0.1018 -0.0678
 2405SOL    HW118677   3.880   4.258   8.467 -0.1467  0.1317  0.8307
 2405SOL    HW218678   3.812   4.383   8.477  1.4480  0.9903  2.1962
 2406SOL     OW18679   2.749   3.590   3.293 -0.3433  0.0714  0.5634
 2406SOL    HW118680   2.746   3.545   3.378 -3.8468  0.8679  0.8917
 2406SOL    HW218681   2.772   3.678   3.324 -1.3622  0.0825  1.3135
 2407SOL     OW18682   2.117   4.703  10.546  0.2317  0.0578  0.4813
 2407SOL    HW118683   2.095   0.062  10.592  1.9124  0.6109  0.3467
 2407SOL    HW218684   2.053   4.644  10.585 -1.7860  2.1168  0.3108
 2408SOL     OW18685   1.829   3.427   0.106  1.0773 -0.3765  0.1648
 2408SOL    HW118686   1.813   3.369   0.180 -3.8535 -0.1030 -0.7074
 2408SOL    HW218687   1.749   3.479   0.111  1.0981 -0.4581  1.2967
 2409SOL     OW18688   0.506   3.273   1.537 -0.0682 -0.1503  0.3003
 2409SOL    HW118689   0.561   3.278   1.616  0.7465 -0.2592 -0.2634
 2409SOL    HW218690   0.494   3.368   1.527  0.2895 -0.1683 -0.2803
 2410SOL     OW18691   0.940   0.936  14.990  0.9453  0.3256 -0.5609
 2410SOL    HW118692   0.897   0.943  15.075  3.6962  0.6223  0.7892
 2410SOL    HW218693   0.867   0.923  14.929  0.8302  2.4570 -0.8846
 2411SOL     OW18694   4.577   2.406  10.803 -0.3043 -0.1041 -0.1246
 2411SOL    HW118695   4.623   2.400  10.887  0.8183  1.1088 -0.6520
 2411SOL    HW218696   4.647   2.450  10.755  0.4111 -3.4348 -2.1210
 2412SOL     OW18697   1.725   4.602   1.367  0.2302 -0.4471  0.3319
 2412SOL    HW118698   1.723   4.685   1.321  0.3368 -0.4148  0.3861
 2412SOL    HW218699   1.658   4.557   1.316  0.5449 -2.0903  1.3531
 2413SOL     OW18700   3.756   2.804  13.100 -0.6317  0.6174 -0.1460
 2413SOL    HW118701   3.833   2.832  13.051 -1.5533 -0.2579 -2.0820
 2413SOL    HW218702   3.678   2.853  13.073 -0.6829  0.3950 -0.3927
 2414SOL     OW18703   1.253   4.445  13.666  0.3619  0.3996 -0.3132
 2414SOL    HW118704   1.191   4.374  13.684 -0.4518  1.0513 -0.5292
 2414SOL    HW218705   1.231   4.508  13.734 -1.9301 -1.1896  0.4356
 2415SOL     OW18706   4.000   1.754  17.554 -0.2998  0.0414  0.2073
 2415SOL    HW118707   3.943   1.680  17.575 -1.1959  0.3349 -1.1447
 2415SOL    HW218708   4.019   1.782  17.643 -0.8537 -1.2958  0.7474
 2416SOL     OW18709   4.187   2.168  10.590  0.0649 -0.1960 -0.3386
 2416SOL    HW118710   4.247   2.207  10.654  0.2663  0.1922 -0.7686
 2416SOL    HW218711   4.101   2.175  10.632 -0.0313  1.4891 -0.8199
 2417SOL     OW18712   4.620   1.426   9.731 -0.3793  0.5786 -0.1113
 2417SOL    HW118713   4.585   1.482   9.799 -1.4306 -0.3768  0.1285
 2417SOL    HW218714   4.671   1.364   9.783  0.6972  1.0597 -0.5963
 2418SOL     OW18715   1.112   4.513  12.837 -1.1838  0.0566 -0.7170
 2418SOL    HW118716   1.162   4.595  12.840 -0.1878 -0.6046  0.3948
 2418SOL    HW218717   1.032   4.544  12.879 -0.6149 -0.5600  0.8118
 2419SOL     OW18718   1.496   0.333   8.894 -0.0476 -0.0716 -0.6374
 2419SOL    HW118719   1.551   0.264   8.858  1.9500  1.9916 -1.5104
 2419SOL    HW218720   1.472   0.381   8.815 -0.4315 -0.2567 -0.6348
 2420SOL     OW18721   2.012   4.495  12.939  0.3687 -0.0993  0.1101
 2420SOL    HW118722   2.040   4.415  12.982  1.0491 -0.2396 -0.5953
 2420SOL    HW218723   2.092   4.548  12.932 -0.1557  0.8541  1.3169
 2421SOL     OW18724   3.280   4.193   7.668 -0.1470 -0.1682 -0.0103
 2421SOL    HW118725   3.214   4.257   7.693  1.3884  1.4155 -0.0483
 2421SOL    HW218726   3.328   4.176   7.749 -0.3916  1.3786  0.4507
 2422SOL     OW18727   4.559   0.138   6.814  0.9082 -0.7684  0.0237
 2422SOL    HW118728   4.639   0.174   6.853  0.9836 -1.7015  0.7286
 2422SOL    HW218729   4.503   0.212   6.840  1.1757  0.0501 -1.7785
 2423SOL     OW18730   3.138   4.440   1.254  0.6378  0.1068  0.4984
 2423SOL    HW118731   3.204   4.381   1.218 -0.0816 -0.6325  0.3804
 2423SOL    HW218732   3.178   4.527   1.245 -0.1403  0.6557  2.3471
 2424SOL     OW18733   2.053   0.594   7.606 -0.4096 -0.3810  0.6702
 2424SOL    HW118734   1.997   0.607   7.530  0.1346 -1.5864  0.0758
 2424SOL    HW218735   2.125   0.654   7.584 -0.5086 -0.8017 -0.7827
 2425SOL     OW18736   4.084   0.489  14.200 -0.2224 -0.2096  0.5464
 2425SOL    HW118737   3.989   0.501  14.197 -0.2657 -0.8507 -0.5605
 2425SOL    HW218738   4.097   0.426  14.130 -0.6521  1.1408 -0.7542
 2426SOL     OW18739   0.017   3.056   2.208 -0.0984 -0.1083 -0.1970
 2426SOL    HW118740   0.016   3.056   2.112 -2.1755 -1.9972 -0.1799
 2426SOL    HW218741   0.033   3.150   2.220  1.0580 -0.1952 -1.0330
 2427SOL     OW18742   1.127   1.873   8.570  0.0916 -0.3628 -0.6000
 2427SOL    HW118743   1.166   1.935   8.508 -1.2909  1.4416  0.2975
 2427SOL    HW218744   1.067   1.830   8.510 -1.8727  0.5714  0.6868
 2428SOL     OW18745   1.278   1.633   4.664  0.2550  0.0094 -0.5783
 2428SOL    HW118746   1.354   1.597   4.711 -1.5076 -2.4992  0.3972
 2428SOL    HW218747   1.211   1.631   4.733  0.3890  1.2915 -0.4128
 2429SOL     OW18748   2.475   1.292   5.927  0.4970  0.3951  0.3260
 2429SOL    HW118749   2.450   1.209   5.968  2.6577 -0.1855  0.4620
 2429SOL    HW218750   2.437   1.352   5.991  0.2066  1.1885 -0.5823
 2430SOL     OW18751   1.579   3.571  14.802 -0.1093  0.0518 -0.4555
 2430SOL    HW118752   1.483   3.569  14.794  0.0484 -0.8100 -2.0856
 2430SOL    HW218753   1.602   3.497  14.746  1.2188  0.7624 -0.8436
 2431SOL     OW18754   0.761   1.543   2.982 -0.1266  0.1434  0.6417
 2431SOL    HW118755   0.671   1.557   3.010 -0.6497 -0.1753 -0.9029
 2431SOL    HW218756   0.749   1.539   2.887 -1.6688  1.0093  0.7908
 2432SOL     OW18757   1.192   4.649  16.415  0.0505 -0.5012 -0.2093
 2432SOL    HW118758   1.273   4.605  16.441  2.0010  3.2491  0.0548
 2432SOL    HW218759   1.149   4.659  16.500  0.7647 -0.3917  0.1301
 2433SOL     OW18760   1.211   4.703   4.203 -0.0987  0.3649  0.3361
 2433SOL    HW118761   1.293   0.024   4.226 -1.1556  2.6240 -0.0392
 2433SOL    HW218762   1.250   4.624   4.168  0.4183  0.9632 -0.4260
 2434SOL     OW18763   2.190   3.344  15.314 -0.6711 -0.1378  0.1316
 2434SOL    HW118764   2.234   3.428  15.325  0.7645 -1.0324  1.1864
 2434SOL    HW218765   2.128   3.348  15.387 -0.0252  2.3125  0.5427
 2435SOL     OW18766   2.465   3.899   6.858  0.4657 -0.2636 -0.3118
 2435SOL    HW118767   2.476   3.813   6.900 -0.2851  0.5421  1.5618
 2435SOL    HW218768   2.472   3.958   6.934 -0.1543 -0.0587 -0.4108
 2436SOL     OW18769   0.292   4.091  11.641  0.2573 -0.1880 -0.2813
 2436SOL    HW118770   0.225   4.128  11.583  1.5953  0.2967 -1.5355
 2436SOL    HW218771   0.334   4.029  11.582 -3.1494 -0.3697 -2.5237
 2437SOL     OW18772   0.366   4.645   3.424  0.2950  0.2036  0.1461
 2437SOL    HW118773   0.452   4.675   3.453  1.4815 -1.1386 -2.0634
 2437SOL    HW218774   0.390   4.628   3.334 -2.6977  0.3208 -0.6937
 2438SOL     OW18775   1.407   4.693  10.687 -0.3131 -0.4241 -0.0294
 2438SOL    HW118776   1.501   4.702  10.668  0.0472 -1.8559  1.0273
 2438SOL    HW218777   1.380   0.059  10.664  1.3185  0.2237  0.5162
 2439SOL     OW18778   0.823   0.298   4.363 -0.0581 -0.1678 -0.3646
 2439SOL    HW118779   0.912   0.290   4.328  1.2093 -1.9052  3.2194
 2439SOL    HW218780   0.789   0.364   4.302  0.4657  1.5741  1.2554
 2440SOL     OW18781   2.023   0.273   6.283  0.4878  0.3611  0.2838
 2440SOL    HW118782   1.960   0.221   6.333  1.0273 -1.1181 -0.5735
 2440SOL    HW218783   1.964   0.315   6.221 -0.8808 -0.2089  1.1907
 2441SOL     OW18784   2.486   4.467  17.228 -0.0766  0.4077 -0.0810
 2441SOL    HW118785   2.452   4.412  17.158 -1.7551 -0.3938  1.3449
 2441SOL    HW218786   2.415   4.531  17.233  0.6041  1.3157 -2.4276
 2442SOL     OW18787   0.750   2.127   0.063  0.7355 -0.6342 -0.3074
 2442SOL    HW118788   0.784   2.037   0.071 -2.0901 -1.6516  0.0735
 2442SOL    HW218789   0.819   2.166   0.009 -2.6518  1.8105 -2.7877
 2443SOL     OW18790   1.672   3.209   8.129  0.8133  0.0428  0.4871
 2443SOL    HW118791   1.636   3.175   8.047  1.8969  1.2699 -0.4950
 2443SOL    HW218792   1.636   3.151   8.196 -0.6556 -0.8363 -1.0493
 2444SOL     OW18793   4.334   2.106   0.648  1.2833 -0.4437 -0.2434
 2444SOL    HW118794   4.390   2.051   0.593 -1.2079 -4.4606  1.2441
 2444SOL    HW218795   4.302   2.041   0.710  0.6521  1.3751  1.3420
 2445SOL     OW18796   3.368   1.005   8.700  0.4373  0.6650 -0.0945
 2445SOL    HW118797   3.417   1.087   8.687 -1.3410  2.0471  1.7848
 2445SOL    HW218798   3.370   1.005   8.796  1.0474 -0.3884 -0.1155
 2446SOL     OW18799   3.966   0.856   4.368 -0.7252  0.1694  0.1596
 2446SOL    HW118800   3.970   0.942   4.326 -1.9478 -0.9753 -2.2682
 2446SOL    HW218801   3.897   0.823   4.310  1.1809 -0.9445 -1.4759
 2447SOL     OW18802   4.067   4.203   5.649  0.9686  0.1381  0.5606
 2447SOL    HW118803   4.012   4.282   5.656  1.5441  0.5793  0.1184
 2447SOL    HW218804   4.035   4.149   5.721  0.5327 -0.5445 -0.1505
 2448SOL     OW18805   4.702   1.280   8.957 -0.9350 -0.3488 -0.0319
 2448SOL    HW118806   4.670   1.366   8.983  0.9647  1.2795 -3.0554
 2448SOL    HW218807   0.033   1.306   8.882 -3.8875  2.5647 -1.1160
 2449SOL     OW18808   4.228   1.278   6.593 -0.3484 -0.1000 -0.4238
 2449SOL    HW118809   4.198   1.195   6.555  0.6978 -0.8622  0.4118
 2449SOL    HW218810   4.231   1.253   6.685 -0.8381  1.9838  0.1436
 2450SOL     OW18811   2.187   0.087   3.848 -0.3679 -0.2947  0.1143
 2450SOL    HW118812   2.250   0.099   3.919 -1.9617 -0.2131  1.5224
 2450SOL    HW218813   2.167   4.717   3.862  2.2031 -0.4491  2.7546
 2451SOL     OW18814   4.188   0.774   7.810 -0.0138 -0.1117 -0.5922
 2451SOL    HW118815   4.278   0.754   7.836 -0.7234 -1.2597  1.0399
 2451SOL    HW218816   4.148   0.819   7.885 -2.4243  3.3305 -3.9252
 2452SOL     OW18817   1.242   0.283   5.877 -0.0976  0.1701 -0.1518
 2452SOL    HW118818   1.302   0.215   5.908 -1.5416 -1.3305 -0.5945
 2452SOL    HW218819   1.181   0.245   5.813  1.0758 -0.2256 -1.0498
 2453SOL     OW18820   2.260   2.764   0.256 -0.0294 -0.1264  0.1162
 2453SOL    HW118821   2.186   2.735   0.308  0.2495  0.3018  0.7531
 2453SOL    HW218822   2.241   2.735   0.167  0.1566 -0.4472  0.1834
 2454SOL     OW18823   4.376   3.066  10.261 -0.0854  0.0275  0.3313
 2454SOL    HW118824   4.455   3.107  10.226  2.3287 -3.2164  1.9644
 2454SOL    HW218825   4.404   3.046  10.351 -0.2611 -2.0176 -0.0745
 2455SOL     OW18826   4.076   3.520   3.899 -0.0737  0.2755  0.6990
 2455SOL    HW118827   4.135   3.592   3.877 -0.9644  0.6233 -0.5521
 2455SOL    HW218828   3.993   3.564   3.883 -0.3231  0.2030  1.7485
 2456SOL     OW18829   3.750   3.333   4.027  0.3803 -0.1618 -0.2525
 2456SOL    HW118830   3.753   3.429   4.031  0.3840 -0.1855  0.2657
 2456SOL    HW218831   3.662   3.321   3.992  1.1296 -0.9527 -1.8559
 2457SOL     OW18832   0.050   3.322   2.262 -0.0473  0.1775 -0.5192
 2457SOL    HW118833   0.086   3.396   2.311 -0.4717  2.0860 -3.0866
 2457SOL    HW218834   4.678   3.337   2.272  0.3158  2.4839 -0.5558
 2458SOL     OW18835   1.126   0.371   4.974  0.2325 -0.2070  0.2970
 2458SOL    HW118836   1.044   0.353   5.021 -0.3111  0.4464 -0.4059
 2458SOL    HW218837   1.158   0.454   5.010  0.8481 -0.8996  1.3511
 2459SOL     OW18838   3.214   3.640   4.943  0.4116 -0.0627  0.4050
 2459SOL    HW118839   3.269   3.635   5.021  2.1069  0.8159 -0.7343
 2459SOL    HW218840   3.205   3.550   4.913 -1.4768  0.6195 -1.0168
 2460SOL     OW18841   2.379   2.655   9.516 -0.1143 -0.2452  0.3397
 2460SOL    HW118842   2.295   2.695   9.493  0.8795  2.1425  0.8729
 2460SOL    HW218843   2.352   2.582   9.572 -1.2427 -0.7665 -0.8585
 2461SOL     OW18844   3.994   4.641   5.468  0.2081 -0.1364 -0.4700
 2461SOL    HW118845   3.987   4.720   5.414 -0.1058  1.7348  2.3320
 2461SOL    HW218846   4.045   4.671   5.543 -1.2281  3.0112 -0.7937
 2462SOL     OW18847   1.293   3.778   8.835  0.2612  0.3449 -0.0808
 2462SOL    HW118848   1.262   3.687   8.841  0.7119  0.2048  0.1491
 2462SOL    HW218849   1.212   3.828   8.843 -0.8289 -1.4782  0.2682
 2463SOL     OW18850   2.411   2.373   8.150 -0.0678 -0.2179  0.0758
 2463SOL    HW118851   2.337   2.404   8.201  2.0580  1.6600  2.0550
 2463SOL    HW218852   2.484   2.393   8.209  1.4231 -3.0319 -0.7628
 2464SOL     OW18853   2.365   4.207  10.127  0.0508  0.4548  0.1312
 2464SOL    HW118854   2.454   4.186  10.155  0.0846  0.2555 -0.1314
 2464SOL    HW218855   2.377   4.302  10.131 -1.3875  0.6509 -0.2557
 2465SOL     OW18856   2.070   3.895  15.022  0.0270  0.1472 -0.3934
 2465SOL    HW118857   2.124   3.840  15.079  2.5658  0.5947 -2.3512
 2465SOL    HW218858   1.989   3.849  15.000 -0.5894  0.9533  0.1795
 2466SOL     OW18859   2.110   2.859   5.779  0.6443 -0.1642  0.5786
 2466SOL    HW118860   2.068   2.913   5.846  1.8818  1.1682  0.2561
 2466SOL    HW218861   2.086   2.768   5.801  0.8473 -0.6138 -1.1229
 2467SOL     OW18862   0.648   3.847  13.045 -0.2376  0.3037  0.0990
 2467SOL    HW118863   0.578   3.912  13.039 -2.1053 -1.8980 -1.9211
 2467SOL    HW218864   0.588   3.774  13.059 -0.7958  0.8641  0.6484
 2468SOL     OW18865   4.090   0.433   7.785 -0.1569 -0.4412 -0.3345
 2468SOL    HW118866   4.066   0.520   7.818 -1.3951 -0.3129 -1.5945
 2468SOL    HW218867   4.052   0.447   7.699 -1.4195 -0.4756  0.2093
 2469SOL     OW18868   3.889   0.113   2.205 -0.5088  0.7258  0.3739
 2469SOL    HW118869   3.972   0.153   2.232  0.9681 -2.6196  0.7731
 2469SOL    HW218870   3.896   0.150   2.116  0.1180 -0.7848 -0.1971
 2470SOL     OW18871   2.758   2.346  13.478 -0.1301 -0.3221  0.3140
 2470SOL    HW118872   2.764   2.325  13.571  0.9908  0.7189  0.4663
 2470SOL    HW218873   2.692   2.280  13.455  0.0167  0.1046 -1.3613
 2471SOL     OW18874   1.329   0.845   2.316  0.6174  0.1666 -0.0913
 2471SOL    HW118875   1.242   0.846   2.355  0.1719  1.9761 -1.1140
 2471SOL    HW218876   1.313   0.868   2.224  1.3472  1.3927  0.0798
 2472SOL     OW18877   0.101   0.502   3.887 -0.2034  0.1606  0.0543
 2472SOL    HW118878   0.173   0.477   3.944 -1.1930 -1.6983  0.4841
 2472SOL    HW218879   0.138   0.577   3.840 -2.2425  2.0470  1.4387
 2473SOL     OW18880   2.808   1.046   0.664  0.3764  0.6779  0.0174
 2473SOL    HW118881   2.784   0.959   0.697  0.6262  0.4467 -0.4103
 2473SOL    HW218882   2.892   1.028   0.621 -0.5852  2.0727 -2.4554
 2474SOL     OW18883   3.262   4.466   5.796  0.0394  0.0379 -0.0488
 2474SOL    HW118884   3.239   4.464   5.889 -1.2812 -0.6711 -0.3876
 2474SOL    HW218885   3.245   4.559   5.779  2.3525  0.2851 -0.9492
 2475SOL     OW18886   3.662   3.875   9.537 -0.1195 -0.7001  0.4784
 2475SOL    HW118887   3.624   3.876   9.625  0.0631  2.5163  0.5393
 2475SOL    HW218888   3.720   3.800   9.552 -0.4102 -1.1267 -0.5470
 2476SOL     OW18889   2.155   3.945   5.192 -0.3609 -0.1405 -0.7708
 2476SOL    HW118890   2.142   3.984   5.105  1.4003 -0.5972 -1.2464
 2476SOL    HW218891   2.080   3.886   5.199  0.3800 -1.1693 -1.4860
 2477SOL     OW18892   2.480   3.223   2.878  0.3302  0.1570 -0.2117
 2477SOL    HW118893   2.404   3.273   2.907 -1.1646 -2.2274  0.0275
 2477SOL    HW218894   2.486   3.241   2.785 -1.3565  0.1912 -0.3201
 2478SOL     OW18895   4.128   0.914   7.314 -0.0514 -0.2241  0.4825
 2478SOL    HW118896   4.118   0.981   7.246  1.9964 -0.7125 -0.3124
 2478SOL    HW218897   4.214   0.885   7.284 -0.4083  0.6196 -1.3792
 2479SOL     OW18898   3.560   0.756   4.622  0.1802 -0.5208 -0.3924
 2479SOL    HW118899   3.474   0.737   4.585 -0.2029 -1.0104  0.7548
 2479SOL    HW218900   3.574   0.662   4.634 -0.4282 -0.3788  1.4040
 2480SOL     OW18901   4.096   1.156   3.778 -0.1938  0.8423 -0.3141
 2480SOL    HW118902   4.144   1.120   3.703 -0.0212 -0.5387  0.4572
 2480SOL    HW218903   4.124   1.247   3.783  0.0989  0.7427 -0.1500
 2481SOL     OW18904   2.118   1.891   5.290 -0.1051 -0.0230  0.3483
 2481SOL    HW118905   2.170   1.971   5.277  0.2089  0.2145  2.9052
 2481SOL    HW218906   2.191   1.830   5.275 -0.8896 -0.4990 -1.4724
 2482SOL     OW18907   3.017   2.847  11.759 -0.0900 -0.2921  0.3173
 2482SOL    HW118908   2.976   2.763  11.739  2.8117 -1.5415 -0.4057
 2482SOL    HW218909   3.100   2.817  11.797 -0.2102 -4.3868 -2.6541
 2483SOL     OW18910   2.699   1.269   3.521 -0.1250  0.7136 -0.1327
 2483SOL    HW118911   2.735   1.357   3.514 -0.5780  0.7623 -1.8322
 2483SOL    HW218912   2.775   1.221   3.488 -0.3727  0.6139 -0.5491
 2484SOL     OW18913   3.232   0.029   4.715 -0.4581 -0.0119 -0.6693
 2484SOL    HW118914   3.319   4.714   4.730 -0.6102 -1.2798 -2.8949
 2484SOL    HW218915   3.212   4.718   4.627  0.4010 -1.0452 -0.4703
 2485SOL     OW18916   0.999   2.781   4.650  0.8833  0.1779 -0.0674
 2485SOL    HW118917   1.092   2.793   4.666  0.6798  0.8845  0.5690
 2485SOL    HW218918   0.984   2.755   4.741 -0.2546 -0.7472 -0.5235
 2486SOL     OW18919   4.592   1.923  13.099 -0.5107  0.0725 -0.5556
 2486SOL    HW118920   4.686   1.942  13.103 -0.3200 -1.3220  1.3960
 2486SOL    HW218921   4.572   1.924  13.005 -0.7328 -2.0270 -0.5177
 2487SOL     OW18922   0.420   2.713   6.723 -0.2721  0.1571  0.3536
 2487SOL    HW118923   0.348   2.674   6.772  0.1434  0.5926  1.3156
 2487SOL    HW218924   0.380   2.730   6.638  0.5920  0.0977 -0.0712
 2488SOL     OW18925   3.328   4.647   3.962 -0.2123  0.2251 -0.0977
 2488SOL    HW118926   3.359   0.012   3.985  0.1288 -0.2975  1.4287
 2488SOL    HW218927   3.232   4.646   3.960 -0.1789  0.9726 -1.7925
 2489SOL     OW18928   1.189   4.235  13.168 -0.1677  0.3193 -0.1952
 2489SOL    HW118929   1.103   4.272  13.152  0.1999  1.6890  1.0477
 2489SOL    HW218930   1.171   4.204  13.256 -0.2132 -0.1132 -0.3586
 2490SOL     OW18931   1.354   4.421   2.261 -0.5441  0.5245 -0.0813
 2490SOL    HW118932   1.372   4.418   2.167 -1.3204 -1.7447 -0.1653
 2490SOL    HW218933   1.293   4.349   2.277  0.7002 -0.1919  1.4378
 2491SOL     OW18934   2.815   1.419  13.059 -0.9247  0.0182 -0.2295
 2491SOL    HW118935   2.853   1.353  13.117  1.4794 -0.7374 -2.6673
 2491SOL    HW218936   2.796   1.478  13.133 -0.5733  0.7629 -0.7281
 2492SOL     OW18937   3.681   2.525   6.800  0.7099  1.1343  0.3841
 2492SOL    HW118938   3.612   2.591   6.798 -1.4372 -1.1567 -1.8626
 2492SOL    HW218939   3.685   2.491   6.710 -1.7591  0.2115  0.6366
 2493SOL     OW18940   2.401   0.923  17.560  0.4678  0.4433  0.2403
 2493SOL    HW118941   2.367   0.944  17.473  1.1960  4.4382  0.9136
 2493SOL    HW218942   2.394   0.998  17.619  1.8543  2.3427 -2.0170
 2494SOL     OW18943   0.955   1.825   1.379 -0.4720  0.1081  0.6242
 2494SOL    HW118944   0.943   1.730   1.375  0.4037  0.0434 -0.2448
 2494SOL    HW218945   1.004   1.839   1.299  0.0233 -1.2161  0.6798
 2495SOL     OW18946   3.574   2.398   7.864 -0.3718 -0.3509 -0.1761
 2495SOL    HW118947   3.569   2.479   7.814 -1.0881 -2.3751 -3.3772
 2495SOL    HW218948   3.556   2.419   7.956  2.1033  2.9637 -0.4677
 2496SOL     OW18949   4.004   1.685  12.920 -0.2268  0.1560 -0.3901
 2496SOL    HW118950   4.075   1.746  12.942  0.4348 -1.2750  1.4047
 2496SOL    HW218951   3.943   1.750  12.885 -1.3493 -0.2915  0.7579
 2497SOL     OW18952   3.771   0.467   0.502  0.0081 -0.0116 -0.2954
 2497SOL    HW118953   3.776   0.518   0.583  0.1182 -2.0857  0.9856
 2497SOL    HW218954   3.815   0.385   0.523  2.4711  1.0146 -1.3258
 2498SOL     OW18955   1.752   4.616  14.407  0.0024 -0.4155 -0.2694
 2498SOL    HW118956   1.727   4.594  14.317 -1.3503  2.1762 -0.5442
 2498SOL    HW218957   1.835   4.659  14.387  0.7954 -2.2709 -0.9793
 2499SOL     OW18958   1.378   4.500   2.765  0.0526 -0.6009 -0.0555
 2499SOL    HW118959   1.419   4.511   2.679  1.0309  2.5797  0.8116
 2499SOL    HW218960   1.307   4.445   2.732 -0.1967  0.1104 -0.7004
 2500SOL     OW18961   2.774   4.585  11.962 -0.2727  0.0527  0.4292
 2500SOL    HW118962   2.768   4.574  12.057  0.3143 -1.2926  0.3031
 2500SOL    HW218963   2.844   4.522  11.943 -0.2174  0.6408 -1.3350
 2501SOL     OW18964   3.280   4.704   7.202 -0.5476 -0.3915  0.3570
 2501SOL    HW118965   3.216   4.686   7.271 -0.2450 -1.0530  0.4671
 2501SOL    HW218966   3.223   4.721   7.127 -0.7250  1.7847  0.9918
 2502SOL     OW18967   1.576   3.153   7.879  0.6873  0.5135 -0.4646
 2502SOL    HW118968   1.554   3.084   7.816 -0.2243  1.5096 -1.2362
 2502SOL    HW218969   1.487   3.171   7.908  0.8665 -0.5145  0.7050
 2503SOL     OW18970   3.137   0.882  11.654  0.5784  0.2977 -0.0231
 2503SOL    HW118971   3.136   0.884  11.750  2.4405  0.7020 -0.0071
 2503SOL    HW218972   3.077   0.810  11.638  0.3238  0.6866 -0.8140
 2504SOL     OW18973   0.122   0.207   6.855  0.0085  0.1311  0.0338
 2504SOL    HW118974   0.172   0.164   6.924 -2.0492 -2.0673  0.1455
 2504SOL    HW218975   0.161   0.294   6.846  1.0027 -0.5306 -1.9751
 2505SOL     OW18976   3.945   3.097   9.909  0.0036  0.1987 -0.2231
 2505SOL    HW118977   3.945   3.002   9.901  2.4738  0.1344  0.5177
 2505SOL    HW218978   3.914   3.124   9.823  2.3568  0.2714 -1.0541
 2506SOL     OW18979   3.517   3.954   3.083  0.1546  0.1986  0.3300
 2506SOL    HW118980   3.477   3.873   3.051 -1.6612  0.7971  1.0648
 2506SOL    HW218981   3.486   3.947   3.174 -0.3328 -0.8840  0.0764
 2507SOL     OW18982   2.116   3.129   6.133  0.9913 -0.2290  0.1817
 2507SOL    HW118983   2.049   3.125   6.065  1.7985  0.0257 -0.6250
 2507SOL    HW218984   2.098   3.219   6.161 -2.3113 -1.1688  1.1024
 2508SOL     OW18985   4.188   4.116   6.256  0.6850 -0.4167 -0.4296
 2508SOL    HW118986   4.283   4.105   6.258  0.6137 -0.6848  1.3682
 2508SOL    HW218987   4.165   4.024   6.270 -1.1343  0.0160 -0.5196
 2509SOL     OW18988   3.712   1.234   4.980 -0.2265  0.1229 -0.0528
 2509SOL    HW118989   3.697   1.321   5.015 -0.5523  0.1494 -0.2543
 2509SOL    HW218990   3.662   1.242   4.899  0.6688  1.8687 -0.4077
 2510SOL     OW18991   3.186   3.508   6.244  0.0102 -0.7830 -0.0485
 2510SOL    HW118992   3.136   3.473   6.318 -0.8324  0.4543 -0.0368
 2510SOL    HW218993   3.171   3.602   6.250  1.6781 -0.4466 -1.4060
 2511SOL     OW18994   2.743   3.937  15.939  0.3570  0.2787 -0.0541
 2511SOL    HW118995   2.718   3.923  15.848  3.2429  0.9849 -0.9236
 2511SOL    HW218996   2.764   3.846  15.959 -0.5928  0.5042  2.0364
 2512SOL     OW18997   2.039   2.575   3.878  0.0270 -0.4885 -0.7455
 2512SOL    HW118998   2.110   2.622   3.832 -0.5358  1.3191  0.2233
 2512SOL    HW218999   2.047   2.486   3.843  5.3109 -1.0015  1.7476
 2513SOL     OW19000   2.845   2.737   1.619  0.6536  0.2699 -0.0667
 2513SOL    HW119001   2.771   2.706   1.566  0.8422 -2.0376  1.0130
 2513SOL    HW219002   2.828   2.830   1.609  1.0902  0.5515  1.8866
 2514SOL     OW19003   4.191   2.002   8.821 -0.6555  0.3316 -0.0844
 2514SOL    HW119004   4.229   1.941   8.757 -0.7415  0.5778 -0.3668
 2514SOL    HW219005   4.105   2.008   8.778 -0.4582 -1.6083 -0.7861
 2515SOL     OW19006   0.755   2.263   9.850  0.2617  0.3133 -0.7987
 2515SOL    HW119007   0.816   2.304   9.913 -0.5202 -0.0520  0.1908
 2515SOL    HW219008   0.685   2.234   9.908  1.4020 -0.3529  0.2695
 2516SOL     OW19009   0.991   4.038   1.029  0.4476 -0.3843 -0.8777
 2516SOL    HW119010   1.042   4.082   1.097 -0.8848  2.3974 -1.6731
 2516SOL    HW219011   1.006   3.948   1.058 -0.4745 -0.9899 -2.2732
 2517SOL     OW19012   1.518   3.637   4.368  0.5441  0.5064 -0.1111
 2517SOL    HW119013   1.447   3.679   4.318 -0.6829 -0.8483  0.4826
 2517SOL    HW219014   1.498   3.543   4.364  0.2486  0.5539  0.2450
 2518SOL     OW19015   2.104   3.476   4.503  0.0243  0.1408 -0.2232
 2518SOL    HW119016   2.092   3.568   4.482  0.7763  0.6995  1.7641
 2518SOL    HW219017   2.186   3.442   4.467 -1.2265  1.0424 -3.8119
 2519SOL     OW19018   2.646   3.133   7.189  0.2597 -0.6799  0.2673
 2519SOL    HW119019   2.625   3.108   7.099 -2.3330  0.6055  0.5132
 2519SOL    HW219020   2.665   3.047   7.225 -2.1048 -0.5168  1.8937
 2520SOL     OW19021   1.205   3.862   3.530 -0.1676  0.1536  0.3926
 2520SOL    HW119022   1.180   3.898   3.445 -1.0941 -0.7044  0.2963
 2520SOL    HW219023   1.200   3.947   3.573  2.4170  0.8369 -0.6943
 2521SOL     OW19024   2.999   1.418   7.841  0.7323  0.0987 -0.4285
 2521SOL    HW119025   3.001   1.448   7.751  0.8895 -0.4601 -0.6127
 2521SOL    HW219026   3.062   1.478   7.881 -1.0027  1.6312  0.0172
 2522SOL     OW19027   1.383   0.958   2.827  0.2752 -0.6641  0.0055
 2522SOL    HW119028   1.463   0.998   2.861 -0.1519  1.9769 -2.0665
 2522SOL    HW219029   1.407   0.952   2.734 -0.1801 -0.8204 -0.1035
 2523SOL     OW19030   0.751   4.420  10.057 -0.1873  0.2062  0.0110
 2523SOL    HW119031   0.773   4.479  10.129  1.5817  1.9430 -1.9819
 2523SOL    HW219032   0.797   4.341  10.087  0.1782  0.1988 -0.5826
 2524SOL     OW19033   2.767   1.160   1.754  0.6835 -0.1520 -0.4615
 2524SOL    HW119034   2.722   1.107   1.687 -0.8894  1.6461 -0.8252
 2524SOL    HW219035   2.723   1.245   1.746 -0.6928 -0.6814  1.4385
 2525SOL     OW19036   3.587   2.343   4.569 -0.4049 -0.1172  0.5622
 2525SOL    HW119037   3.646   2.271   4.548 -0.8397 -0.7120  1.3608
 2525SOL    HW219038   3.642   2.397   4.626  0.7925  1.7889 -2.4000
 2526SOL     OW19039   2.036   0.628   1.625  0.4190 -0.4357 -0.4084
 2526SOL    HW119040   1.967   0.580   1.579 -0.2786  0.1923 -0.0176
 2526SOL    HW219041   2.008   0.719   1.629 -0.8573 -0.8946  1.1572
 2527SOL     OW19042   4.166   3.917   9.616  0.3377  0.0074  0.1259
 2527SOL    HW119043   4.084   3.868   9.625  0.2456  0.4463  1.8002
 2527SOL    HW219044   4.221   3.871   9.680 -1.0011 -2.0037 -0.1687
 2528SOL     OW19045   0.184   1.765   7.397 -0.1760  0.2685 -0.2694
 2528SOL    HW119046   0.237   1.826   7.449  0.5600  0.3380 -1.1007
 2528SOL    HW219047   0.243   1.699   7.360 -0.7782  0.9158 -2.4035
 2529SOL     OW19048   2.243   2.283   7.884 -0.0955  0.0128  0.0325
 2529SOL    HW119049   2.201   2.355   7.931  1.6060  0.4317  0.8998
 2529SOL    HW219050   2.206   2.214   7.941  2.2117 -0.1222  1.3620
 2530SOL     OW19051   2.306   2.935   2.162 -0.2851  0.0082 -0.0378
 2530SOL    HW119052   2.307   2.842   2.142  1.7635 -0.5586  2.6990
 2530SOL    HW219053   2.398   2.959   2.151 -0.5207  1.4884  1.1835
 2531SOL     OW19054   2.743   0.837   4.608 -0.4362 -0.3062 -0.1612
 2531SOL    HW119055   2.787   0.879   4.535  1.3960 -1.1217  0.4633
 2531SOL    HW219056   2.807   0.773   4.639 -1.0829 -0.2711  1.2405
 2532SOL     OW19057   0.742   3.892   4.923 -0.6465 -0.1310  0.1631
 2532SOL    HW119058   0.775   3.808   4.891  1.8550  0.9301 -0.0369
 2532SOL    HW219059   0.649   3.886   4.903 -0.9968  2.1203  1.1653
 2533SOL     OW19060   2.177   3.948   2.080 -0.2207  0.0301  0.2524
 2533SOL    HW119061   2.092   3.936   2.123  0.2983  0.2132  1.3093
 2533SOL    HW219062   2.162   3.880   2.014  1.3026  2.4563 -2.5642
 2534SOL     OW19063   1.697   3.962   7.596 -0.0692 -0.5482  0.3955
 2534SOL    HW119064   1.719   3.939   7.686 -1.0141 -0.1541  0.7236
 2534SOL    HW219065   1.760   4.028   7.569  0.1741 -2.6818 -4.2731
 2535SOL     OW19066   3.287   0.123  12.750  0.0874 -0.2133  0.5392
 2535SOL    HW119067   3.228   0.088  12.817 -2.2652 -0.1075 -1.5266
 2535SOL    HW219068   3.226   0.161  12.688  0.3237 -0.0306  0.4162
 2536SOL     OW19069   1.194   1.833  10.160  0.4941 -0.2192  0.4294
 2536SOL    HW119070   1.116   1.777  10.151 -0.5611  1.5593 -1.3888
 2536SOL    HW219071   1.218   1.815  10.251 -0.3353 -0.8299  0.5276
 2537SOL     OW19072   3.621   1.980   5.887 -0.3701 -0.7275 -0.0844
 2537SOL    HW119073   3.567   1.985   5.808 -1.5828  2.9259  0.9619
 2537SOL    HW219074   3.608   2.060   5.938 -0.8305 -0.7513 -0.1664
 2538SOL     OW19075   1.900   0.529  14.093 -0.0398  0.2200  0.1859
 2538SOL    HW119076   1.959   0.568  14.028 -0.3479 -0.0424 -0.2536
 2538SOL    HW219077   1.964   0.486  14.149 -0.3549  0.2792  0.5862
 2539SOL     OW19078   0.355   4.378  11.723  0.0971 -0.4281  0.0404
 2539SOL    HW119079   0.295   4.449  11.699 -1.2518 -0.8437  2.2148
 2539SOL    HW219080   0.441   4.414  11.700 -0.2803 -0.3045 -1.1790
 2540SOL     OW19081   1.787   2.951   4.983  0.1106 -0.2833  0.2765
 2540SOL    HW119082   1.735   2.982   4.909  1.2655  1.9239  0.3943
 2540SOL    HW219083   1.779   3.031   5.035  1.6438 -0.5555  0.9257
 2541SOL     OW19084   2.626   2.657   1.458 -0.4216 -0.2022  0.4783
 2541SOL    HW119085   2.545   2.613   1.435 -0.6572  1.4345 -1.8261
 2541SOL    HW219086   2.587   2.729   1.508  0.3845  1.9449 -2.0042
 2542SOL     OW19087   1.369   0.477  13.235  0.2213 -0.7294  0.5413
 2542SOL    HW119088   1.410   0.399  13.197  0.1872 -0.4793 -0.0135
 2542SOL    HW219089   1.350   0.447  13.324 -3.5729 -1.9196 -0.6463
 2543SOL     OW19090   3.971   4.385   8.732 -0.4597  0.1200 -0.0046
 2543SOL    HW119091   3.932   4.364   8.648  1.4941  0.5327 -1.0040
 2543SOL    HW219092   3.960   4.308   8.788 -1.0468  0.7740  0.7758
 2544SOL     OW19093   2.310   2.292   3.282  0.6628  0.0505  0.4935
 2544SOL    HW119094   2.399   2.306   3.250  0.8265 -0.3495  0.7773
 2544SOL    HW219095   2.304   2.200   3.258 -2.1036  0.3271  0.1602
 2545SOL     OW19096   1.673   3.957   9.582 -0.2464 -0.2460  0.8118
 2545SOL    HW119097   1.578   3.945   9.585 -0.5019  1.2121 -1.0903
 2545SOL    HW219098   1.682   4.044   9.542 -3.6661 -0.1477  0.2460
 2546SOL     OW19099   2.338   0.188   2.271 -0.0270 -0.1075  0.7989
 2546SOL    HW119100   2.284   0.262   2.299  0.8638  1.1857 -0.8798
 2546SOL    HW219101   2.333   0.197   2.176  0.6774 -2.4354  0.5388
 2547SOL     OW19102   0.986   4.183  12.917  0.2082 -0.6476 -0.2878
 2547SOL    HW119103   0.919   4.249  12.932  0.5590  0.0035 -1.5393
 2547SOL    HW219104   0.952   4.114  12.974 -0.9946 -0.0532 -0.2942
 2548SOL     OW19105   4.522   2.733  16.392  0.2350  0.3858  0.5498
 2548SOL    HW119106   4.544   2.825  16.399  2.9872 -0.3122  1.2001
 2548SOL    HW219107   4.578   2.699  16.322  1.4339  1.3334  1.0666
 2549SOL     OW19108   3.273   0.593   2.376 -0.8721 -0.2285 -0.1325
 2549SOL    HW119109   3.362   0.613   2.345 -0.0608 -0.6969  1.8792
 2549SOL    HW219110   3.234   0.678   2.394  0.4676  0.6831 -1.5551
 2550SOL     OW19111   4.571   2.744   9.331  0.7351  0.5374  0.2412
 2550SOL    HW119112   4.604   2.714   9.247 -0.6628 -0.6906  0.1311
 2550SOL    HW219113   4.612   2.686   9.395  0.3960 -1.4575 -1.3767
 2551SOL     OW19114   1.440   4.265   8.944 -0.2391  0.1372  0.2505
 2551SOL    HW119115   1.465   4.192   9.001 -0.9486  0.1609  0.6006
 2551SOL    HW219116   1.489   4.333   8.990  1.7084 -1.7708  1.0349
 2552SOL     OW19117   4.200   0.479  13.772 -0.2543 -0.0278  0.0272
 2552SOL    HW119118   4.247   0.406  13.732  0.0385  0.6589 -0.9007
 2552SOL    HW219119   4.162   0.514  13.691 -2.1262  0.4048  1.1005
 2553SOL     OW19120   0.221   3.211   5.260  0.0291  0.1952  0.3720
 2553SOL    HW119121   0.274   3.288   5.283 -0.3198  0.0568  1.6274
 2553SOL    HW219122   0.276   3.135   5.277 -0.6000 -0.3429 -0.0225
 2554SOL     OW19123   3.733   2.233   0.288  0.3775  0.5031  0.0370
 2554SOL    HW119124   3.807   2.293   0.291 -0.0503  1.0087  0.5642
 2554SOL    HW219125   3.765   2.182   0.214 -0.6740  0.0118 -0.0914
 2555SOL     OW19126   4.396   1.252  16.410 -0.4250 -0.0381 -0.3976
 2555SOL    HW119127   4.476   1.290  16.372 -1.3103  1.5559 -0.6384
 2555SOL    HW219128   4.382   1.313  16.482 -0.5347  0.0132 -0.4641
 2556SOL     OW19129   2.079   0.654   6.176  0.3616  0.6425  0.0905
 2556SOL    HW119130   1.986   0.670   6.158  0.8011  1.0510 -1.8034
 2556SOL    HW219131   2.065   0.591   6.247  0.8252  0.7473  0.2718
 2557SOL     OW19132   1.934   2.865  12.447  0.1154  0.2569  0.1049
 2557SOL    HW119133   1.926   2.919  12.368 -0.7125  1.2796  0.8695
 2557SOL    HW219134   1.889   2.782  12.431  0.7659 -0.1398  0.3511
 2558SOL     OW19135   3.243   4.115  10.488 -0.0765  0.0108  0.8526
 2558SOL    HW119136   3.300   4.111  10.565  1.0802 -1.2022 -0.0761
 2558SOL    HW219137   3.294   4.153  10.416 -1.4225 -1.0797 -0.6646
 2559SOL     OW19138   4.249   2.460   1.838  0.3199 -0.0078  0.1158
 2559SOL    HW119139   4.198   2.380   1.825  0.4731  0.0110 -0.5805
 2559SOL    HW219140   4.318   2.429   1.780  0.0758 -1.6973  0.7158
 2560SOL     OW19141   0.163   2.117   8.440  0.3673  0.0225  1.2163
 2560SOL    HW119142   0.095   2.087   8.501 -0.0387  0.4432  0.9666
 2560SOL    HW219143   0.197   2.191   8.491  1.1919  0.2118  0.3906
 2561SOL     OW19144   1.607   2.219   2.587 -0.2016  0.5212 -0.1503
 2561SOL    HW119145   1.613   2.189   2.677  1.1961 -4.5731 -1.9040
 2561SOL    HW219146   1.512   2.222   2.584 -0.2436  0.4374  1.1253
 2562SOL     OW19147   1.621   4.351   2.351 -0.5708  0.4781  0.5609
 2562SOL    HW119148   1.671   4.402   2.288 -1.1914  1.4916  0.8865
 2562SOL    HW219149   1.531   4.362   2.320 -0.4240 -0.8989 -0.3598
 2563SOL     OW19150   3.541   4.254   6.575 -0.1623  0.2857  0.0446
 2563SOL    HW119151   3.496   4.337   6.565 -1.4040 -0.2030  1.4510
 2563SOL    HW219152   3.487   4.201   6.516  0.8082 -0.1615 -0.4361
 2564SOL     OW19153   2.627   4.358   9.260 -0.5821  0.1625 -0.2126
 2564SOL    HW119154   2.661   4.270   9.245  1.4990  1.0675 -0.8631
 2564SOL    HW219155   2.605   4.355   9.353 -1.2062 -1.8292 -0.4349
 2565SOL     OW19156   4.435   4.554   5.754 -0.7152 -0.2544 -0.1244
 2565SOL    HW119157   4.419   4.628   5.695  2.5945  0.3102 -0.2992
 2565SOL    HW219158   4.351   4.531   5.794 -1.9790  3.3378 -0.6815
 2566SOL     OW19159   3.660   2.131   2.975  0.0933 -0.1397 -0.0684
 2566SOL    HW119160   3.701   2.044   2.966  0.3081 -0.0477  0.0148
 2566SOL    HW219161   3.612   2.102   3.053 -1.1701  1.3116 -0.3190
 2567SOL     OW19162   3.846   3.373  11.852  0.1395  0.3584 -0.1494
 2567SOL    HW119163   3.805   3.453  11.887 -1.2347  0.7915 -2.7319
 2567SOL    HW219164   3.765   3.338  11.814  0.4602 -0.1364 -0.3729
 2568SOL     OW19165   1.996   4.309   9.488  0.0452 -0.1686  0.1025
 2568SOL    HW119166   1.948   4.332   9.568 -2.9522 -2.0872 -1.1597
 2568SOL    HW219167   2.082   4.346   9.509 -0.6610  0.3080  2.1754
 2569SOL     OW19168   4.578   3.723  10.208  0.1496 -1.3602 -0.6000
 2569SOL    HW119169   4.560   3.723  10.114 -0.2516  1.2998 -0.5218
 2569SOL    HW219170   4.615   3.811  10.215 -0.5265 -1.1906  0.9974
 2570SOL     OW19171   1.706   0.941  14.162 -0.1486  0.7817  0.5085
 2570SOL    HW119172   1.661   0.963  14.244 -0.4067  0.3053  0.4939
 2570SOL    HW219173   1.785   0.994  14.175 -0.0414  0.7212  0.0971
 2571SOL     OW19174   4.543   0.069  10.538  0.0204  0.3791  0.3310
 2571SOL    HW119175   4.464   0.069  10.593 -0.7797 -0.0777 -0.8004
 2571SOL    HW219176   4.599   4.719  10.566  0.9717  1.5021  1.3013
 2572SOL     OW19177   3.157   2.672  12.411 -0.5716  0.0022  0.7648
 2572SOL    HW119178   3.145   2.577  12.405  0.0945 -0.1899  2.3290
 2572SOL    HW219179   3.252   2.679  12.423 -0.5762  1.5922 -0.1195
 2573SOL     OW19180   3.331   0.707  14.180 -0.6219  0.3142  0.2252
 2573SOL    HW119181   3.416   0.733  14.143  0.1145 -0.0669  1.6286
 2573SOL    HW219182   3.363   0.661  14.258 -3.7004 -0.3024  1.1194
 2574SOL     OW19183   3.495   0.688   2.679  0.7300  0.1726 -0.0691
 2574SOL    HW119184   3.464   0.598   2.691 -0.5021  0.2680 -2.4168
 2574SOL    HW219185   3.504   0.690   2.584  2.4694  1.2114  0.1188
 2575SOL     OW19186   2.944   2.577   5.613 -0.0609  0.7205 -0.2428
 2575SOL    HW119187   2.924   2.565   5.521 -0.6515 -2.4889  0.2813
 2575SOL    HW219188   2.858   2.553   5.648  0.7196 -0.4066  0.9145
 2576SOL     OW19189   0.093   1.972   3.908 -0.2304  0.3809  0.4981
 2576SOL    HW119190   0.089   1.878   3.889 -2.8231  0.6965 -0.5016
 2576SOL    HW219191   0.056   1.996   3.823  0.4425 -0.0230  0.0906
 2577SOL     OW19192   1.359   2.759   7.268 -0.3916 -0.2334 -0.1572
 2577SOL    HW119193   1.297   2.825   7.296 -0.8937 -1.1339  0.8664
 2577SOL    HW219194   1.443   2.806   7.271 -0.3269 -0.4909  2.0535
 2578SOL     OW19195   3.433   1.018  12.199 -0.2097  0.0720 -0.5321
 2578SOL    HW119196   3.377   0.963  12.254 -0.9813 -1.3379 -2.7291
 2578SOL    HW219197   3.511   0.971  12.229 -0.6441  0.2347  0.8284
 2579SOL     OW19198   2.437   2.462   4.065  0.7957 -0.8056  0.1869
 2579SOL    HW119199   2.522   2.436   4.101  0.8174 -1.7006 -0.5095
 2579SOL    HW219200   2.379   2.456   4.140 -1.5173  1.7910 -1.4061
 2580SOL     OW19201   2.066   0.242   5.623 -0.1082  0.3095 -0.0843
 2580SOL    HW119202   2.125   0.286   5.563  2.0172  1.7209  3.0836
 2580SOL    HW219203   2.106   0.245   5.709 -0.4998  1.2303  0.0704
 2581SOL     OW19204   0.532   1.990  16.187 -0.1852  0.2102 -0.0353
 2581SOL    HW119205   0.513   2.069  16.238  0.0380  0.4980 -0.3932
 2581SOL    HW219206   0.478   1.921  16.225 -0.2753 -0.5652 -1.5864
 2582SOL     OW19207   4.623   3.146   4.525 -0.4102  0.1210  0.1475
 2582SOL    HW119208   4.564   3.088   4.478  0.3897 -1.2262  0.8048
 2582SOL    HW219209   4.673   3.188   4.455  0.7116 -3.1021 -0.9654
 2583SOL     OW19210   0.016   3.841   6.900  0.0934 -0.3548 -0.1624
 2583SOL    HW119211   4.698   3.803   6.822 -2.0777  1.8830 -0.1209
 2583SOL    HW219212   0.109   3.829   6.878 -0.2561 -1.2497 -1.1301
 2584SOL     OW19213   3.289   2.672   8.379 -0.0241  0.3699 -0.7863
 2584SOL    HW119214   3.377   2.668   8.342  0.0697  2.7288 -0.8276
 2584SOL    HW219215   3.286   2.766   8.397  0.3429 -0.1503  2.0950
 2585SOL     OW19216   3.570   3.698  17.318  0.0443 -0.6926 -0.2395
 2585SOL    HW119217   3.604   3.756  17.250  1.8894  0.9074  2.0345
 2585SOL    HW219218   3.582   3.747  17.399  1.8794 -1.9056  0.2205
 2586SOL     OW19219   3.132   0.480  13.929 -0.2192  0.6407 -0.5637
 2586SOL    HW119220   3.223   0.455  13.913  0.8616  3.2458  1.5716
 2586SOL    HW219221   3.106   0.424  14.002  1.3397  1.3652  0.5659
 2587SOL     OW19222   4.365   2.229   7.904 -0.2374 -0.0792 -0.2849
 2587SOL    HW119223   4.300   2.297   7.920 -1.4962 -0.9582 -1.7326
 2587SOL    HW219224   4.399   2.248   7.816 -0.8734 -0.2016 -0.5578
 2588SOL     OW19225   0.122   4.233   5.378  0.0894 -0.5151 -0.0800
 2588SOL    HW119226   0.037   4.203   5.410  0.7898 -0.3289  1.9850
 2588SOL    HW219227   0.176   4.154   5.375 -1.8782 -2.0015  4.2010
 2589SOL     OW19228   0.968   1.291   2.582  0.2386 -0.1680 -0.5485
 2589SOL    HW119229   0.954   1.381   2.552  0.7007  0.0354 -0.1493
 2589SOL    HW219230   0.903   1.240   2.533 -0.6060  2.0772 -1.7736
 2590SOL     OW19231   3.298   2.768  10.525  0.3701 -0.4036 -0.1882
 2590SOL    HW119232   3.313   2.677  10.499  0.7198 -0.2518 -0.5233
 2590SOL    HW219233   3.298   2.740  10.617 -0.3745  0.3930  0.0586
 2591SOL     OW19234   2.423   1.667   2.662  0.4116  0.5176  0.3129
 2591SOL    HW119235   2.452   1.676   2.752 -1.2126  0.4459  0.8542
 2591SOL    HW219236   2.507   1.653   2.618  0.2007 -1.5210  0.5459
 2592SOL     OW19237   0.582   1.297   6.993  0.0847 -0.4778  0.4919
 2592SOL    HW119238   0.545   1.299   6.905 -0.6826 -0.0526  0.8181
 2592SOL    HW219239   0.676   1.281   6.981 -0.0402 -0.3393 -0.6615
 2593SOL     OW19240   0.912   2.615   5.374 -0.4562  0.0298  0.4366
 2593SOL    HW119241   0.879   2.626   5.463  0.2076 -0.9893  0.8051
 2593SOL    HW219242   0.980   2.683   5.370  1.4118 -1.9114 -0.2469
 2594SOL     OW19243   0.595   0.659   3.290 -0.5434 -0.4417  0.2851
 2594SOL    HW119244   0.589   0.582   3.346  1.6269  0.3696  1.6904
 2594SOL    HW219245   0.676   0.632   3.247 -1.0986  0.8906 -1.6073
 2595SOL     OW19246   3.969   3.242   4.932 -0.0825  0.4223  0.0702
 2595SOL    HW119247   3.955   3.315   4.873  0.7042 -0.5717 -1.3363
 2595SOL    HW219248   4.047   3.266   4.983  0.6808  1.1004 -1.4314
 2596SOL     OW19249   4.596   0.258   5.391 -0.4386  0.1080  0.3970
 2596SOL    HW119250   4.503   0.271   5.412 -1.2182 -2.0928 -1.7123
 2596SOL    HW219251   4.606   0.163   5.381 -1.0669 -0.0247  1.0215
 2597SOL     OW19252   0.576   3.958   3.022 -0.1998  0.2241  0.1296
 2597SOL    HW119253   0.510   3.903   2.980  1.9205 -2.5077  0.3657
 2597SOL    HW219254   0.648   3.949   2.960  0.4693  3.7527  0.3710
 2598SOL     OW19255   2.299   3.338  16.927 -0.4559 -0.3150 -1.0052
 2598SOL    HW119256   2.303   3.242  16.930  2.1164 -0.2280 -0.9568
 2598SOL    HW219257   2.387   3.359  16.896 -0.1296 -0.3938 -0.1345
 2599SOL     OW19258   3.033   1.689   6.575  0.6038  0.3590 -0.0071
 2599SOL    HW119259   3.045   1.617   6.636  1.1212 -1.5372 -2.3692
 2599SOL    HW219260   3.097   1.752   6.607 -0.2546  1.1101  0.2304
 2600SOL     OW19261   2.364   1.367  12.852 -0.4652 -0.0837  0.3548
 2600SOL    HW119262   2.351   1.382  12.946  0.1981 -2.9699  0.9100
 2600SOL    HW219263   2.284   1.407  12.819  0.5611  0.5606 -1.3465
 2601SOL     OW19264   2.456   0.397   6.373  0.2227 -0.5701 -0.5384
 2601SOL    HW119265   2.503   0.421   6.453  1.2228 -2.3842 -0.5930
 2601SOL    HW219266   2.371   0.369   6.409  0.3273  0.2516  0.3645
 2602SOL     OW19267   1.883   2.209   7.886  0.7572  0.4204  0.1249
 2602SOL    HW119268   1.931   2.170   7.812 -0.2138 -1.6612  0.5864
 2602SOL    HW219269   1.940   2.177   7.956  1.1833 -0.7893 -0.7598
 2603SOL     OW19270   0.951   2.209  13.096 -0.6438 -0.3674 -0.4835
 2603SOL    HW119271   1.025   2.148  13.091  0.9368  1.5871 -0.7035
 2603SOL    HW219272   0.991   2.295  13.092  0.5532 -0.9384 -0.7047
 2604SOL     OW19273   3.893   2.850   3.152  0.2318  0.1051 -0.0083
 2604SOL    HW119274   3.900   2.878   3.060  1.1650 -0.6834 -0.1684
 2604SOL    HW219275   3.832   2.777   3.144  1.4461 -1.1295  2.0496
 2605SOL     OW19276   3.490   4.302   2.985 -0.4273  0.4362 -0.4570
 2605SOL    HW119277   3.524   4.274   3.069 -1.0460  0.4068 -0.2179
 2605SOL    HW219278   3.467   4.215   2.951 -0.6076  0.3666 -0.1600
 2606SOL     OW19279   4.553   4.453   6.974 -0.0235  0.0938 -0.1741
 2606SOL    HW119280   4.607   4.500   7.038 -0.5463  0.2280  0.1666
 2606SOL    HW219281   4.530   4.373   7.021 -1.3547 -0.0955 -1.1296
 2607SOL     OW19282   1.867   2.782   3.234  0.6061  0.0383 -0.1678
 2607SOL    HW119283   1.837   2.745   3.318  1.9214 -0.8164 -0.0718
 2607SOL    HW219284   1.791   2.764   3.178 -0.4860  0.2466  1.2199
 2608SOL     OW19285   3.669   3.747   4.652 -0.4384 -0.2698  0.5669
 2608SOL    HW119286   3.715   3.782   4.728 -1.4724  0.3886  0.8838
 2608SOL    HW219287   3.676   3.826   4.598  1.2102  0.0291  1.2000
 2609SOL     OW19288   3.866   1.827   8.539  0.1755  0.3910 -0.5057
 2609SOL    HW119289   3.915   1.883   8.600 -1.1513 -1.0342  1.9042
 2609SOL    HW219290   3.787   1.814   8.593  0.8335 -0.2466  0.3087
 2610SOL     OW19291   0.418   2.756   6.445 -0.1264 -0.1720  0.1320
 2610SOL    HW119292   0.388   2.666   6.433  0.6786 -0.3378 -0.6954
 2610SOL    HW219293   0.514   2.759   6.442 -0.1888  0.7313 -0.9481
 2611SOL     OW19294   0.172   1.428  12.533 -0.2563 -0.5955  0.1962
 2611SOL    HW119295   0.088   1.424  12.488 -0.2230 -1.7727  0.2270
 2611SOL    HW219296   0.233   1.460  12.467  0.6617 -1.5465  0.5744
 2612SOL     OW19297   1.558   2.394   7.599  0.4129 -1.0352 -0.5326
 2612SOL    HW119298   1.523   2.311   7.630 -1.6914  0.2177  0.4563
 2612SOL    HW219299   1.602   2.427   7.678  0.0279  0.2471 -0.8519
 2613SOL     OW19300   0.105   3.721   3.652  0.7115 -0.3676 -0.2336
 2613SOL    HW119301   0.101   3.683   3.564  0.4819 -0.7434 -0.0604
 2613SOL    HW219302   0.088   3.811   3.627  2.2931  0.1955  0.7475
 2614SOL     OW19303   1.834   2.635   1.422  0.3180  0.6921 -0.0723
 2614SOL    HW119304   1.802   2.544   1.424  2.1695  0.0343 -0.2180
 2614SOL    HW219305   1.783   2.657   1.344 -0.1835 -2.0136 -0.5052
 2615SOL     OW19306   4.324   0.125  15.732 -0.3791 -0.3048 -0.0163
 2615SOL    HW119307   4.342   0.131  15.638  0.3769  0.7866  0.1987
 2615SOL    HW219308   4.406   0.099  15.773 -0.6081 -1.6061 -0.3917
 2616SOL     OW19309   4.109   3.278   0.568 -0.1296 -0.0017 -0.2170
 2616SOL    HW119310   4.074   3.288   0.656  0.6856 -1.0370  0.2087
 2616SOL    HW219311   4.032   3.302   0.515  1.4338 -1.6137 -3.2239
 2617SOL     OW19312   1.894   0.834  14.695 -0.3605 -0.2386  0.5354
 2617SOL    HW119313   1.902   0.930  14.701 -0.0390 -0.2487  0.2608
 2617SOL    HW219314   1.830   0.822  14.624  0.8899  1.5596 -0.9180
 2618SOL     OW19315   2.895   4.642   5.781 -0.4267 -0.4919  0.7033
 2618SOL    HW119316   2.901   4.554   5.745  1.2720  0.2472 -0.8763
 2618SOL    HW219317   2.815   4.662   5.733  0.2266  0.7221  0.1099
 2619SOL     OW19318   0.120   2.302   3.237 -0.0577 -0.0798 -0.2298
 2619SOL    HW119319   0.103   2.286   3.330  0.8249 -2.6896 -0.5244
 2619SOL    HW219320   0.041   2.352   3.217  0.0460 -0.3501 -1.3668
 2620SOL     OW19321   0.863   3.449   9.835  0.7038 -0.1228 -0.1522
 2620SOL    HW119322   0.917   3.478   9.761  0.2623 -0.9639 -0.8077
 2620SOL    HW219323   0.821   3.375   9.791  0.1640  0.9230 -1.3941
 2621SOL     OW19324   1.009   0.509  13.582 -0.1510 -0.0938  0.4495
 2621SOL    HW119325   1.012   0.582  13.521  2.4166 -0.7097 -0.1482
 2621SOL    HW219326   0.918   0.520  13.610 -1.0429  0.3001 -2.6555
 2622SOL     OW19327   4.072   0.803   2.896  0.1007  0.3531 -0.1771
 2622SOL    HW119328   4.099   0.783   2.807  0.5801  0.2845 -0.0140
 2622SOL    HW219329   4.044   0.715   2.923 -3.0557  1.0555 -1.1515
 2623SOL     OW19330   1.364   0.735  16.111 -0.1458  0.2070 -0.0591
 2623SOL    HW119331   1.278   0.704  16.085 -0.4516  0.6264  0.4540
 2623SOL    HW219332   1.426   0.705  16.045 -2.1258 -1.6508 -1.0527
 2624SOL     OW19333   2.747   0.857   8.103  0.0181 -0.5022  0.5450
 2624SOL    HW119334   2.683   0.898   8.045  0.8639  1.4690  1.0339
 2624SOL    HW219335   2.693   0.826   8.176  0.5840 -0.5483  0.9459
 2625SOL     OW19336   4.613   3.623   1.829 -0.1500  0.4262  0.0482
 2625SOL    HW119337   4.630   3.533   1.857  3.1093  1.2064  0.4898
 2625SOL    HW219338   4.528   3.632   1.873  1.0731  1.4310  2.1786
 2626SOL     OW19339   2.454   1.366   6.369 -0.1050  0.3217 -0.6836
 2626SOL    HW119340   2.398   1.288   6.367 -1.5377  1.3795 -1.6843
 2626SOL    HW219341   2.454   1.400   6.280  0.4194  2.9166  0.3235
 2627SOL     OW19342   1.782   0.250   1.308 -0.6269 -0.1461  0.2681
 2627SOL    HW119343   1.774   0.198   1.228  0.9569 -1.1696  0.7553
 2627SOL    HW219344   1.867   0.224   1.345 -0.9842 -1.2338  0.3274
 2628SOL     OW19345   4.248   0.851   3.593  0.1509 -0.0428 -0.5584
 2628SOL    HW119346   4.296   0.797   3.530 -1.4381 -1.3853 -0.6138
 2628SOL    HW219347   4.207   0.776   3.637  1.0338  0.1504  0.5932
 2629SOL     OW19348   2.555   3.196   6.611  0.3793 -0.0793 -0.7481
 2629SOL    HW119349   2.564   3.291   6.613 -1.4234  0.1036 -1.6786
 2629SOL    HW219350   2.460   3.197   6.602  0.3774 -1.5076 -0.9443
 2630SOL     OW19351   3.490   1.341   3.072 -0.1161  0.3065  0.1836
 2630SOL    HW119352   3.501   1.426   3.029  3.2889 -0.4899 -0.5605
 2630SOL    HW219353   3.508   1.360   3.164  0.5490  3.0904 -0.5004
 2631SOL     OW19354   2.323   4.719   5.644 -0.0279 -0.5319  0.3177
 2631SOL    HW119355   2.416   0.021   5.636 -0.2779 -0.0055 -0.9083
 2631SOL    HW219356   2.299   0.070   5.700 -0.9421 -0.9082  0.4061
 2632SOL     OW19357   3.557   0.743  16.014  0.2242 -0.3665  0.1938
 2632SOL    HW119358   3.641   0.699  16.009  1.2393  1.3276  1.8477
 2632SOL    HW219359   3.581   0.829  16.050  1.2991 -0.7098  0.3104
 2633SOL     OW19360   0.126   4.606   9.674  0.0112 -0.3993 -0.0794
 2633SOL    HW119361   0.193   4.672   9.687 -1.3981  1.1715 -0.7839
 2633SOL    HW219362   0.117   4.568   9.761  3.6260  0.4178  0.6589
 2634SOL     OW19363   3.633   4.451   8.549 -0.1045  0.2102  0.2164
 2634SOL    HW119364   3.553   4.498   8.527  0.6731  0.4054 -2.1658
 2634SOL    HW219365   3.605   4.394   8.620  0.2672  2.5503  2.2577
 2635SOL     OW19366   3.531   0.203   4.947  0.0894 -0.0773  0.4052
 2635SOL    HW119367   3.533   0.178   5.040  3.6142 -0.2598  0.2856
 2635SOL    HW219368   3.592   0.277   4.951 -0.6518  0.4807  1.2469
 2636SOL     OW19369   0.472   2.997  16.355  0.0044  0.3993  0.6810
 2636SOL    HW119370   0.508   2.996  16.443  0.6725 -0.9874  0.3867
 2636SOL    HW219371   0.535   3.051  16.307 -2.2179  2.1725 -0.2999
 2637SOL     OW19372   1.990   3.019  15.900  0.0715 -0.1528  0.1657
 2637SOL    HW119373   2.018   2.938  15.856  2.0959  0.4886  0.2722
 2637SOL    HW219374   2.069   3.060  15.933  0.6907 -0.7486 -0.5537
 2638SOL     OW19375   2.122   2.053   3.037  0.5779  0.4553  0.1543
 2638SOL    HW119376   2.057   2.078   3.103  0.9623 -0.3342  0.8258
 2638SOL    HW219377   2.066   2.042   2.960  0.8892  1.7358 -0.2507
 2639SOL     OW19378   0.689   4.166   3.190 -0.8062 -0.1439 -0.2929
 2639SOL    HW119379   0.759   4.186   3.128 -1.2299 -0.7123 -0.9486
 2639SOL    HW219380   0.663   4.085   3.146 -1.2234 -0.0751 -0.1673
 2640SOL     OW19381   0.172   3.398  15.848  0.0509  0.2822 -0.3253
 2640SOL    HW119382   0.246   3.336  15.846 -0.2150 -0.0619  0.3360
 2640SOL    HW219383   0.106   3.333  15.874 -1.1471  0.8547 -1.9246
 2641SOL     OW19384   3.774   1.652   5.199  0.2711  0.1269  0.5389
 2641SOL    HW119385   3.804   1.659   5.290 -1.8384 -1.0154  1.3082
 2641SOL    HW219386   3.679   1.659   5.208  0.1670  1.4984 -1.5885
 2642SOL     OW19387   2.664   2.105  12.863  0.4291 -0.7938  0.8014
 2642SOL    HW119388   2.741   2.076  12.912  1.9045  1.0899 -0.3915
 2642SOL    HW219389   2.591   2.081  12.919 -2.8922  0.1514 -3.1577
 2643SOL     OW19390   3.546   3.588  10.207  0.5319  0.0066 -0.0960
 2643SOL    HW119391   3.459   3.585  10.249  0.5648  2.2964  0.1059
 2643SOL    HW219392   3.605   3.605  10.281  0.7316  0.4552 -0.3580
 2644SOL     OW19393   4.484   1.817   6.336  0.1725  0.1023 -0.1653
 2644SOL    HW119394   4.548   1.747   6.349 -0.7415 -0.1927  2.6680
 2644SOL    HW219395   4.465   1.838   6.427  0.1281 -0.1818 -0.1086
 2645SOL     OW19396   2.675   1.298   2.077  0.1695  0.3005  0.1217
 2645SOL    HW119397   2.767   1.287   2.055  0.0375  0.5403 -0.5314
 2645SOL    HW219398   2.689   1.338   2.163 -2.1961 -1.5205  1.3395
 2646SOL     OW19399   1.767   0.460   6.321 -0.5412 -0.2628 -0.0851
 2646SOL    HW119400   1.834   0.484   6.386 -3.0156  2.4140  1.4512
 2646SOL    HW219401   1.708   0.406   6.373  0.8058 -0.2078  1.5061
 2647SOL     OW19402   1.778   3.244   6.326 -0.6706  0.4961 -0.2507
 2647SOL    HW119403   1.684   3.224   6.319 -0.0594 -2.4011 -0.0184
 2647SOL    HW219404   1.829   3.170   6.295 -0.5873  0.5477 -0.2365
 2648SOL     OW19405   0.146   1.768  10.959 -0.5512  0.5139 -0.1044
 2648SOL    HW119406   0.060   1.793  10.993 -1.9735 -4.1137 -0.4126
 2648SOL    HW219407   0.190   1.734  11.037 -1.5812  0.7307  0.5617
 2649SOL     OW19408   1.209   0.054   9.027  0.2307  0.3173 -0.1550
 2649SOL    HW119409   1.168   4.719   9.092 -0.4162  0.8812 -0.0782
 2649SOL    HW219410   1.163   0.036   8.945 -2.3793  1.9456  0.9742
 2650SOL     OW19411   2.357   2.264  13.288  0.3020 -0.7093 -0.1962
 2650SOL    HW119412   2.385   2.204  13.357  2.5834 -1.8723 -2.1718
 2650SOL    HW219413   2.275   2.225  13.259  0.7188 -0.5094 -1.6339
 2651SOL     OW19414   4.358   0.764   6.696 -0.2972  0.3236  0.3598
 2651SOL    HW119415   4.410   0.841   6.677  0.6566 -0.5838 -0.6682
 2651SOL    HW219416   4.273   0.799   6.670 -1.1863 -1.1010  1.3086
 2652SOL     OW19417   4.537   0.073   2.455  0.4722 -0.0744 -0.7660
 2652SOL    HW119418   4.555   0.150   2.402 -0.1021  1.0648  0.6679
 2652SOL    HW219419   4.607   0.014   2.430 -1.7476 -1.0415 -4.5702
 2653SOL     OW19420   0.396   1.076   1.576 -0.0583 -0.3328  0.3326
 2653SOL    HW119421   0.372   1.103   1.665 -0.5728 -0.9085  0.3692
 2653SOL    HW219422   0.400   1.167   1.546 -0.6279 -0.3693  0.1470
 2654SOL     OW19423   2.876   3.297   5.508  0.1622  1.2137 -0.2807
 2654SOL    HW119424   2.951   3.294   5.568  0.3923  1.2519 -0.5711
 2654SOL    HW219425   2.819   3.364   5.546 -0.8644  0.1051  0.1352
 2655SOL     OW19426   0.867   1.750   6.262 -0.4454  0.1771  0.6397
 2655SOL    HW119427   0.794   1.804   6.291 -2.1830 -1.6502 -0.3993
 2655SOL    HW219428   0.928   1.820   6.237 -0.2568 -0.2409 -0.0741
 2656SOL     OW19429   3.201   1.699  12.848  0.4586  0.2594 -0.2794
 2656SOL    HW119430   3.235   1.728  12.932 -0.9445 -1.8143  1.0078
 2656SOL    HW219431   3.111   1.673  12.870  0.9288 -0.6613  0.5186
 2657SOL     OW19432   1.508   3.147  17.421  0.3409 -0.3639  0.0504
 2657SOL    HW119433   1.454   3.070  17.404 -0.6563  0.2341  0.5144
 2657SOL    HW219434   1.576   3.131  17.355  0.4635  0.8857 -0.1362
 2658SOL     OW19435   0.192   2.461   4.749  0.6083 -0.2152  0.2681
 2658SOL    HW119436   0.211   2.555   4.748  1.6453 -0.4472 -2.0705
 2658SOL    HW219437   0.136   2.449   4.672  0.2420 -0.5543  0.5840
 2659SOL     OW19438   2.812   2.683   5.108 -0.0798 -0.4607  0.3566
 2659SOL    HW119439   2.769   2.739   5.043 -0.0477 -0.4401  0.3533
 2659SOL    HW219440   2.898   2.673   5.068  0.4439  2.1073  0.8705
 2660SOL     OW19441   2.830   1.869   6.593 -0.2088  0.4219  0.2368
 2660SOL    HW119442   2.877   1.951   6.580 -0.3333  0.2406 -1.2822
 2660SOL    HW219443   2.900   1.805   6.577 -1.1315 -0.7733  0.9269
 2661SOL     OW19444   3.819   3.629   7.897 -0.0637  0.3929  0.2119
 2661SOL    HW119445   3.847   3.662   7.983 -3.2723  1.6127  0.7696
 2661SOL    HW219446   3.843   3.708   7.849  1.9811 -0.7627 -0.6846
 2662SOL     OW19447   2.354   2.412   6.177  0.4096 -0.0314 -0.6833
 2662SOL    HW119448   2.331   2.471   6.248  0.0415 -1.6518  0.5615
 2662SOL    HW219449   2.423   2.467   6.140 -0.0521  1.6524  0.9672
 2663SOL     OW19450   1.123   1.971   2.717 -0.5456  0.3663 -0.2264
 2663SOL    HW119451   1.076   2.053   2.704  0.3121  0.5318 -2.3038
 2663SOL    HW219452   1.204   1.985   2.669 -1.1845 -1.1398 -1.7456
 2664SOL     OW19453   0.709   0.265   7.164 -0.7984 -0.5862 -0.2985
 2664SOL    HW119454   0.711   0.236   7.073 -0.3447  1.4675 -0.9432
 2664SOL    HW219455   0.642   0.334   7.163  0.9723  1.0807 -1.9890
 2665SOL     OW19456   2.362   3.461   1.500 -0.1432  0.1296 -0.2592
 2665SOL    HW119457   2.273   3.463   1.465 -0.0953 -0.2651 -0.4033
 2665SOL    HW219458   2.411   3.486   1.421 -0.2093 -0.7008 -0.5603
 2666SOL     OW19459   3.013   0.797   2.022 -0.1422  0.1808 -0.2463
 2666SOL    HW119460   3.041   0.721   1.970  2.1802  1.1849 -0.4518
 2666SOL    HW219461   2.950   0.839   1.964 -1.3844  2.7166  2.9694
 2667SOL     OW19462   1.878   1.029   6.558  0.3797 -0.2757 -0.1249
 2667SOL    HW119463   1.802   1.063   6.604 -1.5990 -1.2277 -2.6616
 2667SOL    HW219464   1.844   0.960   6.500 -1.8658  2.1304 -1.6430
 2668SOL     OW19465   1.791   4.325   8.895  0.6365 -0.2534  0.7036
 2668SOL    HW119466   1.860   4.265   8.868 -2.1168 -2.2556 -1.8937
 2668SOL    HW219467   1.830   4.385   8.959  0.1369  0.6570  0.1611
 2669SOL     OW19468   1.258   0.493   3.623  0.4731  0.0998  0.4501
 2669SOL    HW119469   1.163   0.489   3.632  0.6185  0.1427  2.0625
 2669SOL    HW219470   1.271   0.578   3.665 -0.0801  1.1025 -1.4058
 2670SOL     OW19471   0.673   3.724   1.709  0.3581  0.0731  0.6008
 2670SOL    HW119472   0.604   3.789   1.724  0.1481 -0.1192  0.4639
 2670SOL    HW219473   0.737   3.786   1.674  0.2588  0.4562  1.0921
 2671SOL     OW19474   3.645   1.549   2.895  0.1176 -0.5310 -0.7724
 2671SOL    HW119475   3.714   1.603   2.935 -1.2183 -1.6945  3.1418
 2671SOL    HW219476   3.604   1.624   2.852  0.7962 -0.3913 -1.1795
 2672SOL     OW19477   4.433   4.084   1.501 -0.1960 -0.0763  0.0118
 2672SOL    HW119478   4.396   4.162   1.459 -0.8736 -1.4904 -2.0384
 2672SOL    HW219479   4.372   4.063   1.572  1.0076 -0.9218  0.8014
 2673SOL     OW19480   3.883   0.993   5.658  0.4464 -0.3299  0.2970
 2673SOL    HW119481   3.850   0.909   5.691 -0.6687 -0.9008 -2.2708
 2673SOL    HW219482   3.873   1.049   5.735  2.4040 -0.1099  0.4086
 2674SOL     OW19483   3.530   2.818   4.144 -0.1403  0.0010 -0.0419
 2674SOL    HW119484   3.500   2.760   4.075 -1.5980  0.9090 -0.1695
 2674SOL    HW219485   3.590   2.871   4.092 -1.6962  0.8109 -1.0258
 2675SOL     OW19486   2.965   1.498   1.960 -0.1916 -0.0119  0.1818
 2675SOL    HW119487   2.978   1.411   1.999  0.8937 -0.6640 -1.6068
 2675SOL    HW219488   2.995   1.491   1.869 -0.8740  0.1695 -0.0565
 2676SOL     OW19489   3.841   4.228   7.416  0.6117 -0.3480 -0.0341
 2676SOL    HW119490   3.928   4.193   7.399  0.1383 -1.4669 -0.1743
 2676SOL    HW219491   3.830   4.188   7.503  1.8093  0.0692  0.3028
 2677SOL     OW19492   4.278   2.079   9.426  0.2848  0.1837  0.2071
 2677SOL    HW119493   4.322   2.157   9.391 -0.2706  0.5151  0.2564
 2677SOL    HW219494   4.323   2.010   9.378 -5.2143 -3.1738 -0.0707
 2678SOL     OW19495   4.635   4.708  11.453  0.2733  0.1948  0.3182
 2678SOL    HW119496   4.601   0.044  11.521 -2.2856 -0.1276 -0.6753
 2678SOL    HW219497   4.641   4.622  11.494  3.6670  0.8178  1.1063
 2679SOL     OW19498   4.709   3.778  15.124  0.0112 -0.3220 -0.2910
 2679SOL    HW119499   0.016   3.690  15.146  0.8824  0.2488  0.8803
 2679SOL    HW219500   4.707   3.776  15.028  0.8879  0.5251 -0.3309
 2680SOL     OW19501   0.323   0.069   9.677 -0.1891  0.2968 -0.8950
 2680SOL    HW119502   0.315   0.097   9.768  2.0184  1.0973 -0.9515
 2680SOL    HW219503   0.301   0.150   9.631 -0.7056  1.3458  1.2130
 2681SOL     OW19504   3.794   2.589   7.034 -0.1535  1.0274 -0.3428
 2681SOL    HW119505   3.726   2.546   7.086 -1.3538  2.0214 -1.0906
 2681SOL    HW219506   3.768   2.559   6.947  0.0941 -1.1734  0.3322
 2682SOL     OW19507   0.120   0.431   8.444 -0.3101 -0.0983 -0.1963
 2682SOL    HW119508   0.092   0.350   8.402 -2.3704  0.5395 -0.0565
 2682SOL    HW219509   0.108   0.496   8.374  0.5940  1.5276  1.1700
 2683SOL     OW19510   3.877   0.741   2.618 -0.4111  0.3115  0.1889
 2683SOL    HW119511   3.967   0.768   2.638  0.1252 -0.5654 -1.0783
 2683SOL    HW219512   3.838   0.825   2.594  0.1265  0.7237  0.7625
 2684SOL     OW19513   2.529   0.044   2.387  0.3337  0.1140  0.7892
 2684SOL    HW119514   2.486   4.706   2.447 -3.2330  1.8668 -0.0063
 2684SOL    HW219515   2.460   0.108   2.370  0.3335  0.0396  0.5113
 2685SOL     OW19516   3.089   4.337   7.815  1.0082 -0.1043  0.8675
 2685SOL    HW119517   3.090   4.299   7.903 -0.9946  0.3937  1.0863
 2685SOL    HW219518   3.133   4.421   7.827  0.9179 -0.3502  2.8138
 2686SOL     OW19519   3.627   4.023   7.453  0.1704  0.3631  0.1828
 2686SOL    HW119520   3.627   3.963   7.378 -1.3304  0.0673  0.4150
 2686SOL    HW219521   3.582   4.098   7.414  3.6573  0.9149 -2.8373
 2687SOL     OW19522   0.900   3.510   4.385  0.6375 -0.1403 -0.5492
 2687SOL    HW119523   0.853   3.432   4.414  1.2022  0.1325  1.0928
 2687SOL    HW219524   0.987   3.481   4.411  0.5604  0.4525  0.3867
 2688SOL     OW19525   1.848   0.979  10.060 -0.4901  0.0746  0.8795
 2688SOL    HW119526   1.869   0.897  10.105 -0.4616  0.2552  1.1881
 2688SOL    HW219527   1.922   0.976   9.999 -0.5911 -1.0423  0.8083
 2689SOL     OW19528   4.194   0.730  14.157  0.8700 -0.0714  0.1755
 2689SOL    HW119529   4.208   0.719  14.063  1.5711  1.3075  0.1036
 2689SOL    HW219530   4.184   0.641  14.189 -2.5928 -0.9558 -3.4752
 2690SOL     OW19531   2.298   0.572   5.267  0.0443 -0.2763  0.3222
 2690SOL    HW119532   2.216   0.535   5.298 -0.4332 -0.1687 -0.7910
 2690SOL    HW219533   2.311   0.629   5.342  1.5079 -1.5311  1.0204
 2691SOL     OW19534   0.427   0.543   5.442 -0.3146  0.2900  0.5057
 2691SOL    HW119535   0.474   0.537   5.359 -0.3800  0.0603  0.4870
 2691SOL    HW219536   0.371   0.619   5.429  0.1913  0.6352  0.3123
 2692SOL     OW19537   3.449   0.200   5.581 -0.1997 -0.1683 -0.4690
 2692SOL    HW119538   3.435   0.291   5.609  1.1461 -0.1166  0.0417
 2692SOL    HW219539   3.368   0.180   5.533 -0.5337 -0.4739  0.2134
 2693SOL     OW19540   2.575   0.161   4.902  0.1203 -0.1464 -0.1044
 2693SOL    HW119541   2.529   0.240   4.933  1.6700  1.2426 -1.3121
 2693SOL    HW219542   2.660   0.204   4.891  0.1968 -0.5166 -0.9256
 2694SOL     OW19543   3.166   1.452   8.633  0.4238 -0.3200 -0.4981
 2694SOL    HW119544   3.083   1.408   8.648 -0.3087  1.4316  0.5492
 2694SOL    HW219545   3.214   1.387   8.582  0.3968 -1.0997  0.4900
 2695SOL     OW19546   3.968   0.156  14.245 -0.1870  0.0839  0.0182
 2695SOL    HW119547   4.051   0.116  14.271 -1.8554 -2.5323  1.3267
 2695SOL    HW219548   3.992   0.222  14.181  0.1207 -0.8160 -0.7923
 2696SOL     OW19549   2.111   3.176   5.246 -0.4965 -0.1183 -0.4451
 2696SOL    HW119550   2.141   3.257   5.204 -1.0371  0.2112 -0.1918
 2696SOL    HW219551   2.101   3.212   5.334  1.1816 -2.3268  0.6460
 2697SOL     OW19552   3.855   2.288   5.235 -0.0785  0.3208  0.5824
 2697SOL    HW119553   3.832   2.195   5.236 -0.8850  0.4802 -2.6709
 2697SOL    HW219554   3.937   2.299   5.187 -1.0761 -0.5222 -1.3291
 2698SOL     OW19555   2.313   2.805   8.972 -0.3308 -0.2132  0.2239
 2698SOL    HW119556   2.342   2.790   9.062 -0.8401  0.8438  0.5716
 2698SOL    HW219557   2.281   2.895   8.975 -1.9263 -0.7025 -1.9502
 2699SOL     OW19558   2.333   0.840   4.571  0.2005 -0.0943 -0.4990
 2699SOL    HW119559   2.241   0.837   4.547 -0.7003  1.3743  2.7135
 2699SOL    HW219560   2.322   0.880   4.657 -0.3093 -0.2089 -0.5139
 2700SOL     OW19561   3.527   2.056   6.499  0.0655  0.1505  0.0389
 2700SOL    HW119562   3.509   2.011   6.582 -0.4054 -0.8831 -0.6220
 2700SOL    HW219563   3.476   2.136   6.508 -1.8375 -0.8151 -2.2470
 2701SOL     OW19564   0.485   4.254  12.217  0.4174 -0.1126 -0.0206
 2701SOL    HW119565   0.504   4.163  12.240  2.8504  0.8224  1.6445
 2701SOL    HW219566   0.439   4.255  12.133  1.4268  0.2395 -0.5645
 2702SOL     OW19567   1.955   4.227   1.246 -0.3125 -0.0860  0.3466
 2702SOL    HW119568   2.018   4.296   1.270  0.7144 -0.6379 -0.7841
 2702SOL    HW219569   1.997   4.150   1.285  0.1570 -1.0403 -2.0531
 2703SOL     OW19570   4.471   1.449   6.272  0.3557  0.3964 -0.0110
 2703SOL    HW119571   4.378   1.460   6.257  0.5125  1.5272 -0.1434
 2703SOL    HW219572   4.484   1.519   6.336  1.7998 -0.1923  0.3420
 2704SOL     OW19573   1.785   1.560  15.511 -0.1050  0.8330 -0.1824
 2704SOL    HW119574   1.766   1.652  15.530 -0.7113  0.1447  2.5524
 2704SOL    HW219575   1.706   1.518  15.545 -0.3497 -0.1522 -1.9533
 2705SOL     OW19576   2.923   4.513   4.451  0.1533 -0.0620 -0.2311
 2705SOL    HW119577   2.954   4.436   4.499 -0.7486  0.9935  2.0294
 2705SOL    HW219578   2.890   4.577   4.513  2.3647  0.2242  0.6115
 2706SOL     OW19579   3.136   0.881  11.922 -0.0180 -0.5577  0.1675
 2706SOL    HW119580   3.072   0.829  11.971  0.6187 -1.4274  0.0838
 2706SOL    HW219581   3.152   0.951  11.985 -0.5600  0.1692 -0.5159
 2707SOL     OW19582   2.242   1.395   3.904 -0.0627  0.7389 -0.4791
 2707SOL    HW119583   2.193   1.353   3.974 -1.0286  3.0671  0.2311
 2707SOL    HW219584   2.334   1.378   3.924 -0.5197 -1.9649 -0.6854
 2708SOL     OW19585   2.911   1.440   7.585  0.5038 -0.5618 -0.1712
 2708SOL    HW119586   2.852   1.371   7.615 -0.5011 -0.1865 -1.2915
 2708SOL    HW219587   2.846   1.510   7.578  2.4448  1.3165  0.3402
 2709SOL     OW19588   3.058   3.077   3.129  0.7471 -0.4497  0.3982
 2709SOL    HW119589   3.154   3.077   3.124  0.5671  0.7157 -2.7439
 2709SOL    HW219590   3.038   3.076   3.035 -1.6068  1.1700  0.9015
 2710SOL     OW19591   2.866   2.469  11.144  0.5634 -0.5572 -0.0579
 2710SOL    HW119592   2.936   2.421  11.100 -0.3844 -0.8220 -1.2654
 2710SOL    HW219593   2.889   2.562  11.135  0.8682 -0.5422  0.8434
 2711SOL     OW19594   0.066   2.479   6.191  0.2104  0.0656 -0.0573
 2711SOL    HW119595   4.700   2.516   6.179  1.3348  2.7193 -0.0747
 2711SOL    HW219596   0.118   2.554   6.217  0.6371 -0.5074  0.7588
 2712SOL     OW19597   0.751   2.607   4.735  0.3463 -0.3746 -0.5098
 2712SOL    HW119598   0.805   2.669   4.784 -2.2341  1.5147 -0.0972
 2712SOL    HW219599   0.768   2.521   4.774 -0.6733 -0.0607  0.6136
 2713SOL     OW19600   2.151   2.919   4.937 -0.3738 -0.2884 -0.1996
 2713SOL    HW119601   2.127   3.011   4.928  1.8148  0.2700 -0.2637
 2713SOL    HW219602   2.242   2.924   4.966  0.2293  0.5624 -2.2515
 2714SOL     OW19603   3.440   1.953   7.630  0.2506 -0.1648  0.7641
 2714SOL    HW119604   3.455   2.036   7.675 -2.0814  0.4082  0.4495
 2714SOL    HW219605   3.345   1.943   7.639  0.2625  0.2919  1.3571
 2715SOL     OW19606   2.018   1.752   4.261 -0.2426 -0.1463  0.3153
 2715SOL    HW119607   1.939   1.718   4.219 -0.5901 -0.3248  1.1052
 2715SOL    HW219608   2.088   1.736   4.198 -0.4946  3.1592 -0.8437
 2716SOL     OW19609   1.898   2.752  16.670 -1.4406  0.0090  0.5374
 2716SOL    HW119610   1.805   2.736  16.688 -1.3927 -0.1060  0.6802
 2716SOL    HW219611   1.928   2.662  16.657  1.4751  1.3229 -1.9556
 2717SOL     OW19612   1.856   4.124   6.455 -0.5759  0.6218  0.4101
 2717SOL    HW119613   1.834   4.194   6.393 -0.0232  0.3804 -0.0620
 2717SOL    HW219614   1.914   4.171   6.514 -1.0382  2.1935 -0.3735
 2718SOL     OW19615   2.371   0.252   8.562 -0.1570 -0.6835 -0.3132
 2718SOL    HW119616   2.450   0.216   8.602 -0.5528  0.4675  1.4889
 2718SOL    HW219617   2.306   0.228   8.628 -2.1689 -1.2359 -2.4865
 2719SOL     OW19618   2.561   4.662  15.163  0.6602  0.1360 -0.1913
 2719SOL    HW119619   2.557   0.031  15.134  0.5010  0.1878 -0.0045
 2719SOL    HW219620   2.646   4.638  15.200  1.1168  2.4130  0.2642
 2720SOL     OW19621   1.779   2.197   6.160  0.0158 -0.1570  0.4768
 2720SOL    HW119622   1.773   2.276   6.213  2.0040  0.0222  0.4164
 2720SOL    HW219623   1.701   2.150   6.191  0.7926  0.0995  2.8107
 2721SOL     OW19624   4.572   2.350   4.311 -0.2878 -0.0108  0.9619
 2721SOL    HW119625   4.515   2.281   4.346 -1.0261 -0.7918 -1.8085
 2721SOL    HW219626   4.506   2.411   4.277  1.9953  2.6831  1.3907
 2722SOL     OW19627   2.455   0.306  16.237  0.0714 -0.0830 -0.1596
 2722SOL    HW119628   2.484   0.397  16.241 -0.6594  0.1251  0.5032
 2722SOL    HW219629   2.361   0.309  16.255 -0.0041  1.9129 -0.8835
 2723SOL     OW19630   3.894   2.924  12.856 -0.3665  0.6760 -0.3432
 2723SOL    HW119631   3.882   2.998  12.917  1.8142 -0.1310  1.0703
 2723SOL    HW219632   3.984   2.946  12.833  0.8446 -3.5968  0.3369
 2724SOL     OW19633   1.502   4.540   1.214  0.3525  0.4520  0.5165
 2724SOL    HW119634   1.529   4.503   1.131  1.9820  0.8627  0.8694
 2724SOL    HW219635   1.461   4.620   1.181 -0.5093 -0.9678 -1.8456
 2725SOL     OW19636   1.998   2.069   7.658 -0.4352 -0.0860  0.6435
 2725SOL    HW119637   2.066   2.039   7.598 -0.8034  0.1673  0.1010
 2725SOL    HW219638   1.944   1.990   7.672 -1.0882  0.4679  1.2885
 2726SOL     OW19639   1.176   0.729  12.672  0.0451 -0.2574 -0.4498
 2726SOL    HW119640   1.190   0.653  12.615 -1.1626 -0.1884 -0.8217
 2726SOL    HW219641   1.091   0.760  12.642  1.0145  2.2083 -0.7086
 2727SOL     OW19642   1.030   1.527  17.551 -0.1733 -0.3479 -0.1245
 2727SOL    HW119643   0.943   1.487  17.547  0.1080 -1.2213  2.6098
 2727SOL    HW219644   1.029   1.597  17.485 -0.9266  0.5026  0.7777
 2728SOL     OW19645   4.649   0.738   9.816  0.0151 -0.1215 -0.0252
 2728SOL    HW119646   4.587   0.682   9.863 -0.5049  1.6968  1.4838
 2728SOL    HW219647   4.659   0.809   9.880 -1.6056  0.4754 -0.4383
 2729SOL     OW19648   3.084   4.461   3.917 -0.0810 -0.5390  0.1534
 2729SOL    HW119649   3.058   4.425   3.832  2.8153  0.6013 -1.2634
 2729SOL    HW219650   3.123   4.381   3.952  0.2333  0.9982  3.3138
 2730SOL     OW19651   4.469   4.423   5.347 -0.0017 -0.5744 -0.0606
 2730SOL    HW119652   4.478   4.336   5.385 -0.4919 -0.6197 -0.0468
 2730SOL    HW219653   4.399   4.397   5.287 -1.3591  1.5504  0.6106
 2731SOL     OW19654   1.485   0.212   8.232 -0.7524 -0.4296  0.4432
 2731SOL    HW119655   1.399   0.181   8.259 -1.8494  1.6732 -0.6368
 2731SOL    HW219656   1.536   0.152   8.286  0.4084 -1.6113 -1.9177
 2732SOL     OW19657   1.580   4.416  10.801 -0.3061 -0.0603  0.3607
 2732SOL    HW119658   1.600   4.402  10.708 -2.2072 -0.6847  0.0551
 2732SOL    HW219659   1.591   4.511  10.809  0.4718 -0.2644  1.7117
 2733SOL     OW19660   1.393   0.988   3.956 -0.2775 -0.0255  0.4902
 2733SOL    HW119661   1.408   1.002   4.049 -0.5463  1.1233  0.3577
 2733SOL    HW219662   1.320   0.926   3.962  0.0796 -0.5049 -0.2058
 2734SOL     OW19663   3.324   2.753  16.726  0.1880  0.0955  0.2805
 2734SOL    HW119664   3.345   2.846  16.720  0.9879  0.0242  2.0159
 2734SOL    HW219665   3.404   2.710  16.755 -0.1283 -2.0130 -2.0106
 2735SOL     OW19666   0.288   1.859   1.045 -0.0108 -0.1905  0.1883
 2735SOL    HW119667   0.198   1.870   1.075 -0.6394 -0.7173 -1.4677
 2735SOL    HW219668   0.333   1.844   1.128 -2.0235  0.8061  1.4310
 2736SOL     OW19669   1.034   1.050   3.305  0.1093  0.4710 -0.0680
 2736SOL    HW119670   1.067   1.006   3.227 -0.7778  0.9404 -0.7063
 2736SOL    HW219671   1.117   1.047   3.353  1.4321 -0.8930 -2.4681
 2737SOL     OW19672   2.850   2.135  16.296  0.6630  0.0795 -0.1799
 2737SOL    HW119673   2.921   2.071  16.309  0.3819 -0.7091 -2.5587
 2737SOL    HW219674   2.774   2.078  16.284  2.0548 -1.9440  0.5199
 2738SOL     OW19675   2.986   1.528   9.040 -0.1559  0.2792 -0.3689
 2738SOL    HW119676   3.043   1.601   9.064 -0.1441 -0.0083  0.4700
 2738SOL    HW219677   3.052   1.459   9.036  0.1671  0.6963 -2.3889
 2739SOL     OW19678   1.884   3.943  13.565 -0.5458  0.0088 -0.3834
 2739SOL    HW119679   1.811   3.926  13.625 -1.6864 -0.2885 -1.8651
 2739SOL    HW219680   1.834   3.994  13.502  1.3163  2.7999  0.4078
 2740SOL     OW19681   1.390   3.788   6.661 -0.4004 -0.6106  0.0365
 2740SOL    HW119682   1.393   3.879   6.632 -0.9402 -0.5766  0.0850
 2740SOL    HW219683   1.398   3.793   6.756 -2.6147  0.1462  0.1888
 2741SOL     OW19684   3.959   4.660   4.467 -0.7445 -0.0890 -0.4237
 2741SOL    HW119685   3.994   4.671   4.378 -2.0320 -2.0242 -1.1658
 2741SOL    HW219686   4.036   4.690   4.515 -0.1006 -1.7529 -0.4206
 2742SOL     OW19687   3.460   1.428  11.177  0.1479  0.0242 -0.2865
 2742SOL    HW119688   3.434   1.453  11.266  0.0879  0.9610 -0.5715
 2742SOL    HW219689   3.396   1.480  11.128 -0.1960  0.0976  0.2468
 2743SOL     OW19690   2.334   2.949   9.263  0.3846 -0.1690 -0.4173
 2743SOL    HW119691   2.273   2.887   9.304 -0.7832  0.8599 -0.5880
 2743SOL    HW219692   2.280   2.988   9.194  0.7504 -2.1372 -1.7909
 2744SOL     OW19693   1.937   3.982   2.611  0.2486  0.5184 -0.1162
 2744SOL    HW119694   1.952   4.066   2.569  3.2313 -0.7036 -1.5129
 2744SOL    HW219695   1.994   3.983   2.688  0.4135 -2.1223 -0.1749
 2745SOL     OW19696   2.164   0.004   7.278  0.1286 -0.1422 -0.2005
 2745SOL    HW119697   2.143   4.661   7.345  1.3935  2.6505  2.9106
 2745SOL    HW219698   2.236   4.678   7.237  0.5388  1.2182 -1.0697
 2746SOL     OW19699   3.748   0.347  16.577  0.0694 -0.6919  0.2684
 2746SOL    HW119700   3.722   0.255  16.567  0.8262 -0.8119 -0.6390
 2746SOL    HW219701   3.709   0.381  16.496  1.0343 -0.2337 -0.0050
 2747SOL     OW19702   4.234   0.837   9.192  0.1918 -0.0476 -0.5098
 2747SOL    HW119703   4.299   0.901   9.166  0.8394 -1.8029 -3.2056
 2747SOL    HW219704   4.269   0.794   9.270  1.3770  1.8212 -0.0101
 2748SOL     OW19705   0.380   3.926  11.446 -0.7181  0.5747  0.2543
 2748SOL    HW119706   0.329   3.865  11.393 -0.5152  0.7972 -0.1977
 2748SOL    HW219707   0.394   3.986  11.373 -1.5443  1.1305  0.5589
 2749SOL     OW19708   4.424   2.768   5.759 -0.1303  0.1067  0.7987
 2749SOL    HW119709   4.374   2.844   5.728  0.4628 -0.2312 -1.0106
 2749SOL    HW219710   4.412   2.774   5.854  1.8506  0.3747  1.0319
 2750SOL     OW19711   1.428   2.339   4.982  0.2245 -0.0806 -0.3798
 2750SOL    HW119712   1.503   2.392   4.955  1.1248 -0.3887  1.4616
 2750SOL    HW219713   1.364   2.405   5.010 -0.4226 -0.7542 -0.2876
 2751SOL     OW19714   2.528   4.352   9.676 -0.4830  0.1565  0.5493
 2751SOL    HW119715   2.459   4.342   9.610 -0.8717  0.0436  0.9657
 2751SOL    HW219716   2.567   4.427   9.632 -1.5725 -0.0221 -0.7166
 2752SOL     OW19717   1.027   1.883   5.129  0.4250 -0.1615 -0.3432
 2752SOL    HW119718   1.119   1.872   5.105  0.9498  0.8311  1.1655
 2752SOL    HW219719   1.049   1.944   5.200  2.9133 -1.8399  0.3260
 2753SOL     OW19720   1.034   3.052  12.394  0.2551  0.0037 -0.5131
 2753SOL    HW119721   1.071   3.003  12.467 -1.3817  0.6544  0.7274
 2753SOL    HW219722   1.008   3.136  12.431 -0.2258  0.5988 -2.1878
 2754SOL     OW19723   3.186   1.427   3.312  0.3630 -0.1875 -0.0184
 2754SOL    HW119724   3.156   1.478   3.237  1.0152  2.2514  1.3768
 2754SOL    HW219725   3.280   1.440   3.322  0.2511 -0.4602  1.4497
 2755SOL     OW19726   0.026   4.514  12.339 -0.3207  0.2379 -0.0210
 2755SOL    HW119727   4.655   4.494  12.345 -0.3937  0.3180 -0.8705
 2755SOL    HW219728   0.066   4.439  12.383 -0.5411  0.1052 -0.0470
 2756SOL     OW19729   1.106   1.276  10.330  0.4894 -0.7114  0.1467
 2756SOL    HW119730   1.170   1.338  10.295 -1.5695 -0.4148 -3.0875
 2756SOL    HW219731   1.038   1.301  10.267 -2.1821  1.1345  3.7378
 2757SOL     OW19732   0.853   2.666  13.482  0.0839  0.5328 -0.5499
 2757SOL    HW119733   0.876   2.675  13.390 -1.0341 -0.4456 -0.9322
 2757SOL    HW219734   0.901   2.735  13.527 -0.9707  0.1824  1.0940
 2758SOL     OW19735   2.152   1.368   2.868 -0.4839 -0.1517 -0.2290
 2758SOL    HW119736   2.189   1.281   2.878 -0.4544 -0.0766  0.3326
 2758SOL    HW219737   2.073   1.352   2.817 -0.0842  0.6745 -1.1221
 2759SOL     OW19738   2.934   0.295   8.983 -0.0657 -0.6494  0.0661
 2759SOL    HW119739   2.985   0.237   9.040  0.8820  0.6710  0.5659
 2759SOL    HW219740   3.000   0.333   8.926 -1.5837  2.5428  0.4525
 2760SOL     OW19741   3.358   4.471   0.695 -0.1687 -0.3330 -0.0895
 2760SOL    HW119742   3.297   4.397   0.692 -0.8668  0.3413 -2.1627
 2760SOL    HW219743   3.386   4.476   0.787 -0.4161 -0.3844 -0.0129
 2761SOL     OW19744   0.317   0.106   0.207 -0.2988  0.2762  0.2327
 2761SOL    HW119745   0.274   0.132   0.125 -1.1967 -0.2668  0.5395
 2761SOL    HW219746   0.407   0.132   0.185 -0.2798  1.4499  1.6767
 2762SOL     OW19747   4.647   1.199  15.868 -0.2150  0.3355  0.2836
 2762SOL    HW119748   4.606   1.262  15.927 -0.0401 -0.8076  1.6452
 2762SOL    HW219749   4.621   1.237  15.785 -1.2459 -0.5517  0.2051
 2763SOL     OW19750   0.853   0.852   2.733  0.2203 -0.3312 -0.1244
 2763SOL    HW119751   0.803   0.849   2.652  1.6024  0.7100 -1.0288
 2763SOL    HW219752   0.794   0.902   2.790  1.7589  1.3861 -0.0132
 2764SOL     OW19753   4.024   4.496  10.522 -0.3608  0.2017  0.0668
 2764SOL    HW119754   4.043   4.477  10.614 -1.6121 -0.4055  0.1949
 2764SOL    HW219755   4.084   4.442  10.470 -0.1550 -0.3933  0.9118
 2765SOL     OW19756   0.595   4.365   4.674 -0.2893  0.2488 -0.3847
 2765SOL    HW119757   0.600   4.402   4.586 -0.1269  0.6206 -0.2211
 2765SOL    HW219758   0.575   4.276   4.647 -0.6222  0.5654 -1.1693
 2766SOL     OW19759   0.405   0.140   5.811  0.3647  0.1301 -0.2738
 2766SOL    HW119760   0.371   0.227   5.829  0.4795 -0.0862  0.9375
 2766SOL    HW219761   0.376   0.110   5.724 -1.1994 -3.8401  1.6032
 2767SOL     OW19762   4.144   2.224   2.463 -0.6721 -0.2393 -0.2394
 2767SOL    HW119763   4.154   2.131   2.484  1.8273 -0.1594 -1.1301
 2767SOL    HW219764   4.087   2.230   2.387  1.8490 -1.5465 -2.2375
 2768SOL     OW19765   1.766   2.148   4.307  0.2253 -0.2213  0.2892
 2768SOL    HW119766   1.793   2.144   4.216  0.6935 -0.9542  0.4615
 2768SOL    HW219767   1.712   2.227   4.303  0.1515 -0.3107 -0.4623
 2769SOL     OW19768   4.303   0.489   3.623  0.2515  1.0335 -0.2242
 2769SOL    HW119769   4.377   0.470   3.565 -0.3901  1.5461 -1.2128
 2769SOL    HW219770   4.243   0.426   3.584 -0.0496  2.1031 -1.5032
 2770SOL     OW19771   3.575   3.514   5.171 -0.7445  0.3191  0.6965
 2770SOL    HW119772   3.589   3.572   5.096 -0.5257 -0.6217  0.0032
 2770SOL    HW219773   3.623   3.437   5.140  0.5931  1.6296 -0.4951
 2771SOL     OW19774   3.293   3.916  11.445  0.0487  0.6197 -0.1970
 2771SOL    HW119775   3.286   3.919  11.541 -0.2770  0.5395 -0.2176
 2771SOL    HW219776   3.244   3.835  11.428 -0.7204  1.1874 -0.7063
 2772SOL     OW19777   1.004   0.425   5.721 -0.3716 -0.2132  0.7873
 2772SOL    HW119778   1.031   0.336   5.744 -0.3383 -0.4723 -0.2565
 2772SOL    HW219779   0.909   0.426   5.728 -0.3427  2.6268  0.6897
 2773SOL     OW19780   0.703   3.343  13.487  0.9208  0.2467  0.2298
 2773SOL    HW119781   0.763   3.281  13.446 -0.2750 -1.3037  0.8452
 2773SOL    HW219782   0.628   3.285  13.499  1.5626 -0.2435  1.8891
 2774SOL     OW19783   4.407   1.068   3.733  0.3160 -0.0758  0.1206
 2774SOL    HW119784   4.415   1.001   3.665  1.0188  0.8655 -0.7201
 2774SOL    HW219785   4.492   1.039   3.768  1.6230  2.5984 -0.8596
 2775SOL     OW19786   2.561   0.252   3.767 -0.5242 -0.0679  0.3035
 2775SOL    HW119787   2.631   0.227   3.827 -1.3854 -0.3765  1.1737
 2775SOL    HW219788   2.564   0.347   3.771  1.9989 -0.1334 -0.1110
 2776SOL     OW19789   1.515   1.705   5.049  0.0171 -0.3512  0.1028
 2776SOL    HW119790   1.583   1.638   5.045  2.2132  1.8490  0.5006
 2776SOL    HW219791   1.573   1.781   5.053  3.3263 -2.7190 -1.7795
 2777SOL     OW19792   2.309   4.359   4.625 -0.1303 -0.7347  0.1576
 2777SOL    HW119793   2.294   4.352   4.531  0.4036  0.7584 -0.0394
 2777SOL    HW219794   2.367   4.436   4.630  0.0572 -0.6419 -3.0459
 2778SOL     OW19795   1.174   3.615   2.178  0.4189  0.4085  0.1597
 2778SOL    HW119796   1.097   3.671   2.191  0.3600 -0.0459  1.7446
 2778SOL    HW219797   1.140   3.553   2.114 -0.8739  0.7421  0.5216
 2779SOL     OW19798   2.204   1.285   2.367  0.3272  0.7258  0.0255
 2779SOL    HW119799   2.222   1.199   2.406  0.5489  0.9408  0.3934
 2779SOL    HW219800   2.254   1.291   2.286  0.8805  1.6885  0.4359
 2780SOL     OW19801   4.671   2.737   9.730 -0.1335  0.5654  0.4121
 2780SOL    HW119802   4.695   2.691   9.650 -1.7245  1.4692 -0.5897
 2780SOL    HW219803   0.031   2.740   9.780  0.2582 -0.4001 -0.1747
 2781SOL     OW19804   3.505   4.075   6.796 -0.5821 -0.0386  0.3046
 2781SOL    HW119805   3.560   4.148   6.769  0.8011 -0.8380  0.9822
 2781SOL    HW219806   3.519   4.007   6.730 -0.6383 -0.1441  0.4028
 2782SOL     OW19807   1.076   1.910  17.480  0.6874 -0.3167  0.4767
 2782SOL    HW119808   0.981   1.898  17.476  0.6567 -0.5433  1.9223
 2782SOL    HW219809   1.109   1.857  17.407 -0.5738  1.3796 -1.3563
 2783SOL     OW19810   1.641   4.587  15.400 -0.2334 -0.0488  0.0950
 2783SOL    HW119811   1.553   4.618  15.382  0.4337  1.0135 -1.3521
 2783SOL    HW219812   1.631   4.510  15.456 -0.2903 -1.2139 -1.5090
 2784SOL     OW19813   4.255   1.949   2.724  0.5635  0.2894 -0.4000
 2784SOL    HW119814   4.270   1.873   2.667  1.2817  1.2287 -1.4778
 2784SOL    HW219815   4.345   1.980   2.737 -0.0087 -0.4061  4.9289
 2785SOL     OW19816   2.916   0.128   5.537 -0.0876  0.9102  0.3998
 2785SOL    HW119817   2.829   0.132   5.495  0.1617 -1.0813 -0.3010
 2785SOL    HW219818   2.928   0.033   5.535  0.6486  1.0417 -2.1579
 2786SOL     OW19819   1.203   0.511   0.956  1.4023  0.7862 -0.0723
 2786SOL    HW119820   1.214   0.595   0.999  0.1164  1.5436 -1.2304
 2786SOL    HW219821   1.293   0.506   0.924  1.7300  1.4643  0.7426
 2787SOL     OW19822   3.703   0.779   2.008  0.1682 -0.6678 -0.1955
 2787SOL    HW119823   3.788   0.735   2.001  0.2817 -0.3495 -0.7953
 2787SOL    HW219824   3.715   0.849   1.945 -1.5743 -2.1187 -2.1377
 2788SOL     OW19825   1.199   1.398  16.283 -0.1079 -0.5588 -0.3768
 2788SOL    HW119826   1.220   1.381  16.375 -3.0182  0.5895  0.4860
 2788SOL    HW219827   1.153   1.318  16.258 -0.1008 -0.6160 -0.2044
 2789SOL     OW19828   2.960   1.247   2.125 -0.1520  0.1660 -0.1082
 2789SOL    HW119829   2.992   1.203   2.046 -0.9836 -0.0511 -0.3240
 2789SOL    HW219830   2.969   1.181   2.194 -0.0986 -0.2429 -0.5066
 2790SOL     OW19831   4.097   1.605   3.939 -0.0598 -0.5428 -0.4793
 2790SOL    HW119832   4.111   1.685   3.888  1.1401 -0.1516  0.4725
 2790SOL    HW219833   4.184   1.596   3.978  0.3650 -0.7998 -1.4949
 2791SOL     OW19834   0.488   2.650  11.748 -0.6771  0.4920 -0.1580
 2791SOL    HW119835   0.419   2.588  11.725  1.0800 -2.0331  1.4151
 2791SOL    HW219836   0.437   2.708  11.805 -2.6385  0.0117 -1.4076
 2792SOL     OW19837   3.759   1.407  11.176 -0.1238  0.3682 -0.1780
 2792SOL    HW119838   3.664   1.412  11.183 -0.0160  2.1460  0.0029
 2792SOL    HW219839   3.779   1.441  11.088 -0.6362 -1.0220 -0.8331
 2793SOL     OW19840   2.227   2.413   5.924 -0.0505 -0.6331 -0.6811
 2793SOL    HW119841   2.255   2.411   6.015  2.1542  0.2304 -1.3250
 2793SOL    HW219842   2.135   2.389   5.929 -0.1054 -0.0767  0.8722
 2794SOL     OW19843   4.681   1.274   6.311 -0.3129 -0.1914  0.6584
 2794SOL    HW119844   4.653   1.188   6.279 -0.4156  0.6112 -1.4245
 2794SOL    HW219845   4.607   1.331   6.290  1.5504  1.1632 -2.2004
 2795SOL     OW19846   3.933   4.444   2.953 -0.7936 -0.2721 -0.0830
 2795SOL    HW119847   4.001   4.400   3.004 -1.1733 -0.0845  0.5905
 2795SOL    HW219848   3.978   4.451   2.869 -0.7706  0.7913  0.0074
 2796SOL     OW19849   2.283   3.917  16.297 -0.3955 -0.2842  0.0420
 2796SOL    HW119850   2.328   3.917  16.213 -1.0744  3.3132 -0.3272
 2796SOL    HW219851   2.346   3.971  16.345  0.7467 -1.5910 -0.0151
 2797SOL     OW19852   4.718   3.670   7.979 -0.4170  0.0015 -0.0023
 2797SOL    HW119853   0.076   3.620   7.959 -0.0656  0.6511 -0.2333
 2797SOL    HW219854   4.653   3.601   7.992 -0.3277  0.3451  2.2216
 2798SOL     OW19855   1.129   4.552  15.347 -0.3783 -0.0529 -0.2803
 2798SOL    HW119856   1.196   4.494  15.309  1.2670  1.4182  0.3423
 2798SOL    HW219857   1.097   4.513  15.428 -0.1900  0.1926 -0.0855
 2799SOL     OW19858   1.552   2.350  13.277  0.0087  0.3113  0.6671
 2799SOL    HW119859   1.558   2.279  13.213  2.5154 -0.4208  1.7055
 2799SOL    HW219860   1.639   2.390  13.267  0.5736 -1.1065 -0.0708
 2800SOL     OW19861   1.567   4.266  16.349  0.3109 -0.4251 -0.6764
 2800SOL    HW119862   1.579   4.185  16.399  1.2662  0.3793  0.4199
 2800SOL    HW219863   1.650   4.285  16.305 -0.6877 -0.0180 -2.3865
 2801SOL     OW19864   0.868   1.197   5.854  0.0279  0.7592 -0.3249
 2801SOL    HW119865   0.887   1.257   5.781  1.2364  1.2506  0.3892
 2801SOL    HW219866   0.943   1.138   5.852 -0.6721 -0.2002  2.0655
 2802SOL     OW19867   0.834   3.967   5.280  0.1602  0.8647  0.2806
 2802SOL    HW119868   0.843   3.978   5.185 -0.8600  0.8166  0.1784
 2802SOL    HW219869   0.771   4.037   5.294  1.5712  2.5072 -1.6359
 2803SOL     OW19870   0.968   1.698   3.051 -0.2898  0.2406 -0.1839
 2803SOL    HW119871   1.007   1.663   2.971 -0.4814  1.4868 -0.8253
 2803SOL    HW219872   0.880   1.665   3.033  0.8937 -2.6425 -0.6223
 2804SOL     OW19873   0.101   3.903   4.368  0.2771 -0.8948 -0.3325
 2804SOL    HW119874   0.191   3.904   4.336  0.7045  0.0318  0.9175
 2804SOL    HW219875   0.061   3.835   4.313 -1.3357  0.6127 -1.0476
 2805SOL     OW19876   1.243   4.335   8.450 -0.0315 -0.3391 -0.0795
 2805SOL    HW119877   1.158   4.344   8.492  0.1343  0.0705  0.1706
 2805SOL    HW219878   1.291   4.288   8.518 -0.0258 -0.2766 -0.0403
 2806SOL     OW19879   2.642   4.700   0.722  0.1330 -0.0060  0.7062
 2806SOL    HW119880   2.559   4.696   0.771 -1.2795 -1.3584 -1.8094
 2806SOL    HW219881   2.707   4.684   0.791 -0.1849 -2.0160  0.5352
 2807SOL     OW19882   4.011   0.538   2.924  0.4753 -0.6571  0.2885
 2807SOL    HW119883   3.995   0.457   2.972 -0.1474 -1.7191 -1.7004
 2807SOL    HW219884   4.043   0.510   2.838  3.0350 -0.8107  1.2958
 2808SOL     OW19885   0.267   4.425   0.192 -0.6461  0.1294 -0.1825
 2808SOL    HW119886   0.236   4.433   0.102 -0.0926 -2.9453 -0.6205
 2808SOL    HW219887   0.233   4.336   0.200  0.0129 -0.2679 -1.7808
 2809SOL     OW19888   3.944   1.402   0.513 -0.6694  0.2681 -0.2965
 2809SOL    HW119889   3.939   1.488   0.555  0.7023  0.1145  0.1842
 2809SOL    HW219890   3.859   1.406   0.469 -0.8148 -1.0882 -0.1415
 2810SOL     OW19891   1.020   2.263   6.462 -0.1591  0.0059 -0.3819
 2810SOL    HW119892   0.975   2.341   6.496 -0.4245 -0.3705  0.1256
 2810SOL    HW219893   0.964   2.189   6.484 -1.1345  0.6095 -0.8757
 2811SOL     OW19894   2.085   0.846   7.831 -0.4602 -0.0431 -0.6113
 2811SOL    HW119895   2.034   0.778   7.875 -0.1194  0.1305  0.0648
 2811SOL    HW219896   2.018   0.907   7.799 -0.2595  1.9443  2.7124
 2812SOL     OW19897   4.374   0.013   7.140 -0.3212  0.2476  0.4188
 2812SOL    HW119898   4.311   4.713   7.072  0.0798 -1.4186  0.6030
 2812SOL    HW219899   4.329   0.081   7.190 -2.7165 -0.1315 -1.2467
 2813SOL     OW19900   0.821   4.279  15.627  0.4299  0.5839 -0.1701
 2813SOL    HW119901   0.731   4.290  15.656  0.7166  0.2235  0.8704
 2813SOL    HW219902   0.870   4.261  15.708 -0.5636 -2.1423 -0.1878
 2814SOL     OW19903   3.158   0.307   3.507  0.4770  0.2467 -0.2721
 2814SOL    HW119904   3.088   0.243   3.493 -2.2699  2.8214  1.8443
 2814SOL    HW219905   3.128   0.364   3.577  1.3273 -0.8282  0.9601
 2815SOL     OW19906   2.049   0.843  11.929 -0.6723  0.3296 -0.0348
 2815SOL    HW119907   2.005   0.759  11.924 -1.4254  0.6172  1.8165
 2815SOL    HW219908   2.076   0.838  12.021 -0.9044  0.0664  0.0180
 2816SOL     OW19909   2.448   2.159  17.487  0.3650  0.9808 -0.6757
 2816SOL    HW119910   2.476   2.203  17.407 -1.1930  0.9255 -1.2469
 2816SOL    HW219911   2.357   2.137  17.468  0.6510  0.3790 -1.3454
 2817SOL     OW19912   1.214   3.192   5.949  0.7031 -0.3985  0.5444
 2817SOL    HW119913   1.238   3.263   6.008 -0.3398  0.4304 -0.0367
 2817SOL    HW219914   1.122   3.207   5.926  0.1488 -0.3049  2.8871
 2818SOL     OW19915   2.299   3.911   6.648 -0.3751  0.1664  0.1808
 2818SOL    HW119916   2.360   3.906   6.721 -0.5570  0.8672  0.3881
 2818SOL    HW219917   2.218   3.870   6.680  1.0828 -0.9023  2.4479
 2819SOL     OW19918   1.050   1.672  15.953  0.2311 -0.0269  0.2935
 2819SOL    HW119919   0.964   1.632  15.958  0.4867 -0.5921  0.0724
 2819SOL    HW219920   1.036   1.764  15.931  0.3388 -0.3497 -1.1183
 2820SOL     OW19921   2.111   3.946   2.816  0.6847 -0.1406  0.0009
 2820SOL    HW119922   2.108   3.851   2.801 -2.6911 -0.2396  1.4202
 2820SOL    HW219923   2.172   3.974   2.884  2.0397 -1.0409 -0.8249
 2821SOL     OW19924   4.681   0.814   9.152 -0.2549 -0.1423  0.0196
 2821SOL    HW119925   4.658   0.906   9.142 -0.6977 -0.3581 -0.9849
 2821SOL    HW219926   0.050   0.804   9.124  0.3967  2.1960  1.3397
 2822SOL     OW19927   3.285   2.096   2.580 -0.2986 -0.0415 -0.2786
 2822SOL    HW119928   3.369   2.107   2.626 -0.1287 -0.9900 -0.3566
 2822SOL    HW219929   3.242   2.179   2.597  1.7451  0.9176  0.2491
 2823SOL     OW19930   2.260   3.209   1.607  0.0778 -0.5244  0.1345
 2823SOL    HW119931   2.243   3.122   1.571 -1.4907 -0.5789  1.0111
 2823SOL    HW219932   2.275   3.272   1.536  1.3250 -0.9705  0.0035
 2824SOL     OW19933   1.110   3.808  13.218  0.4515 -0.0400 -0.0385
 2824SOL    HW119934   1.072   3.732  13.261  1.5324 -1.2038 -1.1768
 2824SOL    HW219935   1.192   3.817  13.268 -0.8236 -0.5394  2.1329
 2825SOL     OW19936   2.768   1.685   8.952  0.0292  0.2291 -0.0394
 2825SOL    HW119937   2.719   1.744   9.010  0.5062  0.2173  0.3775
 2825SOL    HW219938   2.847   1.663   9.002 -0.0338 -3.5009 -1.6183
 2826SOL     OW19939   3.750   3.412   1.887  0.9754  0.2211  0.2825
 2826SOL    HW119940   3.762   3.409   1.982 -2.1240 -0.9389  0.6512
 2826SOL    HW219941   3.703   3.494   1.870  0.5915 -0.1805 -0.6079
 2827SOL     OW19942   0.383   1.720   6.998 -0.0519 -1.4222  0.1888
 2827SOL    HW119943   0.307   1.690   6.949 -0.7521 -0.8589  0.9317
 2827SOL    HW219944   0.418   1.649   7.051  0.6880 -1.0302  0.2417
 2828SOL     OW19945   2.681   2.004  13.567  1.1111 -0.1528 -0.3760
 2828SOL    HW119946   2.672   1.958  13.650  0.0445  0.2805 -0.2533
 2828SOL    HW219947   2.662   2.094  13.591 -1.9619 -0.0922 -2.9410
 2829SOL     OW19948   0.704   0.162   6.594  0.1967  0.1366  0.2332
 2829SOL    HW119949   0.616   0.137   6.564  0.5377 -0.5870 -0.1441
 2829SOL    HW219950   0.759   0.127   6.525 -0.0842 -1.7834  0.9886
 2830SOL     OW19951   1.388   1.724   4.181 -0.1907  0.1534 -0.2295
 2830SOL    HW119952   1.408   1.796   4.241  2.2542 -0.1507 -0.6589
 2830SOL    HW219953   1.340   1.674   4.246  1.6442 -0.1090  0.9368
 2831SOL     OW19954   2.136   2.744   9.362  0.0851 -0.6444 -0.0293
 2831SOL    HW119955   2.061   2.760   9.305  0.2098  2.3220  0.6673
 2831SOL    HW219956   2.092   2.753   9.446  1.8199  1.0123  0.6803
 2832SOL     OW19957   3.845   3.129  13.023  0.0705 -0.1752 -0.3821
 2832SOL    HW119958   3.865   3.102  13.113 -0.6827 -1.9122 -0.7232
 2832SOL    HW219959   3.804   3.213  13.038 -0.2867 -0.8650  2.6171
 2833SOL     OW19960   1.980   2.883  14.594  0.2883 -0.0612  0.0216
 2833SOL    HW119961   1.991   2.950  14.662  2.4090 -1.4000  0.9872
 2833SOL    HW219962   1.977   2.927  14.509 -0.1114  0.5239  0.3421
 2834SOL     OW19963   0.984   0.264   1.571 -0.3129 -0.3801 -0.5256
 2834SOL    HW119964   0.966   0.353   1.540 -0.4309 -0.1697  0.1452
 2834SOL    HW219965   1.065   0.274   1.621 -0.0336  3.7281 -1.7785
 2835SOL     OW19966   0.902   4.213  10.223 -0.1140  0.1710  0.0881
 2835SOL    HW119967   0.862   4.245  10.305  0.1733  2.2754 -0.5759
 2835SOL    HW219968   0.866   4.126  10.206 -0.6825  0.2513  0.8779
 2836SOL     OW19969   4.216   3.838  16.652  0.4107 -0.3625  0.3051
 2836SOL    HW119970   4.307   3.814  16.639 -0.3261 -3.2836  0.5855
 2836SOL    HW219971   4.214   3.858  16.746  1.7709 -0.2096  0.3042
 2837SOL     OW19972   0.893   0.159   7.642 -0.0260 -0.2148  0.0636
 2837SOL    HW119973   0.887   0.250   7.613  0.9927 -0.2817 -0.3732
 2837SOL    HW219974   0.843   0.114   7.574 -0.5194  1.0947 -0.4412
 2838SOL     OW19975   1.332   0.594  16.474 -0.3994  0.5900  0.3087
 2838SOL    HW119976   1.399   0.632  16.418 -1.5574  0.7576 -0.9604
 2838SOL    HW219977   1.387   0.522  16.506 -1.7724  0.1058  1.5746
 2839SOL     OW19978   0.122   3.867   9.889 -0.2991  0.1048  0.2796
 2839SOL    HW119979   0.074   3.939   9.930 -0.1123  0.4760 -0.1511
 2839SOL    HW219980   0.150   3.825   9.970  0.3004  1.0955  0.5864
 2840SOL     OW19981   2.466   3.708   6.069 -0.0950  0.2116  0.0935
 2840SOL    HW119982   2.375   3.709   6.100  0.4961  0.6100  1.8101
 2840SOL    HW219983   2.463   3.700   5.974 -1.8701 -0.3235  0.1957
 2841SOL     OW19984   3.642   0.379   1.932  0.4720  0.7507  0.3793
 2841SOL    HW119985   3.572   0.431   1.894 -1.5254 -0.1803  2.7307
 2841SOL    HW219986   3.714   0.397   1.872 -1.0295  3.1147 -0.6812
 2842SOL     OW19987   0.985   4.285   8.852  0.3843  0.1798 -0.0028
 2842SOL    HW119988   0.993   4.322   8.764 -0.7774  1.6536  0.5148
 2842SOL    HW219989   0.937   4.204   8.835 -1.0946  1.3466 -1.3320
 2843SOL     OW19990   1.649   3.834  15.445  0.3002 -0.1002 -0.0859
 2843SOL    HW119991   1.685   3.826  15.533  2.4330 -0.3328 -0.9678
 2843SOL    HW219992   1.633   3.741  15.429  2.7961 -0.2429 -1.7018
 2844SOL     OW19993   4.429   1.942  14.529  0.6741  0.4141  0.5261
 2844SOL    HW119994   4.457   1.998  14.457  1.6764 -0.3805  0.3020
 2844SOL    HW219995   4.416   2.008  14.598  0.0484  0.2904  0.5239
 2845SOL     OW19996   2.135   0.538  10.533  0.9856  0.4816 -0.0793
 2845SOL    HW119997   2.225   0.560  10.510  1.1265  0.5820  0.5739
 2845SOL    HW219998   2.149   0.540  10.627  1.8006 -0.0873 -0.1860
 2846SOL     OW19999   1.138   2.936  15.590  0.0691  0.3289  0.7409
 2846SOL    HW120000   1.152   2.974  15.503 -1.8095  2.0120  1.1707
 2846SOL    HW220001   1.049   2.905  15.577 -0.3312  1.3997  0.9307
 2847SOL     OW20002   4.590   4.491   6.431 -0.1299 -0.1805 -0.2651
 2847SOL    HW120003   4.681   4.480   6.406  0.6016 -1.1391  2.8761
 2847SOL    HW220004   4.552   4.406   6.410  0.4368 -0.0497 -1.8457
 2848SOL     OW20005   0.452   0.396   4.707 -0.0037  0.4221 -0.3697
 2848SOL    HW120006   0.366   0.411   4.746  0.0133  1.7211 -0.8375
 2848SOL    HW220007   0.510   0.455   4.755  2.3650 -1.0475 -1.4055
 2849SOL     OW20008   0.102   2.129   4.527  0.1127  0.3568 -0.1849
 2849SOL    HW120009   0.193   2.130   4.496  0.0500  0.1057 -0.3789
 2849SOL    HW220010   0.093   2.034   4.531  1.3209  0.2007 -1.1976
 2850SOL     OW20011   3.780   4.089   3.915 -0.4360  0.0136  0.2834
 2850SOL    HW120012   3.720   4.122   3.847 -0.9173 -0.8179  0.3053
 2850SOL    HW220013   3.759   4.151   3.985 -3.8004  1.4969 -2.0313
 2851SOL     OW20014   0.812   4.048   8.809  0.2647 -0.2518  0.5231
 2851SOL    HW120015   0.817   4.052   8.905  1.7517  2.8456  0.3185
 2851SOL    HW220016   0.858   3.968   8.784 -0.3457 -0.1091 -0.9908
 2852SOL     OW20017   2.015   2.961   3.753 -0.4580 -0.3603 -0.4228
 2852SOL    HW120018   1.993   3.015   3.677 -0.8951  0.1087  0.0401
 2852SOL    HW220019   2.043   2.878   3.714  0.4707 -0.6121  0.7710
 2853SOL     OW20020   2.342   4.567   9.892  0.2451 -0.8528  0.4656
 2853SOL    HW120021   2.385   4.649   9.869 -2.5200  0.7308  0.9037
 2853SOL    HW220022   2.269   4.607   9.939  0.0753  0.6414 -1.0795
 2854SOL     OW20023   2.904   2.084  12.989 -0.5215  0.6309 -0.5830
 2854SOL    HW120024   2.927   2.016  12.927 -0.1655  1.7156 -1.6302
 2854SOL    HW220025   2.926   2.035  13.068 -1.2788  1.0553 -0.1047
 2855SOL     OW20026   3.303   0.953   1.142  0.5303  0.7884  0.6024
 2855SOL    HW120027   3.354   0.874   1.160 -0.6557 -0.4228 -1.3789
 2855SOL    HW220028   3.341   1.007   1.211 -0.1202  1.6488  0.2843
 2856SOL     OW20029   0.516   3.485   9.117 -0.3973  0.3075 -0.3854
 2856SOL    HW120030   0.567   3.412   9.082 -1.1952  0.7923 -2.5295
 2856SOL    HW220031   0.534   3.466   9.209  0.9841  2.1353 -0.2733
 2857SOL     OW20032   1.327   2.529   4.679  0.5485 -0.0637  0.5000
 2857SOL    HW120033   1.309   2.621   4.660  2.0848 -0.0406 -0.9252
 2857SOL    HW220034   1.246   2.491   4.714  2.2706 -2.1996  2.2091
 2858SOL     OW20035   0.980   0.615   5.260  0.0262  0.3394  0.2041
 2858SOL    HW120036   0.995   0.534   5.308  1.1289  0.9401  0.8804
 2858SOL    HW220037   1.046   0.617   5.191 -1.3616  1.1273 -1.0912
 2859SOL     OW20038   2.222   3.577  12.612 -0.1089 -0.0051 -0.0312
 2859SOL    HW120039   2.144   3.623  12.644 -1.0419 -1.1578 -0.6704
 2859SOL    HW220040   2.252   3.540  12.695  1.4671  1.8262  0.2468
 2860SOL     OW20041   3.986   1.563  13.479  0.1895  0.4273 -0.4973
 2860SOL    HW120042   3.951   1.606  13.401  3.9211  2.2849 -1.1223
 2860SOL    HW220043   3.968   1.472  13.455 -0.5557  0.4537 -0.0557
 2861SOL     OW20044   1.674   2.204  17.227  0.3582  0.1035  0.0879
 2861SOL    HW120045   1.633   2.278  17.182 -0.9438 -2.0769 -2.2812
 2861SOL    HW220046   1.684   2.143  17.153  2.4702  2.6868 -1.7716
 2862SOL     OW20047   1.677   0.795   2.548  0.1103  0.3733 -0.1904
 2862SOL    HW120048   1.711   0.766   2.463  0.5615  1.8966 -0.5219
 2862SOL    HW220049   1.701   0.887   2.546 -1.1767  0.6781 -1.6079
 2863SOL     OW20050   1.489   3.112  10.110 -0.3050 -0.0155 -0.1953
 2863SOL    HW120051   1.426   3.154  10.169 -0.1696 -1.2750  0.8449
 2863SOL    HW220052   1.450   3.136  10.026 -0.3546  0.1604 -0.1217
 2864SOL     OW20053   0.525   2.801   5.831 -0.8041 -0.3141  0.3048
 2864SOL    HW120054   0.460   2.855   5.786 -0.3512  0.2657  0.3456
 2864SOL    HW220055   0.489   2.714   5.814  2.3556 -1.5857  0.1410
 2865SOL     OW20056   1.148   3.410   4.669  0.0703  0.3191 -0.0833
 2865SOL    HW120057   1.175   3.401   4.577  2.9297 -1.7015  0.9528
 2865SOL    HW220058   1.229   3.373   4.705 -0.9578 -1.0323  0.8086
 2866SOL     OW20059   4.025   3.561  10.115 -0.4467 -0.0755  0.2564
 2866SOL    HW120060   3.971   3.600  10.047  0.6563  1.3512  0.1924
 2866SOL    HW220061   4.060   3.478  10.084 -2.2120 -0.5800 -0.3301
 2867SOL     OW20062   3.467   4.270   8.001 -0.1429 -0.1242 -0.0868
 2867SOL    HW120063   3.410   4.328   8.052 -2.4791 -2.0483 -0.5409
 2867SOL    HW220064   3.514   4.217   8.065 -0.8924 -1.4137 -0.6056
 2868SOL     OW20065   1.183   3.551   1.340  0.3003  0.6615 -0.2318
 2868SOL    HW120066   1.259   3.604   1.314 -0.0312  1.0020 -0.5057
 2868SOL    HW220067   1.212   3.475   1.290  2.5719  0.6995  0.9994
 2869SOL     OW20068   2.000   1.451   4.923  0.0922  0.5119 -0.0754
 2869SOL    HW120069   2.086   1.494   4.923  0.1761  0.3604  0.7608
 2869SOL    HW220070   1.999   1.398   4.844 -0.7599 -0.9845  0.9449
 2870SOL     OW20071   1.226   4.399  16.605  0.3434 -0.2453  0.0052
 2870SOL    HW120072   1.227   4.329  16.670  2.0913 -1.6227 -1.5219
 2870SOL    HW220073   1.239   4.360  16.519 -1.8376  5.2553 -2.8075
 2871SOL     OW20074   3.873   1.005   7.387 -0.6510  0.4638  0.3851
 2871SOL    HW120075   3.871   1.022   7.292 -0.4308 -0.5990  0.1943
 2871SOL    HW220076   3.957   0.960   7.396  0.0112  1.4288 -0.9897
 2872SOL     OW20077   2.901   1.101   7.187  0.1406  0.2748  0.7003
 2872SOL    HW120078   2.939   1.089   7.274 -0.9616 -2.7997  0.7391
 2872SOL    HW220079   2.819   1.052   7.193  0.4256 -0.1995  0.7042
 2873SOL     OW20080   1.161   0.831   3.986 -0.5171 -0.1235  0.2879
 2873SOL    HW120081   1.141   0.779   4.064 -0.9329 -1.1621 -0.5231
 2873SOL    HW220082   1.094   0.797   3.928  0.0832  1.0704 -1.1003
 2874SOL     OW20083   2.551   2.355   3.152 -0.4772 -0.1857  0.0412
 2874SOL    HW120084   2.631   2.402   3.176 -0.9719  0.5290  0.3179
 2874SOL    HW220085   2.567   2.337   3.059 -2.9458 -0.5181 -0.3245
 2875SOL     OW20086   2.651   2.318   5.246  0.1170 -0.1491  0.2692
 2875SOL    HW120087   2.649   2.309   5.341  0.1045  0.5582  0.3346
 2875SOL    HW220088   2.624   2.232   5.216 -1.2020  0.0955  0.7577
 2876SOL     OW20089   4.253   3.737  12.038 -0.3959  0.8663  0.5063
 2876SOL    HW120090   4.343   3.748  12.008 -0.3429  1.5715  0.9180
 2876SOL    HW220091   4.218   3.792  11.967  2.2722  1.6553 -0.1992
 2877SOL     OW20092   0.229   3.949   2.722  0.0253 -0.6117  0.3195
 2877SOL    HW120093   0.228   3.966   2.816  0.9467 -0.1783  0.2511
 2877SOL    HW220094   0.318   3.967   2.692  0.5332 -0.9923  1.5995
 2878SOL     OW20095   1.104   4.387  10.140  0.1438  0.4207  0.0222
 2878SOL    HW120096   1.157   4.354  10.213 -0.1561 -1.5924 -0.6611
 2878SOL    HW220097   1.025   4.337  10.161 -0.3036  1.1895  0.1435
 2879SOL     OW20098   0.953   3.794   9.722 -0.0413  0.2186  0.6706
 2879SOL    HW120099   0.945   3.718   9.664 -0.1120 -1.4890  2.9251
 2879SOL    HW220100   1.037   3.835   9.701 -0.5897  1.3556  0.7522
 2880SOL     OW20101   3.063   1.408   6.044 -0.5262 -0.3317 -0.0250
 2880SOL    HW120102   3.145   1.453   6.023 -1.1204  0.9750  0.4017
 2880SOL    HW220103   3.002   1.482   6.041 -0.4684 -0.2680  0.3855
 2881SOL     OW20104   2.487   0.371   5.907  0.2625 -0.8715 -0.2143
 2881SOL    HW120105   2.543   0.333   5.839 -2.8245 -1.3623 -2.4900
 2881SOL    HW220106   2.519   0.461   5.909 -0.6778 -0.5773  1.4555
 2882SOL     OW20107   0.867   2.443   4.975 -0.2982  0.0282 -0.0574
 2882SOL    HW120108   0.788   2.476   5.018 -1.2820 -0.3656 -1.5809
 2882SOL    HW220109   0.833   2.358   4.948  2.2100 -0.7838 -0.7032
 2883SOL     OW20110   0.174   3.924   8.410 -0.2007  0.5278 -0.1322
 2883SOL    HW120111   0.236   3.867   8.456  1.7632  1.3174 -1.7745
 2883SOL    HW220112   0.175   3.893   8.319 -0.8399 -0.4131  0.1917
 2884SOL     OW20113   3.309   4.660  10.745 -0.4300 -0.1162 -0.2775
 2884SOL    HW120114   3.287   4.721  10.675  0.9079 -1.1996 -1.6448
 2884SOL    HW220115   3.360   0.004  10.792 -1.0662  0.4283 -0.3590
 2885SOL     OW20116   4.566   4.288   5.714  0.3338  0.1250 -0.1754
 2885SOL    HW120117   4.654   4.325   5.720  0.3412  0.0278  0.3014
 2885SOL    HW220118   4.515   4.369   5.708  0.1614  0.0651  0.4588
 2886SOL     OW20119   2.078   4.433  13.929 -0.1149 -0.0400 -0.5946
 2886SOL    HW120120   2.004   4.410  13.986  1.2826 -0.8950  0.8678
 2886SOL    HW220121   2.120   4.513  13.959  2.4435 -0.3459 -3.2849
 2887SOL     OW20122   3.025   0.729   1.355 -0.1005 -0.0037 -0.6241
 2887SOL    HW120123   3.039   0.803   1.296 -0.5806  0.1931 -0.4870
 2887SOL    HW220124   2.931   0.715   1.345 -0.1461  0.7759 -1.2866
 2888SOL     OW20125   0.459   2.974   7.360  0.6164 -0.5005  0.4500
 2888SOL    HW120126   0.388   3.039   7.360  0.9295 -0.1603 -0.2303
 2888SOL    HW220127   0.540   3.025   7.364 -0.1195  0.6796  0.3734
 2889SOL     OW20128   2.511   2.320   2.864  0.3171  0.3510  0.5873
 2889SOL    HW120129   2.434   2.373   2.885 -2.8786 -2.7279 -3.6482
 2889SOL    HW220130   2.550   2.343   2.780  0.4634  2.6737  1.2983
 2890SOL     OW20131   0.050   0.002   9.406  0.0220 -0.3065 -0.0067
 2890SOL    HW120132   0.044   0.096   9.426  0.4901 -0.5164  1.1662
 2890SOL    HW220133   0.056   4.693   9.497 -0.6146 -0.9229 -0.1784
 2891SOL     OW20134   4.391   0.357   1.913  0.5897 -0.0024  0.2713
 2891SOL    HW120135   4.356   0.432   1.865 -1.2586 -1.8513 -1.2630
 2891SOL    HW220136   4.478   0.395   1.927  0.5392 -0.1032  0.8878
 2892SOL     OW20137   0.757   4.453  15.347  0.6057  0.2743  0.4409
 2892SOL    HW120138   0.783   4.400  15.422 -4.2093 -1.7120  0.6743
 2892SOL    HW220139   0.809   4.429  15.270  0.0061 -1.0395  0.4544
 2893SOL     OW20140   3.370   2.987   6.775  0.7183  0.5493  0.1350
 2893SOL    HW120141   3.399   3.075   6.750  1.5084 -0.3044 -1.9168
 2893SOL    HW220142   3.386   2.934   6.697  0.7965  1.7671 -0.6766
 2894SOL     OW20143   0.190   4.523   4.439 -0.1918  0.2046  0.3278
 2894SOL    HW120144   0.160   4.452   4.496  0.2218 -0.1993  0.0378
 2894SOL    HW220145   0.212   4.588   4.506  0.1548  1.3855 -0.9537
 2895SOL     OW20146   1.143   4.090   3.639 -0.0291 -0.9060  0.0262
 2895SOL    HW120147   1.143   4.152   3.566 -0.3283  0.0789  0.8800
 2895SOL    HW220148   1.050   4.068   3.635 -0.2865  0.0254  1.1125
 2896SOL     OW20149   4.272   3.681   2.715 -0.4759  0.1450 -0.4157
 2896SOL    HW120150   4.339   3.635   2.766 -0.7506  0.9207  0.6411
 2896SOL    HW220151   4.317   3.765   2.710 -0.0673  0.0744  2.0580
 2897SOL     OW20152   0.507   1.187   4.969  0.1014  0.0559  0.0898
 2897SOL    HW120153   0.590   1.227   4.993 -0.3436  0.7235  0.4905
 2897SOL    HW220154   0.440   1.226   5.024  0.7039 -0.1173  0.9391
 2898SOL     OW20155   2.887   2.749  12.004  0.3773 -0.1161 -0.1754
 2898SOL    HW120156   2.794   2.758  11.980  1.0417  2.2429 -1.8899
 2898SOL    HW220157   2.926   2.771  11.919 -1.8465  0.5556 -1.0299
 2899SOL     OW20158   2.995   0.441  12.412  0.3240  0.4620 -0.0426
 2899SOL    HW120159   2.917   0.444  12.356 -0.0442  1.4501  0.5152
 2899SOL    HW220160   3.012   0.536  12.411 -3.6400  1.1643  0.2852
 2900SOL     OW20161   0.158   0.345   8.850 -0.1746 -0.4275  0.0906
 2900SOL    HW120162   0.076   0.392   8.859  0.7439  1.1059  0.5155
 2900SOL    HW220163   0.183   0.384   8.766 -0.0617 -0.7729 -0.0388
 2901SOL     OW20164   4.158   1.829   0.350  0.3327  0.3338  0.7842
 2901SOL    HW120165   4.101   1.755   0.330 -0.5400  1.5057 -1.1313
 2901SOL    HW220166   4.197   1.804   0.433 -0.4150 -0.6223  0.8381
 2902SOL     OW20167   2.591   1.248  11.852  0.0182  0.3082 -0.1454
 2902SOL    HW120168   2.664   1.297  11.891 -1.0465  3.5857 -2.3020
 2902SOL    HW220169   2.517   1.303  11.875 -0.2894 -0.0892 -0.1842
 2903SOL     OW20170   2.917   1.418   3.071  0.2917  0.3408 -0.4927
 2903SOL    HW120171   2.902   1.387   2.981  2.2895  1.3488 -1.1789
 2903SOL    HW220172   2.897   1.337   3.119  0.6547  1.2726  1.2294
 2904SOL     OW20173   0.345   4.460   6.582  0.3995 -0.2820 -0.0494
 2904SOL    HW120174   0.323   4.480   6.673 -0.1026  2.4042 -0.7803
 2904SOL    HW220175   0.347   4.550   6.550 -0.1668 -0.4053 -0.4278
 2905SOL     OW20176   1.754   3.832   6.877  0.4194 -0.2260  0.1628
 2905SOL    HW120177   1.730   3.860   6.789 -1.2219 -0.0855  0.6523
 2905SOL    HW220178   1.782   3.743   6.858 -0.4625 -1.0147  2.4814
 2906SOL     OW20179   0.966   1.911  16.504  0.0675  0.0395  0.6184
 2906SOL    HW120180   1.044   1.904  16.559 -1.0220 -1.8308  1.9337
 2906SOL    HW220181   1.012   1.892  16.423 -1.6054  0.7276 -0.4905
 2907SOL     OW20182   2.147   0.074   9.651 -0.9192  0.2361 -0.2892
 2907SOL    HW120183   2.075   0.017   9.677  0.3305 -1.0709  0.2654
 2907SOL    HW220184   2.166   0.038   9.564  0.1517 -0.8285  0.3906
 2908SOL     OW20185   2.368   4.251   1.772  0.1261  0.0539  0.3132
 2908SOL    HW120186   2.368   4.160   1.741 -0.5690 -0.8157  2.9239
 2908SOL    HW220187   2.344   4.237   1.863 -0.2029 -1.6325 -0.0277
 2909SOL     OW20188   3.089   0.208   8.667 -0.2026  0.1748  0.0329
 2909SOL    HW120189   3.001   0.172   8.680  0.2395 -1.1996 -0.7662
 2909SOL    HW220190   3.101   0.281   8.728 -0.1521  1.3335 -1.3505
 2910SOL     OW20191   3.852   2.402   0.630  0.3315  0.2964 -0.2522
 2910SOL    HW120192   3.851   2.438   0.541  2.2892 -3.0795 -1.6365
 2910SOL    HW220193   3.766   2.362   0.619  0.5709 -1.0833  3.0800
 2911SOL     OW20194   2.301   1.265   3.177  0.6715  0.0186  0.3953
 2911SOL    HW120195   2.286   1.358   3.162  0.4804 -0.3954 -1.8835
 2911SOL    HW220196   2.224   1.249   3.231  0.2318 -0.3622 -0.3651
 2912SOL     OW20197   0.043   0.810   7.536 -0.1042  0.5109 -0.6933
 2912SOL    HW120198   0.057   0.752   7.461  1.7015 -0.3437  0.2856
 2912SOL    HW220199   4.674   0.781   7.540  0.0315  0.2175  0.4489
 2913SOL     OW20200   1.470   0.236  13.773  0.2825  0.1411  0.4780
 2913SOL    HW120201   1.418   0.264  13.849 -1.4554  1.7577 -1.3244
 2913SOL    HW220202   1.558   0.237  13.811  0.7289  0.3711 -0.5830
 2914SOL     OW20203   1.746   2.470   2.638 -0.0790  0.5642  0.3998
 2914SOL    HW120204   1.735   2.485   2.545 -0.3208  2.0821  0.6690
 2914SOL    HW220205   1.660   2.456   2.676 -0.7668 -0.5226 -1.5913
 2915SOL     OW20206   1.303   2.138  11.926  0.5070 -1.2352  0.3317
 2915SOL    HW120207   1.264   2.051  11.926  0.5261 -1.2391 -2.4105
 2915SOL    HW220208   1.383   2.126  11.977  0.2526  2.8838  1.7454
 2916SOL     OW20209   0.591   3.726   9.680  0.1150 -0.3023  0.1476
 2916SOL    HW120210   0.620   3.721   9.589  0.1087 -1.2452  0.1915
 2916SOL    HW220211   0.609   3.816   9.706 -0.1958  0.8931 -3.8149
 2917SOL     OW20212   0.497   4.572   2.185  0.3312  0.2026  0.1752
 2917SOL    HW120213   0.427   4.606   2.129 -0.6378 -1.0811  0.6139
 2917SOL    HW220214   0.532   4.654   2.220  0.5513 -0.2914  1.1117
 2918SOL     OW20215   2.144   3.454   3.959  0.4951  0.3444 -0.6727
 2918SOL    HW120216   2.234   3.481   3.976  0.2638 -0.0816  1.2674
 2918SOL    HW220217   2.104   3.533   3.923 -0.3161  0.4858  0.5294
 2919SOL     OW20218   0.174   3.339   6.484 -0.2108 -0.3077  0.3450
 2919SOL    HW120219   0.173   3.380   6.397  1.1035  1.2319  1.0529
 2919SOL    HW220220   0.106   3.272   6.485  0.9009 -1.4422 -1.2169
 2920SOL     OW20221   4.608   1.297   5.272 -0.4574 -0.3062 -0.1276
 2920SOL    HW120222   4.514   1.284   5.282 -0.3422  0.3999  1.7649
 2920SOL    HW220223   4.600   1.347   5.191 -0.7624 -0.4574 -0.1912
 2921SOL     OW20224   2.745   0.382   2.560  0.3837 -0.3806 -0.3789
 2921SOL    HW120225   2.781   0.330   2.632 -1.5689 -0.4663  0.5360
 2921SOL    HW220226   2.768   0.472   2.584 -1.0707 -0.0664 -0.1302
 2922SOL     OW20227   0.882   2.430  10.019  0.6046  0.5146 -0.3487
 2922SOL    HW120228   0.856   2.515   9.984 -0.5120  0.0466 -0.6497
 2922SOL    HW220229   0.928   2.457  10.098  0.0641  0.4769 -0.0240
 2923SOL     OW20230   1.166   3.513   8.763 -0.7878  0.7687 -0.5015
 2923SOL    HW120231   1.125   3.434   8.797 -1.6278  2.2989  2.1120
 2923SOL    HW220232   1.251   3.491   8.725 -1.1286  0.0105 -0.8102
 2924SOL     OW20233   0.821   2.946   2.874 -0.0157 -0.0788 -0.2275
 2924SOL    HW120234   0.879   2.982   2.806 -1.7613 -0.1788 -1.7589
 2924SOL    HW220235   0.828   2.851   2.864  2.3597 -0.0863  1.4053
 2925SOL     OW20236   0.799   1.329  17.089  0.2213 -0.9517  0.5084
 2925SOL    HW120237   0.771   1.246  17.127 -0.6067 -1.0156 -0.2128
 2925SOL    HW220238   0.882   1.312  17.045  0.7673 -0.9339  1.5584
 2926SOL     OW20239   1.353   1.344   3.872  0.7075  1.0181  0.1928
 2926SOL    HW120240   1.377   1.312   3.785 -1.8972 -0.7077  0.1009
 2926SOL    HW220241   1.419   1.300   3.926 -1.4996  1.5627  3.3442
 2927SOL     OW20242   0.955   2.886  12.984  0.3317  0.1195 -0.1858
 2927SOL    HW120243   0.889   2.901  13.052 -0.1562  1.9740 -1.0592
 2927SOL    HW220244   0.900   2.895  12.906 -0.3099 -0.3027  0.2207
 2928SOL     OW20245   0.058   0.052   4.316 -0.1349  0.6133  0.0789
 2928SOL    HW120246   0.151   0.037   4.299  0.0340  0.4069  1.1960
 2928SOL    HW220247   0.044   0.138   4.276 -2.8386  0.8742  1.5943
 2929SOL     OW20248   3.091   0.689  16.441 -0.0634  0.0112  0.6695
 2929SOL    HW120249   3.104   0.756  16.374  0.8315 -0.6936  0.1448
 2929SOL    HW220250   3.120   0.618  16.384 -0.0502  0.6212 -0.0798
 2930SOL     OW20251   1.776   3.396   3.122 -1.0691 -0.7430 -0.3100
 2930SOL    HW120252   1.728   3.343   3.058 -0.9130 -1.8840  0.5101
 2930SOL    HW220253   1.793   3.481   3.082  1.9159 -1.3571 -0.2973
 2931SOL     OW20254   3.745   3.090   7.362 -0.1108  0.5133 -0.2593
 2931SOL    HW120255   3.692   3.096   7.441  0.5131  1.2369  0.1068
 2931SOL    HW220256   3.833   3.112   7.393  0.6078  0.1367 -1.9996
 2932SOL     OW20257   0.838   0.624  11.371 -0.6184 -0.6623 -0.3002
 2932SOL    HW120258   0.920   0.643  11.325  0.1153 -1.5647  0.6297
 2932SOL    HW220259   0.809   0.543  11.330  0.9440 -0.2896 -2.1413
 2933SOL     OW20260   0.160   3.259   8.152  0.0508 -0.4969 -0.6869
 2933SOL    HW120261   0.174   3.339   8.102 -0.2619  0.3624  0.5959
 2933SOL    HW220262   0.065   3.244   8.152  0.2890 -1.9470 -1.2389
 2934SOL     OW20263   1.864   4.015   3.471 -0.1337 -0.4839 -0.6068
 2934SOL    HW120264   1.846   3.994   3.379  0.7863  2.7561 -1.5188
 2934SOL    HW220265   1.799   3.961   3.515  0.0113  0.3845  0.6735
 2935SOL     OW20266   0.929   0.177   2.428  0.0379  0.0918 -0.1350
 2935SOL    HW120267   0.867   0.127   2.481  0.1505 -1.5835 -1.5735
 2935SOL    HW220268   0.970   0.112   2.370  3.0416  0.7293  1.2772
 2936SOL     OW20269   0.648   2.910   5.353 -0.0090  0.1325 -0.0848
 2936SOL    HW120270   0.626   2.823   5.387 -0.1832  0.3074  0.2519
 2936SOL    HW220271   0.722   2.930   5.409  0.6425 -1.9179 -0.2137
 2937SOL     OW20272   1.967   2.238   5.089  0.7077 -0.0031 -0.0982
 2937SOL    HW120273   1.994   2.153   5.054  0.7808  0.7768 -1.9369
 2937SOL    HW220274   1.875   2.225   5.113  0.1586  2.2170 -1.0168
 2938SOL     OW20275   0.661   2.731  16.713  0.2407 -0.2035 -0.2288
 2938SOL    HW120276   0.682   2.735  16.806 -1.9153  0.5118  0.2297
 2938SOL    HW220277   0.699   2.647  16.687  0.1202 -0.2528 -0.2495
 2939SOL     OW20278   0.620   4.650   9.121 -0.1064 -0.0803  0.3158
 2939SOL    HW120279   0.532   4.689   9.122  0.6828  1.7123  0.0751
 2939SOL    HW220280   0.666   4.688   9.195  1.4333 -0.7069 -0.3229
 2940SOL     OW20281   1.596   3.565  11.949 -0.7618  0.2336 -0.6896
 2940SOL    HW120282   1.599   3.653  11.988  1.7629 -0.7990  1.5018
 2940SOL    HW220283   1.601   3.505  12.024 -1.3960  2.4420  1.1179
 2941SOL     OW20284   3.024   1.244   1.818  0.4691  0.1985  0.3489
 2941SOL    HW120285   3.048   1.329   1.783  1.2289  0.2964  1.1241
 2941SOL    HW220286   2.939   1.222   1.779  1.4875  0.0483 -1.7384
 2942SOL     OW20287   1.748   3.542   5.531 -0.5678 -0.0461  0.0225
 2942SOL    HW120288   1.790   3.592   5.461 -3.0300  0.7773 -0.8983
 2942SOL    HW220289   1.730   3.453   5.499  2.4293 -1.2943  1.8394
 2943SOL     OW20290   0.435   4.309   2.785 -0.5569 -0.0890 -0.1462
 2943SOL    HW120291   0.341   4.296   2.775 -1.0274  1.9805  1.6472
 2943SOL    HW220292   0.462   4.301   2.693  0.5484 -4.1898  0.5477
 2944SOL     OW20293   0.451   1.062   5.647 -0.1225 -0.5998  0.1824
 2944SOL    HW120294   0.371   1.090   5.690  0.9092 -0.9584  2.3551
 2944SOL    HW220295   0.416   0.993   5.592  0.2778 -2.0395  1.7094
 2945SOL     OW20296   4.295   1.633   3.139 -0.1358  0.4956 -0.2806
 2945SOL    HW120297   4.243   1.554   3.128 -1.4349  1.4416 -0.9291
 2945SOL    HW220298   4.239   1.695   3.094  1.6248  0.9519 -1.8389
 2946SOL     OW20299   2.648   0.708  14.868 -0.6904 -0.0984  0.6338
 2946SOL    HW120300   2.669   0.638  14.806 -0.5405  2.3706 -2.1217
 2946SOL    HW220301   2.730   0.721  14.915  0.5303 -0.8290 -1.2520
 2947SOL     OW20302   4.093   1.380   8.259  0.2708  0.3636  0.2983
 2947SOL    HW120303   4.058   1.430   8.332  0.1091  1.0194 -0.2273
 2947SOL    HW220304   4.156   1.445   8.228 -1.0347  1.1720 -0.6451
 2948SOL     OW20305   0.467   2.879   3.138 -0.0020 -0.2871  0.1123
 2948SOL    HW120306   0.501   2.934   3.067  1.6514  0.3645  1.4130
 2948SOL    HW220307   0.539   2.864   3.199  1.6689  0.1197 -1.7545
 2949SOL     OW20308   4.574   0.918  12.001 -0.1222  0.3434  0.0954
 2949SOL    HW120309   4.531   0.892  11.920 -2.1771  0.0878  1.2555
 2949SOL    HW220310   4.616   0.834  12.023 -3.8400 -1.4106  0.5258
 2950SOL     OW20311   1.419   1.960   3.855 -0.3266  0.8944  0.1294
 2950SOL    HW120312   1.506   1.958   3.816 -1.8378  0.9044 -3.1624
 2950SOL    HW220313   1.433   1.984   3.947  0.1571 -0.2347  0.3524
 2951SOL     OW20314   3.446   4.313   6.113 -0.0350 -0.8637 -0.0399
 2951SOL    HW120315   3.418   4.225   6.090  0.9385 -1.4374  0.9765
 2951SOL    HW220316   3.536   4.296   6.139  0.1723 -1.5141 -1.1867
 2952SOL     OW20317   1.557   3.018  14.733  0.0165 -0.8611 -0.0583
 2952SOL    HW120318   1.606   3.054  14.659 -0.0430 -0.9369 -0.1348
 2952SOL    HW220319   1.516   2.940  14.697  0.7633 -1.0700 -0.4754
 2953SOL     OW20320   4.486   2.563  17.630 -0.4077 -0.2420 -0.4830
 2953SOL    HW120321   4.553   2.601  17.686 -1.3308  2.3138 -1.1401
 2953SOL    HW220322   4.485   2.634  17.566  0.4971 -1.0990 -1.4471
 2954SOL     OW20323   3.829   3.792  15.364 -0.5639  0.1474 -0.1397
 2954SOL    HW120324   3.899   3.744  15.320  0.9748  1.1946  1.1660
 2954SOL    HW220325   3.816   3.867  15.305 -2.4447  0.2121  0.3441
 2955SOL     OW20326   1.532   0.670   9.121 -0.0365 -0.0156 -0.3306
 2955SOL    HW120327   1.558   0.727   9.192 -1.1899 -1.2693  1.0985
 2955SOL    HW220328   1.438   0.659   9.135 -0.2247 -0.7486 -2.0684
 2956SOL     OW20329   0.022   1.252   9.904 -0.0122  0.2280  0.1567
 2956SOL    HW120330   0.101   1.299   9.933  0.3011 -0.9723  1.2124
 2956SOL    HW220331   4.706   1.222   9.986  0.7358 -1.0320  0.0348
 2957SOL     OW20332   3.556   1.112   3.829  0.0924  0.2409  0.8193
 2957SOL    HW120333   3.612   1.036   3.845 -0.0224 -0.4838 -2.2013
 2957SOL    HW220334   3.474   1.076   3.793  0.7594 -1.2755  0.7951
 2958SOL     OW20335   4.574   2.605   8.717 -0.5725  0.3124  0.7047
 2958SOL    HW120336   4.543   2.536   8.775 -0.2413 -1.2288 -0.9426
 2958SOL    HW220337   4.660   2.622   8.755  0.0097  0.7286 -0.7818
 2959SOL     OW20338   1.973   4.681   6.938  0.1691 -0.0241  0.6101
 2959SOL    HW120339   1.976   4.591   6.970 -3.7441  0.5906  2.7201
 2959SOL    HW220340   1.915   4.718   7.004 -0.5283 -0.3297  0.1652
 2960SOL     OW20341   4.607   1.955  13.776  0.2862  0.2574 -0.6169
 2960SOL    HW120342   4.698   1.978  13.756  0.2953 -0.3322 -1.2740
 2960SOL    HW220343   4.570   1.992  13.696 -2.1596  0.9956  0.8652
 2961SOL     OW20344   3.614   2.950   7.959  0.4236  0.4359  0.2304
 2961SOL    HW120345   3.709   2.947   7.945  0.1956  0.9503 -1.5470
 2961SOL    HW220346   3.604   3.036   7.917 -2.1923  0.1806  0.3289
 2962SOL     OW20347   0.480   1.521   8.309  0.1945 -0.0372 -0.2051
 2962SOL    HW120348   0.545   1.452   8.297 -0.0206 -0.2735 -0.0039
 2962SOL    HW220349   0.506   1.583   8.240 -0.2489  0.8700  0.4362
 2963SOL     OW20350   2.557   0.407   7.006  0.1353 -0.0513 -0.1256
 2963SOL    HW120351   2.629   0.469   6.995 -1.0208  1.4801  0.8884
 2963SOL    HW220352   2.611   0.329   7.019  0.2272  0.4073  2.1511
 2964SOL     OW20353   1.064   0.648   1.911  0.0566  0.1080  0.6142
 2964SOL    HW120354   0.980   0.623   1.874  0.1378  1.3059 -0.3495
 2964SOL    HW220355   1.050   0.655   2.006  3.0893  2.4845  0.9036
 2965SOL     OW20356   3.684   2.709  16.073  0.0229 -0.4366  0.7162
 2965SOL    HW120357   3.729   2.737  16.153  0.3291 -1.4127  0.8877
 2965SOL    HW220358   3.743   2.764  16.022 -2.0951  0.1699 -1.0524
 2966SOL     OW20359   2.169   1.839   6.908  0.0881  0.2468 -0.1023
 2966SOL    HW120360   2.111   1.769   6.938  1.0827  0.8660  3.2758
 2966SOL    HW220361   2.174   1.889   6.989  1.7275  0.0158 -0.0554
 2967SOL     OW20362   0.968   0.333   8.326 -0.5374 -0.0847 -0.4483
 2967SOL    HW120363   1.001   0.251   8.289  0.2973  0.5657 -1.1522
 2967SOL    HW220364   0.924   0.300   8.404  0.7560 -1.2437 -0.2077
 2968SOL     OW20365   4.129   1.061   2.769 -0.4932  0.5669  0.2843
 2968SOL    HW120366   4.127   0.971   2.737  0.9758  0.2015  1.2310
 2968SOL    HW220367   4.052   1.095   2.724  1.0634  1.9264 -1.3442
 2969SOL     OW20368   2.840   1.393  17.187  0.1452  0.4986  0.3639
 2969SOL    HW120369   2.932   1.412  17.167  0.1907 -0.6977 -0.5833
 2969SOL    HW220370   2.821   1.441  17.267  0.6600  2.6004 -0.7828
 2970SOL     OW20371   4.425   3.156   7.477  0.2915 -0.1080 -0.3039
 2970SOL    HW120372   4.398   3.065   7.463 -1.1013  0.1926  0.4076
 2970SOL    HW220373   4.493   3.151   7.544  1.9028 -0.1578 -1.9470
 2971SOL     OW20374   2.096   4.029   5.538  0.5985 -0.4727 -0.4525
 2971SOL    HW120375   2.028   4.062   5.479  1.1127  0.0857 -0.7253
 2971SOL    HW220376   2.174   4.079   5.515  0.7127 -0.6072 -0.3558
 2972SOL     OW20377   3.782   0.138   0.438  0.5237 -0.0810  0.7197
 2972SOL    HW120378   3.750   0.176   0.520 -0.6440  0.8910 -0.1902
 2972SOL    HW220379   3.706   0.116   0.383  0.0260  0.7487  1.0851
 2973SOL     OW20380   4.075   2.748  16.989 -0.4082  0.1512  0.1740
 2973SOL    HW120381   4.031   2.664  16.972  1.5679 -0.8054 -0.1377
 2973SOL    HW220382   4.024   2.784  17.062 -1.1938 -0.0013 -0.2920
 2974SOL     OW20383   2.522   4.682  10.265 -0.5198  0.3058  0.4564
 2974SOL    HW120384   2.570   0.028  10.217  0.7797 -1.2497 -0.4406
 2974SOL    HW220385   2.499   0.004  10.347  1.5070  0.8369  0.7531
 2975SOL     OW20386   3.519   2.108   5.421  0.1435  0.2894 -0.1339
 2975SOL    HW120387   3.446   2.056   5.456  1.3924  0.4818  2.7987
 2975SOL    HW220388   3.463   2.176   5.385  0.6900 -0.7019 -2.8088
 2976SOL     OW20389   3.959   2.360   8.118  0.5035 -0.3787 -0.4050
 2976SOL    HW120390   3.907   2.283   8.142 -1.5093  0.9813 -0.4731
 2976SOL    HW220391   4.047   2.330   8.142  0.6833  0.3184 -0.1903
 2977SOL     OW20392   2.553   2.010   9.321 -0.2715  0.4903  0.2091
 2977SOL    HW120393   2.468   2.032   9.358  0.5115  0.6877  1.9272
 2977SOL    HW220394   2.610   2.056   9.383  0.8080 -0.7054  0.0973
 2978SOL     OW20395   2.606   1.327   4.931 -0.6085 -0.0807  0.6794
 2978SOL    HW120396   2.635   1.415   4.909 -0.1729 -0.5963 -0.8062
 2978SOL    HW220397   2.680   1.289   4.977 -0.2050 -0.2907 -0.1542
 2979SOL     OW20398   1.962   0.877   9.383  0.1251  0.0709 -0.5112
 2979SOL    HW120399   1.882   0.907   9.427 -1.1188 -3.0839 -0.6264
 2979SOL    HW220400   1.960   0.786   9.411 -0.1035  0.5065  0.9210
 2980SOL     OW20401   2.757   2.826   7.001 -0.7580  0.9373  0.0420
 2980SOL    HW120402   2.770   2.801   6.910  2.3913  0.8586  0.5136
 2980SOL    HW220403   2.703   2.902   6.982 -1.8136  0.5201  1.3653
 2981SOL     OW20404   4.411   4.478  16.789  0.2471 -0.7261 -0.2934
 2981SOL    HW120405   4.362   4.409  16.833 -0.8512 -0.1178 -0.5737
 2981SOL    HW220406   4.358   4.484  16.709 -0.1616  0.6257  0.0906
 2982SOL     OW20407   3.502   3.265   3.852 -0.0048 -0.1384  0.8352
 2982SOL    HW120408   3.419   3.308   3.873  0.6363 -0.2594  3.5889
 2982SOL    HW220409   3.512   3.291   3.760 -1.7007 -0.1455  0.6380
 2983SOL     OW20410   0.572   2.420   3.853  0.3029 -0.3042 -0.5066
 2983SOL    HW120411   0.634   2.479   3.895  1.0764 -0.7365 -1.0502
 2983SOL    HW220412   0.582   2.338   3.902 -1.1891  0.0667  0.4337
 2984SOL     OW20413   3.517   2.152   2.733  0.2252  0.0699  0.1239
 2984SOL    HW120414   3.549   2.118   2.816  0.7299 -0.4406 -0.2752
 2984SOL    HW220415   3.538   2.245   2.745 -0.1819 -0.1019  2.1592
 2985SOL     OW20416   1.233   2.042   8.336  0.1197  0.5955  0.6995
 2985SOL    HW120417   1.164   2.104   8.360  1.0661  1.9280 -0.0057
 2985SOL    HW220418   1.221   2.047   8.242 -0.0941  0.5533  0.7254
 2986SOL     OW20419   2.689   2.869   7.656  0.1203 -0.0883  0.2383
 2986SOL    HW120420   2.777   2.905   7.662 -0.7729  2.0335  0.6767
 2986SOL    HW220421   2.687   2.810   7.731  1.5631 -0.3296  0.0872
 2987SOL     OW20422   2.030   4.088   6.730  0.5565  0.4936  0.2661
 2987SOL    HW120423   2.097   4.156   6.740 -0.3757  1.5081 -0.3898
 2987SOL    HW220424   1.954   4.118   6.780  1.4546 -3.1671  3.8680
 2988SOL     OW20425   1.077   0.487  13.992  0.6007  0.2154  0.0105
 2988SOL    HW120426   1.054   0.565  13.941  1.7059  2.1144  2.3768
 2988SOL    HW220427   1.173   0.489  13.996  0.5199  1.1148  1.3642
 2989SOL     OW20428   0.522   2.839   4.731 -0.0217  0.0141 -0.1598
 2989SOL    HW120429   0.574   2.901   4.783  1.4249 -1.2860 -0.0614
 2989SOL    HW220430   0.576   2.760   4.724  0.4141  0.2385  0.6380
 2990SOL     OW20431   0.253   0.162   2.850 -0.5505  0.5740 -0.2905
 2990SOL    HW120432   0.311   0.095   2.814 -0.2129  0.7964 -0.1617
 2990SOL    HW220433   0.315   0.205   2.909  0.7236 -0.8989 -0.5872
 2991SOL     OW20434   0.568   2.589   2.192 -0.4720  0.3526 -0.2598
 2991SOL    HW120435   0.525   2.665   2.153  1.8345  0.9945 -1.5437
 2991SOL    HW220436   0.542   2.615   2.281 -1.3185 -0.7687 -0.1806
 2992SOL     OW20437   0.287   2.454  14.097 -0.0420 -0.6070  0.4157
 2992SOL    HW120438   0.216   2.517  14.110  0.5527  0.1977 -0.2194
 2992SOL    HW220439   0.350   2.481  14.163  2.1828  0.7275 -2.2677
 2993SOL     OW20440   3.681   2.964  14.487 -0.3541 -0.6380  0.1687
 2993SOL    HW120441   3.587   2.953  14.471 -0.1190  0.0087 -1.6237
 2993SOL    HW220442   3.723   2.942  14.404  0.8265 -1.2102  0.9281
 2994SOL     OW20443   2.072   2.925  12.658 -0.7677  0.5873 -0.2705
 2994SOL    HW120444   2.095   3.018  12.653 -0.5650  0.5110 -0.7382
 2994SOL    HW220445   2.018   2.900  12.583  0.8849  1.5428 -1.7634
 2995SOL     OW20446   1.298   1.073   5.054 -0.1661 -0.0150  0.2132
 2995SOL    HW120447   1.225   1.026   5.013  0.5142 -1.7902  1.0155
 2995SOL    HW220448   1.298   1.032   5.141 -1.0113 -0.0876  0.1760
 2996SOL     OW20449   1.382   3.203  13.573 -0.2802 -0.2481 -0.2804
 2996SOL    HW120450   1.414   3.293  13.584 -1.6456  0.1204  0.8859
 2996SOL    HW220451   1.448   3.163  13.629 -0.4738 -0.3941 -0.1525
 2997SOL     OW20452   0.644   3.978  10.416  0.8511  0.0497 -0.1382
 2997SOL    HW120453   0.598   3.938  10.489 -0.8310  0.4638 -0.9649
 2997SOL    HW220454   0.567   4.005  10.366 -0.8458 -0.9110  1.9714
 2998SOL     OW20455   3.724   0.428  12.793  0.4690  0.2360 -0.5768
 2998SOL    HW120456   3.732   0.504  12.851 -0.6799 -1.2608  1.5340
 2998SOL    HW220457   3.766   0.457  12.712  1.7912 -0.6757 -0.2290
 2999SOL     OW20458   0.044   2.689  16.242 -0.2749  0.0412 -0.3846
 2999SOL    HW120459   0.056   2.595  16.227 -1.2512 -0.1954  0.3246
 2999SOL    HW220460   0.123   2.707  16.293  0.0837 -2.6916  0.0553
 3000SOL     OW20461   3.530   0.612   4.129  0.5468  0.4934  0.2529
 3000SOL    HW120462   3.532   0.565   4.212 -1.3327  1.3858  0.8141
 3000SOL    HW220463   3.571   0.558   4.061  0.6555 -1.1918  1.6614
 3001SOL     OW20464   4.309   3.656  13.706 -0.4989  0.0540  0.1980
 3001SOL    HW120465   4.404   3.641  13.705 -0.5824 -0.3964 -1.0772
 3001SOL    HW220466   4.299   3.720  13.776  0.2021  2.4926 -1.9154
 3002SOL     OW20467   0.372   2.899   8.149 -0.3980  0.5385  0.1060
 3002SOL    HW120468   0.403   2.982   8.184  0.5582  0.3126 -0.2032
 3002SOL    HW220469   0.285   2.931   8.128 -0.7128 -1.1990 -1.2727
 3003SOL     OW20470   0.552   0.477   4.219 -0.9147  0.1616 -0.2359
 3003SOL    HW120471   0.616   0.547   4.231  1.7465 -2.2009 -0.3330
 3003SOL    HW220472   0.605   0.404   4.186 -3.0765 -0.8798 -1.4347
 3004SOL     OW20473   0.322   4.604   2.441  0.1611  0.4075  0.1029
 3004SOL    HW120474   0.359   4.618   2.353  1.9164 -1.5428  0.5343
 3004SOL    HW220475   0.341   4.512   2.457 -2.2582 -0.3935 -1.5348
 3005SOL     OW20476   2.338   0.105   4.122 -0.1727  0.6644 -0.3450
 3005SOL    HW120477   2.308   0.045   4.191 -1.3143 -0.8432 -2.1456
 3005SOL    HW220478   2.431   0.082   4.130 -0.5942 -0.4546  1.3637
 3006SOL     OW20479   0.543   2.457   3.568  0.1823  0.1157 -0.1535
 3006SOL    HW120480   0.634   2.434   3.551 -0.3742 -2.2552  0.1093
 3006SOL    HW220481   0.552   2.442   3.662  0.2881  0.9500 -0.0235
 3007SOL     OW20482   2.721   1.270   6.380 -0.1432 -0.9505 -0.4084
 3007SOL    HW120483   2.626   1.280   6.373  0.1162  1.5509 -0.2701
 3007SOL    HW220484   2.737   1.360   6.352  1.8955 -1.3864 -0.5877
 3008SOL     OW20485   2.678   3.045   2.865  0.4833  0.3828  0.7452
 3008SOL    HW120486   2.613   3.113   2.884 -0.9437 -0.3443 -1.6662
 3008SOL    HW220487   2.625   2.973   2.832  1.2099  0.2343 -0.1018
 3009SOL     OW20488   0.684   0.867   2.495 -0.0269  0.5814 -0.3032
 3009SOL    HW120489   0.691   0.833   2.405 -0.3656  2.4256 -1.0249
 3009SOL    HW220490   0.595   0.841   2.517 -0.3945  1.6661 -0.4815
 3010SOL     OW20491   4.434   4.279   6.413 -0.3315  0.1013 -0.5324
 3010SOL    HW120492   4.341   4.303   6.406 -0.2712  0.0569 -1.4053
 3010SOL    HW220493   4.433   4.221   6.489 -1.3483  0.6210 -0.1386
 3011SOL     OW20494   0.507   1.440   4.569 -0.0707  0.1120 -0.0842
 3011SOL    HW120495   0.535   1.354   4.540  0.1385  0.0627  0.2634
 3011SOL    HW220496   0.578   1.471   4.625 -1.4369 -2.4794  3.0395
 3012SOL     OW20497   1.641   1.870   4.285 -0.7370  0.0632  0.2156
 3012SOL    HW120498   1.594   1.906   4.210 -0.5614 -0.7222 -0.2613
 3012SOL    HW220499   1.687   1.951   4.309  1.3309 -0.7071 -1.2414
 3013SOL     OW20500   4.000   3.384   1.643  0.4675  0.1406 -0.2604
 3013SOL    HW120501   3.968   3.316   1.703  0.6183  0.1924 -0.1233
 3013SOL    HW220502   4.093   3.386   1.664  0.1064 -1.3458  1.4625
 3014SOL     OW20503   2.590   2.454  10.380  0.1150 -0.5232 -0.4364
 3014SOL    HW120504   2.543   2.422  10.457  0.4640  0.8355  0.3462
 3014SOL    HW220505   2.519   2.456  10.315  0.6109 -0.9529 -0.9850
 3015SOL     OW20506   1.422   3.155   3.105  0.1290 -0.7549  0.0675
 3015SOL    HW120507   1.493   3.169   3.042 -0.1082 -0.8148 -0.2134
 3015SOL    HW220508   1.455   3.212   3.174  0.9113  0.1587 -1.0386
 3016SOL     OW20509   0.613   2.094   6.973  0.3526 -0.7585 -1.1220
 3016SOL    HW120510   0.686   2.083   7.034  0.9673  2.0401 -1.3886
 3016SOL    HW220511   0.551   2.151   7.018  0.0137 -1.9022 -0.1319
 3017SOL     OW20512   1.258   4.300   4.438  0.3331  0.4819 -0.1786
 3017SOL    HW120513   1.210   4.375   4.402 -1.7379 -0.8651 -0.2051
 3017SOL    HW220514   1.255   4.327   4.529 -0.8163  2.8312 -0.9037
 3018SOL     OW20515   3.941   3.160   4.522 -0.8018 -0.2101  0.0936
 3018SOL    HW120516   3.931   3.175   4.428 -0.0764 -1.2016 -0.1478
 3018SOL    HW220517   4.011   3.224   4.541 -2.0477  1.1194  0.2100
 3019SOL     OW20518   3.778   3.973   7.840  0.2616 -0.2852  0.8165
 3019SOL    HW120519   3.684   3.962   7.823  0.4090  1.4761 -1.0492
 3019SOL    HW220520   3.796   4.066   7.829  2.4320 -0.9683 -1.2781
 3020SOL     OW20521   0.294   3.188   5.591  0.0703 -0.0053  0.4201
 3020SOL    HW120522   0.270   3.257   5.529 -2.5912 -0.4619  0.9169
 3020SOL    HW220523   0.242   3.201   5.670 -2.7372  1.0521 -1.5924
 3021SOL     OW20524   3.576   3.846   6.597 -0.6687 -0.4242 -0.0913
 3021SOL    HW120525   3.651   3.887   6.640 -0.0636 -0.4667 -1.1169
 3021SOL    HW220526   3.631   3.794   6.538 -1.1746 -0.2928 -0.6693
 3022SOL     OW20527   1.544   1.587   9.405 -0.3392  0.6693  0.3363
 3022SOL    HW120528   1.638   1.598   9.421 -0.4539  2.8546 -0.5069
 3022SOL    HW220529   1.529   1.494   9.421  1.7672  0.0815 -0.9554
 3023SOL     OW20530   1.408   3.571   5.794  0.2141  0.0396 -0.2935
 3023SOL    HW120531   1.433   3.664   5.797  1.5495 -0.2692 -1.5850
 3023SOL    HW220532   1.496   3.534   5.792 -0.1231 -0.9080  3.0293
 3024SOL     OW20533   2.204   4.488   2.871  0.3622 -0.4914 -0.0101
 3024SOL    HW120534   2.128   4.543   2.892 -0.7604 -1.2716 -2.0422
 3024SOL    HW220535   2.168   4.402   2.893 -2.0078  0.5404  0.1124
 3025SOL     OW20536   1.978   4.323   4.946 -0.2227 -0.0360 -0.3848
 3025SOL    HW120537   1.900   4.296   4.899  1.2231 -2.0879 -1.6255
 3025SOL    HW220538   1.996   4.408   4.907  1.0440  0.1365  0.5336
 3026SOL     OW20539   0.518   0.752   6.211 -0.5169  0.0823 -0.4218
 3026SOL    HW120540   0.437   0.803   6.200 -0.4722 -0.6392 -3.9344
 3026SOL    HW220541   0.556   0.750   6.124  1.9833 -0.9355  0.7184
 3027SOL     OW20542   2.253   2.403   2.841  0.1916  0.1554  0.3918
 3027SOL    HW120543   2.282   2.355   2.763 -0.8484 -0.0037  0.0977
 3027SOL    HW220544   2.213   2.480   2.801  0.4075 -0.7415 -1.5609
 3028SOL     OW20545   2.961   0.409   4.884  0.5512  0.0705 -0.3159
 3028SOL    HW120546   2.877   0.443   4.917 -1.3525 -3.0376 -1.9587
 3028SOL    HW220547   2.938   0.318   4.900  1.4659 -0.0808  0.1306
 3029SOL     OW20548   3.788   3.878   3.368 -0.6229  0.0102 -0.2231
 3029SOL    HW120549   3.811   3.794   3.330 -0.6406  0.1018 -0.4353
 3029SOL    HW220550   3.694   3.868   3.384 -0.7974 -0.5097 -1.5583
 3030SOL     OW20551   3.277   4.282   6.808 -0.2521 -0.0191  0.1359
 3030SOL    HW120552   3.198   4.228   6.803  0.9953 -1.7405 -0.9184
 3030SOL    HW220553   3.327   4.236   6.741  0.1001  1.6902 -0.7787
 3031SOL     OW20554   1.624   2.788   2.827 -0.9909  0.1546 -0.4505
 3031SOL    HW120555   1.535   2.823   2.818 -0.5092  1.6120  0.5657
 3031SOL    HW220556   1.617   2.706   2.778 -1.0789 -0.5906  0.8113
 3032SOL     OW20557   2.237   2.541   7.326  0.5635 -0.0928  0.0705
 3032SOL    HW120558   2.218   2.633   7.311 -0.7657 -0.1839  1.1502
 3032SOL    HW220559   2.273   2.545   7.415 -0.9583  0.4593  0.6540
 3033SOL     OW20560   1.532   3.782   3.389  0.1287  0.3663  0.1376
 3033SOL    HW120561   1.460   3.835   3.355  0.5417  0.3806 -0.6998
 3033SOL    HW220562   1.518   3.706   3.332 -0.3037 -0.6367  1.5737
 3034SOL     OW20563   0.365   1.822   4.379  0.3773 -0.1903 -0.0291
 3034SOL    HW120564   0.362   1.900   4.435 -0.6738  0.6152 -1.1836
 3034SOL    HW220565   0.306   1.861   4.314  1.1757 -0.5360 -0.9499
 3035SOL     OW20566   2.924   3.400   6.735 -0.2558 -0.1650  0.2380
 3035SOL    HW120567   3.018   3.394   6.749 -0.1582 -2.7923 -1.6134
 3035SOL    HW220568   2.897   3.392   6.826 -0.6122  0.8880  0.2273
 3036SOL     OW20569   2.425   4.196   6.652 -0.4830 -0.3592  0.0166
 3036SOL    HW120570   2.387   4.128   6.597  0.3977  0.6553 -1.8555
 3036SOL    HW220571   2.412   4.172   6.743 -1.9301  0.9568  0.1445
 3037SOL     OW20572   0.056   3.349  12.547  0.0228 -0.2174  0.7456
 3037SOL    HW120573   0.090   3.438  12.563 -0.1899  0.3478 -2.0229
 3037SOL    HW220574   4.715   3.353  12.619  1.0672 -1.5855  1.7223
 3038SOL     OW20575   3.708   3.786   6.163 -0.1050  0.2555 -0.2561
 3038SOL    HW120576   3.685   3.694   6.150 -2.0114  0.5959  0.6983
 3038SOL    HW220577   3.797   3.784   6.129 -0.1477  1.3275 -0.4595
 3039SOL     OW20578   1.708   2.035   6.951 -0.1481  0.7901  0.2234
 3039SOL    HW120579   1.760   2.115   6.945  1.7875 -0.4427  0.6229
 3039SOL    HW220580   1.655   2.046   6.872 -1.3601 -0.7204  0.8273
 3040SOL     OW20581   3.074   0.477   6.188 -0.4176  0.4846  0.4874
 3040SOL    HW120582   3.157   0.519   6.207 -0.3356  0.1570  0.8581
 3040SOL    HW220583   3.031   0.479   6.274  0.7134 -0.5048  1.0811
 3041SOL     OW20584   2.222   4.176  17.238 -0.2968 -0.7028 -0.2532
 3041SOL    HW120585   2.202   4.270  17.244 -0.9805 -0.7727 -1.3635
 3041SOL    HW220586   2.137   4.151  17.201 -1.5731  1.5809  1.1079
 3042SOL     OW20587   3.291   3.127   1.594 -0.1216 -0.0784 -0.8358
 3042SOL    HW120588   3.325   3.210   1.626 -0.3765  0.0195 -0.8168
 3042SOL    HW220589   3.339   3.109   1.513  2.0819 -0.8664  0.6208
 3043SOL     OW20590   1.890   2.991   6.256  0.6891 -0.1715 -0.6533
 3043SOL    HW120591   1.873   2.971   6.348  2.8241  0.6341 -0.0763
 3043SOL    HW220592   1.986   2.987   6.254  0.6316 -1.3793 -0.9394
 3044SOL     OW20593   3.145   2.743   3.226  0.1082 -0.1130  0.3125
 3044SOL    HW120594   3.072   2.805   3.218  0.5214  0.3450  0.1528
 3044SOL    HW220595   3.189   2.755   3.143  0.3451 -1.1728  0.2797
 3045SOL     OW20596   3.541   4.275  17.260 -0.0035  0.1024 -0.5866
 3045SOL    HW120597   3.495   4.352  17.295  2.2763  1.1073  0.1777
 3045SOL    HW220598   3.481   4.260  17.187  0.9796 -0.0900 -1.3491
 3046SOL     OW20599   0.109   2.938   5.347  0.2209  0.0793 -0.4367
 3046SOL    HW120600   0.185   2.950   5.290  0.0971 -1.8490 -1.0235
 3046SOL    HW220601   0.151   2.893   5.421  3.0825  0.4560 -1.8305
 3047SOL     OW20602   2.190   1.008   5.073 -0.0440  0.2743  0.0401
 3047SOL    HW120603   2.174   1.052   5.157  0.3830 -0.5350  0.5455
 3047SOL    HW220604   2.284   1.022   5.068 -0.0015 -0.6756 -1.6879
 3048SOL     OW20605   0.082   3.205  13.709  0.2920  0.2402 -0.2403
 3048SOL    HW120606   0.157   3.146  13.712 -0.9504 -1.3405  0.1668
 3048SOL    HW220607   0.080   3.216  13.614 -1.5877 -1.3510 -0.3793
 3049SOL     OW20608   0.558   1.214   2.835 -0.4646  0.1311  0.0639
 3049SOL    HW120609   0.623   1.265   2.884  0.1536  0.4284 -1.0775
 3049SOL    HW220610   0.579   1.122   2.848 -3.3451 -1.0575 -3.8354
 3050SOL     OW20611   4.645   1.256   2.709  0.0878 -0.0031  1.0545
 3050SOL    HW120612   4.657   1.291   2.621 -2.6037 -0.3701  0.5511
 3050SOL    HW220613   4.563   1.208   2.696  0.7514 -0.9990  0.5657
 3051SOL     OW20614   2.608   2.202   2.111 -0.4096 -0.1166 -0.4095
 3051SOL    HW120615   2.696   2.230   2.138  0.4967  0.8176 -4.3424
 3051SOL    HW220616   2.621   2.231   2.021 -0.0650  2.1110  0.3656
 3052SOL     OW20617   2.049   3.819   6.717  0.0461  0.1808  0.8944
 3052SOL    HW120618   1.996   3.768   6.779  2.5163 -2.0497  1.1895
 3052SOL    HW220619   2.014   3.905   6.737  1.8504  1.4608 -1.4204
 3053SOL     OW20620   3.915   0.202   7.289  0.1281  0.6760  0.0769
 3053SOL    HW120621   3.908   0.107   7.291  0.0284  0.6904  0.5771
 3053SOL    HW220622   3.889   0.224   7.379  0.4271 -2.1275  0.8418
 3054SOL     OW20623   1.235   0.034  11.001 -0.7649 -0.5346 -0.3029
 3054SOL    HW120624   1.246   4.696  11.075 -0.5232  0.4054  0.4277
 3054SOL    HW220625   1.181   4.710  10.937  2.3108 -1.8589 -1.9263
 3055SOL     OW20626   0.183   2.275   5.092 -0.4592  0.0736 -0.1441
 3055SOL    HW120627   0.272   2.298   5.117  0.1721 -2.0116 -0.4633
 3055SOL    HW220628   0.204   2.230   5.009 -0.7323  1.1089 -0.7769
 3056SOL     OW20629   0.578   0.988   5.320  0.2741 -0.2174  0.3997
 3056SOL    HW120630   0.575   0.956   5.411  0.7309 -2.3331 -0.3453
 3056SOL    HW220631   0.578   1.082   5.338  0.2614 -0.3895  1.3122
 3057SOL     OW20632   0.439   2.041   9.974  0.1956  0.0856  0.9059
 3057SOL    HW120633   0.489   2.102  10.029  1.7487  0.7622 -1.2822
 3057SOL    HW220634   0.436   2.084   9.889  1.5974 -1.0107  0.2952
 3058SOL     OW20635   1.161   1.005   6.647  0.1886 -0.4578  0.8084
 3058SOL    HW120636   1.179   1.067   6.718 -0.5109  1.3889 -0.6089
 3058SOL    HW220637   1.205   0.923   6.666  1.3961  0.1733  0.7158
 3059SOL     OW20638   1.048   3.091   7.959  0.5150 -0.4104 -0.0957
 3059SOL    HW120639   0.982   3.099   8.028 -1.9530 -1.5062 -2.3300
 3059SOL    HW220640   1.010   3.148   7.892 -0.0251 -2.9938 -1.9561
 3060SOL     OW20641   1.446   1.510   6.229 -0.7182  0.2546  0.2808
 3060SOL    HW120642   1.471   1.449   6.160  0.5693 -1.8779  2.5989
 3060SOL    HW220643   1.513   1.485   6.293 -0.7184 -0.1943  0.1069
 3061SOL     OW20644   2.646   2.930  11.153 -0.3394 -0.4338 -0.4879
 3061SOL    HW120645   2.637   2.865  11.222  3.2130 -1.3178 -0.8290
 3061SOL    HW220646   2.662   3.008  11.206  0.5956 -2.8405  2.7414
 3062SOL     OW20647   0.514   1.455  11.313  0.1453  0.1003 -0.0655
 3062SOL    HW120648   0.493   1.388  11.378 -0.7613  0.1956 -0.2572
 3062SOL    HW220649   0.605   1.469  11.339 -0.3027 -2.2137  2.8180
 3063SOL     OW20650   3.610   3.028   3.955  0.0589 -0.2888 -0.9653
 3063SOL    HW120651   3.558   3.103   3.924 -0.3594 -0.4292 -0.6053
 3063SOL    HW220652   3.652   3.061   4.034  0.5873 -2.2572 -0.4303
 3064SOL     OW20653   3.276   3.344   0.290 -0.3488 -0.3563 -0.2064
 3064SOL    HW120654   3.256   3.437   0.285 -0.5303 -0.3030  1.4941
 3064SOL    HW220655   3.199   3.304   0.330 -0.1052 -0.5380  0.0816
 3065SOL     OW20656   3.277   3.009   5.736 -0.6562 -0.3991  0.1365
 3065SOL    HW120657   3.264   3.030   5.644  0.7648  0.3979  0.1171
 3065SOL    HW220658   3.198   3.042   5.779 -0.5194  2.4517 -1.7886
 3066SOL     OW20659   1.539   0.467   4.990  0.4459  0.9115 -0.3857
 3066SOL    HW120660   1.488   0.437   5.065 -1.2186  1.5951 -1.2621
 3066SOL    HW220661   1.551   0.393   4.932 -0.4858 -0.2334  0.8870
 3067SOL     OW20662   2.688   1.805  13.364 -0.0444  0.8259  0.2708
 3067SOL    HW120663   2.604   1.762  13.382  0.1407  1.0503  1.6394
 3067SOL    HW220664   2.678   1.879  13.423 -0.8616  1.2298 -0.3630
 3068SOL     OW20665   3.427   0.527   9.308 -0.6403  0.8983 -0.1002
 3068SOL    HW120666   3.368   0.495   9.240 -0.2702  0.7606 -0.3585
 3068SOL    HW220667   3.365   0.516   9.380 -1.1151  0.1320 -0.6343
 3069SOL     OW20668   4.482   1.276  15.176 -0.1172 -0.3372  0.4008
 3069SOL    HW120669   4.538   1.296  15.251 -0.6447  0.5253  0.5562
 3069SOL    HW220670   4.442   1.195  15.208 -0.0329 -1.8579 -3.3085
 3070SOL     OW20671   0.878   1.903   0.074  0.3296  0.0894  0.2040
 3070SOL    HW120672   0.862   1.866   0.162 -1.7592  0.0672 -0.1929
 3070SOL    HW220673   0.960   1.854   0.063 -0.0040 -1.3463  3.8888
 3071SOL     OW20674   3.581   0.606   7.902  0.5542 -0.0865 -0.5596
 3071SOL    HW120675   3.607   0.685   7.853  0.4196 -0.3897 -1.1243
 3071SOL    HW220676   3.487   0.606   7.883  1.1059  1.4524 -3.3809
 3072SOL     OW20677   0.501   2.128   0.163 -0.3970 -0.5062  0.4418
 3072SOL    HW120678   0.572   2.132   0.099  0.2301  0.1593  1.1871
 3072SOL    HW220679   0.435   2.092   0.103 -1.5164  0.4522  1.0833
 3073SOL     OW20680   3.241   1.325   5.038 -0.7281  0.1938 -0.3882
 3073SOL    HW120681   3.324   1.286   5.065  0.1328  0.9351 -1.9632
 3073SOL    HW220682   3.202   1.240   5.015 -0.9396 -0.1054  1.0536
 3074SOL     OW20683   2.514   4.447  12.012  0.3986 -0.5852 -0.3608
 3074SOL    HW120684   2.608   4.441  11.999  0.0766 -0.1462 -2.8421
 3074SOL    HW220685   2.492   4.360  11.980  1.1756 -1.1232  0.5884
 3075SOL     OW20686   3.973   2.002   0.448  0.0886 -0.4557 -0.0427
 3075SOL    HW120687   4.044   1.979   0.387 -1.0556 -0.0061 -1.5310
 3075SOL    HW220688   3.979   2.096   0.465  2.2921 -0.7253  0.7883
 3076SOL     OW20689   3.374   1.728   7.445  0.0581  0.3382 -0.1655
 3076SOL    HW120690   3.364   1.642   7.485  0.5313 -0.4548 -1.7964
 3076SOL    HW220691   3.380   1.786   7.521 -0.1410 -0.5899  0.5533
 3077SOL     OW20692   4.228   3.960   7.846 -0.6493  0.0183  0.2596
 3077SOL    HW120693   4.217   4.007   7.764  1.0725  0.3020  0.1883
 3077SOL    HW220694   4.215   4.038   7.900  0.7416  0.6056 -0.2559
 3078SOL     OW20695   3.174   3.207   9.957  0.0994  0.0342  0.5061
 3078SOL    HW120696   3.231   3.221  10.032  2.6009 -3.0991 -0.8092
 3078SOL    HW220697   3.098   3.171  10.002 -1.6851  1.9572 -0.9349
 3079SOL     OW20698   3.450   4.052   3.541 -0.6043  0.4293  1.2908
 3079SOL    HW120699   3.428   3.959   3.540  0.9854  0.0782 -0.2325
 3079SOL    HW220700   3.365   4.089   3.518  0.5643  1.6373 -1.0516
 3080SOL     OW20701   0.459   1.745   4.669 -0.1426  0.2423  0.6538
 3080SOL    HW120702   0.460   1.834   4.704 -0.6154  0.9351 -1.1034
 3080SOL    HW220703   0.366   1.729   4.658  0.7638 -2.2881 -3.2532
 3081SOL     OW20704   2.995   0.596   2.528  0.1708 -0.7374  0.0516
 3081SOL    HW120705   2.979   0.631   2.440 -0.3468  0.6968  0.7200
 3081SOL    HW220706   3.037   0.512   2.510  2.5956  0.8897 -1.8589
 3082SOL     OW20707   0.661   1.906   6.359 -0.2069  0.3379  0.5047
 3082SOL    HW120708   0.626   1.868   6.440 -1.4325 -0.6169 -0.4723
 3082SOL    HW220709   0.586   1.896   6.301  0.2793  0.6315 -0.1771
 3083SOL     OW20710   0.906   3.716  13.045  0.1838 -0.1722  0.1241
 3083SOL    HW120711   0.888   3.647  13.109  1.0159 -0.5678 -0.0637
 3083SOL    HW220712   0.821   3.757  13.034 -0.8529 -2.0108  1.3083
 3084SOL     OW20713   3.465   2.896  13.011  0.3013 -0.4110  0.4445
 3084SOL    HW120714   3.517   2.924  12.935 -0.3132 -1.9960 -0.5678
 3084SOL    HW220715   3.393   2.845  12.973 -0.5558  2.6733 -2.0720
 3085SOL     OW20716   2.979   2.583  14.741  0.0549 -0.1065 -0.5060
 3085SOL    HW120717   2.923   2.610  14.667 -0.1235 -1.4151 -0.8523
 3085SOL    HW220718   3.067   2.609  14.714  0.5271  0.0749  1.2367
 3086SOL     OW20719   3.559   2.082   1.967 -0.0805 -0.5933  0.2992
 3086SOL    HW120720   3.558   2.117   1.878 -0.8581 -1.5475 -0.0687
 3086SOL    HW220721   3.652   2.060   1.972 -0.0309 -0.2895  0.7532
 3087SOL     OW20722   3.739   4.295  11.826  0.2511  0.3687 -0.8546
 3087SOL    HW120723   3.666   4.357  11.822  0.1052  0.1961 -0.8908
 3087SOL    HW220724   3.717   4.236  11.755 -2.6296  1.5458 -0.9392
 3088SOL     OW20725   3.642   4.259  12.834  0.2098  0.1942  0.1900
 3088SOL    HW120726   3.563   4.313  12.835  2.0722  2.9127  0.6569
 3088SOL    HW220727   3.636   4.214  12.919  0.9164  1.3628  0.8672
 3089SOL     OW20728   1.323   0.017   8.595 -0.0318  0.1870 -0.2531
 3089SOL    HW120729   1.341   0.081   8.664  0.5218 -2.4238  2.0035
 3089SOL    HW220730   1.344   4.660   8.644 -3.0220  0.1026  0.8578
 3090SOL     OW20731   3.637   2.992   6.957 -0.1745  0.1439  0.4104
 3090SOL    HW120732   3.692   2.975   6.881  1.1072  0.2930  1.2892
 3090SOL    HW220733   3.694   3.055   7.002 -2.6316  1.5990  1.5087
 3091SOL     OW20734   4.354   3.678  14.405  0.8135 -0.0467  0.2761
 3091SOL    HW120735   4.353   3.583  14.409 -1.1795 -0.0218  0.2017
 3091SOL    HW220736   4.287   3.695  14.471  0.3009 -1.3811  0.0871
 3092SOL     OW20737   2.954   4.655   6.124  0.5110 -0.3336 -0.2696
 3092SOL    HW120738   2.903   4.576   6.141 -0.4075  0.2679 -0.1823
 3092SOL    HW220739   2.914   4.678   6.040 -1.8964  1.4443  1.3758
 3093SOL     OW20740   1.653   3.478  13.118  0.4189  0.3070  0.1255
 3093SOL    HW120741   1.571   3.484  13.069 -0.3184 -1.2589  1.1657
 3093SOL    HW220742   1.700   3.537  13.059 -0.7585  0.2198 -0.9030
 3094SOL     OW20743   4.427   2.985  15.523 -0.2366 -0.4923  0.1705
 3094SOL    HW120744   4.430   2.967  15.617  0.4249 -1.8923 -0.1189
 3094SOL    HW220745   4.402   2.901  15.484  0.9190 -0.6869 -0.1289
 3095SOL     OW20746   3.560   2.742   8.798 -0.7446  0.0417 -0.5999
 3095SOL    HW120747   3.588   2.746   8.890 -2.2150  0.9618 -0.1976
 3095SOL    HW220748   3.645   2.760   8.758 -1.3590 -0.3983 -2.0657
 3096SOL     OW20749   3.002   1.724  11.353  0.2690  0.3652  0.0966
 3096SOL    HW120750   2.984   1.769  11.271  2.3433 -0.2291 -0.6852
 3096SOL    HW220751   3.082   1.675  11.331 -1.2099 -2.4774  1.0344
 3097SOL     OW20752   1.398   1.096   8.482  0.2609 -0.1035  0.2379
 3097SOL    HW120753   1.451   1.163   8.525 -1.0893 -0.5805  2.6489
 3097SOL    HW220754   1.414   1.017   8.534  3.5200  0.0845 -0.4601
 3098SOL     OW20755   3.495   1.475   8.799  0.3788  0.0908  0.3593
 3098SOL    HW120756   3.502   1.433   8.885 -0.0176  0.4274  0.5509
 3098SOL    HW220757   3.414   1.525   8.796  0.5126  0.2419 -0.6724
 3099SOL     OW20758   1.850   1.384  13.280 -0.1968  0.1193 -0.6849
 3099SOL    HW120759   1.840   1.471  13.318 -1.6293 -0.7691  0.9498
 3099SOL    HW220760   1.786   1.385  13.209  0.7727  0.0161 -1.5524
 3100SOL     OW20761   1.755   0.979  16.662 -0.2631  0.5740  0.1853
 3100SOL    HW120762   1.809   1.055  16.641  0.2176 -0.1393 -1.1370
 3100SOL    HW220763   1.725   0.950  16.576  0.3112  0.1607  0.1246
 3101SOL     OW20764   1.575   1.131  16.186  0.1161  0.0028 -0.1041
 3101SOL    HW120765   1.503   1.099  16.132  0.2470 -2.4690  1.1965
 3101SOL    HW220766   1.638   1.151  16.117 -2.0449 -1.9068 -2.5786
 3102SOL     OW20767   1.499   2.313   9.277  0.2190 -0.7285 -0.3097
 3102SOL    HW120768   1.546   2.370   9.338 -1.3116  1.7249 -1.4314
 3102SOL    HW220769   1.569   2.297   9.213 -1.0298 -0.0586 -1.8554
 3103SOL     OW20770   0.620   4.585   2.961 -0.5034  0.4512 -0.0415
 3103SOL    HW120771   0.680   4.658   2.976 -0.3722  0.0705  1.2751
 3103SOL    HW220772   0.676   4.526   2.909  0.8039  1.5530  0.1232
 3104SOL     OW20773   2.490   1.455   6.623 -0.3660  0.1397 -0.0813
 3104SOL    HW120774   2.461   1.432   6.535 -0.1686 -0.1024 -0.0851
 3104SOL    HW220775   2.535   1.538   6.607  1.3217 -1.0286 -1.3523
 3105SOL     OW20776   2.475   2.738   7.234 -0.1907 -0.2963  0.3648
 3105SOL    HW120777   2.461   2.727   7.140  2.6166  0.8983 -0.1774
 3105SOL    HW220778   2.398   2.785   7.266  0.8193  1.0793  0.7544
 3106SOL     OW20779   1.004   0.699   6.245  0.2907 -0.1832 -0.0813
 3106SOL    HW120780   1.058   0.699   6.324 -1.2021 -2.5743  0.9531
 3106SOL    HW220781   1.060   0.654   6.182 -0.2999  0.3146 -0.9532
 3107SOL     OW20782   0.196   3.113  16.892  0.1493  0.0790  0.2893
 3107SOL    HW120783   0.165   3.078  16.809 -0.8324  0.8180  0.3382
 3107SOL    HW220784   0.135   3.088  16.961  1.0801  1.1558  1.5138
 3108SOL     OW20785   1.966   3.711  10.596 -0.3609  0.7762  0.5868
 3108SOL    HW120786   1.925   3.658  10.527  2.4527 -0.0759 -0.4065
 3108SOL    HW220787   1.894   3.705  10.659 -1.6515  1.1026 -0.8528
 3109SOL     OW20788   2.433   0.697   0.079 -0.1444  0.0458  0.5960
 3109SOL    HW120789   2.421   0.607   0.111 -0.6619 -0.3229 -0.6458
 3109SOL    HW220790   2.426   0.749   0.159 -3.4682 -2.1582  1.7113
 3110SOL     OW20791   2.713   0.966   6.283  0.5360  0.3753  0.3949
 3110SOL    HW120792   2.679   1.034   6.341  1.5848 -1.3232  2.9612
 3110SOL    HW220793   2.726   0.890   6.339 -0.6916  0.1122  0.3227
 3111SOL     OW20794   1.379   3.918   2.556 -0.1490  0.1133 -0.1576
 3111SOL    HW120795   1.472   3.939   2.547  0.1273  0.0626  2.3978
 3111SOL    HW220796   1.346   3.905   2.467  2.8076  0.8349 -1.3682
 3112SOL     OW20797   1.728   1.518   4.397  0.1186  0.5264  0.1217
 3112SOL    HW120798   1.718   1.425   4.373 -0.9548  0.9106 -0.9003
 3112SOL    HW220799   1.739   1.553   4.309  0.1570  1.7906  0.6374
 3113SOL     OW20800   3.075   2.364  13.747 -0.1945  0.3611  1.1117
 3113SOL    HW120801   2.984   2.393  13.757 -1.0214 -0.7862 -3.2698
 3113SOL    HW220802   3.113   2.450  13.727 -1.0163  1.4539  4.1096
 3114SOL     OW20803   1.193   0.277   5.438  0.0444  0.0114  0.2718
 3114SOL    HW120804   1.106   0.318   5.441 -0.7993 -1.6710 -0.9406
 3114SOL    HW220805   1.253   0.346   5.408 -0.0297 -0.7299 -1.5976
 3115SOL     OW20806   4.601   0.578  17.289 -0.2989 -0.4053 -0.0360
 3115SOL    HW120807   4.676   0.630  17.263 -0.8964  0.8545  0.7757
 3115SOL    HW220808   4.626   0.493  17.253  0.6952  0.2091 -0.7740
 3116SOL     OW20809   3.912   4.525   6.427 -0.5403  0.1376 -0.1471
 3116SOL    HW120810   3.878   4.503   6.340  0.0046  1.6848 -0.7505
 3116SOL    HW220811   3.840   4.578   6.460 -1.2453  0.2620 -1.8777
 3117SOL     OW20812   0.311   2.074   5.680  0.0484  0.4942 -0.3090
 3117SOL    HW120813   0.402   2.092   5.656 -0.0019  1.3958  0.1702
 3117SOL    HW220814   0.308   1.995   5.627 -2.1066 -0.6108  1.4435
 3118SOL     OW20815   0.814   1.716  15.320 -0.1288  0.7733  0.1196
 3118SOL    HW120816   0.837   1.736  15.229  2.6164 -2.7668  0.0482
 3118SOL    HW220817   0.785   1.798  15.358 -0.4852  0.9799 -0.5953
 3119SOL     OW20818   4.488   0.398  10.541  0.0804  0.1205 -0.0683
 3119SOL    HW120819   4.406   0.350  10.534 -0.2607  0.3641  2.5005
 3119SOL    HW220820   4.530   0.381  10.456  1.5718  1.4261  0.3907
 3120SOL     OW20821   0.826   3.523   3.302  0.1542  0.5558  0.0854
 3120SOL    HW120822   0.734   3.514   3.328  0.5286 -2.1609  0.4443
 3120SOL    HW220823   0.821   3.507   3.207  0.3332 -0.9140  0.3158
 3121SOL     OW20824   3.272   1.993  12.948 -0.6918 -0.2639 -0.0741
 3121SOL    HW120825   3.353   1.954  12.914  0.3707  1.6149  0.3307
 3121SOL    HW220826   3.244   1.930  13.015 -2.9642 -0.5458 -1.2915
 3122SOL     OW20827   2.473   3.065   0.222 -0.3383  0.6692 -0.2606
 3122SOL    HW120828   2.487   2.988   0.277  0.1829  1.7795  1.1780
 3122SOL    HW220829   2.536   3.063   0.150 -2.0326  2.0530 -1.7951
 3123SOL     OW20830   3.947   1.336  11.676  0.2997  0.4658  0.1137
 3123SOL    HW120831   3.910   1.293  11.599  0.5580 -0.3191  0.4314
 3123SOL    HW220832   4.032   1.292  11.668  0.2993  0.4123  0.4030
 3124SOL     OW20833   3.048   2.945  14.543 -0.1819 -0.5751  0.0979
 3124SOL    HW120834   3.006   2.864  14.514  0.2950 -0.4855 -0.8311
 3124SOL    HW220835   3.066   2.922  14.634 -1.3188 -0.5657  0.3292
 3125SOL     OW20836   3.395   4.406   4.777 -0.1782  0.0812 -0.1812
 3125SOL    HW120837   3.423   4.402   4.686  0.5083  0.3926  0.0133
 3125SOL    HW220838   3.451   4.477   4.810  1.5271 -0.8573 -1.0775
 3126SOL     OW20839   1.029   0.731  15.411 -0.0633  0.5452 -0.1098
 3126SOL    HW120840   0.959   0.724  15.476 -1.1804 -0.0760 -1.3778
 3126SOL    HW220841   1.089   0.789  15.457 -0.3698  0.8487 -0.0980
 3127SOL     OW20842   1.728   3.731  15.005  0.5511  0.1227  0.4099
 3127SOL    HW120843   1.693   3.716  14.918 -0.5932 -0.8178  1.0338
 3127SOL    HW220844   1.757   3.642  15.027  0.6303 -0.0445 -0.3802
 3128SOL     OW20845   2.867   2.290  14.691 -0.0716 -0.2200 -0.0682
 3128SOL    HW120846   2.779   2.325  14.679  0.4894  0.9606 -0.7633
 3128SOL    HW220847   2.919   2.361  14.730 -2.2241  1.4952 -0.3113
 3129SOL     OW20848   4.370   0.075   1.944  0.5340  0.2974  0.2382
 3129SOL    HW120849   4.381   0.165   1.973  3.3252 -0.1088  0.4704
 3129SOL    HW220850   4.385   0.092   1.852  1.6884 -1.3440  0.1104
 3130SOL     OW20851   3.718   1.600   7.021  0.4395 -0.5101 -0.0884
 3130SOL    HW120852   3.694   1.693   7.012 -0.6485 -0.7133  0.8561
 3130SOL    HW220853   3.806   1.603   6.981 -0.5046  1.5090 -2.0373
 3131SOL     OW20854   4.577   3.116   6.254 -0.4612  0.2008 -0.1379
 3131SOL    HW120855   4.588   3.187   6.317  0.6097  2.1212 -2.5499
 3131SOL    HW220856   4.660   3.117   6.207 -0.7846  2.2881 -0.6324
 3132SOL     OW20857   1.638   0.110  14.054 -0.4010 -0.0051 -0.2846
 3132SOL    HW120858   1.689   0.167  13.998 -0.7267  0.6812  0.1207
 3132SOL    HW220859   1.573   0.176  14.076 -0.9635  0.0294 -2.0637
 3133SOL     OW20860   1.683   0.610  10.083 -0.2616 -0.2762  0.4555
 3133SOL    HW120861   1.663   0.546  10.151 -4.7518  1.1182  0.5092
 3133SOL    HW220862   1.771   0.638  10.105 -0.0083  1.3411 -2.4610
 3134SOL     OW20863   1.271   4.230   2.808 -0.2239 -0.3290 -0.4794
 3134SOL    HW120864   1.250   4.267   2.722  1.4406  2.8979  0.5184
 3134SOL    HW220865   1.198   4.169   2.823 -0.2245 -0.5418 -1.3752
 3135SOL     OW20866   2.796   3.325   7.300 -0.1906 -0.4423  0.1898
 3135SOL    HW120867   2.735   3.262   7.262 -1.5319 -0.2505  2.0977
 3135SOL    HW220868   2.835   3.264   7.362 -1.3115 -0.4274  0.9053
 3136SOL     OW20869   2.524   1.850   3.309 -0.0662 -0.2920 -0.2774
 3136SOL    HW120870   2.471   1.906   3.252 -2.2937 -0.2773  1.8304
 3136SOL    HW220871   2.479   1.768   3.290  3.0979 -2.5820  2.0085
 3137SOL     OW20872   0.065   0.107   0.029  0.1123  0.1960 -0.5326
 3137SOL    HW120873   0.135   0.058  17.676 -0.4157  0.7432 -1.9859
 3137SOL    HW220874   0.002   0.039   0.054  0.7240  0.1930  1.0398
 3138SOL     OW20875   1.951   0.219   8.113 -0.4395 -0.1203  0.5790
 3138SOL    HW120876   1.898   0.265   8.048 -1.7560 -3.1332 -0.4417
 3138SOL    HW220877   1.961   0.284   8.183  0.5579  0.4143 -0.0706
 3139SOL     OW20878   4.516   2.628   7.657  0.2227  0.5128  0.3047
 3139SOL    HW120879   4.546   2.698   7.600 -0.0768 -0.9227 -1.6030
 3139SOL    HW220880   4.574   2.637   7.733  0.2293  2.6205  0.0389
 3140SOL     OW20881   0.801   0.506  15.798 -0.3434  0.0768 -0.0106
 3140SOL    HW120882   0.849   0.423  15.804 -0.5200 -0.1865 -1.9876
 3140SOL    HW220883   0.714   0.466  15.797 -0.6996  0.8977 -2.1468
 3141SOL     OW20884   2.985   2.964  11.079 -0.1327 -0.5601 -0.2391
 3141SOL    HW120885   3.012   2.996  11.165 -0.1358  0.7456 -0.7223
 3141SOL    HW220886   2.942   3.041  11.042 -0.6965 -0.1814  1.1875
 3142SOL     OW20887   1.465   0.237   4.535  0.5971  0.4951  0.1121
 3142SOL    HW120888   1.474   0.244   4.440 -0.9155  1.4911  0.0374
 3142SOL    HW220889   1.472   0.329   4.561  0.5017  1.0720 -1.9517
 3143SOL     OW20890   1.421   1.739   8.901  0.2360 -0.0975 -0.0426
 3143SOL    HW120891   1.449   1.823   8.938  0.8108 -0.8022  1.1261
 3143SOL    HW220892   1.462   1.686   8.970  0.4293  0.2475  0.1067
 3144SOL     OW20893   2.956   2.392   7.214 -0.5089  0.7092  0.5342
 3144SOL    HW120894   2.987   2.340   7.139  0.3467  1.3017  0.4719
 3144SOL    HW220895   2.877   2.428   7.176 -0.8842  1.0196  1.6108
 3145SOL     OW20896   3.446   3.570  14.684 -0.1280  0.1091 -0.0835
 3145SOL    HW120897   3.453   3.639  14.618 -1.3592  0.8603  0.5558
 3145SOL    HW220898   3.533   3.531  14.690 -0.4691 -0.3208  2.3511
 3146SOL     OW20899   0.693   1.207   0.647 -0.0006  0.6430 -0.3996
 3146SOL    HW120900   0.621   1.152   0.679  0.2304  1.1374  0.9640
 3146SOL    HW220901   0.763   1.201   0.712 -1.6739  1.6382  1.4707
 3147SOL     OW20902   0.389   3.694   3.744  0.2697 -0.9063 -0.7331
 3147SOL    HW120903   0.335   3.731   3.674 -0.0976 -0.5076 -0.2391
 3147SOL    HW220904   0.341   3.612   3.743 -0.4830 -0.4820  2.6373
 3148SOL     OW20905   3.095   3.282   5.747 -0.1735 -0.4309  0.3254
 3148SOL    HW120906   3.074   3.342   5.819  1.8102  2.7763 -1.7567
 3148SOL    HW220907   3.057   3.207   5.792 -0.5586 -0.4298  0.0013
 3149SOL     OW20908   3.369   2.027  14.307 -0.3025  0.3228  0.1553
 3149SOL    HW120909   3.275   2.044  14.296 -0.0240  0.6324 -1.7020
 3149SOL    HW220910   3.383   1.944  14.262 -1.8885 -1.0307  2.1899
 3150SOL     OW20911   0.161   0.106   4.902 -0.1747  0.1253  0.2283
 3150SOL    HW120912   0.131   0.176   4.960 -2.0062 -0.9623  0.5923
 3150SOL    HW220913   0.252   0.133   4.888 -1.0142  2.2334 -1.1866
 3151SOL     OW20914   2.400   2.297  16.459 -0.2570 -0.2698  0.4101
 3151SOL    HW120915   2.403   2.366  16.392 -1.3116  0.1865  0.8241
 3151SOL    HW220916   2.486   2.315  16.495  0.3061 -0.6542 -0.7274
 3152SOL     OW20917   1.203   4.410   8.925 -0.1502 -0.0208 -0.6940
 3152SOL    HW120918   1.130   4.353   8.899 -0.2904  0.6508 -1.8010
 3152SOL    HW220919   1.274   4.349   8.911  0.0091  0.6169 -2.6978
 3153SOL     OW20920   2.912   3.885   1.274  0.3692 -0.4805  0.7292
 3153SOL    HW120921   2.942   3.944   1.205 -1.0024 -0.5725  0.0546
 3153SOL    HW220922   2.946   3.909   1.360 -1.6612 -0.7394  1.6005
 3154SOL     OW20923   3.492   3.384   2.144 -0.2606 -0.1731  0.4577
 3154SOL    HW120924   3.435   3.419   2.213  0.4700  2.3767 -0.2253
 3154SOL    HW220925   3.500   3.290   2.161  0.2700  0.3385  2.9855
 3155SOL     OW20926   2.084   1.961   6.664 -0.3812 -0.1504  0.5536
 3155SOL    HW120927   2.091   2.046   6.620  0.0571 -0.0352  0.8528
 3155SOL    HW220928   2.149   1.956   6.733  1.7097  0.7561 -1.3504
 3156SOL     OW20929   4.273   2.276   5.237 -0.1194  0.6754 -0.3659
 3156SOL    HW120930   4.323   2.213   5.186 -1.3882 -1.6556  1.3162
 3156SOL    HW220931   4.345   2.309   5.292 -0.8214  0.5288  0.6456
 3157SOL     OW20932   3.520   0.444   0.372  0.2916 -0.3763  0.0072
 3157SOL    HW120933   3.597   0.484   0.412 -0.9511  1.2388  0.7788
 3157SOL    HW220934   3.540   0.351   0.386 -0.6288 -0.3241  1.6303
 3158SOL     OW20935   4.230   4.629   4.879 -0.4626 -0.0134 -0.1900
 3158SOL    HW120936   4.209   4.537   4.895 -1.1189  0.3251  0.9496
 3158SOL    HW220937   4.296   4.634   4.948  0.2356 -3.6987 -0.5927
 3159SOL     OW20938   0.585   2.374   6.038 -0.2747  0.0726 -0.1092
 3159SOL    HW120939   0.591   2.313   6.112  0.9739 -0.4993 -0.6872
 3159SOL    HW220940   0.502   2.419   6.054  0.2712 -0.1774  3.5298
 3160SOL     OW20941   4.572   3.168  14.822 -0.0411 -0.1120  0.2950
 3160SOL    HW120942   4.652   3.122  14.798  0.2793 -0.2191  1.5752
 3160SOL    HW220943   4.519   3.103  14.775 -1.9676  2.2842 -0.8578
 3161SOL     OW20944   3.578   4.172   4.864 -0.0384 -0.2710  0.0278
 3161SOL    HW120945   3.494   4.156   4.820 -0.9629 -0.3676  1.8180
 3161SOL    HW220946   3.583   4.264   4.838 -2.6388  0.0968  0.8398
 3162SOL     OW20947   1.976   2.362   5.930  0.4196 -0.0991 -0.1436
 3162SOL    HW120948   1.932   2.277   5.922 -0.4650  0.3696 -0.3060
 3162SOL    HW220949   1.927   2.407   5.999  1.4266 -0.6471  0.9236
 3163SOL     OW20950   2.218   4.103  15.129  0.3410 -0.0028 -0.5568
 3163SOL    HW120951   2.169   4.185  15.125 -0.3778 -0.3184  1.8872
 3163SOL    HW220952   2.165   4.041  15.078 -0.4460 -0.0125  0.2678
 3164SOL     OW20953   0.300   0.727  17.541 -0.0996  0.5475 -0.1511
 3164SOL    HW120954   0.299   0.809  17.492 -1.6442 -0.8116 -2.3777
 3164SOL    HW220955   0.368   0.747  17.605  0.4175  1.1194 -0.8775
 3165SOL     OW20956   1.441   4.105  10.565 -0.4207  0.2977  0.0896
 3165SOL    HW120957   1.474   4.183  10.521 -1.4569  1.9435  2.2001
 3165SOL    HW220958   1.386   4.131  10.639  1.6521 -1.1767  2.1522
 3166SOL     OW20959   0.844   2.056   6.510 -0.3311  0.2766  0.8421
 3166SOL    HW120960   0.887   1.976   6.538 -0.1812  1.1395  3.1081
 3166SOL    HW220961   0.764   2.025   6.468 -0.5055  2.6914 -0.6332
 3167SOL     OW20962   1.346   4.458   3.749  0.5441 -0.1926 -0.6490
 3167SOL    HW120963   1.438   4.444   3.727  0.2822 -3.8423  0.6279
 3167SOL    HW220964   1.330   4.366   3.770  0.9214  0.3345  2.0527
 3168SOL     OW20965   2.524   2.275   8.530  0.4499 -0.1790 -0.3907
 3168SOL    HW120966   2.537   2.355   8.478 -1.4203 -0.8522 -1.9015
 3168SOL    HW220967   2.494   2.310   8.613  0.2871 -2.6250  0.5642
 3169SOL     OW20968   1.265   4.571  11.204 -0.6314  0.1370 -0.0770
 3169SOL    HW120969   1.269   4.504  11.135  0.9751 -0.0140  0.1625
 3169SOL    HW220970   1.336   4.533  11.257 -1.5947 -0.9752  0.4355
 3170SOL     OW20971   4.389   4.564   2.536 -0.8081 -1.1364  0.0424
 3170SOL    HW120972   4.419   4.602   2.619  1.6122 -1.5269 -0.6702
 3170SOL    HW220973   4.297   4.588   2.529 -0.3004  0.3635 -1.5901
 3171SOL     OW20974   2.894   3.308   7.039 -0.0556  0.3679  0.1028
 3171SOL    HW120975   2.980   3.340   7.065 -0.6679  0.6945  1.7555
 3171SOL    HW220976   2.869   3.283   7.128  1.6313 -2.2944 -0.1654
 3172SOL     OW20977   0.144   1.055   3.151  0.1795  0.1082  0.8353
 3172SOL    HW120978   0.090   1.020   3.080  1.1288 -1.4558  0.8806
 3172SOL    HW220979   0.210   1.108   3.107  1.2626 -2.7147 -0.9308
 3173SOL     OW20980   0.004   1.919  15.197  0.7133 -0.0498  0.6691
 3173SOL    HW120981   4.695   1.946  15.283 -1.8808  0.3672 -0.4035
 3173SOL    HW220982   4.646   1.911  15.146 -0.4335  1.7895  2.1832
 3174SOL     OW20983   3.151   4.182   9.163  0.6563  0.4118  0.1201
 3174SOL    HW120984   3.116   4.105   9.208  4.5051 -2.1681 -1.3181
 3174SOL    HW220985   3.217   4.144   9.105 -0.5523 -2.5088  0.6678
 3175SOL     OW20986   3.649   3.526   9.351  0.2773  0.3495 -0.7332
 3175SOL    HW120987   3.571   3.479   9.324  0.1487 -0.2191  0.6893
 3175SOL    HW220988   3.676   3.557   9.264 -1.5040 -2.2351 -2.2188
 3176SOL     OW20989   0.756   3.984   0.179  0.1281 -0.3687  0.3171
 3176SOL    HW120990   0.808   3.921   0.128  2.0505  0.7964  0.8296
 3176SOL    HW220991   0.669   3.960   0.148 -1.1120  1.3183  2.4785
 3177SOL     OW20992   1.513   2.881   6.542 -0.6992 -0.2216 -0.2568
 3177SOL    HW120993   1.491   2.870   6.635 -2.7102 -0.3675 -0.7489
 3177SOL    HW220994   1.454   2.954   6.521  2.2155  2.1569 -0.1101
 3178SOL     OW20995   3.765   3.684   8.255  0.2155 -0.1939 -0.1015
 3178SOL    HW120996   3.760   3.721   8.343 -0.9849  1.5026 -0.8726
 3178SOL    HW220997   3.745   3.762   8.203  0.5288  0.7109  1.1418
 3179SOL     OW20998   3.469   3.030   2.354 -0.5886  0.1231  0.0674
 3179SOL    HW120999   3.531   2.962   2.382  1.6688  1.0820 -2.6967
 3179SOL    HW221000   3.475   3.101   2.418 -1.6674  1.5798 -1.4506
 3180SOL     OW21001   3.210   0.811   0.306  0.2346  0.1698 -0.2255
 3180SOL    HW121002   3.299   0.779   0.316 -0.6621 -3.0328 -2.3403
 3180SOL    HW221003   3.219   0.901   0.275 -1.8483  1.4735  2.9102
 3181SOL     OW21004   1.168   2.550   4.270  0.4575  0.0768  0.0630
 3181SOL    HW121005   1.146   2.612   4.201  1.7823 -0.0281 -0.4636
 3181SOL    HW221006   1.133   2.590   4.349  0.1048 -0.6444  0.2743
 3182SOL     OW21007   2.677   3.932   6.628 -0.0671  0.2778 -0.2571
 3182SOL    HW121008   2.719   4.004   6.674 -0.5373  2.4632 -3.3128
 3182SOL    HW221009   2.589   3.963   6.649  0.1357  1.3036 -0.9496
 3183SOL     OW21010   4.345   1.340   9.127 -0.2375 -0.5928  0.5870
 3183SOL    HW121011   4.424   1.292   9.104 -0.5668 -0.8185 -0.0995
 3183SOL    HW221012   4.373   1.427   9.098 -4.4776  1.1966  1.8766
 3184SOL     OW21013   0.145   1.170   7.768  0.1557  0.3706  0.1957
 3184SOL    HW121014   0.083   1.229   7.810  2.3366  3.0705 -0.3887
 3184SOL    HW221015   0.163   1.107   7.837  0.8679  0.5915  0.2064
 3185SOL     OW21016   4.165   3.884  15.639  0.3743  0.2897 -0.4728
 3185SOL    HW121017   4.120   3.801  15.623 -0.4394  0.5681  0.3697
 3185SOL    HW221018   4.221   3.854  15.711 -1.8433 -0.4802  0.9422
 3186SOL     OW21019   0.272   2.086   3.137  0.5424 -0.1855 -0.0770
 3186SOL    HW121020   0.311   2.065   3.222  0.6900 -1.8855 -0.5591
 3186SOL    HW221021   0.222   2.165   3.158  2.0161  0.9039 -0.6677
 3187SOL     OW21022   0.358   2.325   4.198 -0.3501  0.5960 -0.1237
 3187SOL    HW121023   0.262   2.319   4.202 -0.3741  0.7565 -0.4623
 3187SOL    HW221024   0.378   2.268   4.124 -1.6430  1.0008 -0.7956
 3188SOL     OW21025   2.704   0.938  12.772 -0.2645 -0.6211 -0.0229
 3188SOL    HW121026   2.670   1.021  12.804  3.5301  0.5756  0.7822
 3188SOL    HW221027   2.796   0.961  12.774 -0.4944  0.2969  0.0721
 3189SOL     OW21028   2.583   3.709   8.438  0.6317  0.3431 -0.3073
 3189SOL    HW121029   2.638   3.787   8.433 -0.2474  0.9935  0.0125
 3189SOL    HW221030   2.526   3.711   8.361  2.3555  0.2679 -1.5580
 3190SOL     OW21031   3.040   0.398  17.567  0.0087  0.2644  0.4750
 3190SOL    HW121032   3.026   0.492  17.570 -2.1520 -0.1236  2.2730
 3190SOL    HW221033   2.997   0.363  17.490 -0.1325 -1.0592  1.1522
 3191SOL     OW21034   1.107   1.978   7.039  0.1489  0.5362  0.2434
 3191SOL    HW121035   1.096   2.042   6.968  1.4734  1.6249  1.0279
 3191SOL    HW221036   1.017   1.954   7.059  0.3290 -0.1471  0.2308
 3192SOL     OW21037   1.935   0.544   4.653  0.2557  0.7898 -0.4519
 3192SOL    HW121038   1.865   0.565   4.714  1.4325  0.5160  0.9809
 3192SOL    HW221039   1.936   0.602   4.577 -0.8568 -0.2807 -1.3078
 3193SOL     OW21040   4.405   1.973   0.261 -0.2042 -0.2565  0.1045
 3193SOL    HW121041   4.341   2.044   0.255  1.0582  0.8842  0.0431
 3193SOL    HW221042   4.349   1.902   0.293  1.0999 -1.2324  0.2338
 3194SOL     OW21043   4.302   3.477   6.930  0.3956  0.3496 -0.1938
 3194SOL    HW121044   4.388   3.438   6.910 -0.3299 -0.7805 -1.1108
 3194SOL    HW221045   4.293   3.455   7.023  3.5918  4.0517  1.0059
 3195SOL     OW21046   2.758   2.065  11.201  0.3715 -0.2667  0.1601
 3195SOL    HW121047   2.779   2.131  11.267 -0.1542  0.2696 -0.2110
 3195SOL    HW221048   2.844   2.032  11.175  0.4529 -0.7463  1.0035
 3196SOL     OW21049   0.591   1.757   3.613 -0.0016 -0.5485 -0.1415
 3196SOL    HW121050   0.497   1.736   3.611 -0.4430  1.3378  0.7998
 3196SOL    HW221051   0.622   1.725   3.528  1.3856 -0.0807  0.1944
 3197SOL     OW21052   0.936   3.288  11.579  0.1339  0.4609 -0.4103
 3197SOL    HW121053   0.931   3.370  11.530 -1.0915  1.8431  2.0403
 3197SOL    HW221054   0.855   3.244  11.553  0.0032 -0.2796  1.2674
 3198SOL     OW21055   1.238   2.527   5.962 -0.1889 -0.9079  0.5394
 3198SOL    HW121056   1.238   2.514   6.057  1.5016 -0.0024  0.6530
 3198SOL    HW221057   1.187   2.607   5.949  1.0890 -0.2844 -0.7351
 3199SOL     OW21058   1.515   1.578   4.806  0.0222 -0.4969 -0.1273
 3199SOL    HW121059   1.582   1.621   4.752 -1.8572  1.7141 -0.7144
 3199SOL    HW221060   1.535   1.606   4.895  2.7841  0.1524 -0.9638
 3200SOL     OW21061   3.470   2.741   6.924 -0.0493 -0.1050  0.4896
 3200SOL    HW121062   3.429   2.770   6.842  1.5267 -0.4946 -0.4322
 3200SOL    HW221063   3.512   2.822   6.953 -0.6500  0.5808 -0.5551
 3201SOL     OW21064   2.696   1.605   9.998  1.2070 -0.2833 -0.3253
 3201SOL    HW121065   2.619   1.636   9.950  1.1042 -1.2384 -0.7724
 3201SOL    HW221066   2.755   1.671   9.962 -1.2857  2.0081 -0.2122
 3202SOL     OW21067   3.861   1.367   6.177 -0.0138  0.2983 -0.1709
 3202SOL    HW121068   3.857   1.413   6.093 -0.5799  1.0632  0.2702
 3202SOL    HW221069   3.783   1.311   6.171  0.1145 -0.0285  1.1449
 3203SOL     OW21070   0.761   1.287   5.090 -0.6715  0.2008  0.4291
 3203SOL    HW121071   0.827   1.230   5.129 -0.4071  0.2861  0.1073
 3203SOL    HW221072   0.815   1.340   5.031  0.1315 -0.3177  0.6931
 3204SOL     OW21073   3.300   0.518   0.223  0.0891  0.0285  0.1566
 3204SOL    HW121074   3.340   0.479   0.146 -1.6521 -0.9932 -0.2276
 3204SOL    HW221075   3.360   0.492   0.293  1.2369  1.0948 -0.4286
 3205SOL     OW21076   2.873   2.442   5.368  0.1003  0.9469 -0.0958
 3205SOL    HW121077   2.802   2.406   5.315  0.4727 -0.9611  0.6881
 3205SOL    HW221078   2.917   2.467   5.286 -2.5600  0.6006 -1.6322
 3206SOL     OW21079   3.765   4.461   3.663 -0.2092  0.3370  0.3470
 3206SOL    HW121080   3.801   4.456   3.574  1.3586  4.7392  0.7549
 3206SOL    HW221081   3.737   4.371   3.680  0.1238  0.2212  0.2872
 3207SOL     OW21082   0.819   2.624  15.610 -0.0318  0.0116  0.0992
 3207SOL    HW121083   0.882   2.660  15.673  0.5709 -0.0820 -0.4526
 3207SOL    HW221084   0.735   2.646  15.651  0.3122 -1.1236  1.4311
 3208SOL     OW21085   0.935   1.591   5.165  0.1545  0.0278 -0.1488
 3208SOL    HW121086   1.000   1.523   5.181  0.0482  0.2338  1.1692
 3208SOL    HW221087   0.998   1.662   5.180 -1.1709  1.5306 -1.6696
 3209SOL     OW21088   3.835   1.920   1.451 -1.1286  0.4116 -0.2312
 3209SOL    HW121089   3.847   1.839   1.500 -2.1645 -0.8786 -2.1182
 3209SOL    HW221090   3.847   1.884   1.363 -1.9115  1.6344 -0.8422
 3210SOL     OW21091   0.122   4.634  10.424  0.0441 -0.0918  0.2691
 3210SOL    HW121092   0.175   4.710  10.449 -0.0901  0.4359 -1.0524
 3210SOL    HW221093   0.079   4.602  10.503  0.7331  0.9128  1.0562
 3211SOL     OW21094   2.924   3.583   7.918 -0.6002  0.5057  0.0568
 3211SOL    HW121095   2.929   3.494   7.953  1.1492  0.0313 -1.3787
 3211SOL    HW221096   2.861   3.625   7.977 -0.0808 -0.2661  1.1688
 3212SOL     OW21097   3.674   2.943  14.184 -0.1477 -0.2881 -0.0535
 3212SOL    HW121098   3.674   2.850  14.206 -0.0824 -0.1910  0.3478
 3212SOL    HW221099   3.582   2.942  14.156 -0.0096  3.0913 -0.6319
 3213SOL     OW21100   0.934   0.827   0.982 -0.2608 -0.0387  0.3135
 3213SOL    HW121101   0.933   0.738   0.948  1.0117  0.1001 -0.0930
 3213SOL    HW221102   0.882   0.866   0.912 -0.9276 -1.1349  0.2041
 3214SOL     OW21103   1.305   0.535  14.139  0.0699 -0.0943 -0.1507
 3214SOL    HW121104   1.315   0.523  14.234  0.1661 -1.1238 -0.2841
 3214SOL    HW221105   1.315   0.630  14.132  0.7653 -0.1367  0.2142
 3215SOL     OW21106   4.419   4.124  15.880  0.1105 -0.7217  0.1172
 3215SOL    HW121107   4.395   4.033  15.899 -2.7177 -0.4639 -2.2100
 3215SOL    HW221108   4.487   4.142  15.945  2.1766 -1.4008 -1.8697
 3216SOL     OW21109   1.002   4.070   5.684 -0.0143 -0.0083 -0.2953
 3216SOL    HW121110   0.929   4.016   5.656  0.2004 -0.1493 -0.5822
 3216SOL    HW221111   1.045   4.011   5.745 -1.2753 -0.0687  0.5250
 3217SOL     OW21112   1.283   1.461   6.865 -0.3714 -0.1453 -0.1960
 3217SOL    HW121113   1.227   1.539   6.864  0.7753  0.6803 -0.6608
 3217SOL    HW221114   1.266   1.436   6.956  0.6407  0.4766  0.1765
 3218SOL     OW21115   4.641   1.608   4.557  0.6636 -0.0053  0.4281
 3218SOL    HW121116   4.623   1.613   4.650  1.2605  0.1041  0.5394
 3218SOL    HW221117   4.554   1.595   4.520  0.9652 -3.0138  0.7776
 3219SOL     OW21118   3.706   3.220  10.998  0.2783 -0.0654 -0.2559
 3219SOL    HW121119   3.649   3.239  11.072  1.4103  0.5569  0.4444
 3219SOL    HW221120   3.647   3.253  10.930  1.1035  2.4942  0.2845
 3220SOL     OW21121   2.943   1.123  17.211  0.3153  0.7669  0.3700
 3220SOL    HW121122   2.912   1.208  17.181 -0.1024  1.5095  2.8625
 3220SOL    HW221123   2.990   1.151  17.289 -0.8675  0.0231  1.3699
 3221SOL     OW21124   1.536   0.078  16.268  1.0429  0.1376 -0.3053
 3221SOL    HW121125   1.512   0.110  16.181  1.4058 -0.5710 -0.6669
 3221SOL    HW221126   1.596   0.008  16.242 -0.1075  0.3783 -3.6242
 3222SOL     OW21127   3.962   0.799  17.167 -0.5041 -0.0705 -0.6800
 3222SOL    HW121128   3.988   0.707  17.163  0.0329  0.0365  0.4541
 3222SOL    HW221129   4.044   0.838  17.196  1.2059 -2.9493 -1.7025
 3223SOL     OW21130   3.288   2.925   5.268 -0.2833 -0.1830  0.0342
 3223SOL    HW121131   3.259   2.953   5.355 -2.2601  1.2782 -1.0937
 3223SOL    HW221132   3.232   2.983   5.217 -0.0904  0.6336  0.7402
 3224SOL     OW21133   3.698   3.209   2.876 -0.0733  0.1009  0.0354
 3224SOL    HW121134   3.757   3.133   2.870 -0.0819  0.1137 -0.2132
 3224SOL    HW221135   3.741   3.278   2.827  0.1635 -1.5974 -2.1408
 3225SOL     OW21136   0.555   3.522   2.076 -0.3315  0.4761 -0.2605
 3225SOL    HW121137   0.468   3.504   2.112 -0.3804  0.8969 -0.1646
 3225SOL    HW221138   0.606   3.534   2.156 -0.5126  1.9835 -0.3721
 3226SOL     OW21139   1.093   1.634   7.344 -0.3502  0.7100  0.1924
 3226SOL    HW121140   1.046   1.716   7.327 -0.6161  0.2947 -1.0567
 3226SOL    HW221141   1.048   1.587   7.414  0.9622 -1.9013 -0.7054
 3227SOL     OW21142   2.934   1.148   6.489 -0.3253  0.2143 -0.3552
 3227SOL    HW121143   2.854   1.185   6.452 -1.3318 -0.0605  1.6070
 3227SOL    HW221144   2.993   1.195   6.429  0.4481  1.3223  1.2838
 3228SOL     OW21145   0.613   1.950   3.285  0.1175 -0.2921  0.1205
 3228SOL    HW121146   0.559   1.907   3.218  0.7805  1.0467 -1.2875
 3228SOL    HW221147   0.543   1.981   3.343 -1.2439 -2.9057 -0.1112
 3229SOL     OW21148   0.932   0.496  16.457  0.0047  0.3322  0.1121
 3229SOL    HW121149   0.846   0.486  16.497  0.4459 -1.1176  0.6746
 3229SOL    HW221150   0.929   0.432  16.386  2.3861 -0.2547  0.5617
 3230SOL     OW21151   2.836   3.682  17.202  0.2953  0.3251  0.1240
 3230SOL    HW121152   2.797   3.626  17.135  0.5805 -2.1442  2.0169
 3230SOL    HW221153   2.879   3.611  17.249 -0.0124 -1.1905 -1.8762
 3231SOL     OW21154   1.318   2.262   2.918  0.0627 -0.8258 -0.2321
 3231SOL    HW121155   1.266   2.308   2.852 -1.8075  1.0065  2.4930
 3231SOL    HW221156   1.351   2.329   2.978 -1.3938 -0.4125  0.1018
 3232SOL     OW21157   3.965   1.125   3.378 -0.2377  0.3065  0.1936
 3232SOL    HW121158   3.904   1.101   3.447  0.1147  1.2379  0.8281
 3232SOL    HW221159   4.044   1.079   3.403  0.0910  0.0529 -1.2829
 3233SOL     OW21160   3.785   1.899   2.726  0.0746  0.0401 -0.0297
 3233SOL    HW121161   3.813   1.854   2.646  0.6251 -0.1119  0.2470
 3233SOL    HW221162   3.793   1.990   2.697  0.8163  0.3029  1.0138
 3234SOL     OW21163   1.048   3.649  15.313 -0.3063 -0.1321  0.9902
 3234SOL    HW121164   1.069   3.644  15.220  1.8016 -0.3766  1.4708
 3234SOL    HW221165   1.130   3.610  15.343  1.3730  1.2106 -1.7632
 3235SOL     OW21166   1.360   1.916  12.557 -0.2636  0.5427  0.2997
 3235SOL    HW121167   1.366   2.002  12.598  0.3424  1.0000 -0.7547
 3235SOL    HW221168   1.315   1.937  12.475  0.2362 -0.0089 -0.1159
 3236SOL     OW21169   3.558   0.299   3.889 -0.7925  0.1211 -0.0987
 3236SOL    HW121170   3.542   0.225   3.831  3.0577 -0.4601 -0.3957
 3236SOL    HW221171   3.516   0.265   3.968 -0.4241  0.7679  0.3788
 3237SOL     OW21172   3.620   1.680   4.747  0.0900 -0.5625 -0.0472
 3237SOL    HW121173   3.687   1.615   4.768  1.3471  1.5691  2.4908
 3237SOL    HW221174   3.651   1.702   4.659  1.8335  0.6133  0.8538
 3238SOL     OW21175   4.720   1.876   7.247  0.5545 -0.4265  0.4393
 3238SOL    HW121176   4.692   1.955   7.293 -3.1208 -0.0766 -2.3492
 3238SOL    HW221177   0.057   1.831   7.307  0.1842 -0.6784  0.6142
 3239SOL     OW21178   4.047   1.586  15.651  0.4677  0.3601 -0.2546
 3239SOL    HW121179   4.039   1.540  15.735 -2.1778  1.1346 -0.0765
 3239SOL    HW221180   4.064   1.677  15.673 -2.0484  0.8009 -0.0677
 3240SOL     OW21181   2.770   0.238   7.024 -0.0261 -0.4675  0.0873
 3240SOL    HW121182   2.720   0.163   7.056 -1.5314 -0.0537 -1.3096
 3240SOL    HW221183   2.857   0.235   7.065 -0.0623  0.2668  0.2106
 3241SOL     OW21184   0.674   1.105  12.370 -0.4580  0.3765 -0.4305
 3241SOL    HW121185   0.585   1.138  12.385 -0.6970  0.4900 -2.1504
 3241SOL    HW221186   0.661   1.026  12.423 -0.4830 -0.3063 -1.4406
 3242SOL     OW21187   0.943   1.405  14.612 -0.1466 -0.1058 -0.0724
 3242SOL    HW121188   0.961   1.495  14.586 -0.6500 -0.6049 -2.1951
 3242SOL    HW221189   1.031   1.367  14.604  0.4776  0.9258  1.9548
 3243SOL     OW21190   1.242   1.751   0.941 -0.6615  0.5463 -0.1671
 3243SOL    HW121191   1.224   1.659   0.920  0.1501  0.5252 -0.7981
 3243SOL    HW221192   1.231   1.792   0.856 -2.1284  0.7259  0.1087
 3244SOL     OW21193   1.489   2.988  15.024  0.0415 -0.1780 -0.9804
 3244SOL    HW121194   1.489   2.898  14.991 -1.1546 -0.2662 -0.7583
 3244SOL    HW221195   1.459   3.040  14.949 -0.5199  0.2271 -0.4791
 3245SOL     OW21196   2.135   2.304  16.499 -0.2067  0.7395 -0.2834
 3245SOL    HW121197   2.229   2.319  16.507  0.1029 -1.3133 -0.0816
 3245SOL    HW221198   2.138   2.249  16.421  2.1495 -1.3895  1.2939
 3246SOL     OW21199   3.829   0.820  11.236  0.3840 -0.2934  0.2085
 3246SOL    HW121200   3.834   0.765  11.158 -1.2238 -1.0241  0.6157
 3246SOL    HW221201   3.743   0.790  11.266  0.2644 -1.4824 -1.3437
 3247SOL     OW21202   4.107   4.287   3.353  0.1732  0.0572  0.9296
 3247SOL    HW121203   4.156   4.279   3.434  0.3489 -1.9029  0.6480
 3247SOL    HW221204   4.091   4.193   3.339  0.1140  0.4542 -1.6429
 3248SOL     OW21205   0.532   2.048   4.274  0.0084 -0.1689  0.0560
 3248SOL    HW121206   0.571   1.968   4.237 -0.9072 -1.6545  2.2961
 3248SOL    HW221207   0.545   2.117   4.210  2.2426  0.1942  0.8945
 3249SOL     OW21208   0.293   1.976   5.270 -0.2191  1.0052  0.2760
 3249SOL    HW121209   0.274   2.022   5.188  0.2251  1.5270  0.4607
 3249SOL    HW221210   0.215   1.922   5.273  0.3583  0.1705  0.1056
 3250SOL     OW21211   1.278   3.327   1.212 -0.1065 -0.9288  0.6671
 3250SOL    HW121212   1.310   3.265   1.146  1.3810  0.6282 -0.0789
 3250SOL    HW221213   1.363   3.355   1.246 -0.0297 -1.3040  0.7787
 3251SOL     OW21214   3.549   0.648   2.422  0.1009 -0.0453  0.0773
 3251SOL    HW121215   3.553   0.587   2.347  1.7763  0.4171 -0.2113
 3251SOL    HW221216   3.596   0.723   2.385  0.5850 -1.3476 -1.9992
 3252SOL     OW21217   0.933   2.134  13.491 -0.1106  0.3797  0.9876
 3252SOL    HW121218   0.972   2.215  13.458  0.7059 -0.1440  0.6418
 3252SOL    HW221219   0.894   2.170  13.571 -1.5923 -1.7355  1.2160
 3253SOL     OW21220   1.176   4.359   2.595 -0.4215 -0.1985  0.1145
 3253SOL    HW121221   1.175   4.320   2.507 -0.0463 -0.4956  0.2394
 3253SOL    HW221222   1.116   4.432   2.583 -0.3499  0.2451  2.4247
 3254SOL     OW21223   3.349   2.525   9.145 -0.2701 -0.3818 -0.6844
 3254SOL    HW121224   3.328   2.612   9.111 -0.8844  1.0071  3.2407
 3254SOL    HW221225   3.425   2.490   9.097  3.2335  2.5305  2.6838
 3255SOL     OW21226   2.503   2.645  10.798  0.3961 -0.2511  0.1359
 3255SOL    HW121227   2.416   2.628  10.764  0.8156 -1.5308 -0.2738
 3255SOL    HW221228   2.474   2.674  10.885  0.1966 -2.6262  0.8482
 3256SOL     OW21229   0.494   4.601   4.254  0.2662 -0.2452 -0.0192
 3256SOL    HW121230   0.539   4.659   4.192  0.4839 -0.9569 -0.5349
 3256SOL    HW221231   0.420   4.650   4.291  0.9260  0.4659  0.3470
 3257SOL     OW21232   2.760   1.546   4.856 -0.1861  0.1620 -0.0636
 3257SOL    HW121233   2.825   1.616   4.864  2.9956 -2.8619  0.6900
 3257SOL    HW221234   2.712   1.599   4.793 -2.4489  0.1177  1.6124
 3258SOL     OW21235   1.641   2.061   7.769 -0.2932 -0.1591 -0.5307
 3258SOL    HW121236   1.718   2.114   7.789 -0.6611  0.4135 -0.6348
 3258SOL    HW221237   1.623   2.029   7.858 -1.0794  2.1578  0.1436
 3259SOL     OW21238   4.355   3.405  11.567  0.4444 -0.6513  0.0325
 3259SOL    HW121239   4.274   3.356  11.584 -0.1204  0.7966  1.4388
 3259SOL    HW221240   4.375   3.364  11.482 -1.1940  0.5770 -0.9422
 3260SOL     OW21241   3.260   2.972   6.091 -0.9206  0.2231 -0.5864
 3260SOL    HW121242   3.256   2.888   6.046 -2.0329  0.0282 -0.1188
 3260SOL    HW221243   3.355   2.981   6.101 -0.9114  0.6477 -1.0762
 3261SOL     OW21244   3.713   3.474  15.617 -0.4377 -0.3795  0.0001
 3261SOL    HW121245   3.751   3.539  15.675  0.3460  1.0762 -2.1227
 3261SOL    HW221246   3.769   3.501  15.543 -0.0710  1.5538  0.9926
 3262SOL     OW21247   2.673   2.234  10.556 -0.0473 -0.5213  0.1050
 3262SOL    HW121248   2.762   2.238  10.590 -0.1305  1.2994  0.0672
 3262SOL    HW221249   2.685   2.166  10.489  0.4473 -1.3550  1.0327
 3263SOL     OW21250   2.909   1.709   0.636  0.3290  0.3445  0.1243
 3263SOL    HW121251   2.930   1.780   0.697 -1.9846  0.7825  0.4192
 3263SOL    HW221252   2.980   1.710   0.572 -0.3686 -0.0983 -0.6497
 3264SOL     OW21253   1.133   3.769  16.023  0.3456  0.0726 -0.0937
 3264SOL    HW121254   1.219   3.797  15.994  1.0815 -1.3234  0.7251
 3264SOL    HW221255   1.086   3.820  15.958 -2.6483 -3.1788 -0.5401
 3265SOL     OW21256   4.647   3.366   9.121  0.2163  0.4372  0.0446
 3265SOL    HW121257   4.710   3.386   9.190 -0.7942 -0.1964  1.1509
 3265SOL    HW221258   4.703   3.344   9.047 -3.5192 -0.2955 -2.5717
 3266SOL     OW21259   0.207   4.256   2.676  0.0222  0.6574 -0.5071
 3266SOL    HW121260   0.122   4.288   2.706 -1.3162 -0.8375 -2.6327
 3266SOL    HW221261   0.177   4.167   2.655  2.1927 -0.0899 -0.4615
 3267SOL     OW21262   3.969   1.721   2.236  0.7965 -0.5986  0.4506
 3267SOL    HW121263   3.954   1.639   2.283  1.3556 -0.0913  1.5159
 3267SOL    HW221264   3.996   1.687   2.150  0.1153  1.8820 -0.7605
 3268SOL     OW21265   4.471   0.488   2.579  0.3120  0.6723  0.6745
 3268SOL    HW121266   4.401   0.553   2.579 -2.3198 -2.1505  2.3708
 3268SOL    HW221267   4.465   0.439   2.497 -0.8594  0.1177  1.0856
 3269SOL     OW21268   1.616   1.293   2.930  0.0228 -0.2376 -0.6087
 3269SOL    HW121269   1.603   1.377   2.886  0.5477 -0.0943 -0.4954
 3269SOL    HW221270   1.571   1.314   3.012  1.3344  3.0991 -0.7528
 3270SOL     OW21271   3.864   2.430   5.580 -0.1774 -0.1186 -0.2731
 3270SOL    HW121272   3.948   2.390   5.560 -0.9095 -1.6356 -0.2629
 3270SOL    HW221273   3.811   2.351   5.585 -1.8328  0.9236 -1.5366
 3271SOL     OW21274   0.768   3.675   7.243  0.1572  0.3831  0.2620
 3271SOL    HW121275   0.782   3.609   7.312  2.2357 -0.9053 -1.3719
 3271SOL    HW221276   0.733   3.622   7.171  1.3789  1.0542 -0.8269
 3272SOL     OW21277   3.508   0.344  11.614 -0.4881  0.7620  0.0047
 3272SOL    HW121278   3.561   0.328  11.692 -0.7385  1.3944  0.3075
 3272SOL    HW221279   3.452   0.418  11.637 -1.1293  1.4248 -3.5807
 3273SOL     OW21280   3.677   0.882  12.257 -0.0154 -0.2122 -0.0581
 3273SOL    HW121281   3.682   0.951  12.191 -2.4077  0.2437  0.2410
 3273SOL    HW221282   3.771   0.881  12.278 -0.2911 -1.8901  1.1308
 3274SOL     OW21283   3.782   2.627   9.713  0.4635  0.0001  0.0357
 3274SOL    HW121284   3.765   2.534   9.697 -0.9947 -0.1930  2.8059
 3274SOL    HW221285   3.801   2.656   9.623 -1.5460 -0.1489 -0.4233
 3275SOL     OW21286   1.274   1.320   4.529  0.4585  0.1477 -0.2207
 3275SOL    HW121287   1.346   1.342   4.471  1.5084 -0.2839  0.9041
 3275SOL    HW221288   1.305   1.269   4.604 -1.7503 -0.9087 -0.0087
 3276SOL     OW21289   4.548   1.670   5.353 -0.5667 -0.0043 -0.0796
 3276SOL    HW121290   4.462   1.638   5.325  0.5657 -1.2188 -2.0810
 3276SOL    HW221291   4.608   1.652   5.281  0.5430  0.4452  0.7252
 3277SOL     OW21292   1.836   0.105  14.873 -0.1220 -0.2561 -0.8155
 3277SOL    HW121293   1.805   0.131  14.960  2.8674  0.7712 -0.0710
 3277SOL    HW221294   1.789   0.022  14.862 -0.9289 -0.0155  0.7495
 3278SOL     OW21295   4.319   0.582   0.526  0.8218  0.3642  0.1112
 3278SOL    HW121296   4.226   0.563   0.510  0.8495 -0.3201  0.7966
 3278SOL    HW221297   4.345   0.646   0.459  1.5889  0.6318  0.6708
 3279SOL     OW21298   2.979   1.054   2.372 -0.5800  0.3405 -0.0582
 3279SOL    HW121299   2.884   1.063   2.358 -0.2906  0.2442 -2.0919
 3279SOL    HW221300   2.998   1.144   2.400 -0.5053  0.2681  0.1256
 3280SOL     OW21301   3.169   2.011   6.124 -0.1357  0.2213  0.4712
 3280SOL    HW121302   3.140   2.102   6.121  0.7887  0.5216  0.6496
 3280SOL    HW221303   3.263   2.027   6.131  0.1694 -1.0669 -0.6816
 3281SOL     OW21304   0.532   2.358  12.733  0.1736  0.0747  0.7767
 3281SOL    HW121305   0.581   2.386  12.810 -1.2974 -0.0416  1.7617
 3281SOL    HW221306   0.452   2.323  12.774  0.9515 -0.8104  1.5772
 3282SOL     OW21307   0.065   1.942   0.408 -0.0133  0.2429 -0.0051
 3282SOL    HW121308   0.096   2.010   0.348 -1.6710  0.4584 -0.5991
 3282SOL    HW221309   0.082   1.865   0.354 -1.4244  0.8547 -1.2890
 3283SOL     OW21310   4.631   2.184   0.733 -0.1424 -0.1668  0.3098
 3283SOL    HW121311   4.598   2.145   0.652 -0.5627 -0.3301  0.5603
 3283SOL    HW221312   4.559   2.241   0.761  0.0238 -0.0315  0.4631
 3284SOL     OW21313   0.063   4.700   1.521 -0.0562  0.3525  0.3142
 3284SOL    HW121314   0.014   4.644   1.462  1.6357  1.8809 -2.5276
 3284SOL    HW221315   0.001   4.718   1.592 -0.4966 -0.6900  0.1988
 3285SOL     OW21316   3.926   2.414  15.183 -0.3319 -0.1023  0.4409
 3285SOL    HW121317   3.889   2.485  15.236 -0.4499 -0.8259  1.3150
 3285SOL    HW221318   3.860   2.406  15.114 -2.6749  1.4250  2.4872
 3286SOL     OW21319   2.984   0.749   5.965 -0.3583  0.3503  0.1693
 3286SOL    HW121320   2.925   0.812   6.007 -1.1019 -1.5281  1.9258
 3286SOL    HW221321   3.065   0.753   6.015 -0.2009 -0.4766 -0.0294
 3287SOL     OW21322   2.761   4.271   4.082 -0.2485 -0.2683 -0.4744
 3287SOL    HW121323   2.730   4.215   4.153 -0.5118  0.1987 -0.2226
 3287SOL    HW221324   2.804   4.200   4.034  1.7843 -0.3312  1.4115
 3288SOL     OW21325   1.694   4.077   5.526 -0.3708 -0.5198  0.2896
 3288SOL    HW121326   1.620   4.129   5.557  0.9607  1.1198  0.7594
 3288SOL    HW221327   1.655   3.990   5.528 -2.5598  0.4373 -0.6105
 3289SOL     OW21328   3.698   3.217   6.277  0.0515 -0.6665  0.1191
 3289SOL    HW121329   3.661   3.301   6.307  2.0779  0.0016  0.8119
 3289SOL    HW221330   3.633   3.207   6.208  1.0416 -0.2681 -0.8637
 3290SOL     OW21331   4.392   1.846   4.024  0.2888  0.0488  0.1423
 3290SOL    HW121332   4.456   1.917   4.015 -1.6153  1.7908  0.3205
 3290SOL    HW221333   4.409   1.799   3.943  2.7917 -1.7597  1.7147
 3291SOL     OW21334   2.533   1.784   4.917  0.3636  0.1373 -0.0431
 3291SOL    HW121335   2.607   1.835   4.951  0.1884 -0.5791  1.4530
 3291SOL    HW221336   2.503   1.723   4.985  0.5062  0.9558  0.7507
 3292SOL     OW21337   3.723   4.715  12.234 -0.3855 -0.0813  0.7113
 3292SOL    HW121338   3.659   0.034  12.177 -1.9758 -0.0192  2.5164
 3292SOL    HW221339   3.767   0.070  12.269 -1.2646  0.5792  0.3781
 3293SOL     OW21340   0.322   4.127   8.742  0.6991 -0.0118  0.2488
 3293SOL    HW121341   0.238   4.117   8.787 -0.1589 -0.7606 -1.5306
 3293SOL    HW221342   0.345   4.035   8.731 -0.5993 -0.2417 -0.5266
 3294SOL     OW21343   0.455   3.530   7.792  0.4981  0.2344 -0.4040
 3294SOL    HW121344   0.365   3.498   7.797  0.3939  0.8098  1.5577
 3294SOL    HW221345   0.451   3.623   7.769  1.0237  0.2025 -0.6305
 3295SOL     OW21346   4.138   4.641   0.558 -0.4043 -0.2272  0.6535
 3295SOL    HW121347   4.048   4.609   0.561 -0.8636  1.0462  0.8503
 3295SOL    HW221348   4.136   4.696   0.636 -2.0853  1.0820 -0.3039
 3296SOL     OW21349   0.585   3.226  12.618 -0.3621  0.1829  0.3411
 3296SOL    HW121350   0.490   3.215  12.617 -0.2055 -1.1710  0.6660
 3296SOL    HW221351   0.602   3.155  12.680  2.0162 -1.1913 -1.8420
 3297SOL     OW21352   0.549   0.632   1.249  0.2332 -0.0871  0.4250
 3297SOL    HW121353   0.516   0.542   1.241 -1.3336  0.5229  0.0398
 3297SOL    HW221354   0.487   0.671   1.311 -0.4573 -0.7457  0.1438
 3298SOL     OW21355   1.864   4.641   4.957 -0.1017 -0.3999  0.2361
 3298SOL    HW121356   1.855   4.601   4.870  2.3653 -2.2231  0.8507
 3298SOL    HW221357   1.772   4.667   4.969  0.3905  0.0328  3.0230
 3299SOL     OW21358   3.478   3.296   7.274 -0.3177 -0.5174 -0.4764
 3299SOL    HW121359   3.573   3.311   7.276 -0.4838  0.6329 -1.1799
 3299SOL    HW221360   3.473   3.222   7.213 -4.6375  0.5319 -1.3844
 3300SOL     OW21361   0.983   2.449  10.282  0.0578 -0.1130  0.5695
 3300SOL    HW121362   0.899   2.452  10.327  0.8283  4.8763  1.6458
 3300SOL    HW221363   0.976   2.380  10.215  0.2997 -0.2732  0.7068
 3301SOL     OW21364   0.590   0.046   4.075  0.5104  1.0150 -0.2151
 3301SOL    HW121365   0.661   0.100   4.109 -0.3798  0.7329  2.0859
 3301SOL    HW221366   0.635   0.009   3.999 -0.9178 -2.5330  0.6743
 3302SOL     OW21367   0.592   1.055   3.842  0.3321 -0.5657 -0.1793
 3302SOL    HW121368   0.650   1.043   3.917  0.6760 -0.3952 -0.4135
 3302SOL    HW221369   0.652   1.051   3.767  0.6572  0.6966  0.0169
 3303SOL     OW21370   2.277   3.894   7.827 -0.7745  0.1756 -0.5611
 3303SOL    HW121371   2.192   3.849   7.825 -0.1485 -1.0243 -0.3976
 3303SOL    HW221372   2.251   3.973   7.873 -0.1838 -0.6504  1.1843
 3304SOL     OW21373   0.276   3.641  15.756  0.1738  0.1137  0.6052
 3304SOL    HW121374   0.241   3.578  15.819 -2.3363  2.9859  2.0783
 3304SOL    HW221375   0.278   3.587  15.677  0.9504 -1.0790  1.4435
 3305SOL     OW21376   1.289   4.031   1.597  0.0575 -0.5629  0.6463
 3305SOL    HW121377   1.228   3.983   1.653 -1.4588 -0.1132 -0.6169
 3305SOL    HW221378   1.303   3.982   1.516  1.4895  0.6963  0.1263
 3306SOL     OW21379   4.048   2.298   0.056 -0.5838 -0.1712  0.0263
 3306SOL    HW121380   4.035   2.325  17.656 -0.5132 -2.4221 -0.6755
 3306SOL    HW221381   4.003   2.368   0.103  0.4765 -1.0253  2.3145
 3307SOL     OW21382   3.153   1.447  17.193 -0.1655  0.5216 -0.2377
 3307SOL    HW121383   3.216   1.501  17.146 -0.5336  0.3254 -0.9573
 3307SOL    HW221384   3.161   1.370  17.137  0.1809 -0.1254  0.6998
 3308SOL     OW21385   1.695   3.625  14.199  0.4032 -0.9225 -0.3088
 3308SOL    HW121386   1.756   3.590  14.264 -0.7338 -2.1316  0.1254
 3308SOL    HW221387   1.699   3.718  14.220  0.2857 -1.4721  2.1815
 3309SOL     OW21388   0.734   3.513   7.035 -0.5249 -0.1472 -0.0256
 3309SOL    HW121389   0.756   3.498   6.943  2.0475 -0.6583  0.6706
 3309SOL    HW221390   0.653   3.463   7.029 -1.7551  1.8099  0.2904
 3310SOL     OW21391   1.334   1.257   7.542 -0.6158 -0.2365  0.2738
 3310SOL    HW121392   1.346   1.163   7.560 -2.3460 -0.7427 -1.1965
 3310SOL    HW221393   1.363   1.254   7.451 -1.9013 -3.5771 -0.0514
 3311SOL     OW21394   0.215   0.208   9.091  0.4497 -0.0353  0.3078
 3311SOL    HW121395   0.230   0.263   9.014  2.1547 -0.1416  0.5645
 3311SOL    HW221396   0.122   0.202   9.073  0.4601  1.5887 -0.2889
 3312SOL     OW21397   1.485   1.311   3.158 -1.0570  0.1990 -0.2915
 3312SOL    HW121398   1.532   1.241   3.203 -2.7134 -0.0040  1.1533
 3312SOL    HW221399   1.418   1.327   3.224 -2.2526 -1.2572 -1.1333
 3313SOL     OW21400   0.082   1.309   3.863  0.0566 -0.2887  0.0585
 3313SOL    HW121401   0.164   1.289   3.907  1.8936  0.5201 -2.9955
 3313SOL    HW221402   0.113   1.322   3.773 -3.5738  0.4526 -1.1094
 3314SOL     OW21403   2.115   2.253   0.640 -0.7024 -0.0236  0.3752
 3314SOL    HW121404   2.090   2.345   0.649 -0.1774  0.2137 -0.5808
 3314SOL    HW221405   2.166   2.218   0.713  0.1661 -0.3531 -0.3924
 3315SOL     OW21406   2.702   1.846   7.816  0.4990  0.4214 -0.1451
 3315SOL    HW121407   2.642   1.914   7.847  0.4516  0.1980  0.2440
 3315SOL    HW221408   2.653   1.828   7.735 -2.0956 -2.1367  2.0072
 3316SOL     OW21409   2.701   1.494   1.821  0.6509  0.3737  0.2290
 3316SOL    HW121410   2.748   1.498   1.738 -0.0187 -5.1942 -0.4138
 3316SOL    HW221411   2.770   1.502   1.887  0.6620 -1.0402  0.3904
 3317SOL     OW21412   2.722   0.912  10.232  0.0609  0.2355  0.0068
 3317SOL    HW121413   2.740   0.819  10.242 -0.4301  0.2237  0.7645
 3317SOL    HW221414   2.786   0.956  10.289 -0.8790  0.8260  0.5918
 3318SOL     OW21415   2.918   3.100   3.870  0.5576  0.1392 -0.0767
 3318SOL    HW121416   2.942   3.110   3.778 -2.8966  1.7174 -0.8020
 3318SOL    HW221417   2.921   3.005   3.868  0.5691  0.1535 -0.6969
 3319SOL     OW21418   3.103   3.708   7.451 -0.1691 -0.0226  0.4217
 3319SOL    HW121419   3.094   3.713   7.546  0.7877  0.3052  0.4937
 3319SOL    HW221420   3.031   3.767   7.427 -0.0159  0.5615  1.3881
 3320SOL     OW21421   3.387   2.291   6.552 -0.2063  0.4035 -0.2006
 3320SOL    HW121422   3.362   2.381   6.533  2.6246  0.8681 -1.7433
 3320SOL    HW221423   3.392   2.290   6.648 -3.3558  1.9801 -0.0166
 3321SOL     OW21424   2.559   3.499   2.396  0.2668  0.4704 -0.8945
 3321SOL    HW121425   2.632   3.437   2.402 -0.4665 -0.0662  2.6422
 3321SOL    HW221426   2.558   3.548   2.478 -0.0903 -0.3558 -0.4052
 3322SOL     OW21427   4.532   0.479   2.983 -0.1424 -0.3095  0.3560
 3322SOL    HW121428   4.586   0.448   2.910 -0.7729  0.2759 -0.3726
 3322SOL    HW221429   4.591   0.475   3.058  0.5585 -1.1642 -0.2375
 3323SOL     OW21430   3.744   2.528  13.814  0.1030  0.2340  0.2890
 3323SOL    HW121431   3.668   2.478  13.846 -0.5457 -0.3752 -2.2387
 3323SOL    HW221432   3.781   2.457  13.762 -0.7430 -0.7139  0.9723
 3324SOL     OW21433   1.582   1.036   4.983  0.3240 -0.4660  0.6449
 3324SOL    HW121434   1.489   1.054   4.995  0.6419  2.2207 -0.8730
 3324SOL    HW221435   1.620   1.119   4.952 -0.8820 -1.4994 -3.5608
 3325SOL     OW21436   3.412   3.658   8.860 -0.0668 -0.4040  0.2634
 3325SOL    HW121437   3.361   3.739   8.858 -2.6146 -1.9700  1.9260
 3325SOL    HW221438   3.365   3.602   8.921 -0.9625 -1.5684 -1.4799
 3326SOL     OW21439   1.493   0.386   9.360 -0.0642  0.2389  0.0303
 3326SOL    HW121440   1.526   0.463   9.314 -0.5484  1.4257  1.6940
 3326SOL    HW221441   1.427   0.353   9.299  0.0305  0.4649 -0.1971
 3327SOL     OW21442   0.946   1.031   3.937  0.0860 -0.0565  0.3785
 3327SOL    HW121443   1.027   0.980   3.922 -0.8156 -1.3825 -0.0217
 3327SOL    HW221444   0.936   1.068   3.849 -0.8574 -0.4469  0.3210
 3328SOL     OW21445   0.073   4.073   3.840 -0.0883 -0.0863  0.2926
 3328SOL    HW121446   0.072   4.167   3.823  0.8583  0.2680  2.1333
 3328SOL    HW221447   0.120   4.034   3.766  0.1173  0.0804  0.3377
 3329SOL     OW21448   0.803   0.515  10.914 -0.0939  0.6160  0.2063
 3329SOL    HW121449   0.754   0.556  10.843  2.5591  0.0728 -1.9433
 3329SOL    HW221450   0.873   0.579  10.921  1.6911 -1.3056 -0.0635
 3330SOL     OW21451   1.564   1.928   8.418 -0.2476  0.2663 -0.1546
 3330SOL    HW121452   1.530   1.917   8.507  2.8241  1.5630  1.2147
 3330SOL    HW221453   1.526   1.853   8.373  0.4238 -0.5294  0.6070
 3331SOL     OW21454   0.187   1.164   2.521 -0.4039  0.7491 -0.0908
 3331SOL    HW121455   0.260   1.134   2.467 -0.3724  2.2872 -0.9000
 3331SOL    HW221456   0.202   1.258   2.531 -0.5421  0.8112 -0.4452
 3332SOL     OW21457   3.268   4.553   2.197 -0.4752  0.2258 -0.3839
 3332SOL    HW121458   3.344   4.610   2.206  1.1528 -2.1997  1.1667
 3332SOL    HW221459   3.211   4.613   2.149  1.2433  0.8003 -1.7338
 3333SOL     OW21460   0.493   1.044   8.726 -0.1269  0.1270 -0.0795
 3333SOL    HW121461   0.502   1.110   8.657  0.7723 -0.2348 -0.3096
 3333SOL    HW221462   0.584   1.022   8.748 -0.2729 -0.5293 -0.1173
 3334SOL     OW21463   4.518   1.997   2.775 -0.7896 -0.1884  0.0253
 3334SOL    HW121464   4.583   2.020   2.842 -1.6152  0.0608  0.7299
 3334SOL    HW221465   4.569   1.938   2.719 -1.7060 -1.2107  0.2743
 3335SOL     OW21466   2.027   2.151  12.196  0.3019 -0.4688 -0.0792
 3335SOL    HW121467   1.936   2.125  12.186  0.4012 -0.0185 -2.2990
 3335SOL    HW221468   2.054   2.097  12.271  0.6444 -0.7881 -0.4285
 3336SOL     OW21469   4.184   2.136   0.242  0.7490 -0.3959  0.0419
 3336SOL    HW121470   4.163   2.173   0.327 -1.0200  1.0414 -1.0232
 3336SOL    HW221471   4.163   2.213   0.190 -0.8775  0.3600  1.8155
 3337SOL     OW21472   3.144   4.438   2.662  1.0203 -0.2304 -1.0092
 3337SOL    HW121473   3.064   4.387   2.646 -0.1396  1.9864 -2.3816
 3337SOL    HW221474   3.194   4.427   2.581  0.5464 -0.7269 -1.2346
 3338SOL     OW21475   4.066   1.009   6.864 -0.0913 -0.2130  0.0621
 3338SOL    HW121476   4.092   0.962   6.784 -1.2218  0.3572 -0.6431
 3338SOL    HW221477   4.133   0.981   6.927  0.5382 -1.0004 -0.9499
 3339SOL     OW21478   3.097   2.687  16.885  0.1649 -0.4742  0.3968
 3339SOL    HW121479   3.148   2.671  16.965  2.5996 -0.0123 -1.0648
 3339SOL    HW221480   3.170   2.705  16.825 -1.8770 -0.3910 -2.0702
 3340SOL     OW21481   1.416   3.804   6.940 -0.0025  0.6962  0.4442
 3340SOL    HW121482   1.475   3.855   6.996 -0.5209  1.3812  0.3665
 3340SOL    HW221483   1.326   3.828   6.963 -0.6157 -1.5206  0.4093
 3341SOL     OW21484   3.598   2.124   1.698  0.4189  0.0088  0.3507
 3341SOL    HW121485   3.591   2.195   1.634 -0.1422  0.4771  0.9283
 3341SOL    HW221486   3.591   2.051   1.637  0.7857  0.2728 -0.0037
 3342SOL     OW21487   0.497   3.466  14.301 -0.2678  0.0444  0.2387
 3342SOL    HW121488   0.550   3.546  14.297  1.3961 -0.9749  1.8788
 3342SOL    HW221489   0.452   3.487  14.219 -0.2113 -1.6190 -0.2022
 3343SOL     OW21490   1.141   1.928   3.974  0.1404  0.1435  0.0418
 3343SOL    HW121491   1.222   1.914   3.924 -0.4347 -0.1925 -0.7954
 3343SOL    HW221492   1.085   1.851   3.974  0.3645 -0.0188  1.0125
 3344SOL     OW21493   4.452   2.372   7.626 -0.6908  0.6960 -0.4895
 3344SOL    HW121494   4.463   2.467   7.620 -2.6007  1.0618  1.7375
 3344SOL    HW221495   4.413   2.360   7.539 -0.8322  0.3743 -0.3815
 3345SOL     OW21496   3.868   2.660   7.762 -0.2094  0.3071  0.6361
 3345SOL    HW121497   3.846   2.615   7.680  0.1787  0.0100  0.6997
 3345SOL    HW221498   3.866   2.588   7.825 -1.6227 -0.6310 -0.4764
 3346SOL     OW21499   1.292   3.865  16.572  0.0735  0.9262 -0.4394
 3346SOL    HW121500   1.295   3.785  16.625 -1.2188  1.1096 -0.0675
 3346SOL    HW221501   1.337   3.840  16.491 -1.5616 -1.5245 -0.5844
 3347SOL     OW21502   0.296   0.920   6.222  0.2051  0.2268 -0.8709
 3347SOL    HW121503   0.211   0.956   6.199 -1.1518 -1.9749  0.6304
 3347SOL    HW221504   0.350   0.999   6.227 -0.7679  0.8675 -0.5781
 3348SOL     OW21505   2.886   0.505   5.929  0.0560  0.3150  0.6377
 3348SOL    HW121506   2.833   0.518   5.850  0.6829  0.7356  0.2889
 3348SOL    HW221507   2.907   0.594   5.956 -2.5292  1.1463 -0.0325
 3349SOL     OW21508   2.552   2.795   3.264  0.1583 -0.0714 -0.0665
 3349SOL    HW121509   2.500   2.724   3.225  1.6520  0.0802 -2.3631
 3349SOL    HW221510   2.514   2.874   3.224  1.7037  0.5576 -0.2902
 3350SOL     OW21511   4.516   4.211   0.093  0.3026 -0.6108 -0.4987
 3350SOL    HW121512   4.447   4.275   0.115  0.5030 -1.6133  3.1893
 3350SOL    HW221513   4.502   4.166   0.177  0.3150  1.8403  0.8137
 3351SOL     OW21514   1.232   1.216   0.641 -0.0733  0.2540  0.3323
 3351SOL    HW121515   1.297   1.146   0.648 -1.9911 -1.4497  1.0805
 3351SOL    HW221516   1.170   1.169   0.585  1.1147 -2.3634  1.1911
 3352SOL     OW21517   2.411   3.075   3.974  0.2057 -0.2683 -0.2890
 3352SOL    HW121518   2.467   3.015   3.925  1.0463  0.3312 -0.0727
 3352SOL    HW221519   2.384   3.011   4.040  1.5619  0.2306  0.7475
 3353SOL     OW21520   1.537   3.608  16.510 -0.1585  0.2278  0.6360
 3353SOL    HW121521   1.442   3.599  16.513 -0.0682 -0.2030  2.1173
 3353SOL    HW221522   1.564   3.517  16.499 -0.5336  0.5594 -3.0409
 3354SOL     OW21523   1.197   2.114  10.347  0.5335  0.4375 -0.3367
 3354SOL    HW121524   1.164   2.131  10.259  3.4040  1.4802 -1.2328
 3354SOL    HW221525   1.117   2.101  10.397  0.0969  1.7861 -0.6716
 3355SOL     OW21526   4.088   2.848  11.218  0.4401  0.2172  0.8703
 3355SOL    HW121527   4.054   2.932  11.250 -0.4680  0.2492 -0.1953
 3355SOL    HW221528   4.080   2.856  11.123  2.9264 -1.6323  0.5223
 3356SOL     OW21529   3.585   4.128  14.097 -0.1843  0.0334 -0.0777
 3356SOL    HW121530   3.637   4.206  14.117 -0.2449 -0.0934  0.5521
 3356SOL    HW221531   3.506   4.174  14.069 -1.0066 -0.9162  0.6886
 3357SOL     OW21532   1.041   2.543   3.263  0.2578 -0.1205  0.1042
 3357SOL    HW121533   1.091   2.607   3.212  1.9315 -1.8975 -0.4872
 3357SOL    HW221534   0.963   2.591   3.290  0.8140 -1.4843  4.1798
 3358SOL     OW21535   3.960   4.010   8.189 -0.0948  0.2531 -0.3541
 3358SOL    HW121536   3.894   3.973   8.130  0.7849 -0.5408 -0.8351
 3358SOL    HW221537   3.913   4.045   8.265  1.0953  0.5001  0.2619
 3359SOL     OW21538   1.450   4.055   6.547  0.1870  0.3210 -0.3085
 3359SOL    HW121539   1.498   4.079   6.627 -1.1502 -0.7567  0.8190
 3359SOL    HW221540   1.507   4.081   6.475 -1.4047  2.1365 -0.9213
 3360SOL     OW21541   0.754   4.585   6.369  0.1028  0.5114  0.2186
 3360SOL    HW121542   0.746   4.596   6.464  2.9754 -2.2295  0.8089
 3360SOL    HW221543   0.684   4.641   6.337 -1.6930 -1.1299  1.2314
 3361SOL     OW21544   2.655   3.125  14.270  0.1129  0.0625 -0.0425
 3361SOL    HW121545   2.670   3.154  14.360 -1.4142  0.0049  0.2353
 3361SOL    HW221546   2.564   3.150  14.254 -0.2213 -1.0593  0.0933
 3362SOL     OW21547   2.220   4.387   4.380 -0.0903  0.2676 -0.2184
 3362SOL    HW121548   2.133   4.369   4.414 -0.4180  0.5286 -0.9226
 3362SOL    HW221549   2.212   4.364   4.288 -0.2446  0.1535 -0.1777
 3363SOL     OW21550   3.318   0.756  16.578  0.3311 -0.2643  0.8467
 3363SOL    HW121551   3.231   0.725  16.553 -0.3419  1.4251  1.0741
 3363SOL    HW221552   3.319   0.718  16.665  0.7511 -0.6641  0.6683
 3364SOL     OW21553   3.988   3.445   7.822  0.2694  0.7730 -0.0371
 3364SOL    HW121554   3.935   3.524   7.826  0.0513  0.6357 -0.1834
 3364SOL    HW221555   4.034   3.434   7.905  0.5821 -0.4245 -0.3741
 3365SOL     OW21556   2.337   2.542   0.542  0.2368  0.0902 -0.3743
 3365SOL    HW121557   2.241   2.539   0.534  0.4716 -5.3181 -1.2335
 3365SOL    HW221558   2.360   2.557   0.450 -1.8058 -3.1029 -1.4173
 3366SOL     OW21559   3.832   4.034   5.518 -0.2564 -0.0849  0.3068
 3366SOL    HW121560   3.872   4.106   5.565 -1.5724 -0.9432  2.7450
 3366SOL    HW221561   3.755   4.008   5.569 -0.4756 -0.4883 -0.2287
 3367SOL     OW21562   2.785   2.342  10.221 -0.5988 -0.4144 -0.4808
 3367SOL    HW121563   2.725   2.385  10.281  1.3512  1.9756 -0.2519
 3367SOL    HW221564   2.856   2.320  10.282  0.7140 -0.0669 -1.8717
 3368SOL     OW21565   2.469   2.912   4.753  0.6414  0.4165 -0.3629
 3368SOL    HW121566   2.456   2.888   4.845 -1.6509 -1.5394 -1.2022
 3368SOL    HW221567   2.525   2.845   4.714  1.3113  2.5485 -3.0420
 3369SOL     OW21568   0.838   2.894  15.173 -0.2385 -0.9258 -0.5423
 3369SOL    HW121569   0.876   2.807  15.162 -1.1938 -1.5624  1.2498
 3369SOL    HW221570   0.862   2.929  15.087  0.0375 -1.3179 -0.6250
 3370SOL     OW21571   1.976   3.314  14.570 -0.1617 -0.1105  0.1462
 3370SOL    HW121572   1.964   3.239  14.628 -2.2115  0.9275  1.0465
 3370SOL    HW221573   2.001   3.266  14.490 -4.1226 -3.0391  0.6413
 3371SOL     OW21574   2.084   3.066   7.218  0.0841  0.1955  0.4320
 3371SOL    HW121575   2.070   3.046   7.311  0.8882  4.1083  1.3936
 3371SOL    HW221576   2.085   2.973   7.193 -2.0897 -0.2810  2.0705
 3372SOL     OW21577   4.688   3.411   5.742  0.6603 -0.4203 -0.1294
 3372SOL    HW121578   4.613   3.374   5.695 -0.5994  0.2739  1.3247
 3372SOL    HW221579   0.015   3.438   5.665 -3.9082  1.0360 -2.5232
 3373SOL     OW21580   0.258   0.960   6.763 -0.5196 -0.0402 -0.4062
 3373SOL    HW121581   0.306   1.015   6.701 -0.7138 -0.2867 -0.7738
 3373SOL    HW221582   0.240   0.876   6.721  1.2333  0.1514 -1.5504
 3374SOL     OW21583   4.292   4.415   5.133  0.1538  0.1957 -0.0173
 3374SOL    HW121584   4.202   4.414   5.166  0.4306  1.5375  0.7514
 3374SOL    HW221585   4.285   4.391   5.040  2.4924  0.4761 -0.2606
 3375SOL     OW21586   2.131   1.818   5.646  0.5244 -0.0462 -0.1054
 3375SOL    HW121587   2.049   1.797   5.600  0.0686 -2.0957  1.6316
 3375SOL    HW221588   2.130   1.741   5.702 -0.1258  1.2604  1.6662
 3376SOL     OW21589   4.094   0.803  11.320  0.1453  0.0709 -0.4726
 3376SOL    HW121590   4.102   0.893  11.351  1.3310  0.5802 -2.2263
 3376SOL    HW221591   4.000   0.798  11.305  0.2027  0.4641 -0.9663
 3377SOL     OW21592   2.195   0.810   7.462  0.4689  0.2174  0.2542
 3377SOL    HW121593   2.222   0.901   7.454  2.8218 -0.4080  1.2415
 3377SOL    HW221594   2.123   0.804   7.399  0.9814 -3.3864  0.0081
 3378SOL     OW21595   2.044   2.433  13.330  0.3494 -0.1486  0.3113
 3378SOL    HW121596   2.030   2.460  13.421 -0.9382  0.0775  0.0358
 3378SOL    HW221597   1.959   2.453  13.293 -0.5775  2.1465  3.6251
 3379SOL     OW21598   2.860   1.214   5.106 -0.0781 -0.1923 -0.2894
 3379SOL    HW121599   2.881   1.307   5.095  2.9078 -0.9213 -0.7198
 3379SOL    HW221600   2.891   1.184   5.192  2.1163  0.1502 -0.9809
 3380SOL     OW21601   0.882   1.198   2.836  0.3245 -0.4852 -0.2596
 3380SOL    HW121602   0.834   1.126   2.794 -1.0482 -1.4025  2.8762
 3380SOL    HW221603   0.909   1.255   2.764  1.6922 -0.3044  0.3932
 3381SOL     OW21604   4.288   1.983   1.685  0.2544 -0.0007  0.1789
 3381SOL    HW121605   4.212   2.025   1.644  1.2725  0.8094 -0.8868
 3381SOL    HW221606   4.244   1.954   1.765 -0.3814  1.1118  0.2304
 3382SOL     OW21607   3.005   0.775   9.181 -0.0332  0.6350  0.0523
 3382SOL    HW121608   2.937   0.721   9.221  2.4882 -1.5903  1.3344
 3382SOL    HW221609   3.021   0.849   9.240  0.3125  1.5727 -1.2188
 3383SOL     OW21610   0.560   3.844  11.660 -0.7058  0.0888  0.6007
 3383SOL    HW121611   0.643   3.823  11.618 -1.5229  0.2272 -1.0724
 3383SOL    HW221612   0.510   3.878  11.585 -0.2957 -1.8123 -0.5276
 3384SOL     OW21613   2.263   2.301  13.653  0.0441 -0.0661 -0.2017
 3384SOL    HW121614   2.215   2.378  13.621 -2.1395 -0.5695  1.7796
 3384SOL    HW221615   2.273   2.324  13.746 -3.0745  0.3289  0.0603
 3385SOL     OW21616   4.565   2.157  11.067 -0.5710  0.0921  0.0227
 3385SOL    HW121617   4.622   2.222  11.027  0.5148 -0.8249  0.0472
 3385SOL    HW221618   4.574   2.203  11.151  0.5148  1.4334 -0.8391
 3386SOL     OW21619   1.018   0.505  17.310 -0.2232  0.2157  0.1580
 3386SOL    HW121620   0.975   0.478  17.391 -1.1357  0.2479 -0.3101
 3386SOL    HW221621   0.952   0.555  17.262  0.8096 -1.0113 -2.5190
 3387SOL     OW21622   3.827   1.800  15.439  0.6176 -0.2299 -0.4223
 3387SOL    HW121623   3.743   1.827  15.403  0.7091  0.9659  0.2782
 3387SOL    HW221624   3.874   1.879  15.467 -0.8609  0.3872  0.3137
 3388SOL     OW21625   3.184   4.288   5.590 -0.5423  0.1233 -0.2109
 3388SOL    HW121626   3.198   4.374   5.549  1.2075 -0.2772 -0.4409
 3388SOL    HW221627   3.204   4.315   5.679 -0.3919  1.5443 -0.6706
 3389SOL     OW21628   3.559   1.555  17.573 -0.1112 -0.2682  0.4298
 3389SOL    HW121629   3.531   1.622  17.636 -1.0101 -0.4991  0.2704
 3389SOL    HW221630   3.486   1.575  17.515 -0.5551  2.1357  1.8141
 3390SOL     OW21631   2.284   1.475   6.849 -0.7105  0.4429  0.2669
 3390SOL    HW121632   2.321   1.547   6.798  0.5905 -0.3216  0.1359
 3390SOL    HW221633   2.255   1.409   6.785 -1.9716  2.4893 -1.2689
 3391SOL     OW21634   2.504   1.751   3.575  0.1871 -0.6041  0.5032
 3391SOL    HW121635   2.423   1.722   3.615 -0.0585 -1.4141 -0.5891
 3391SOL    HW221636   2.461   1.796   3.503 -1.0709 -0.4127  1.3866
 3392SOL     OW21637   0.790   0.493   8.636 -0.1045  0.0810  0.1910
 3392SOL    HW121638   0.877   0.526   8.659 -0.7701  2.1753 -0.2756
 3392SOL    HW221639   0.761   0.559   8.573 -1.0817 -0.2661  0.2713
 3393SOL     OW21640   0.612   3.515   5.086  0.2722  0.5667  0.5000
 3393SOL    HW121641   0.602   3.535   5.179 -3.2728  1.9354 -0.1822
 3393SOL    HW221642   0.586   3.602   5.057  0.2450  0.0067 -1.1710
 3394SOL     OW21643   1.634   3.868   1.810  0.0365 -0.2345 -0.6713
 3394SOL    HW121644   1.703   3.871   1.876 -0.0708  2.5310 -0.6977
 3394SOL    HW221645   1.679   3.899   1.732  2.1359 -5.1705 -1.4709
 3395SOL     OW21646   0.465   3.731   2.859 -0.2974  0.8245 -0.0477
 3395SOL    HW121647   0.436   3.683   2.936 -1.0829  0.6068 -0.4753
 3395SOL    HW221648   0.443   3.667   2.791  0.8798 -1.9996  2.2375
 3396SOL     OW21649   1.832   0.183   8.418 -0.3173 -0.4912 -0.3222
 3396SOL    HW121650   1.769   0.120   8.384 -0.6776 -0.7202  0.7772
 3396SOL    HW221651   1.915   0.138   8.403 -0.7298 -1.6363  0.8766
 3397SOL     OW21652   3.974   0.663   6.176 -0.0487  0.1652  0.1542
 3397SOL    HW121653   4.056   0.615   6.186  1.5853  2.6318 -1.3759
 3397SOL    HW221654   4.007   0.738   6.126 -2.9045  1.1291 -0.2959
 3398SOL     OW21655   0.236   4.368  16.788 -0.2352  0.2133 -0.4026
 3398SOL    HW121656   0.146   4.398  16.780  0.0223  0.3498 -2.8094
 3398SOL    HW221657   0.246   4.363  16.883 -0.8693 -1.7079 -0.4360
 3399SOL     OW21658   2.219   2.831   4.682 -0.7721 -0.3517 -0.6338
 3399SOL    HW121659   2.184   2.852   4.768 -0.1510 -0.8408 -0.2618
 3399SOL    HW221660   2.310   2.847   4.707 -1.1159 -2.3092  1.8366
 3400SOL     OW21661   1.891   3.507  12.419  0.5163 -0.2613 -0.2400
 3400SOL    HW121662   1.970   3.477  12.374  0.9252 -0.5068  0.6269
 3400SOL    HW221663   1.846   3.559  12.353  0.2834  1.8489  1.5954
 3401SOL     OW21664   3.486   1.220   9.821 -0.3733 -0.1773 -0.4516
 3401SOL    HW121665   3.503   1.125   9.826 -0.5320 -0.1070  1.3764
 3401SOL    HW221666   3.401   1.216   9.865  1.8998 -4.1026  3.6468
 3402SOL     OW21667   2.094   0.252  10.661 -0.2035 -0.0864  0.0891
 3402SOL    HW121668   2.120   0.326  10.606 -1.0048  1.3777  1.6714
 3402SOL    HW221669   2.053   0.294  10.737  0.5161 -1.2165  1.1018
 3403SOL     OW21670   2.114   1.016   9.193  0.0614  0.1546  0.2042
 3403SOL    HW121671   2.081   0.933   9.229 -3.2795  1.3596 -0.0594
 3403SOL    HW221672   2.206   1.006   9.218 -0.3941 -2.1092  0.9858
 3404SOL     OW21673   3.892   1.478   2.112  0.3649 -0.1186 -0.2532
 3404SOL    HW121674   3.804   1.442   2.113  0.4647 -0.3514  0.4586
 3404SOL    HW221675   3.945   1.403   2.087  0.6740 -1.0413  3.1358
 3405SOL     OW21676   1.336   4.385  11.010 -0.0591  0.7382  0.1012
 3405SOL    HW121677   1.409   4.391  10.949  0.3109 -1.9462  0.2818
 3405SOL    HW221678   1.342   4.293  11.037  2.2768  1.3698  1.6912
 3406SOL     OW21679   4.137   3.143  11.509  0.0626 -0.2146  0.0151
 3406SOL    HW121680   4.093   3.217  11.550 -0.3026 -0.0690 -0.6337
 3406SOL    HW221681   4.141   3.078  11.578  0.8799  2.7740  2.7756
 3407SOL     OW21682   4.433   0.277  14.527  0.1611 -0.0589  0.3167
 3407SOL    HW121683   4.453   0.184  14.513 -2.3617 -0.1377 -2.8881
 3407SOL    HW221684   4.364   0.292  14.463  0.7432 -1.2430 -0.6036
 3408SOL     OW21685   2.548   3.627  13.127 -0.2547 -0.7003 -0.6088
 3408SOL    HW121686   2.612   3.698  13.135 -0.8360 -0.5013  2.2416
 3408SOL    HW221687   2.599   3.567  13.072 -0.8519 -1.2598 -0.5459
 3409SOL     OW21688   4.445   1.619  12.274  0.5628  0.1433 -0.3246
 3409SOL    HW121689   4.406   1.705  12.291 -1.0926 -0.3175 -1.8102
 3409SOL    HW221690   4.399   1.597  12.193 -0.5113  0.0606  0.3124
 3410SOL     OW21691   4.455   0.191  12.261  0.4004  0.2287 -0.2403
 3410SOL    HW121692   4.529   0.132  12.249 -2.8153 -3.6265 -1.0887
 3410SOL    HW221693   4.429   0.170  12.351  0.1498 -1.7681 -0.7695
 3411SOL     OW21694   1.309   0.196  16.951  0.2444  0.2178 -0.2329
 3411SOL    HW121695   1.278   0.249  17.025  1.9594  2.2952 -1.0045
 3411SOL    HW221696   1.228   0.178  16.903  1.7257  1.0682 -3.0198
 3412SOL     OW21697   0.465   0.511   1.649  0.4828 -0.5091  0.2999
 3412SOL    HW121698   0.502   0.431   1.610  0.2041 -0.9613  0.9543
 3412SOL    HW221699   0.419   0.550   1.574 -0.5384 -2.4431 -0.0826
 3413SOL     OW21700   2.438   1.880   7.325 -0.1050  0.2623 -0.3100
 3413SOL    HW121701   2.352   1.918   7.345 -0.5113 -0.9455  0.2096
 3413SOL    HW221702   2.417   1.803   7.273  0.2804 -1.5161  2.1938
 3414SOL     OW21703   0.029   2.384   1.611 -0.7112 -0.3857  0.4444
 3414SOL    HW121704   0.067   2.299   1.589 -0.4597 -0.8072  2.5625
 3414SOL    HW221705   0.008   2.373   1.703  0.2988 -1.6529  0.5289
 3415SOL     OW21706   3.273   1.527   9.318  0.2586 -0.3692 -0.3109
 3415SOL    HW121707   3.239   1.574   9.242  1.2338 -0.4915 -0.8186
 3415SOL    HW221708   3.352   1.577   9.336  0.7265 -0.5636 -1.8607
 3416SOL     OW21709   2.777   3.365  13.238  0.7074  0.2538  0.1758
 3416SOL    HW121710   2.711   3.409  13.290  0.1385  1.5257 -1.6131
 3416SOL    HW221711   2.771   3.405  13.151 -0.8371  1.2054  0.7232
 3417SOL     OW21712   2.797   4.582  11.579 -0.0392  0.0168 -0.2443
 3417SOL    HW121713   2.730   4.526  11.618  0.0847 -0.3962 -0.6341
 3417SOL    HW221714   2.773   4.667  11.616  0.8493  0.4926 -0.7722
 3418SOL     OW21715   1.408   4.510   8.028  0.0508 -0.0592  0.1083
 3418SOL    HW121716   1.425   4.528   8.120 -2.9605 -0.0323  0.6800
 3418SOL    HW221717   1.370   4.597   8.011 -0.7289 -0.5195 -0.5317
 3419SOL     OW21718   1.911   0.589   8.518 -0.0454 -0.4270 -0.0388
 3419SOL    HW121719   1.841   0.559   8.576 -0.8292 -0.3135 -0.9285
 3419SOL    HW221720   1.898   0.683   8.532 -0.4420 -0.9485  2.9794
 3420SOL     OW21721   3.107   0.308  15.462 -0.0187 -0.4942  0.4575
 3420SOL    HW121722   3.078   0.231  15.412  0.8595  0.7200 -1.9503
 3420SOL    HW221723   3.113   0.269  15.549 -0.4823  2.3668  1.7475
 3421SOL     OW21724   4.082   3.555  15.652 -0.0039  0.0748  0.2236
 3421SOL    HW121725   4.031   3.514  15.582  0.1334 -1.6052  1.1208
 3421SOL    HW221726   4.164   3.506  15.646 -0.1042 -0.3190  2.0148
 3422SOL     OW21727   0.383   0.372   4.427  0.1313  0.5885 -0.8280
 3422SOL    HW121728   0.405   0.374   4.520 -0.5065  2.5285 -0.7039
 3422SOL    HW221729   0.456   0.413   4.380 -0.8975  0.7211 -2.3146
 3423SOL     OW21730   2.062   2.293   3.452 -0.3783 -0.2001  0.1319
 3423SOL    HW121731   2.074   2.315   3.544 -1.7784 -2.0232  0.7449
 3423SOL    HW221732   2.140   2.335   3.415 -1.6714  1.4415 -0.7336
 3424SOL     OW21733   3.659   1.687   6.558  0.0119  0.3601  0.0913
 3424SOL    HW121734   3.625   1.638   6.633 -3.0277  0.3469 -1.3045
 3424SOL    HW221735   3.708   1.622   6.508  0.4152  2.5970 -2.3930
 3425SOL     OW21736   4.525   1.332   3.872  0.1775 -0.3485 -0.0264
 3425SOL    HW121737   4.620   1.338   3.859  0.3012 -2.2730  0.0326
 3425SOL    HW221738   4.519   1.238   3.858  0.5208 -0.2447 -0.8795
 3426SOL     OW21739   3.497   3.379   7.944 -0.6938  0.4904  0.1914
 3426SOL    HW121740   3.489   3.417   8.032 -0.1647  2.6245 -0.6944
 3426SOL    HW221741   3.410   3.341   7.935  0.1344 -1.1078 -1.1184
 3427SOL     OW21742   4.506   3.242  16.366 -0.0749 -0.3098 -0.4097
 3427SOL    HW121743   4.440   3.278  16.306 -0.6075  1.9843  1.5220
 3427SOL    HW221744   4.584   3.267  16.318 -0.2223 -0.6653 -0.8348
 3428SOL     OW21745   2.118   0.782  14.526 -0.2144 -0.3599 -0.5016
 3428SOL    HW121746   2.068   0.706  14.497 -0.1021 -0.6951  0.1881
 3428SOL    HW221747   2.050   0.820  14.580 -0.4990  0.5446 -1.4925
 3429SOL     OW21748   2.037   0.437   7.372  0.1234  0.2740 -0.4479
 3429SOL    HW121749   1.991   0.394   7.444  1.8564  2.1878  1.8111
 3429SOL    HW221750   2.121   0.393   7.384 -0.1092 -0.2186 -0.6153
 3430SOL     OW21751   1.706   2.592   7.265 -0.0345  0.4666  0.4975
 3430SOL    HW121752   1.615   2.563   7.270 -0.4448  1.3135 -1.9983
 3430SOL    HW221753   1.753   2.513   7.292  0.0898  0.3668 -0.0213
 3431SOL     OW21754   1.306   2.966   3.981 -0.3474  0.2874  0.2105
 3431SOL    HW121755   1.229   3.004   3.939  0.9111  0.2208 -2.1754
 3431SOL    HW221756   1.379   3.025   3.965 -1.0313  1.2644  0.6698
 3432SOL     OW21757   1.923   2.661   5.553  0.6983 -0.2179 -0.3360
 3432SOL    HW121758   2.012   2.667   5.587  0.9586  0.4812 -1.1217
 3432SOL    HW221759   1.936   2.635   5.461 -0.2382 -0.8477 -0.2915
 3433SOL     OW21760   0.179   1.986   2.665 -0.1685 -0.0199 -0.4319
 3433SOL    HW121761   0.197   1.964   2.574 -1.5609 -1.0255 -0.4734
 3433SOL    HW221762   0.154   2.078   2.667  0.6627  0.1809  0.9419
 3434SOL     OW21763   4.431   3.557   8.977  0.1715 -0.0836 -0.1126
 3434SOL    HW121764   4.498   3.499   8.940  0.7539  1.8849 -2.1119
 3434SOL    HW221765   4.398   3.614   8.908 -1.9955  0.2075  1.1673
 3435SOL     OW21766   2.041   3.772  12.772  0.5423 -0.0072  0.5022
 3435SOL    HW121767   2.124   3.803  12.808 -0.0816  1.2273  0.8732
 3435SOL    HW221768   2.016   3.831  12.701  0.2674 -0.9240 -0.1695
 3436SOL     OW21769   4.182   2.448   7.938 -0.6059  0.7117  0.0131
 3436SOL    HW121770   4.091   2.448   7.968 -0.4429  0.4113  0.5040
 3436SOL    HW221771   4.226   2.531   7.961  1.9326 -0.9860  1.2564
 3437SOL     OW21772   2.653   4.286   1.084 -0.5446 -0.4910 -0.0890
 3437SOL    HW121773   2.712   4.301   1.009  1.3458  0.9924  1.7071
 3437SOL    HW221774   2.700   4.238   1.152 -0.1521 -1.0879 -0.7747
 3438SOL     OW21775   2.342   2.113   6.399  0.1727  0.5890 -0.1894
 3438SOL    HW121776   2.269   2.161   6.437 -0.7154 -1.1072  0.2476
 3438SOL    HW221777   2.307   2.024   6.398  1.2708  0.1591 -1.7941
 3439SOL     OW21778   0.275   0.381   5.597  0.0679  1.3692  0.1844
 3439SOL    HW121779   0.301   0.289   5.592  1.3172  1.8862 -2.9199
 3439SOL    HW221780   0.341   0.417   5.538 -0.8668  2.8869  0.0881
 3440SOL     OW21781   1.421   0.805   7.300  0.0269 -0.0340 -0.3005
 3440SOL    HW121782   1.367   0.795   7.378  0.7906 -1.8752  0.0046
 3440SOL    HW221783   1.430   0.711   7.286 -0.1621 -0.5018  2.8803
 3441SOL     OW21784   0.093   0.667   3.632  0.2969  0.2429  0.2060
 3441SOL    HW121785   0.096   0.742   3.572 -1.0026 -1.0634 -1.5121
 3441SOL    HW221786   0.015   0.683   3.684  0.0114 -0.6009  0.0382
 3442SOL     OW21787   2.522   0.181  15.045 -0.5831  0.4607  0.2878
 3442SOL    HW121788   2.549   0.270  15.023 -0.4406  0.7298  1.5826
 3442SOL    HW221789   2.480   0.158  14.962 -1.4721 -1.2436  1.2121
 3443SOL     OW21790   0.463   4.356   4.109 -0.3349  0.3245 -0.0949
 3443SOL    HW121791   0.371   4.370   4.086  0.0964  1.5051 -1.0999
 3443SOL    HW221792   0.472   4.440   4.154 -0.1204  1.0284 -1.4569
 3444SOL     OW21793   1.712   3.405   2.538 -0.0021  0.7253 -1.1621
 3444SOL    HW121794   1.687   3.455   2.616 -1.3111 -2.0499  0.2194
 3444SOL    HW221795   1.755   3.328   2.576 -2.0897 -0.4036 -1.0797
 3445SOL     OW21796   1.846   4.205   7.535  0.0143 -0.3379  0.9142
 3445SOL    HW121797   1.852   4.233   7.626  0.3006 -1.5242  1.2643
 3445SOL    HW221798   1.938   4.189   7.515 -0.8215 -0.1132 -3.0916
 3446SOL     OW21799   1.176   1.803   9.558 -0.4156 -0.1274  0.5248
 3446SOL    HW121800   1.248   1.823   9.498  1.7554 -1.3155  2.7474
 3446SOL    HW221801   1.105   1.816   9.494  0.6202 -1.9755 -0.9963
 3447SOL     OW21802   1.134   0.652   7.882  0.0894  0.2479  0.4631
 3447SOL    HW121803   1.143   0.558   7.900  0.1858 -0.1077 -1.4751
 3447SOL    HW221804   1.094   0.686   7.963  0.9937 -2.6070  2.0996
 3448SOL     OW21805   3.110   1.802   3.113  0.4302  0.4057 -0.5325
 3448SOL    HW121806   3.157   1.794   3.196 -1.9688  0.4616  0.8317
 3448SOL    HW221807   3.141   1.720   3.073 -3.3745 -0.8409 -0.9742
 3449SOL     OW21808   2.192   0.036  11.328  0.6151  0.0725 -0.0963
 3449SOL    HW121809   2.213   4.684  11.271 -0.0314  0.4262 -0.7986
 3449SOL    HW221810   2.096   0.036  11.326  0.6600  0.3325 -1.5815
 3450SOL     OW21811   0.671   1.703   4.512 -0.2480  0.2741 -0.1097
 3450SOL    HW121812   0.589   1.722   4.559  1.0360  1.5053  1.6444
 3450SOL    HW221813   0.670   1.607   4.508  3.3854  0.1917  1.2588
 3451SOL     OW21814   3.789   2.751  15.011  0.3675  0.0056  0.2917
 3451SOL    HW121815   3.705   2.796  15.008 -0.4643 -1.4891  1.2860
 3451SOL    HW221816   3.764   2.677  15.066 -1.8615 -0.8112 -1.8160
 3452SOL     OW21817   4.064   1.668   9.097 -0.0942 -0.1118 -0.1833
 3452SOL    HW121818   4.051   1.614   9.175  2.1894  1.8728  1.5743
 3452SOL    HW221819   4.159   1.654   9.092 -0.0524 -0.4402  1.6013
 3453SOL     OW21820   1.396   1.283   7.280  0.0040  0.2144 -0.6084
 3453SOL    HW121821   1.393   1.231   7.200  0.4102  0.8630 -1.0455
 3453SOL    HW221822   1.366   1.366   7.244  0.0808 -0.1875 -1.6131
 3454SOL     OW21823   1.940   4.066   3.881  0.5811 -0.4865 -0.1717
 3454SOL    HW121824   1.848   4.042   3.869  0.2013  0.8811 -0.0078
 3454SOL    HW221825   1.963   4.000   3.947  0.0707  0.1879  0.6714
 3455SOL     OW21826   2.742   1.562   3.495  0.0842 -0.2847  0.3877
 3455SOL    HW121827   2.740   1.592   3.404  0.6309  2.5272  1.3068
 3455SOL    HW221828   2.674   1.620   3.529 -1.0335 -0.5147 -1.3937
 3456SOL     OW21829   3.077   3.152  14.899 -0.0805 -0.5138 -0.2289
 3456SOL    HW121830   2.998   3.183  14.945 -0.3572 -0.1608 -0.9525
 3456SOL    HW221831   3.120   3.237  14.894  2.6021 -1.9454 -1.0286
 3457SOL     OW21832   1.094   4.488  12.279 -0.4241  0.3111  0.1308
 3457SOL    HW121833   1.141   4.456  12.356  0.0820 -2.3771 -1.3264
 3457SOL    HW221834   1.037   4.550  12.325 -2.0903 -1.8893  1.0082
 3458SOL     OW21835   1.871   3.449  13.438 -0.4268  0.2520  0.2746
 3458SOL    HW121836   1.946   3.508  13.441 -0.9997  0.9594  0.8492
 3458SOL    HW221837   1.876   3.392  13.361 -3.8366 -2.4891  2.1125
 3459SOL     OW21838   1.613   3.971   7.066  0.0004 -0.1598 -0.0179
 3459SOL    HW121839   1.658   4.011   7.140 -0.0168 -1.3624  0.6462
 3459SOL    HW221840   1.678   3.925   7.013  1.0062  1.3309 -0.0821
 3460SOL     OW21841   1.087   2.453   4.773  0.2498  0.2789 -0.6375
 3460SOL    HW121842   1.040   2.417   4.698 -0.5240 -1.3055  0.5903
 3460SOL    HW221843   1.021   2.476   4.838  1.1108  0.2863  0.2474
 3461SOL     OW21844   3.958   1.598   3.308 -0.1066  0.2019 -0.1737
 3461SOL    HW121845   3.971   1.526   3.370 -0.3942 -1.8312 -2.4908
 3461SOL    HW221846   3.995   1.553   3.232 -2.0357  1.3248 -1.7599
 3462SOL     OW21847   4.445   2.786  15.729  0.2638  0.4373 -0.7681
 3462SOL    HW121848   4.354   2.758  15.727  0.1880  0.8067 -2.6550
 3462SOL    HW221849   4.478   2.706  15.688 -1.4186 -0.4746 -0.3322
 3463SOL     OW21850   1.608   0.398  15.383 -0.6380 -0.7179 -0.3403
 3463SOL    HW121851   1.585   0.476  15.332  1.0809 -0.2360 -0.3902
 3463SOL    HW221852   1.677   0.360  15.328 -1.0917 -3.2823  0.8695
 3464SOL     OW21853   2.613   3.471  16.330  0.0916  0.0228 -0.3950
 3464SOL    HW121854   2.575   3.466  16.418  0.4020 -0.5563 -0.2913
 3464SOL    HW221855   2.566   3.550  16.304  1.6126  0.4442 -1.8168
 3465SOL     OW21856   3.314   4.538  11.167 -0.6764 -0.6540 -0.1855
 3465SOL    HW121857   3.270   4.604  11.113  1.6359  1.4559  0.5232
 3465SOL    HW221858   3.349   4.477  11.102  1.5445  0.1520  0.2681
 3466SOL     OW21859   2.318   4.606   2.157  0.3601  0.1618  0.0999
 3466SOL    HW121860   2.401   4.592   2.112  0.2659 -0.8557  0.2302
 3466SOL    HW221861   2.294   4.694   2.130 -0.1760  0.1884  0.6441
 3467SOL     OW21862   2.673   3.051   5.232 -0.4383 -0.2992 -0.3649
 3467SOL    HW121863   2.706   3.133   5.195  0.8738  0.4428  2.4790
 3467SOL    HW221864   2.578   3.066   5.226 -0.2542  0.7906 -0.6267
 3468SOL     OW21865   4.032   2.502   6.760  0.1270 -0.4473 -0.0366
 3468SOL    HW121866   4.091   2.428   6.749  1.0383  0.2789 -0.0488
 3468SOL    HW221867   3.951   2.468   6.798  0.1250  1.7314  1.8590
 3469SOL     OW21868   1.831   3.643  12.968  0.1038 -0.0408  0.4421
 3469SOL    HW121869   1.770   3.673  12.900  0.8886 -0.2218 -0.3464
 3469SOL    HW221870   1.881   3.723  12.981 -1.0921  1.3373 -3.4399
 3470SOL     OW21871   1.034   2.208  17.217 -0.3437  0.4581 -0.6080
 3470SOL    HW121872   1.045   2.128  17.167 -0.9710 -0.2958  0.4459
 3470SOL    HW221873   0.945   2.228  17.191 -0.5812 -0.0413 -0.1945
 3471SOL     OW21874   3.037   2.164   4.728  0.0857 -0.1518 -0.3088
 3471SOL    HW121875   3.115   2.203   4.690  1.4813 -1.1315  1.5274
 3471SOL    HW221876   3.026   2.226   4.800 -0.5684 -2.0538  1.2305
 3472SOL     OW21877   4.394   1.719  11.146  0.0949 -0.8228  0.2664
 3472SOL    HW121878   4.302   1.726  11.171  0.2978 -0.0085  0.8084
 3472SOL    HW221879   4.393   1.624  11.134 -0.6792 -1.0189  1.8941
 3473SOL     OW21880   2.604   0.315  12.798  0.3517 -0.9710 -0.5764
 3473SOL    HW121881   2.515   0.346  12.778 -0.5968 -3.0680  0.3223
 3473SOL    HW221882   2.633   0.299  12.708  0.0373 -1.6481 -0.5616
 3474SOL     OW21883   1.881   3.957  13.031 -0.0711 -0.5836  0.0053
 3474SOL    HW121884   1.937   3.958  13.109 -1.5498  1.2660  1.0504
 3474SOL    HW221885   1.842   4.045  13.035  1.0595 -0.1195  1.2197
 3475SOL     OW21886   2.362   2.855   6.691 -0.4956  0.5585  0.0056
 3475SOL    HW121887   2.359   2.943   6.653  1.2580  0.5396 -0.1847
 3475SOL    HW221888   2.455   2.848   6.712 -0.7338 -0.6341  0.6427
 3476SOL     OW21889   2.995   2.090   6.542  0.5519  0.5539  0.4544
 3476SOL    HW121890   3.088   2.074   6.527 -0.2567 -1.8051 -1.8559
 3476SOL    HW221891   2.964   2.108   6.454 -1.9870 -0.5744  1.1173
 3477SOL     OW21892   1.942   0.532   3.567 -0.1566  0.1784  0.5533
 3477SOL    HW121893   1.965   0.519   3.660  0.2087  0.3487  0.4895
 3477SOL    HW221894   1.991   0.456   3.535  1.4543  1.0697  0.8695
 3478SOL     OW21895   3.006   4.379  10.917 -0.4067 -0.3769  0.4288
 3478SOL    HW121896   2.979   4.448  10.856  0.6956 -0.4335 -0.1192
 3478SOL    HW221897   3.033   4.311  10.854  0.8337 -0.3396  0.9270
 3479SOL     OW21898   1.523   2.423   6.051 -0.0481 -0.3282  0.6221
 3479SOL    HW121899   1.491   2.338   6.021 -0.4500  0.5102 -1.3333
 3479SOL    HW221900   1.455   2.445   6.115 -0.8529  0.0405 -0.3755
 3480SOL     OW21901   1.278   0.077   3.172  0.2368 -0.2290  0.3378
 3480SOL    HW121902   1.322   0.134   3.109  0.8117 -1.9631 -0.8305
 3480SOL    HW221903   1.286   0.134   3.248  1.9964  0.2727 -0.2147
 3481SOL     OW21904   0.085   1.865   4.490  0.3074  0.5615  0.0435
 3481SOL    HW121905   0.116   1.780   4.459 -0.9046 -0.4962  1.7497
 3481SOL    HW221906   4.714   1.856   4.508  0.2094  0.4241 -0.5150
 3482SOL     OW21907   2.973   4.065   1.977  0.4598 -0.1548 -0.2132
 3482SOL    HW121908   2.908   4.123   1.938  1.7944  0.0767 -2.0892
 3482SOL    HW221909   2.931   3.985   1.947  0.7056 -0.5018  0.3685
 3483SOL     OW21910   1.586   4.707   4.933  0.2943 -0.0153 -0.2937
 3483SOL    HW121911   1.516   4.693   4.870 -0.3870 -0.3202  0.5227
 3483SOL    HW221912   1.563   4.634   4.991  0.8598  1.0240  1.2417
 3484SOL     OW21913   4.374   4.005   2.097 -0.2407 -0.1767 -0.0361
 3484SOL    HW121914   4.395   4.003   2.004  1.1778  1.4266  0.2495
 3484SOL    HW221915   4.452   4.049   2.132 -0.0220  0.1551 -0.9451
 3485SOL     OW21916   4.716   3.599  16.809  0.4563  0.3510 -0.6022
 3485SOL    HW121917   4.693   3.679  16.858 -1.0392 -0.7738  0.5368
 3485SOL    HW221918   4.721   3.641  16.723 -2.2342  0.5772 -0.6549
 3486SOL     OW21919   3.597   4.271   1.886  0.0439  0.6726 -0.4127
 3486SOL    HW121920   3.588   4.275   1.982  0.8876 -0.0404 -0.3108
 3486SOL    HW221921   3.640   4.354   1.868 -0.6071  1.2036  0.4408
 3487SOL     OW21922   1.176   1.550   5.773 -0.5393  0.2720  0.0833
 3487SOL    HW121923   1.177   1.487   5.844 -2.3693 -1.7851 -1.7365
 3487SOL    HW221924   1.100   1.525   5.721 -0.3043 -0.3510  0.0401
 3488SOL     OW21925   2.529   2.123   7.819 -0.2834  0.3033  0.0164
 3488SOL    HW121926   2.491   2.187   7.880 -1.2118 -0.8043  0.6190
 3488SOL    HW221927   2.567   2.181   7.754  0.4833  1.2023  1.2584
 3489SOL     OW21928   3.758   0.561   4.390  0.0970 -0.1777 -0.2551
 3489SOL    HW121929   3.741   0.471   4.360  3.0784 -1.7991  2.9393
 3489SOL    HW221930   3.670   0.587   4.414 -0.6243 -1.3099 -1.6628
 3490SOL     OW21931   1.984   0.112  13.953 -0.5166  0.3256  0.4636
 3490SOL    HW121932   2.020   0.136  14.039  1.6376 -0.6820 -0.1666
 3490SOL    HW221933   1.979   0.019  13.972 -0.4477 -0.1943 -2.0342
 3491SOL     OW21934   1.178   3.532   2.585 -0.4044  0.0129  0.4621
 3491SOL    HW121935   1.114   3.507   2.519 -1.5849  1.9913  0.8911
 3491SOL    HW221936   1.241   3.570   2.524  0.0101 -0.7966  0.3806
 3492SOL     OW21937   4.363   0.000   3.633 -0.0484  0.3688 -0.0268
 3492SOL    HW121938   4.272   4.707   3.605 -0.4073  2.8980 -0.1940
 3492SOL    HW221939   4.368   4.690   3.723  2.8616  2.2278  0.4753
 3493SOL     OW21940   3.453   3.139  17.445  0.4878  0.5165  0.5249
 3493SOL    HW121941   3.495   3.204  17.502  0.9639 -0.7598  1.6454
 3493SOL    HW221942   3.388   3.097  17.501  0.8604  1.2257  1.4948
 3494SOL     OW21943   4.110   0.490  15.657 -0.4141  0.4088 -0.6162
 3494SOL    HW121944   4.117   0.455  15.569  1.6538 -1.8128  0.4512
 3494SOL    HW221945   4.119   0.583  15.635  2.0444  0.3363  0.1500
 3495SOL     OW21946   0.134   4.268   2.268  0.0299 -0.4595  0.1751
 3495SOL    HW121947   0.131   4.317   2.186  0.4997 -2.5153 -1.0661
 3495SOL    HW221948   0.109   4.180   2.241 -0.5880 -0.5135  0.9396
 3496SOL     OW21949   3.827   1.111  12.752 -0.4685  0.7619 -0.2076
 3496SOL    HW121950   3.737   1.136  12.776 -1.1374 -3.3881  1.6042
 3496SOL    HW221951   3.811   1.092  12.660 -1.9629 -1.2584  0.4619
 3497SOL     OW21952   1.281   0.531  13.779  0.1392  0.2631  1.2001
 3497SOL    HW121953   1.210   0.596  13.782  0.4506  0.6507  0.1525
 3497SOL    HW221954   1.357   0.574  13.818  2.1140 -0.9481 -1.3455
 3498SOL     OW21955   4.179   0.325  15.863 -0.5128 -0.4010 -0.3514
 3498SOL    HW121956   4.226   0.264  15.806 -1.9713 -0.0734 -1.9208
 3498SOL    HW221957   4.150   0.385  15.794  1.1158  0.3737 -0.3645
 3499SOL     OW21958   1.923   3.535   7.464  0.2128 -0.3640  0.8494
 3499SOL    HW121959   1.850   3.564   7.410  1.5966  0.2715 -0.6796
 3499SOL    HW221960   1.931   3.441   7.447  1.4541 -0.4348  1.7634
 3500SOL     OW21961   3.986   4.519   7.108  0.1476  0.1287 -0.5477
 3500SOL    HW121962   3.927   4.559   7.171 -1.1367  0.2296 -1.8035
 3500SOL    HW221963   4.054   4.489   7.168  0.2440 -1.8390 -1.6282
 3501SOL     OW21964   3.112   0.495   2.180  0.1788  0.5902 -0.0825
 3501SOL    HW121965   3.040   0.550   2.212 -0.3241 -0.2090  0.1658
 3501SOL    HW221966   3.179   0.526   2.241 -1.1186  0.4312  1.4325
 3502SOL     OW21967   3.762   3.090   5.219 -0.5051 -0.3512 -0.1101
 3502SOL    HW121968   3.748   3.174   5.262  1.3132 -0.4346  0.6405
 3502SOL    HW221969   3.677   3.081   5.176  0.6812 -1.9490 -2.0874
 3503SOL     OW21970   0.129   3.249   9.451  0.4263 -0.3053 -0.7022
 3503SOL    HW121971   0.092   3.168   9.415  1.6227 -1.7918  1.4088
 3503SOL    HW221972   0.171   3.223   9.533  0.0911 -0.5223 -0.5989
 3504SOL     OW21973   4.432   4.641   3.164  0.2789  0.4663 -0.2386
 3504SOL    HW121974   4.508   4.693   3.136  0.7174 -0.5730 -0.9562
 3504SOL    HW221975   4.419   4.675   3.252 -0.5633 -0.7902  0.1203
 3505SOL     OW21976   2.791   2.636  13.818 -0.2101  0.1929  0.1091
 3505SOL    HW121977   2.803   2.660  13.726 -0.9620 -1.7354 -0.5103
 3505SOL    HW221978   2.719   2.692  13.846  0.2430 -0.4214  2.4579
 3506SOL     OW21979   0.252   2.808   3.320 -0.0162  0.1787 -0.3518
 3506SOL    HW121980   0.247   2.712   3.316 -0.6913  0.1846  0.2949
 3506SOL    HW221981   0.316   2.833   3.254 -1.0584  1.5363 -0.8383
 3507SOL     OW21982   0.663   1.932   7.762  0.1710  0.1130  0.0872
 3507SOL    HW121983   0.731   1.984   7.718  2.5863 -2.3680  0.8488
 3507SOL    HW221984   0.693   1.935   7.852 -1.1157 -0.0518  0.5141
 3508SOL     OW21985   1.830   0.227  10.480 -0.1796 -0.2263  0.3452
 3508SOL    HW121986   1.820   0.149  10.426  1.4614 -0.7756  0.8522
 3508SOL    HW221987   1.877   0.282  10.418  1.1236  0.6338  2.0842
 3509SOL     OW21988   3.962   3.804   6.033  0.5602  0.1020 -0.6670
 3509SOL    HW121989   3.992   3.777   5.946 -1.6596 -1.6252 -0.8957
 3509SOL    HW221990   4.025   3.869   6.065 -0.2995  0.6328 -0.0431
 3510SOL     OW21991   4.312   2.485   9.118 -0.8130  0.2159 -0.5563
 3510SOL    HW121992   4.350   2.536   9.048 -1.2501  1.1161 -0.1412
 3510SOL    HW221993   4.250   2.548   9.155 -1.8808 -2.2730  1.9796
 3511SOL     OW21994   4.293   1.714  10.495 -0.4160  0.1234 -0.1319
 3511SOL    HW121995   4.340   1.788  10.535  0.4413 -0.0367 -0.8520
 3511SOL    HW221996   4.278   1.743  10.406  1.5861 -2.0366 -1.1785
 3512SOL     OW21997   4.227   2.969   8.693 -0.1379 -0.2526  0.0958
 3512SOL    HW121998   4.322   2.979   8.687  0.0079 -2.1618 -0.8979
 3512SOL    HW221999   4.209   3.025   8.768 -0.7891  1.1647 -1.1027
 3513SOL     OW22000   1.577   3.306   7.657 -0.0966  0.3508 -0.2520
 3513SOL    HW122001   1.545   3.220   7.629  0.1128  1.0177 -2.5690
 3513SOL    HW222002   1.588   3.295   7.751  0.1418 -2.3340 -0.6130
 3514SOL     OW22003   2.413   1.344  14.116  0.0050  0.8268  0.1620
 3514SOL    HW122004   2.360   1.383  14.047 -0.8472  0.9626  0.8889
 3514SOL    HW222005   2.423   1.250  14.099  2.6858  0.8922  1.3866
 3515SOL     OW22006   2.463   4.007  11.388  0.2963  0.1774  0.5371
 3515SOL    HW122007   2.399   3.937  11.373  1.7279 -1.0520  0.1657
 3515SOL    HW222008   2.463   4.017  11.483 -0.7755  0.0639  0.5529
 3516SOL     OW22009   1.430   0.909   5.813 -0.0388  0.1791  0.1138
 3516SOL    HW122010   1.448   0.818   5.838 -0.4435  0.2983  0.8273
 3516SOL    HW222011   1.502   0.932   5.754 -0.4277  0.2768 -0.3152
 3517SOL     OW22012   0.139   4.702   8.736 -1.0373  0.7525 -0.4485
 3517SOL    HW122013   0.224   4.707   8.779 -0.7772  1.7409 -1.0663
 3517SOL    HW222014   0.168   4.706   8.644  0.1836  1.3474 -0.0460
 3518SOL     OW22015   0.545   4.330   7.285  0.4808  0.4959  0.0812
 3518SOL    HW122016   0.499   4.414   7.285  2.0450  1.3490  0.7070
 3518SOL    HW222017   0.530   4.304   7.194 -1.2487  1.4761  0.0699
 3519SOL     OW22018   0.378   2.800  16.797 -0.8646  0.2461  0.1760
 3519SOL    HW122019   0.449   2.739  16.774 -0.0239  1.2301  0.1524
 3519SOL    HW222020   0.323   2.796  16.719 -0.6582 -1.1608  0.1037
 3520SOL     OW22021   0.452   1.643   5.371  0.4773  0.6689  0.0985
 3520SOL    HW122022   0.547   1.642   5.362  0.7336  1.2216  2.5517
 3520SOL    HW222023   0.430   1.577   5.305  1.0805 -0.2109  0.7815
 3521SOL     OW22024   2.562   1.201  16.668 -0.1948  0.5105  0.3471
 3521SOL    HW122025   2.622   1.222  16.739 -0.6039 -1.9559  1.4264
 3521SOL    HW222026   2.563   1.105  16.671  1.5373  0.4220 -2.5080
 3522SOL     OW22027   2.557   0.729  14.481  0.2142 -0.1382  0.2262
 3522SOL    HW122028   2.489   0.748  14.416  1.3013  0.4423 -0.7266
 3522SOL    HW222029   2.523   0.761  14.565 -0.4427 -1.3149  0.4173
 3523SOL     OW22030   0.807   0.481   1.295  0.0597 -0.5676  0.0864
 3523SOL    HW122031   0.722   0.526   1.304 -1.1653 -3.1431  1.3596
 3523SOL    HW222032   0.848   0.485   1.381  2.8809  1.3904 -1.3390
 3524SOL     OW22033   0.893   3.354  10.216 -0.2812  0.4142 -0.4727
 3524SOL    HW122034   0.836   3.285  10.184 -0.6933 -0.1169  1.3598
 3524SOL    HW222035   0.980   3.328  10.185 -0.1382  0.6558 -0.2832
 3525SOL     OW22036   4.349   2.283   1.473 -0.0859  0.2755 -0.2797
 3525SOL    HW122037   4.333   2.226   1.398 -0.4779  0.8641 -0.6393
 3525SOL    HW222038   4.365   2.359   1.417  1.9798  0.4686  0.5608
 3526SOL     OW22039   1.313   2.378  11.612 -0.0050  0.2877 -0.2182
 3526SOL    HW122040   1.394   2.333  11.633 -0.4092 -0.1751  0.3458
 3526SOL    HW222041   1.253   2.308  11.639 -0.6696  0.1358 -2.0362
 3527SOL     OW22042   3.133   0.549   5.015  0.4059  0.0862  0.0764
 3527SOL    HW122043   3.172   0.602   4.946 -0.6199 -0.0454 -0.6059
 3527SOL    HW222044   3.077   0.490   4.965  1.2337  1.1433 -2.0627
 3528SOL     OW22045   3.806   3.062  14.727  0.0464 -0.0061  0.3032
 3528SOL    HW122046   3.750   3.044  14.651 -1.2950  2.3639  0.7095
 3528SOL    HW222047   3.849   3.146  14.711  1.5866 -0.9451 -0.4739
 3529SOL     OW22048   1.669   4.182  10.894 -0.1842  0.6851 -0.5851
 3529SOL    HW122049   1.606   4.243  10.853 -0.8071  0.3423 -0.1449
 3529SOL    HW222050   1.743   4.185  10.835  0.8912  3.7398  0.8769
 3530SOL     OW22051   1.137   3.668   9.401 -0.2773  0.2209  0.0954
 3530SOL    HW122052   1.191   3.648   9.325 -0.3096 -1.2311  0.4637
 3530SOL    HW222053   1.058   3.698   9.356 -0.2187  2.1433  1.2748
 3531SOL     OW22054   0.926   1.813  11.701 -0.3688  0.1353  0.3613
 3531SOL    HW122055   0.888   1.756  11.634 -1.4031  0.3574  0.7489
 3531SOL    HW222056   1.010   1.773  11.721 -0.8153 -0.6741  0.6345
 3532SOL     OW22057   4.237   1.256   5.628  0.8841 -0.2036  0.2040
 3532SOL    HW122058   4.184   1.290   5.700  0.3497 -1.4826  0.4164
 3532SOL    HW222059   4.252   1.332   5.572  0.0723  1.0527  1.6937
 3533SOL     OW22060   4.556   3.930   6.616  0.0993 -0.0938  0.2060
 3533SOL    HW122061   4.511   3.897   6.538 -0.5601  0.0151  0.5363
 3533SOL    HW222062   4.530   3.863   6.680  0.0261 -0.2292  0.0354
 3534SOL     OW22063   0.569   1.965   7.322 -0.0330  0.3253 -0.6603
 3534SOL    HW122064   0.581   2.058   7.307 -0.5147  0.4467 -0.3078
 3534SOL    HW222065   0.485   1.956   7.368  1.0917  0.4756  1.4410
 3535SOL     OW22066   0.724   4.606   9.694 -0.0941  0.4670 -0.1214
 3535SOL    HW122067   0.675   4.660   9.632 -0.1092 -0.3177 -0.7935
 3535SOL    HW222068   0.661   4.537   9.716 -0.2442  0.6450  0.0151
 3536SOL     OW22069   1.795   2.560  11.080  0.5540 -0.6624  0.7010
 3536SOL    HW122070   1.843   2.540  11.000 -0.3785  1.7587 -0.4788
 3536SOL    HW222071   1.798   2.656  11.082  0.3472 -0.6894  2.4234
 3537SOL     OW22072   0.345   0.769   1.709 -0.0730  0.3067 -0.0150
 3537SOL    HW122073   0.258   0.801   1.687 -0.0557 -0.7291 -1.5770
 3537SOL    HW222074   0.344   0.767   1.805 -3.0932  0.6199 -0.0476
 3538SOL     OW22075   1.606   0.651   7.812 -0.4284 -0.3569 -0.3669
 3538SOL    HW122076   1.652   0.701   7.879 -1.4978 -0.0150  0.1113
 3538SOL    HW222077   1.521   0.694   7.808 -0.8425 -0.9135  2.5057
 3539SOL     OW22078   2.388   3.633   3.671  0.0375 -0.2777 -0.4287
 3539SOL    HW122079   2.412   3.645   3.763 -0.3528 -1.8510 -0.1333
 3539SOL    HW222080   2.334   3.710   3.652  1.9402  0.3613 -3.2532
 3540SOL     OW22081   0.509   3.012   3.650 -0.1008  0.1570 -0.2171
 3540SOL    HW122082   0.462   2.929   3.662  2.3128 -1.0179  1.2983
 3540SOL    HW222083   0.525   3.007   3.556  1.2261 -0.5882  0.0480
 3541SOL     OW22084   0.149   0.277   5.329 -0.3157  0.8006 -0.3810
 3541SOL    HW122085   0.058   0.279   5.360 -0.0507 -0.2188  0.4417
 3541SOL    HW222086   0.154   0.188   5.295 -0.2481 -0.5063  3.0446
 3542SOL     OW22087   0.363   1.399   6.216  0.0206 -0.3234  0.3792
 3542SOL    HW122088   0.447   1.443   6.202  0.6417 -1.5861  0.1536
 3542SOL    HW222089   0.312   1.433   6.143 -0.6176 -0.0749  0.9378
 3543SOL     OW22090   4.341   1.348  11.369  0.3208  0.1486 -0.1680
 3543SOL    HW122091   4.351   1.397  11.287 -1.4127 -0.4863 -0.7555
 3543SOL    HW222092   4.430   1.314  11.379 -1.6557 -4.4112  1.5214
 3544SOL     OW22093   2.662   1.064   2.417  0.1606  0.3890 -0.2965
 3544SOL    HW122094   2.615   1.026   2.492 -0.5105  1.0374 -0.3932
 3544SOL    HW222095   2.608   1.033   2.344 -0.8887 -0.6342  0.9033
 3545SOL     OW22096   3.178   2.537  17.172  0.7713 -0.2846  0.0675
 3545SOL    HW122097   3.169   2.621  17.218  0.8914 -0.7703  0.9736
 3545SOL    HW222098   3.104   2.492  17.213 -0.3795  0.6836 -0.9473
 3546SOL     OW22099   4.340   4.653   7.478 -0.3473  0.1292  0.5230
 3546SOL    HW122100   4.348   4.632   7.385  0.8338 -0.1735  0.6910
 3546SOL    HW222101   4.364   4.567   7.513  0.6892 -0.1444 -0.8663
 3547SOL     OW22102   3.321   4.038   6.106  0.0798  0.6570 -0.1217
 3547SOL    HW122103   3.228   4.016   6.112  0.6158 -1.0036  1.9971
 3547SOL    HW222104   3.373   3.964   6.137 -0.4353  0.2680 -0.1879
 3548SOL     OW22105   3.509   1.014   2.454  0.7865 -0.0638 -0.0930
 3548SOL    HW122106   3.502   0.937   2.397 -0.9266 -0.1909  0.2745
 3548SOL    HW222107   3.430   1.062   2.429  0.3408  0.1194  1.7102
 3549SOL     OW22108   1.795   3.459  15.030 -0.4207 -0.5405  0.2207
 3549SOL    HW122109   1.713   3.427  15.067 -1.4631  0.9024 -0.8723
 3549SOL    HW222110   1.823   3.382  14.981 -2.7323 -1.2657  0.0696
 3550SOL     OW22111   0.788   2.051   2.762  0.4350  0.2826 -0.6687
 3550SOL    HW122112   0.863   2.107   2.740 -0.1901  0.5938 -1.9687
 3550SOL    HW222113   0.825   1.964   2.748  1.4518  0.6046  0.0403
 3551SOL     OW22114   0.068   0.153   0.833 -0.2992 -0.3461 -0.0399
 3551SOL    HW122115   0.041   0.209   0.761  0.3483  0.6888  0.5263
 3551SOL    HW222116   0.112   0.078   0.792 -0.7659 -1.0272  0.6988
 3552SOL     OW22117   2.543   4.142  10.747 -0.4174  0.1011  0.1997
 3552SOL    HW122118   2.459   4.134  10.793  0.7761 -2.0537  1.9919
 3552SOL    HW222119   2.595   4.214  10.783  0.2908 -1.2893  1.9426
 3553SOL     OW22120   0.692   3.106   1.705 -0.0319 -0.2963  0.1678
 3553SOL    HW122121   0.753   3.159   1.656 -1.2562  0.2091 -0.7949
 3553SOL    HW222122   0.719   3.118   1.796 -0.5888  0.2788  0.2588
 3554SOL     OW22123   0.317   2.255  12.898  0.6029 -0.1067 -0.2240
 3554SOL    HW122124   0.269   2.290  12.973 -2.3345  1.6136 -2.8919
 3554SOL    HW222125   0.261   2.182  12.872 -0.9796  0.6739  1.0235
 3555SOL     OW22126   3.115   2.306   5.931  0.0314  0.2580 -0.3425
 3555SOL    HW122127   3.125   2.372   5.863 -1.4425  0.3551 -0.4751
 3555SOL    HW222128   3.042   2.337   5.984  0.1831  0.4533 -0.2475
 3556SOL     OW22129   3.330   3.905  11.721 -0.2965 -0.0265  0.4226
 3556SOL    HW122130   3.342   3.827  11.775  3.4940  0.3641  0.1094
 3556SOL    HW222131   3.403   3.951  11.762  0.4509  0.4704 -1.4612
 3557SOL     OW22132   2.988   3.180   4.296 -0.1260 -0.0140 -0.2850
 3557SOL    HW122133   3.015   3.094   4.327 -0.9851  0.8909  2.9855
 3557SOL    HW222134   2.915   3.146   4.244 -0.9284  2.7045 -0.9675
 3558SOL     OW22135   4.488   0.429   9.334 -0.4585  0.0976 -0.1326
 3558SOL    HW122136   4.508   0.467   9.419 -0.5223  2.7658 -1.3115
 3558SOL    HW222137   4.460   0.340   9.356 -0.4670 -0.1097 -0.9953
 3559SOL     OW22138   2.993   2.701  15.014  0.1020 -0.1669  0.1720
 3559SOL    HW122139   2.965   2.659  14.933  0.1305  0.2726 -0.0622
 3559SOL    HW222140   2.907   2.731  15.043  0.3277 -1.5306  2.2902
 3560SOL     OW22141   2.659   0.322   3.242  0.2895 -0.5159  0.3993
 3560SOL    HW122142   2.572   0.357   3.226  0.2620  0.1786  2.1019
 3560SOL    HW222143   2.656   0.261   3.315 -2.5960 -0.2078  0.5336
 3561SOL     OW22144   2.891   0.610   9.679 -0.3794 -0.2662  0.2427
 3561SOL    HW122145   2.830   0.683   9.693  1.0797  1.0995 -0.5266
 3561SOL    HW222146   2.854   0.577   9.596 -2.0615  2.9762 -0.3022
 3562SOL     OW22147   0.542   0.021   9.507  0.1056 -0.3893 -0.6559
 3562SOL    HW122148   0.472   0.052   9.564  2.6520  1.6029  1.3986
 3562SOL    HW222149   0.528   0.081   9.434 -0.3484 -3.1828 -2.8543
 3563SOL     OW22150   1.233   2.335   7.440  0.1467 -0.6798  0.0556
 3563SOL    HW122151   1.250   2.279   7.365  0.0488 -0.8907  0.1924
 3563SOL    HW222152   1.156   2.387   7.418 -0.2206 -2.2083 -2.2683
 3564SOL     OW22153   1.474   4.148   0.912  0.0660  0.0826  0.0848
 3564SOL    HW122154   1.526   4.070   0.928  0.2919 -0.0387 -1.2589
 3564SOL    HW222155   1.407   4.114   0.851  0.8627 -1.8028  0.2654
 3565SOL     OW22156   1.470   3.347   8.440  0.1697  0.1684 -0.1134
 3565SOL    HW122157   1.436   3.379   8.524 -1.8860 -0.7608 -0.5838
 3565SOL    HW222158   1.531   3.416   8.414  0.5888 -0.8038 -1.7224
 3566SOL     OW22159   4.622   1.893   9.372  0.4948 -0.1533  0.0327
 3566SOL    HW122160   4.694   1.866   9.315  1.8949 -0.9897  2.2007
 3566SOL    HW222161   4.590   1.812   9.411 -0.2843  0.2384  0.2082
 3567SOL     OW22162   2.861   0.705   7.311  0.2156 -0.2583  1.2693
 3567SOL    HW122163   2.787   0.685   7.253 -0.0028  0.4907  1.2898
 3567SOL    HW222164   2.806   0.767   7.360 -0.0935 -0.9851  1.8461
 3568SOL     OW22165   3.676   4.677   5.030 -0.6130  0.1255 -0.2547
 3568SOL    HW122166   3.631   0.027   4.987 -0.6331  0.3909  0.2157
 3568SOL    HW222167   3.607   4.622   5.068 -1.6275  1.9642  0.5720
 3569SOL     OW22168   3.177   4.145   8.262 -0.1182  0.1849 -0.1347
 3569SOL    HW122169   3.175   4.137   8.358 -1.5433  0.2567 -0.1463
 3569SOL    HW222170   3.249   4.206   8.246 -0.2437  0.3242 -0.1785
 3570SOL     OW22171   3.630   4.571   1.943  0.4390  0.1515  0.4601
 3570SOL    HW122172   3.571   4.640   1.912  0.7585  0.9517  1.6246
 3570SOL    HW222173   3.695   4.634   1.974  0.5782 -0.6923  1.8741
 3571SOL     OW22174   1.686   3.446   4.745 -0.0604  0.7190 -0.3966
 3571SOL    HW122175   1.758   3.394   4.710  0.7379  1.7988 -0.3425
 3571SOL    HW222176   1.735   3.487   4.815  1.7366  0.3701 -1.4578
 3572SOL     OW22177   3.700   0.965   4.722  0.2609 -0.1901 -0.5379
 3572SOL    HW122178   3.640   0.903   4.680  0.7830 -1.0356 -0.0208
 3572SOL    HW222179   3.691   1.033   4.655 -2.3077 -1.7527 -1.7874
 3573SOL     OW22180   1.053   4.365   5.567 -0.3904  0.2755 -0.2771
 3573SOL    HW122181   0.986   4.298   5.584 -0.1139 -0.4403 -2.0453
 3573SOL    HW222182   1.124   4.305   5.544 -1.1964 -0.0824 -1.8220
 3574SOL     OW22183   3.152   2.158  11.249  0.2374 -0.0522 -0.0813
 3574SOL    HW122184   3.233   2.107  11.244  0.0592 -0.0807 -2.9286
 3574SOL    HW222185   3.150   2.212  11.170  1.9910 -2.3389 -1.6812
 3575SOL     OW22186   0.438   4.195   4.333 -0.2982 -0.3280 -0.4049
 3575SOL    HW122187   0.413   4.116   4.286  1.8298  0.5362 -3.0117
 3575SOL    HW222188   0.439   4.256   4.259  0.8368  0.0329 -0.0993
 3576SOL     OW22189   0.418   0.096   3.679  0.2378 -0.3840 -0.2195
 3576SOL    HW122190   0.404   0.132   3.592  1.8327  1.9560  0.5119
 3576SOL    HW222191   0.486   0.030   3.663  1.8090  0.8970  1.1716
 3577SOL     OW22192   0.965   0.490   0.813 -0.0465 -0.6254  0.1120
 3577SOL    HW122193   1.035   0.495   0.878  0.1672  0.0499 -0.1759
 3577SOL    HW222194   1.007   0.545   0.747 -3.8811  1.6494 -0.4057
 3578SOL     OW22195   2.391   4.185   9.845 -0.3021 -0.0507 -0.1485
 3578SOL    HW122196   2.444   4.255   9.809  1.1672 -0.7603  0.6658
 3578SOL    HW222197   2.425   4.186   9.934 -1.3080 -0.8404  0.2500
 3579SOL     OW22198   3.058   3.174   8.322 -0.2069 -0.0207  0.7809
 3579SOL    HW122199   3.006   3.227   8.261 -1.3583 -0.3020  1.5231
 3579SOL    HW222200   3.081   3.230   8.396  0.4533  0.3674  0.2825
 3580SOL     OW22201   4.294   0.894   3.074  0.4351 -0.1466  0.0520
 3580SOL    HW122202   4.296   0.830   3.004 -1.0348  1.8454 -1.8121
 3580SOL    HW222203   4.202   0.921   3.082  0.9993  1.4907  1.0949
 3581SOL     OW22204   4.154   0.402   0.337 -0.3775 -0.7639  0.0280
 3581SOL    HW122205   4.121   0.475   0.285  1.4034 -1.6974 -2.3780
 3581SOL    HW222206   4.209   0.364   0.269  0.9562  2.0326 -0.4697
 3582SOL     OW22207   0.038   1.721   5.941  0.4537  0.1499  0.2115
 3582SOL    HW122208   0.077   1.808   5.942  3.2318 -1.1092  1.6299
 3582SOL    HW222209   4.666   1.736   5.934  0.3131 -1.1741 -0.9343
 3583SOL     OW22210   2.846   2.813   6.722  0.4306 -0.6062 -0.7872
 3583SOL    HW122211   2.878   2.802   6.632  0.9822  0.9678 -0.7841
 3583SOL    HW222212   2.838   2.908   6.715  0.5394 -0.5485 -0.1264
 3584SOL     OW22213   0.691   4.635   3.851 -0.1201  0.7164 -0.4502
 3584SOL    HW122214   0.689   4.561   3.790 -1.1443 -1.1407  1.8814
 3584SOL    HW222215   0.756   4.691   3.807  0.5416  1.0672  0.9899
 3585SOL     OW22216   3.147   1.756   1.782  0.6562 -0.7973  0.8413
 3585SOL    HW122217   3.240   1.742   1.795  1.1450  2.0498  0.5172
 3585SOL    HW222218   3.116   1.671   1.751 -1.5816 -0.1538  1.3067
 3586SOL     OW22219   0.021   0.147  16.985 -0.2260  0.2034 -0.6364
 3586SOL    HW122220   0.104   0.169  16.943 -1.3382  0.3610 -2.7160
 3586SOL    HW222221   4.697   0.107  16.912 -1.9767  1.2864 -0.1339
 3587SOL     OW22222   2.241   3.833  11.216 -0.9653  0.1676 -0.2331
 3587SOL    HW122223   2.320   3.838  11.162 -0.0648  0.7708  1.1284
 3587SOL    HW222224   2.201   3.752  11.184 -0.3687  0.3388 -1.4013
 3588SOL     OW22225   3.680   3.894   9.005  0.4423  0.3752 -0.2945
 3588SOL    HW122226   3.617   3.934   8.945  0.5189  1.2990  0.2450
 3588SOL    HW222227   3.696   3.819   8.946  0.0919  0.4396 -0.4734
 3589SOL     OW22228   2.210   3.259   2.800  0.4268  0.5103 -0.0774
 3589SOL    HW122229   2.254   3.264   2.715 -1.9959  3.4176 -1.1611
 3589SOL    HW222230   2.130   3.311   2.791  0.5680  0.9677  1.3796
 3590SOL     OW22231   1.104   4.618  16.701  0.2861  0.2840 -0.2134
 3590SOL    HW122232   1.165   4.548  16.676 -0.3327 -0.2303 -0.2880
 3590SOL    HW222233   1.028   4.563  16.721 -1.4109  1.7097 -2.6914
 3591SOL     OW22234   0.944   2.911  11.606 -0.1297  0.3932 -0.3376
 3591SOL    HW122235   0.860   2.885  11.645 -0.9202  3.0486 -0.2620
 3591SOL    HW222236   0.998   2.918  11.685  0.5984 -0.1082 -0.7875
 3592SOL     OW22237   2.077   0.905   3.062  0.2569 -0.1872 -0.2894
 3592SOL    HW122238   2.016   0.962   3.014  0.6687  2.2141  2.0639
 3592SOL    HW222239   2.032   0.886   3.144 -0.5908 -2.2449 -1.2258
 3593SOL     OW22240   0.639   0.786   8.838  0.3520 -0.0354  0.3029
 3593SOL    HW122241   0.586   0.812   8.913  2.0347  0.2880  1.3816
 3593SOL    HW222242   0.582   0.720   8.799  0.1954  0.8469 -0.9606
 3594SOL     OW22243   2.394   3.290   5.008 -0.2961 -0.2244  0.2016
 3594SOL    HW122244   2.320   3.348   4.992  0.9640  1.8170  1.8960
 3594SOL    HW222245   2.438   3.299   4.923  2.2455 -0.5999  1.4856
 3595SOL     OW22246   3.974   1.070   4.214  0.2178 -0.0564  0.3826
 3595SOL    HW122247   4.028   1.146   4.235 -1.3782  1.1198  0.2892
 3595SOL    HW222248   3.974   1.075   4.118 -0.1738 -0.6734  0.3454
 3596SOL     OW22249   4.064   0.958   1.782 -0.4995 -0.1635  0.1844
 3596SOL    HW122250   4.145   0.907   1.778 -1.1731 -1.3302  1.2373
 3596SOL    HW222251   4.030   0.919   1.863 -1.4192  2.2049  0.9382
 3597SOL     OW22252   1.089   3.172   8.536  0.0104  0.0100 -0.0813
 3597SOL    HW122253   1.032   3.241   8.571 -1.8259 -2.0619  1.0288
 3597SOL    HW222254   1.163   3.189   8.594 -1.2069 -0.0348  1.4910
 3598SOL     OW22255   0.277   0.430   8.022  0.0439 -0.0315  0.3128
 3598SOL    HW122256   0.193   0.389   8.042  0.1642  0.3270  1.5632
 3598SOL    HW222257   0.328   0.371   8.078  1.2861  0.2361 -0.5392
 3599SOL     OW22258   4.141   0.105   7.561 -0.4239  0.1117 -0.3384
 3599SOL    HW122259   4.144   0.089   7.655 -1.2447  2.1264  0.0298
 3599SOL    HW222260   4.219   0.052   7.546 -0.7819 -0.3806 -0.4391
 3600SOL     OW22261   1.390   1.631   8.562  0.0588  0.3285 -0.1565
 3600SOL    HW122262   1.356   1.595   8.644  1.4013 -2.2270 -0.7329
 3600SOL    HW222263   1.410   1.558   8.504  0.0909  0.3415 -0.1620
 3601SOL     OW22264   1.952   2.678  10.469  0.0279 -0.7188 -0.2146
 3601SOL    HW122265   1.917   2.754  10.422 -0.9623 -0.2632  1.2741
 3601SOL    HW222266   1.896   2.671  10.546 -1.0064  1.5870 -0.7797
 3602SOL     OW22267   1.249   2.791  11.146 -0.0714 -0.7837  0.8865
 3602SOL    HW122268   1.254   2.716  11.205 -1.5019  0.2475  2.3081
 3602SOL    HW222269   1.318   2.846  11.182 -0.0524  0.7960 -1.5244
 3603SOL     OW22270   2.736   0.215   2.335 -0.0574 -0.1848 -0.8000
 3603SOL    HW122271   2.659   0.163   2.359 -0.8070  1.3070  0.0443
 3603SOL    HW222272   2.754   0.267   2.414 -0.8413 -1.0436 -0.0714
 3604SOL     OW22273   2.225   0.883  16.670 -0.5577 -0.0811  0.0219
 3604SOL    HW122274   2.153   0.904  16.611 -0.9763 -1.4596  0.0624
 3604SOL    HW222275   2.189   0.904  16.756 -0.6763 -0.9097  0.1738
 3605SOL     OW22276   0.819   1.730   0.778  0.2404  0.2491 -0.0034
 3605SOL    HW122277   0.817   1.825   0.787 -0.4214  0.1259  1.1443
 3605SOL    HW222278   0.768   1.713   0.698 -1.7164  1.5035  0.9642
 3606SOL     OW22279   2.862   1.886   3.194  0.2776  0.0384 -0.2160
 3606SOL    HW122280   2.803   1.843   3.131 -0.5602 -0.5113  0.9530
 3606SOL    HW222281   2.941   1.840   3.166 -0.5311 -1.0389 -0.7274
 3607SOL     OW22282   3.023   2.435   5.159  0.7791 -0.2549  0.5913
 3607SOL    HW122283   3.052   2.347   5.183 -1.0868 -1.1912 -0.5911
 3607SOL    HW222284   3.100   2.489   5.142 -0.0060  0.4798 -0.6398
 3608SOL     OW22285   1.035   1.630   9.077 -0.1002 -0.1859  0.2348
 3608SOL    HW122286   0.945   1.631   9.044  0.2919 -0.9365 -0.8443
 3608SOL    HW222287   1.080   1.681   9.010  0.9179 -1.5870 -0.1379
 3609SOL     OW22288   3.902   0.842   3.637  0.1509 -0.1679  0.0788
 3609SOL    HW122289   3.894   0.770   3.575 -0.9930  0.8547 -0.9514
 3609SOL    HW222290   3.987   0.882   3.619 -0.6784  1.6744  0.2334
 3610SOL     OW22291   3.903   2.717   5.851  0.2823  0.5146 -0.9343
 3610SOL    HW122292   3.879   2.806   5.825  0.4174  0.7195 -0.3478
 3610SOL    HW222293   3.982   2.688   5.806  0.5114 -2.4211  1.4290
 3611SOL     OW22294   2.570   2.709   4.627  0.0881 -0.2653  0.5555
 3611SOL    HW122295   2.651   2.662   4.649  0.3034 -0.7067 -1.1922
 3611SOL    HW222296   2.559   2.678   4.537 -1.2683  0.8851  0.3373
 3612SOL     OW22297   0.064   1.819  12.540  0.1088  0.9153  0.1208
 3612SOL    HW122298   0.049   1.771  12.458  0.9748  3.7320 -1.6481
 3612SOL    HW222299   0.155   1.806  12.566 -0.8692 -1.2171  2.4407
 3613SOL     OW22300   1.131   1.625   4.881  0.0292  0.3747 -0.0978
 3613SOL    HW122301   1.145   1.713   4.915 -0.4591  1.5394 -2.8927
 3613SOL    HW222302   1.136   1.567   4.957 -0.7123 -0.8409 -0.9579
 3614SOL     OW22303   4.333   0.412   0.764  0.7275  0.1582  0.7878
 3614SOL    HW122304   4.340   0.472   0.689  0.6881 -1.4931 -0.5417
 3614SOL    HW222305   4.369   0.330   0.729  1.8007 -0.0575  2.4022
 3615SOL     OW22306   1.163   0.963   9.508  0.2969 -0.4440  0.3634
 3615SOL    HW122307   1.192   0.874   9.528  0.4596 -0.6370 -0.6979
 3615SOL    HW222308   1.153   0.992   9.599 -3.0333 -1.3283  0.2783
 3616SOL     OW22309   0.482   0.300   2.999 -0.3408 -0.2160  0.0269
 3616SOL    HW122310   0.561   0.275   3.048 -1.1955 -2.3338  0.3304
 3616SOL    HW222311   0.521   0.293   2.911  0.4954  2.1455  0.2338
 3617SOL     OW22312   0.484   1.519   7.133  0.3651  0.4066 -0.1516
 3617SOL    HW122313   0.523   1.458   7.071  1.6287  1.5212 -0.4714
 3617SOL    HW222314   0.414   1.471   7.176 -0.8332  0.3753 -2.1768
 3618SOL     OW22315   3.889   2.595   8.500  0.3317  0.9541  0.4530
 3618SOL    HW122316   3.966   2.645   8.526  0.0849  1.7117 -0.2739
 3618SOL    HW222317   3.886   2.619   8.408 -1.8848 -0.6600  0.1008
 3619SOL     OW22318   3.898   3.263   8.767 -0.0153 -0.4068 -0.4739
 3619SOL    HW122319   3.856   3.216   8.695 -1.6414 -0.5539  0.5534
 3619SOL    HW222320   3.886   3.353   8.738 -0.6497  0.0363  1.1404
 3620SOL     OW22321   4.174   3.698   3.506 -0.1570  0.3980  0.1717
 3620SOL    HW122322   4.234   3.661   3.441 -1.6349 -0.2956 -0.7862
 3620SOL    HW222323   4.209   3.786   3.516 -0.5198  0.7529 -1.5652
 3621SOL     OW22324   1.061   2.031  16.076  0.4270  0.0192  0.1054
 3621SOL    HW122325   0.972   2.005  16.101  0.7520  0.1021  1.3389
 3621SOL    HW222326   1.048   2.059  15.985 -0.9314 -0.2996  0.2012
 3622SOL     OW22327   2.237   0.249   6.449 -0.3985 -0.3051 -0.9836
 3622SOL    HW122328   2.200   0.267   6.536 -1.4285 -4.4537 -0.5455
 3622SOL    HW222329   2.161   0.252   6.392 -1.2891 -1.2393  0.1352
 3623SOL     OW22330   3.990   1.530   5.920  0.4403  0.2454 -0.4705
 3623SOL    HW122331   4.062   1.555   5.978 -0.1495  0.5858  0.1099
 3623SOL    HW222332   4.003   1.594   5.850  1.0763  0.2019 -0.3914
 3624SOL     OW22333   1.375   1.836  16.847  0.5362  0.2557  0.2736
 3624SOL    HW122334   1.436   1.767  16.821  0.2981  0.0721  0.1982
 3624SOL    HW222335   1.330   1.852  16.764  2.8880 -0.9926 -1.2390
 3625SOL     OW22336   3.298   4.142   3.186 -0.3743 -0.0929  0.8282
 3625SOL    HW122337   3.280   4.076   3.253  2.6429 -1.6873  0.0674
 3625SOL    HW222338   3.384   4.180   3.206  0.0540 -0.5868 -0.0881
 3626SOL     OW22339   2.176   4.566   7.507 -0.3328 -0.1460  0.0501
 3626SOL    HW122340   2.193   4.542   7.598  1.5536  1.2416  0.0617
 3626SOL    HW222341   2.262   4.608   7.500 -0.9861  0.8901 -1.5706
 3627SOL     OW22342   3.268   1.514   1.923  0.3793 -0.2308 -0.3101
 3627SOL    HW122343   3.206   1.485   1.856  0.0308 -0.9345  0.3205
 3627SOL    HW222344   3.336   1.446   1.921  2.0855  1.4496  0.1577
 3628SOL     OW22345   0.814   3.713   5.462 -0.1270 -0.1719 -0.0328
 3628SOL    HW122346   0.847   3.801   5.446  0.6871 -0.7168 -1.3654
 3628SOL    HW222347   0.820   3.707   5.558  0.0824  0.5548 -0.0046
 3629SOL     OW22348   2.616   1.091   0.904 -0.3953  0.5771  0.1813
 3629SOL    HW122349   2.665   1.165   0.939  2.2156 -0.2982 -1.6320
 3629SOL    HW222350   2.673   1.017   0.928 -0.3956  0.3538 -0.5073
 3630SOL     OW22351   0.247   3.988   5.415  0.7767  0.4700  0.4989
 3630SOL    HW122352   0.208   3.932   5.347  1.7008 -1.3572  1.4917
 3630SOL    HW222353   0.273   3.916   5.472  1.0972 -0.0359 -0.2783
 3631SOL     OW22354   1.681   2.684  12.263 -0.5856 -0.0451  0.0428
 3631SOL    HW122355   1.682   2.679  12.167 -0.5395 -2.1262  0.1506
 3631SOL    HW222356   1.762   2.646  12.297 -0.4731  0.3421  0.2062
 3632SOL     OW22357   2.812   1.642   7.968  0.1349  0.2669  0.0484
 3632SOL    HW122358   2.787   1.688   8.048 -0.6825 -0.3678  0.1588
 3632SOL    HW222359   2.780   1.704   7.903 -1.4530 -2.1118 -1.4520
 3633SOL     OW22360   3.897   0.905  10.526  0.8453  0.3527  0.3453
 3633SOL    HW122361   3.966   0.861  10.576  0.5064 -1.0943 -0.4645
 3633SOL    HW222362   3.854   0.832  10.481 -1.4257  1.0923  1.2850
 3634SOL     OW22363   2.480   0.797  13.441  0.0565  0.4857  0.2477
 3634SOL    HW122364   2.449   0.755  13.521 -1.6367  0.6007 -0.3439
 3634SOL    HW222365   2.402   0.835  13.401 -1.0938 -2.5230 -0.3811
 3635SOL     OW22366   1.712   2.809   5.293 -0.0786  0.3704 -0.0729
 3635SOL    HW122367   1.701   2.738   5.230 -0.0071  1.6405 -1.5158
 3635SOL    HW222368   1.799   2.840   5.266 -0.1221 -0.0555 -0.6894
 3636SOL     OW22369   3.025   2.344  10.004  0.3793 -0.4397 -0.2502
 3636SOL    HW122370   2.952   2.390  10.046  0.6138  0.7575 -1.1339
 3636SOL    HW222371   3.100   2.402  10.021  1.4347 -2.3863  1.6886
 3637SOL     OW22372   3.134   0.196   1.802 -0.2261 -0.5624  0.6546
 3637SOL    HW122373   3.184   0.255   1.746  0.0007 -0.1468  1.2886
 3637SOL    HW222374   3.053   0.246   1.811  0.1933  0.0944  0.7913
 3638SOL     OW22375   2.579   0.801   6.697  0.2053 -0.1593 -0.0760
 3638SOL    HW122376   2.643   0.810   6.768  1.0146  0.7215 -0.9113
 3638SOL    HW222377   2.524   0.728   6.724  1.4500 -0.8620  0.5860
 3639SOL     OW22378   0.599   1.414   3.974 -0.0972  0.1416 -0.0078
 3639SOL    HW122379   0.626   1.446   3.888  1.1026 -1.8278 -0.3857
 3639SOL    HW222380   0.656   1.337   3.978 -1.4654 -0.8369  0.7193
 3640SOL     OW22381   0.677   4.494   4.431  0.3497  0.7657  0.4869
 3640SOL    HW122382   0.594   4.527   4.396 -0.8981 -1.9634  0.9238
 3640SOL    HW222383   0.735   4.536   4.367 -0.6426  1.2466 -0.0977
 3641SOL     OW22384   1.156   2.907   2.117  0.2524 -1.1357 -1.3180
 3641SOL    HW122385   1.153   2.812   2.106 -1.4789 -1.3454  0.9561
 3641SOL    HW222386   1.110   2.914   2.201  0.8082 -2.5769 -0.8858
 3642SOL     OW22387   2.201   1.587   3.736  0.2163  0.3218  0.3631
 3642SOL    HW122388   2.258   1.552   3.667 -0.5250  1.4036 -0.7928
 3642SOL    HW222389   2.225   1.511   3.788  1.9648 -0.0558 -0.9714
 3643SOL     OW22390   0.749   0.503  11.596 -0.2176 -0.2765 -0.1704
 3643SOL    HW122391   0.809   0.529  11.666 -2.0062  0.0942  1.2177
 3643SOL    HW222392   0.796   0.547  11.524 -2.5342  0.9383 -0.9361
 3644SOL     OW22393   4.323   2.912   7.397 -0.5327  0.5518 -0.3322
 3644SOL    HW122394   4.287   2.864   7.472  2.4729 -0.3419  0.5415
 3644SOL    HW222395   4.252   2.907   7.334 -1.8768  0.9222  1.1464
 3645SOL     OW22396   1.340   2.803  13.163  0.0174 -0.6594 -0.2477
 3645SOL    HW122397   1.316   2.845  13.080  0.3909 -1.9808 -1.0311
 3645SOL    HW222398   1.293   2.851  13.231 -0.7159 -0.9908 -0.5107
 3646SOL     OW22399   0.213   2.923   6.039 -0.7342  0.4312  0.0513
 3646SOL    HW122400   0.161   2.997   6.069  0.6800  1.2639  0.4618
 3646SOL    HW222401   0.302   2.945   6.069 -1.8406  2.3227  1.9545
 3647SOL     OW22402   2.776   4.149   6.084  0.3437  0.0810 -0.3151
 3647SOL    HW122403   2.767   4.074   6.026 -0.1211 -1.5721  1.8940
 3647SOL    HW222404   2.855   4.196   6.058 -1.3233  2.6831 -0.6326
 3648SOL     OW22405   0.412   1.837   3.088  0.9497  0.5847 -0.1774
 3648SOL    HW122406   0.349   1.890   3.136  2.4280  1.9314  0.2761
 3648SOL    HW222407   0.398   1.862   2.997 -0.7373  1.5616  0.3563
 3649SOL     OW22408   1.175   0.631  17.037 -0.3280 -0.0910  0.0374
 3649SOL    HW122409   1.144   0.622  17.127 -1.5757 -1.5719 -0.5270
 3649SOL    HW222410   1.134   0.552  17.002 -2.6642  1.4102 -0.6587
 3650SOL     OW22411   4.424   4.226  13.316  0.2674  0.3401 -0.3222
 3650SOL    HW122412   4.478   4.280  13.260  0.9689 -1.5415 -1.4704
 3650SOL    HW222413   4.356   4.204  13.252  0.3780  0.6647 -0.5477
 3651SOL     OW22414   2.795   4.343   3.694 -0.2988 -0.2561 -0.4576
 3651SOL    HW122415   2.890   4.352   3.688 -0.3286 -0.4794 -1.2696
 3651SOL    HW222416   2.768   4.261   3.653  0.6700 -1.0238  0.4694
 3652SOL     OW22417   0.078   2.964   2.791 -0.2999  0.1772 -0.0666
 3652SOL    HW122418   0.034   3.030   2.844 -2.6137 -1.4403  0.0177
 3652SOL    HW222419   0.053   2.978   2.699 -0.5625  2.1766  0.3080
 3653SOL     OW22420   3.364   3.136  10.686  0.0529 -0.4167 -0.2705
 3653SOL    HW122421   3.371   3.165  10.595  1.0052  1.8291  0.5148
 3653SOL    HW222422   3.269   3.130  10.695  0.2004  0.6106  1.8244
 3654SOL     OW22423   1.062   3.567   7.663  0.2054  0.0048  0.0064
 3654SOL    HW122424   0.998   3.496   7.670 -0.2910  0.4790  0.2888
 3654SOL    HW222425   1.050   3.605   7.750  1.2815 -1.2681  0.7001
 3655SOL     OW22426   2.698   0.033  11.765 -0.1616 -0.1569  0.2757
 3655SOL    HW122427   2.708   4.708  11.847 -0.9894  1.0981  1.0851
 3655SOL    HW222428   2.626   0.093  11.781 -1.1628 -0.9099 -1.3954
 3656SOL     OW22429   1.959   2.263  14.672  0.0527  0.5543  0.3991
 3656SOL    HW122430   1.941   2.169  14.679  1.0678  0.4259  1.2218
 3656SOL    HW222431   2.007   2.269  14.590 -0.3588  3.7208  0.3909
 3657SOL     OW22432   1.598   1.773   6.779  1.1917  0.4474 -0.3514
 3657SOL    HW122433   1.555   1.856   6.757  2.1557  1.3985  1.3255
 3657SOL    HW222434   1.685   1.811   6.793  1.0046 -0.0314  2.2058
 3658SOL     OW22435   3.827   3.620   9.862 -0.2407 -0.5827  0.2908
 3658SOL    HW122436   3.767   3.689   9.889  0.8753 -0.0661  1.4122
 3658SOL    HW222437   3.792   3.606   9.774  0.0416 -1.1767  0.2665
 3659SOL     OW22438   0.427   3.327   6.073  0.4267 -0.4426  0.6633
 3659SOL    HW122439   0.481   3.398   6.038  0.5341 -0.8955 -0.1081
 3659SOL    HW222440   0.479   3.258   6.030 -0.5979 -0.0780 -1.1568
 3660SOL     OW22441   3.719   4.245   7.164 -0.0849 -0.0452  0.4543
 3660SOL    HW122442   3.732   4.248   7.259  3.0190  0.8657 -0.0000
 3660SOL    HW222443   3.779   4.175   7.139 -1.4736 -0.4121 -1.9373
 3661SOL     OW22444   0.323   3.789   9.717  0.2280  0.5861  0.0624
 3661SOL    HW122445   0.381   3.864   9.733  0.6176  0.1540  0.6561
 3661SOL    HW222446   0.276   3.798   9.799 -0.1122  1.1491 -0.1925
 3662SOL     OW22447   1.451   2.306   4.536 -0.3395  0.1909 -0.0873
 3662SOL    HW122448   1.431   2.380   4.593 -0.2129  0.4913 -0.4388
 3662SOL    HW222449   1.530   2.268   4.575  0.5342 -0.4095 -2.4793
 3663SOL     OW22450   0.514   2.062   9.275  0.2383  0.4330 -0.0875
 3663SOL    HW122451   0.543   2.135   9.328  0.2997  1.7820 -1.9795
 3663SOL    HW222452   0.599   2.018   9.270  0.1521  0.1581  0.9791
 3664SOL     OW22453   2.436   1.060  15.418 -0.2880  0.3925  0.0321
 3664SOL    HW122454   2.531   1.046  15.408 -0.6344 -0.8883 -1.6682
 3664SOL    HW222455   2.415   0.981  15.468 -1.4862  0.5525 -0.2347
 3665SOL     OW22456   4.182   1.134   9.746  0.2063 -0.3418 -0.4347
 3665SOL    HW122457   4.143   1.058   9.703 -0.3291 -1.1701  1.4858
 3665SOL    HW222458   4.265   1.146   9.699 -0.6275 -0.7054 -1.9935
 3666SOL     OW22459   1.385   4.602   5.876 -0.8728 -0.5276  0.3540
 3666SOL    HW122460   1.322   4.574   5.942 -0.9048 -0.1234  0.4978
 3666SOL    HW222461   1.408   4.523   5.828  0.5013 -0.3700  0.7561
 3667SOL     OW22462   1.108   1.483   1.952 -0.2515 -0.1689 -0.2926
 3667SOL    HW122463   1.123   1.464   2.045  0.9269  1.0608 -0.2346
 3667SOL    HW222464   1.024   1.440   1.934 -0.2186 -0.1851 -0.4079
 3668SOL     OW22465   2.710   0.696   1.590 -0.0372  0.1765  0.2188
 3668SOL    HW122466   2.749   0.693   1.502  1.2377  0.0171  0.7766
 3668SOL    HW222467   2.642   0.760   1.569  2.0372  3.0320  2.0834
 3669SOL     OW22468   1.433   1.764   5.351  0.0833 -0.3852 -0.1962
 3669SOL    HW122469   1.348   1.721   5.366  0.8655 -1.9055 -0.0852
 3669SOL    HW222470   1.453   1.722   5.268 -0.2192 -0.9289  0.0024
 3670SOL     OW22471   1.254   3.895   7.661  0.4961 -0.2810  0.1264
 3670SOL    HW122472   1.216   3.979   7.636 -0.8791 -0.7199  0.6964
 3670SOL    HW222473   1.325   3.878   7.599  0.4657 -2.1805  0.6231
 3671SOL     OW22474   3.342   3.512  16.183  0.0159 -0.5508 -0.3886
 3671SOL    HW122475   3.326   3.426  16.221 -1.0302  0.7854  2.2287
 3671SOL    HW222476   3.269   3.571  16.200  0.0095 -0.4379 -0.8005
 3672SOL     OW22477   2.109   1.865   8.193  0.1103 -0.2083  0.4040
 3672SOL    HW122478   2.150   1.921   8.260  2.0231 -2.3050  0.9747
 3672SOL    HW222479   2.139   1.780   8.224  0.9169 -0.2720 -0.5751
 3673SOL     OW22480   0.959   1.940   8.994 -0.6236 -0.3196 -0.7901
 3673SOL    HW122481   1.035   1.906   8.948  0.8167  2.1100 -0.1851
 3673SOL    HW222482   0.973   2.034   9.005 -0.7180 -0.2029 -1.6738
 3674SOL     OW22483   1.643   2.054   5.549  0.0420  0.4056 -0.1230
 3674SOL    HW122484   1.665   1.981   5.491  1.2637 -0.0646  0.9185
 3674SOL    HW222485   1.579   2.001   5.596 -1.2682  1.4494 -0.7651
 3675SOL     OW22486   2.846   3.379   9.026 -0.3993  0.1982  0.1386
 3675SOL    HW122487   2.806   3.303   8.983  1.0286 -0.8605  0.6855
 3675SOL    HW222488   2.775   3.416   9.079 -1.6852  1.7014 -2.6218
 3676SOL     OW22489   4.695   2.964   4.722 -0.0758  0.4644 -0.1612
 3676SOL    HW122490   0.048   3.022   4.735 -2.2314  2.8243  1.7773
 3676SOL    HW222491   4.633   3.019   4.675  0.2190  1.1950  0.3080
 3677SOL     OW22492   0.660   2.142   6.205 -0.5481 -0.3974  0.2283
 3677SOL    HW122493   0.721   2.143   6.131 -0.2209  0.1832  0.5011
 3677SOL    HW222494   0.672   2.051   6.231  1.4888  0.9406  4.1000
 3678SOL     OW22495   0.455   0.477  10.836 -0.1993 -0.3233 -0.3229
 3678SOL    HW122496   0.424   0.537  10.769 -0.1452  2.5628  2.2333
 3678SOL    HW222497   0.384   0.482  10.901  1.5909  1.0157  1.5145
 3679SOL     OW22498   0.694   0.411  14.894 -0.3854  0.0289  0.6756
 3679SOL    HW122499   0.695   0.327  14.939 -0.9782  0.0324  0.6904
 3679SOL    HW222500   0.600   0.423  14.880 -0.2878 -0.0681 -0.1038
 3680SOL     OW22501   2.589   0.062   2.734 -0.3599 -0.0590  0.2078
 3680SOL    HW122502   2.542   0.107   2.663 -1.8595 -0.2041  1.1246
 3680SOL    HW222503   2.520   0.033   2.793  0.0330 -1.0827  0.1611
 3681SOL     OW22504   0.677   4.367  16.875  0.0865  0.0639 -0.1037
 3681SOL    HW122505   0.631   4.352  16.792 -3.1438 -1.8678  2.0561
 3681SOL    HW222506   0.632   4.439  16.918 -1.1768  0.1023 -1.5117
 3682SOL     OW22507   1.281   2.509   7.869 -0.3403  0.0649  0.1973
 3682SOL    HW122508   1.230   2.539   7.794  1.7565 -1.3756 -1.7867
 3682SOL    HW222509   1.293   2.588   7.922  0.2523 -0.3690  0.7166
 3683SOL     OW22510   3.336   1.888   5.119  0.5963 -0.2245 -0.1383
 3683SOL    HW122511   3.299   1.810   5.078 -0.5260  0.7648 -1.0005
 3683SOL    HW222512   3.350   1.936   5.037 -3.7412  1.3289  0.0068
 3684SOL     OW22513   0.132   0.352   5.019 -0.1366  0.1735  0.2379
 3684SOL    HW122514   0.134   0.403   4.937  1.4974  0.3264  0.3857
 3684SOL    HW222515   0.041   0.367   5.046 -0.4855  0.1733 -0.9285
 3685SOL     OW22516   4.225   3.704   7.543 -0.0112 -0.0031  0.2486
 3685SOL    HW122517   4.302   3.725   7.597  0.1872 -0.8557  0.2889
 3685SOL    HW222518   4.180   3.788   7.535  0.2225 -0.0658 -1.6390
 3686SOL     OW22519   4.045   1.431  10.851 -0.2922 -0.2429 -0.2256
 3686SOL    HW122520   4.031   1.429  10.757  0.9963 -0.5081 -0.4201
 3686SOL    HW222521   3.976   1.369  10.873 -0.9790  0.3009 -0.8745
 3687SOL     OW22522   2.938   0.699   2.274 -0.1201 -0.2949 -0.6939
 3687SOL    HW122523   2.982   0.767   2.223 -2.3887  0.0970 -2.1191
 3687SOL    HW222524   2.853   0.685   2.231 -1.0436  3.0219  0.0677
 3688SOL     OW22525   0.910   1.749   1.807  0.3281  0.5552  0.0457
 3688SOL    HW122526   0.925   1.812   1.737  1.6676 -0.8758 -0.9390
 3688SOL    HW222527   0.945   1.668   1.770  0.0505  0.1062  0.7550
 3689SOL     OW22528   2.748   3.795   7.003 -0.1279  0.5349  0.0564
 3689SOL    HW122529   2.676   3.768   6.946  0.2730  0.9449 -0.6481
 3689SOL    HW222530   2.706   3.797   7.089 -0.0883  0.6485  0.0728
 3690SOL     OW22531   4.484   1.302   4.677  0.2361 -0.4169  0.1679
 3690SOL    HW122532   4.434   1.382   4.692 -0.9534 -1.2400  0.6321
 3690SOL    HW222533   4.504   1.266   4.763 -0.0508  0.1354  0.4636
 3691SOL     OW22534   2.714   3.376   2.966  0.5181  0.3973 -0.2319
 3691SOL    HW122535   2.678   3.460   2.938 -1.4290 -0.7123 -0.9891
 3691SOL    HW222536   2.701   3.324   2.887 -0.1096  1.1622 -0.6335
 3692SOL     OW22537   0.463   4.033  13.051  0.2227  0.2245 -0.2931
 3692SOL    HW122538   0.519   4.111  13.049 -0.6697  0.7950 -2.9991
 3692SOL    HW222539   0.379   4.056  13.090 -2.5304 -1.3645 -5.2844
 3693SOL     OW22540   4.571   2.349   1.021 -0.3933  0.3760 -0.2732
 3693SOL    HW122541   4.501   2.412   1.004  1.4768  3.0976  2.0396
 3693SOL    HW222542   4.537   2.310   1.101 -0.4397  2.5825  0.7981
 3694SOL     OW22543   2.438   4.307   6.373 -0.2691 -0.1473  0.5953
 3694SOL    HW122544   2.507   4.259   6.327 -0.3322  1.2516 -0.9490
 3694SOL    HW222545   2.484   4.343   6.449  1.4982  0.7878 -0.9133
 3695SOL     OW22546   4.003   0.661   7.232 -0.1362 -0.4642 -0.5853
 3695SOL    HW122547   4.016   0.669   7.326 -0.5613 -1.6205 -0.4228
 3695SOL    HW222548   4.000   0.753   7.208 -1.0251 -0.6537 -1.2046
 3696SOL     OW22549   3.536   2.748   4.415  0.2849  0.3806 -0.1032
 3696SOL    HW122550   3.558   2.811   4.347  0.6360  0.5378  0.1544
 3696SOL    HW222551   3.469   2.694   4.375 -1.4649  2.7994 -0.4131
 3697SOL     OW22552   3.312   3.925   6.577  0.0786 -0.1277  0.1044
 3697SOL    HW122553   3.282   3.927   6.668  0.2169 -2.0758  0.1910
 3697SOL    HW222554   3.402   3.893   6.585  0.3848  1.1705  1.7919
 3698SOL     OW22555   0.746   1.186   6.174  0.1528 -0.1821  0.5966
 3698SOL    HW122556   0.790   1.105   6.197 -0.7041 -0.7554  0.1878
 3698SOL    HW222557   0.763   1.187   6.080 -0.7509 -3.7912  0.4056
 3699SOL     OW22558   4.100   3.250   3.277  0.1246  0.0806 -0.6286
 3699SOL    HW122559   4.093   3.306   3.355  1.3660 -0.4056 -0.1718
 3699SOL    HW222560   4.159   3.184   3.315 -0.7942  0.7384  1.9947
 3700SOL     OW22561   1.229   2.146   4.438  0.0444 -0.4547 -0.4333
 3700SOL    HW122562   1.289   2.206   4.483 -1.0204  0.5530 -0.3532
 3700SOL    HW222563   1.153   2.134   4.495  0.8035 -2.8076  0.0838
 3701SOL     OW22564   3.104   3.498  16.021  0.5752 -0.2969 -0.3147
 3701SOL    HW122565   3.076   3.483  15.931 -0.3426  2.3349 -0.4594
 3701SOL    HW222566   3.195   3.524  16.006  0.2421  0.3907 -1.1085
 3702SOL     OW22567   1.724   3.136  16.497  0.0531  0.1669  0.0662
 3702SOL    HW122568   1.775   3.215  16.477 -1.6108  0.9741 -1.0631
 3702SOL    HW222569   1.789   3.084  16.544  1.0937  0.2240 -1.3063
 3703SOL     OW22570   0.292   1.104  16.805 -0.0835  0.6275 -0.6091
 3703SOL    HW122571   0.355   1.165  16.766 -0.1029  0.2672 -1.2097
 3703SOL    HW222572   0.238   1.080  16.730 -1.6750 -2.2584  1.4850
 3704SOL     OW22573   0.439   4.186   3.890 -0.1984  0.2569  0.2404
 3704SOL    HW122574   0.532   4.206   3.896  0.5294 -3.1593  0.7892
 3704SOL    HW222575   0.404   4.239   3.962 -2.2997  0.6664 -1.0664
 3705SOL     OW22576   3.073   3.762   9.610  0.6737  0.3059  0.4856
 3705SOL    HW122577   3.019   3.782   9.533  0.7605 -0.9784  0.0839
 3705SOL    HW222578   3.161   3.759   9.572 -0.0924 -1.1106 -1.2048
 3706SOL     OW22579   2.466   3.224   3.735 -0.2655  0.3669 -0.0220
 3706SOL    HW122580   2.401   3.205   3.802  0.1113  0.2219  0.3044
 3706SOL    HW222581   2.535   3.159   3.749  0.8819  2.0868  2.3799
 3707SOL     OW22582   0.160   0.711   6.683 -0.5731  0.0988 -0.4691
 3707SOL    HW122583   0.102   0.639   6.709 -1.5677  1.4727  1.1252
 3707SOL    HW222584   0.234   0.660   6.651 -0.8270 -0.6788  0.1689
 3708SOL     OW22585   4.694   3.153   5.093 -0.2609 -0.2096 -0.2141
 3708SOL    HW122586   4.708   3.207   5.015 -0.4184 -0.8272 -0.6715
 3708SOL    HW222587   0.048   3.181   5.143 -0.0409  0.3023 -0.8358
 3709SOL     OW22588   4.480   0.436   7.625  0.1612  0.3143 -0.8412
 3709SOL    HW122589   4.513   0.389   7.548 -1.7942 -0.8299 -0.9911
 3709SOL    HW222590   4.503   0.370   7.690  1.2347  0.3185 -1.2161
 3710SOL     OW22591   4.586   0.307   4.396  0.5568 -0.6276 -0.0510
 3710SOL    HW122592   4.591   0.293   4.301 -0.9183  1.3965 -0.4251
 3710SOL    HW222593   4.678   0.331   4.408  0.7218 -0.8666 -0.8537
 3711SOL     OW22594   4.502   0.491   0.136 -0.3384 -0.1163  0.1755
 3711SOL    HW122595   4.467   0.574   0.104 -1.2260  0.0625  1.6209
 3711SOL    HW222596   4.596   0.512   0.144  0.2850 -2.5706 -0.7182
 3712SOL     OW22597   0.057   0.172   8.346  0.4695 -0.4229 -0.2583
 3712SOL    HW122598   0.072   0.110   8.275  0.0772  0.4705 -1.1123
 3712SOL    HW222599   0.107   0.119   8.408  0.9071 -0.1744 -0.4021
 3713SOL     OW22600   3.308   4.111   3.771  0.1354  0.2045  0.3348
 3713SOL    HW122601   3.361   4.102   3.691 -0.9182 -1.9166 -0.1071
 3713SOL    HW222602   3.336   4.202   3.781  1.3556 -0.0739 -0.4610
 3714SOL     OW22603   2.506   3.522   6.292  0.2363 -0.4958  0.5437
 3714SOL    HW122604   2.535   3.590   6.352 -4.2390  0.3529  1.7340
 3714SOL    HW222605   2.503   3.567   6.208  2.6609  0.7673  1.1391
 3715SOL     OW22606   2.985   3.489   2.051  0.0899  0.1376  0.0261
 3715SOL    HW122607   2.909   3.432   2.035 -1.0223  1.8506 -0.8514
 3715SOL    HW222608   3.057   3.428   2.035 -1.1144 -1.5149  0.9382
 3716SOL     OW22609   2.083   1.703  10.559 -0.5594 -0.0499 -0.0669
 3716SOL    HW122610   2.165   1.654  10.550 -0.8351 -0.4420 -0.4089
 3716SOL    HW222611   2.105   1.789  10.523  0.4097 -1.4400 -2.7728
 3717SOL     OW22612   2.043   3.692  17.500 -0.1328 -0.2185  0.2000
 3717SOL    HW122613   2.125   3.704  17.548  0.3401 -1.5579 -0.2624
 3717SOL    HW222614   2.059   3.730  17.413 -1.6847 -0.2236 -0.0887
 3718SOL     OW22615   3.947   2.353   1.366  0.0227 -0.0067 -0.5543
 3718SOL    HW122616   3.934   2.424   1.428 -0.5813 -0.7207  0.1414
 3718SOL    HW222617   3.887   2.388   1.300 -1.9477 -0.5404  0.9577
 3719SOL     OW22618   0.188   0.698   4.569  0.1225  0.0528 -0.2242
 3719SOL    HW122619   0.155   0.779   4.606  0.5115  0.0510  0.1148
 3719SOL    HW222620   0.130   0.691   4.493 -0.0386  1.9549 -0.2678
 3720SOL     OW22621   2.946   2.008   8.509 -0.3477 -0.1281  1.0204
 3720SOL    HW122622   2.892   2.047   8.578  1.6919  1.0999  1.9364
 3720SOL    HW222623   3.030   2.042   8.541 -0.0544 -0.6268  0.7833
 3721SOL     OW22624   0.787   2.343   5.643  0.2946 -0.3894  0.2512
 3721SOL    HW122625   0.867   2.379   5.683  0.3747 -1.8701  1.4577
 3721SOL    HW222626   0.726   2.393   5.697 -1.3529 -1.4486 -0.6449
 3722SOL     OW22627   3.357   4.197  17.081 -1.0542 -0.4012  0.6257
 3722SOL    HW122628   3.268   4.220  17.058 -0.8734 -0.7486 -0.4173
 3722SOL    HW222629   3.357   4.112  17.125 -1.6480 -0.8211 -0.2064
 3723SOL     OW22630   1.803   1.519   1.404  0.0971 -0.3054 -0.0971
 3723SOL    HW122631   1.772   1.589   1.461  0.3490 -0.3122  0.0490
 3723SOL    HW222632   1.895   1.504   1.425 -0.5337 -2.2332  1.3187
 3724SOL     OW22633   1.396   3.563   5.213  0.1873  0.4106 -0.1374
 3724SOL    HW122634   1.378   3.470   5.223  0.0946  0.4348 -0.0727
 3724SOL    HW222635   1.306   3.593   5.196  0.9733  1.5628 -2.1809
 3725SOL     OW22636   1.014   1.242   4.242 -0.1557 -0.1405 -0.3410
 3725SOL    HW122637   1.080   1.302   4.208 -1.0777  1.4345  0.6966
 3725SOL    HW222638   0.940   1.252   4.182  1.8276 -0.3766 -2.7996
 3726SOL     OW22639   2.872   0.101   4.344  0.2098 -0.3257  0.0815
 3726SOL    HW122640   2.826   0.062   4.418 -0.9548  0.1162 -0.4088
 3726SOL    HW222641   2.961   0.069   4.355  0.6170  1.8732  3.5168
 3727SOL     OW22642   0.392   3.322   0.917  0.1276  0.2230 -0.0773
 3727SOL    HW122643   0.406   3.348   1.007  0.0218 -0.3451  0.1037
 3727SOL    HW222644   0.355   3.236   0.937  0.6752  0.4248  1.7634
 3728SOL     OW22645   1.280   1.014   0.263  0.0842 -0.1627  0.1365
 3728SOL    HW122646   1.299   0.925   0.234 -2.5405  0.1171 -2.3955
 3728SOL    HW222647   1.256   1.055   0.180 -0.7821  0.5177  0.7253
 3729SOL     OW22648   4.353   3.089   5.901 -0.3318  0.3777  0.7259
 3729SOL    HW122649   4.327   3.062   5.813  1.0800 -1.1705  0.7840
 3729SOL    HW222650   4.284   3.035   5.939  1.0527 -1.9228  0.0207
 3730SOL     OW22651   0.809   2.222   8.870  0.1959  0.4634  0.9005
 3730SOL    HW122652   0.844   2.175   8.793  0.5099 -0.5294  1.6413
 3730SOL    HW222653   0.890   2.207   8.919  1.2606 -0.4592 -1.0962
 3731SOL     OW22654   2.687   3.441   5.627 -0.5858  0.1417 -0.1150
 3731SOL    HW122655   2.721   3.497   5.697  0.9977 -2.0621  0.8749
 3731SOL    HW222656   2.672   3.374   5.694  0.2734  1.8210  1.7783
 3732SOL     OW22657   2.362   3.323  13.624 -0.5155  0.0239 -0.1890
 3732SOL    HW122658   2.404   3.345  13.707 -0.3581  2.3227 -0.8843
 3732SOL    HW222659   2.313   3.245  13.651  1.0201 -0.8850 -0.0183
 3733SOL     OW22660   0.541   2.166  14.317 -0.1005  0.0020 -0.1460
 3733SOL    HW122661   0.524   2.102  14.386  0.7272  0.0170  0.0693
 3733SOL    HW222662   0.454   2.206  14.314  0.0993  0.3174 -1.5004
 3734SOL     OW22663   0.333   2.925   2.594  0.2211  0.0233  0.5634
 3734SOL    HW122664   0.373   2.914   2.508 -0.9157  1.4558 -0.1617
 3734SOL    HW222665   0.344   2.837   2.630 -0.2961 -0.0837  0.4639
 3735SOL     OW22666   1.644   2.155   4.937  0.5249 -0.1894 -0.1709
 3735SOL    HW122667   1.575   2.217   4.960  0.8947  0.6102 -1.2062
 3735SOL    HW222668   1.723   2.208   4.934  1.1069 -1.3446 -4.3962
 3736SOL     OW22669   3.743   1.549   7.796  0.5497  0.3435  0.3166
 3736SOL    HW122670   3.829   1.583   7.821  1.6272 -2.0718 -0.1874
 3736SOL    HW222671   3.751   1.532   7.702  0.0862  2.0833 -0.0423
 3737SOL     OW22672   1.878   1.323   2.764  0.0284  0.0038  0.3456
 3737SOL    HW122673   1.786   1.324   2.792 -0.1769 -0.9524 -0.2898
 3737SOL    HW222674   1.872   1.326   2.668  0.8569 -2.0537  0.2251
 3738SOL     OW22675   4.440   1.852   6.055  0.0147 -0.2099 -0.2040
 3738SOL    HW122676   4.428   1.826   6.147  2.6611 -0.2663  0.1196
 3738SOL    HW222677   4.390   1.934   6.049 -0.7747 -0.4914  2.5421
 3739SOL     OW22678   0.638   4.585   5.731  0.1747 -0.0709  0.4522
 3739SOL    HW122679   0.698   4.559   5.801 -0.6294 -0.2594  1.0800
 3739SOL    HW222680   0.644   4.680   5.736 -0.9518  0.0432 -0.4549
 3740SOL     OW22681   2.751   0.934   5.254 -0.2634  0.1794 -0.3412
 3740SOL    HW122682   2.818   1.002   5.262  0.8220 -0.5973 -2.8108
 3740SOL    HW222683   2.776   0.900   5.168  0.2860  1.1065 -0.5582
 3741SOL     OW22684   0.314   2.623  16.580 -0.5810 -0.0302 -0.3365
 3741SOL    HW122685   0.227   2.590  16.561 -1.1930  0.6469  1.3143
 3741SOL    HW222686   0.357   2.541  16.606  0.5493  0.4165 -0.7711
 3742SOL     OW22687   2.269   2.807   7.892 -0.2703 -0.2172  0.1028
 3742SOL    HW122688   2.195   2.861   7.921  1.1499  0.4970  2.4274
 3742SOL    HW222689   2.218   2.742   7.844  1.0643  0.0055 -1.5902
 3743SOL     OW22690   1.139   0.456   4.686  0.6137 -0.3200 -0.6003
 3743SOL    HW122691   1.211   0.483   4.742  1.1436 -2.4981 -0.2459
 3743SOL    HW222692   1.121   0.368   4.720 -1.6581  0.4215  0.1037
 3744SOL     OW22693   3.270   2.897   9.994  0.3611 -0.0632  1.1039
 3744SOL    HW122694   3.226   2.861   9.918  1.4531  2.6839 -0.8148
 3744SOL    HW222695   3.192   2.904  10.049 -1.3322  0.2543 -1.3527
 3745SOL     OW22696   1.407   2.051   4.119  0.0528  0.0230  0.1792
 3745SOL    HW122697   1.355   1.995   4.177  0.1126 -1.0635 -0.8169
 3745SOL    HW222698   1.390   2.141   4.148 -1.5376 -0.5158  0.9491
 3746SOL     OW22699   3.919   0.317   8.675  0.0214 -0.6681  0.3620
 3746SOL    HW122700   3.839   0.311   8.622  1.2224  1.5552 -1.7414
 3746SOL    HW222701   3.910   0.241   8.731 -1.6729 -0.0676  0.8942
 3747SOL     OW22702   4.371   2.570  15.007 -0.1791  0.6842  0.3252
 3747SOL    HW122703   4.329   2.620  14.937 -0.9494 -1.5632 -0.8044
 3747SOL    HW222704   4.450   2.534  14.968 -2.1774 -0.2895 -2.8315
 3748SOL     OW22705   2.892   1.066  10.381 -0.1644  0.1451 -0.3958
 3748SOL    HW122706   2.985   1.089  10.382 -0.2554  0.6463 -4.2964
 3748SOL    HW222707   2.855   1.154  10.382  1.8694  0.9687  1.6843
 3749SOL     OW22708   2.207   4.711  14.416 -0.1015 -1.0098  0.2953
 3749SOL    HW122709   2.277   0.047  14.446  0.0961 -0.4483 -1.2645
 3749SOL    HW222710   2.251   4.633  14.449  0.1158 -0.1943  1.9159
 3750SOL     OW22711   2.483   1.105   2.002  0.3415 -0.3180  0.7193
 3750SOL    HW122712   2.557   1.153   2.039  0.4476 -0.1425  0.2806
 3750SOL    HW222713   2.456   1.166   1.933 -0.0631 -1.3472 -0.0301
 3751SOL     OW22714   1.518   0.963   4.328 -0.0489 -0.3881  0.0539
 3751SOL    HW122715   1.550   1.009   4.406  2.9766 -1.0367 -0.8211
 3751SOL    HW222716   1.454   1.020   4.285  0.3157 -0.7281 -0.9482
 3752SOL     OW22717   3.202   1.906   6.665  0.1344 -0.1233 -0.4121
 3752SOL    HW122718   3.238   1.930   6.580  0.8233  3.9020  1.0358
 3752SOL    HW222719   3.279   1.921   6.720 -0.1561  0.2612 -0.1159
 3753SOL     OW22720   4.527   2.519   6.155 -0.4631 -0.3855 -0.2034
 3753SOL    HW122721   4.484   2.588   6.104 -0.6747  1.5122  2.5416
 3753SOL    HW222722   4.467   2.516   6.230  1.6065 -0.9137  1.4470
 3754SOL     OW22723   0.499   3.918   8.280  0.5902 -0.7201 -0.3270
 3754SOL    HW122724   0.579   3.891   8.235 -0.7880 -1.2883 -2.4243
 3754SOL    HW222725   0.460   3.832   8.300 -0.3650 -0.0912  0.5471
 3755SOL     OW22726   2.919   3.959   5.572 -0.2271  0.3280  0.3840
 3755SOL    HW122727   2.883   3.876   5.540  1.1968  0.3110 -1.1536
 3755SOL    HW222728   2.914   4.005   5.489 -3.6090 -1.5403 -0.4472
 3756SOL     OW22729   1.698   2.416   6.388  0.0314  0.3296  0.1971
 3756SOL    HW122730   1.640   2.492   6.398 -2.9682 -1.6412 -2.2783
 3756SOL    HW222731   1.769   2.449   6.443  1.2417 -0.3807 -0.9074
 3757SOL     OW22732   0.515   3.915  10.059 -0.1369 -0.4560 -0.0422
 3757SOL    HW122733   0.503   3.823  10.035 -0.4461 -0.3079 -0.4661
 3757SOL    HW222734   0.604   3.914  10.092 -0.3199  2.3368  0.5781
 3758SOL     OW22735   3.018   0.895  10.020 -0.0265  0.3228  0.1153
 3758SOL    HW122736   3.062   0.953   9.958 -0.6258  1.0185  0.3314
 3758SOL    HW222737   3.097   0.845  10.041 -0.7599 -1.3298 -1.0961
 3759SOL     OW22738   0.057   0.665   8.601  0.1410  0.2371 -0.0658
 3759SOL    HW122739   0.058   0.579   8.560 -0.7746 -0.5753  1.6587
 3759SOL    HW222740   0.150   0.688   8.606  0.4597 -1.5295  1.9693
 3760SOL     OW22741   1.001   2.674   6.004 -0.4413 -0.3740 -0.0669
 3760SOL    HW122742   1.050   2.755   6.023 -1.6524  0.3448 -0.0286
 3760SOL    HW222743   0.922   2.665   6.056 -0.8391  0.6398 -0.4821
 3761SOL     OW22744   1.935   3.230   7.580 -0.4685 -0.4832 -0.1836
 3761SOL    HW122745   1.910   3.300   7.641  2.9143  2.4109 -2.1323
 3761SOL    HW222746   2.020   3.204   7.615  0.0103  1.0037 -0.2394
 3762SOL     OW22747   1.193   1.553  15.765  0.0104 -0.0964 -0.4631
 3762SOL    HW122748   1.144   1.585  15.840  0.1581 -1.1714  0.0904
 3762SOL    HW222749   1.214   1.466  15.798  4.5914  0.7731 -1.1367
 3763SOL     OW22750   4.335   2.026   0.983  0.4107  0.2256  0.2775
 3763SOL    HW122751   4.258   1.971   0.995  0.8921 -0.2997  0.9633
 3763SOL    HW222752   4.384   1.980   0.914  1.4936  2.7158 -0.6325
 3764SOL     OW22753   1.232   1.624   3.982  0.1966 -0.2733  0.0702
 3764SOL    HW122754   1.314   1.652   4.021 -1.5933  2.1199  2.1551
 3764SOL    HW222755   1.258   1.610   3.891  2.9847  0.8993  0.7144
 3765SOL     OW22756   3.347   3.725   7.308  0.5294 -0.1303 -0.1380
 3765SOL    HW122757   3.289   3.676   7.367  2.6778 -2.5071 -0.0068
 3765SOL    HW222758   3.332   3.660   7.240 -2.2423  0.7477 -0.3766
 3766SOL     OW22759   3.500   3.962   8.788 -0.2309 -0.1023 -0.5413
 3766SOL    HW122760   3.410   3.958   8.756 -0.8080  1.1181  0.9338
 3766SOL    HW222761   3.544   3.955   8.703 -0.3314 -2.7996 -0.3876
 3767SOL     OW22762   1.412   0.694   9.872 -0.4943 -0.3283 -0.3387
 3767SOL    HW122763   1.479   0.684   9.940 -1.0782  3.0496  0.7431
 3767SOL    HW222764   1.333   0.710   9.923  0.7844  1.5223  1.0841
 3768SOL     OW22765   4.612   1.098   9.155  0.0357 -0.3683  0.2712
 3768SOL    HW122766   4.597   1.166   9.220 -1.4752 -1.1146  0.7244
 3768SOL    HW222767   4.681   1.137   9.102 -1.1659 -0.9649 -1.7073
 3769SOL     OW22768   2.348   3.353   6.436 -0.4947  0.0652 -0.0889
 3769SOL    HW122769   2.402   3.409   6.493 -0.3346  0.5260 -0.6892
 3769SOL    HW222770   2.344   3.409   6.358 -0.3725 -0.1400 -0.2427
 3770SOL     OW22771   0.228   0.410   3.071 -0.3407  0.4991  0.5219
 3770SOL    HW122772   0.319   0.386   3.052 -0.4027 -0.1180  1.0068
 3770SOL    HW222773   0.203   0.467   2.998  2.9459  2.3738  0.8455
 3771SOL     OW22774   2.475   2.615  13.016  0.7640  0.0449  0.6224
 3771SOL    HW122775   2.560   2.660  13.014  1.6825 -1.7227  0.5213
 3771SOL    HW222776   2.503   2.532  12.979  0.5232 -0.2471  1.0978
 3772SOL     OW22777   0.834   0.291   8.823  0.2167 -0.4247  0.2421
 3772SOL    HW122778   0.755   0.237   8.833 -0.2889  0.0944 -0.9782
 3772SOL    HW222779   0.794   0.360   8.771  1.6346  0.3555  0.1875
 3773SOL     OW22780   2.308   2.716   8.158  0.0255 -0.1299  0.1129
 3773SOL    HW122781   2.261   2.791   8.196 -0.3430 -0.2408 -0.1275
 3773SOL    HW222782   2.324   2.761   8.075 -0.9286  0.5266  0.2941
 3774SOL     OW22783   4.710   4.225   1.438  0.3142  0.0954 -0.8317
 3774SOL    HW122784   4.691   4.318   1.445  2.3889  0.6777 -2.8826
 3774SOL    HW222785   4.626   4.183   1.456  0.1992 -0.7472 -3.3089
 3775SOL     OW22786   3.431   3.491  13.686 -0.2689 -0.2958  0.8439
 3775SOL    HW122787   3.515   3.535  13.675 -0.6816  0.2125 -0.2235
 3775SOL    HW222788   3.427   3.469  13.779  3.2432 -0.6401  0.9129
 3776SOL     OW22789   2.091   2.364  12.377  0.6132 -0.3670 -0.3934
 3776SOL    HW122790   2.165   2.414  12.344  1.3076 -0.8693  0.4211
 3776SOL    HW222791   2.075   2.308  12.301 -2.3884  0.7019 -0.5562
 3777SOL     OW22792   3.172   2.285   6.200  0.2695 -0.1438  0.2486
 3777SOL    HW122793   3.181   2.296   6.106 -1.1247 -2.8175 -0.2139
 3777SOL    HW222794   3.220   2.360   6.235  1.3813 -1.0585  0.6719
 3778SOL     OW22795   1.111   3.120   5.243  0.4203 -0.2113  0.2591
 3778SOL    HW122796   1.082   3.109   5.153  1.1582 -1.7614  0.2058
 3778SOL    HW222797   1.032   3.147   5.289 -0.9998  0.9037 -2.8478
 3779SOL     OW22798   0.675   4.529   5.460  0.1139 -0.2229  0.0799
 3779SOL    HW122799   0.769   4.543   5.454 -0.1598  1.8242  0.6485
 3779SOL    HW222800   0.649   4.560   5.547 -1.1777 -0.5274 -0.2010
 3780SOL     OW22801   3.949   4.032  12.864  0.1287 -0.4547  0.0922
 3780SOL    HW122802   3.864   3.989  12.877 -0.3845  0.9370  1.3794
 3780SOL    HW222803   3.988   4.023  12.951  0.8604 -1.2613 -0.3150
 3781SOL     OW22804   2.278   2.991   8.218  0.9897 -0.2656 -0.4383
 3781SOL    HW122805   2.361   3.039   8.221  1.3878 -1.0280  0.8356
 3781SOL    HW222806   2.254   2.980   8.310  0.4868  2.2066 -0.2540
 3782SOL     OW22807   3.894   4.576   2.271  0.1155 -0.4187 -0.1301
 3782SOL    HW122808   3.885   4.669   2.249  0.1223 -0.5161 -0.5409
 3782SOL    HW222809   3.956   4.538   2.209 -1.4324 -1.4099 -1.0679
 3783SOL     OW22810   1.833   0.758   9.082 -0.0580 -0.0715 -0.1516
 3783SOL    HW122811   1.817   0.705   9.161 -0.3774 -0.8697 -0.7505
 3783SOL    HW222812   1.924   0.732   9.066 -0.5697 -2.8688  1.3557
 3784SOL     OW22813   2.521   3.489   3.197  0.5376  0.6800 -0.2947
 3784SOL    HW122814   2.602   3.524   3.235  1.1531 -0.8147 -0.2443
 3784SOL    HW222815   2.540   3.396   3.199 -0.7621  0.4106 -0.3190
 3785SOL     OW22816   2.247   1.645   4.917 -0.3596  0.1651 -0.0194
 3785SOL    HW122817   2.278   1.626   4.828 -0.2291  0.7629 -0.1023
 3785SOL    HW222818   2.221   1.736   4.909 -1.8015 -0.2954 -0.6955
 3786SOL     OW22819   0.389   2.158   6.246 -0.0774 -0.0916 -0.9043
 3786SOL    HW122820   0.480   2.186   6.238 -0.5521  1.1932 -1.8154
 3786SOL    HW222821   0.400   2.062   6.247 -0.3877 -0.1084  1.6039
 3787SOL     OW22822   0.052   1.254   9.351  0.0053 -0.2191 -0.3140
 3787SOL    HW122823   0.022   1.328   9.404 -1.0578 -1.3160  0.6200
 3787SOL    HW222824   0.022   1.179   9.402 -1.2871 -1.6884 -3.2020
 3788SOL     OW22825   2.155   2.277   8.483 -0.1405 -0.1671 -0.2786
 3788SOL    HW122826   2.156   2.339   8.555 -1.2866  0.4962 -0.8414
 3788SOL    HW222827   2.199   2.336   8.422  1.1489  0.3502  1.1543
 3789SOL     OW22828   2.601   4.000  13.195 -0.1799 -0.3796 -0.9368
 3789SOL    HW122829   2.671   3.945  13.160  2.2434  1.8555  0.3319
 3789SOL    HW222830   2.561   4.044  13.121  0.8544 -0.8598 -1.7750
 3790SOL     OW22831   3.299   2.485  16.951 -0.2560 -0.0791  0.0813
 3790SOL    HW122832   3.265   2.501  17.039 -2.1981  0.9814 -0.8536
 3790SOL    HW222833   3.222   2.455  16.903  0.1661  1.7298 -1.7230
 3791SOL     OW22834   2.959   2.613   7.485 -0.4700  0.0351 -0.3242
 3791SOL    HW122835   2.942   2.551   7.414 -1.5700  1.6419 -1.4381
 3791SOL    HW222836   3.054   2.627   7.485 -0.6040  0.9749  0.6488
 3792SOL     OW22837   1.906   0.289   8.639 -0.0412  0.2202  0.1928
 3792SOL    HW122838   1.872   0.378   8.625  2.5498  0.7796 -2.7123
 3792SOL    HW222839   1.873   0.238   8.566 -1.1096  1.1127  0.0557
 3793SOL     OW22840   1.404   4.353   9.962  0.1780  0.3881  0.3869
 3793SOL    HW122841   1.451   4.334   9.881  0.4564  0.0858  0.6188
 3793SOL    HW222842   1.456   4.304  10.026  1.8708  0.3263 -1.0314
 3794SOL     OW22843   1.131   1.014   5.820 -0.0333 -0.0055  0.2200
 3794SOL    HW122844   1.226   1.009   5.834  0.1174  0.9587 -0.4365
 3794SOL    HW222845   1.102   0.924   5.835  2.4266 -0.9004 -0.4118
 3795SOL     OW22846   1.255   3.880   4.909  0.2626 -0.2571 -0.3485
 3795SOL    HW122847   1.238   3.865   5.002  1.6701 -0.3339 -0.1177
 3795SOL    HW222848   1.179   3.848   4.860 -0.8895 -0.7323  1.7549
 3796SOL     OW22849   2.015   0.244   5.207  0.0248  0.0346 -0.6090
 3796SOL    HW122850   2.048   0.184   5.140 -2.1857 -2.3021  0.3687
 3796SOL    HW222851   2.040   0.333   5.185 -0.4463  0.7594  1.8858
 3797SOL     OW22852   2.185   2.001   3.733 -0.4489  0.0700  0.1478
 3797SOL    HW122853   2.246   1.938   3.772  0.7666  0.6400 -0.8268
 3797SOL    HW222854   2.237   2.048   3.668  0.8513 -0.4761  0.8030
 3798SOL     OW22855   1.240   4.693   0.755  0.2420 -0.1211  0.2428
 3798SOL    HW122856   1.147   4.679   0.775  1.0231 -3.6625  1.3598
 3798SOL    HW222857   1.251   4.620   0.694  1.3751  0.2274  0.0330
 3799SOL     OW22858   1.621   2.622   8.437 -0.0719  0.5917  0.1753
 3799SOL    HW122859   1.614   2.562   8.511 -0.1346  2.0425  1.3341
 3799SOL    HW222860   1.533   2.652   8.416 -0.0706 -0.3327 -1.1147
 3800SOL     OW22861   0.539   2.140   4.755  0.7824 -0.6583  0.1820
 3800SOL    HW122862   0.594   2.110   4.682 -1.7794 -1.9012 -1.2486
 3800SOL    HW222863   0.504   2.055   4.783 -1.0158  0.4539  1.2814
 3801SOL     OW22864   2.645   3.271   4.250  0.4488 -0.3889  0.1691
 3801SOL    HW122865   2.648   3.176   4.263 -0.9104 -0.7952 -2.5687
 3801SOL    HW222866   2.574   3.279   4.187  0.6228  0.4063  0.0724
 3802SOL     OW22867   3.638   0.851  16.398  0.1279  0.3356  0.4999
 3802SOL    HW122868   3.697   0.875  16.326 -1.5973 -0.1239 -1.0919
 3802SOL    HW222869   3.676   0.771  16.434 -0.4222 -0.3988 -0.5402
 3803SOL     OW22870   3.728   0.765   5.773 -0.8115  0.4639 -0.2041
 3803SOL    HW122871   3.718   0.716   5.854 -0.8277 -1.5003 -1.4115
 3803SOL    HW222872   3.643   0.809   5.775 -1.2841 -0.6506  4.2553
 3804SOL     OW22873   2.752   3.479   9.755  0.6995  0.2942 -0.4959
 3804SOL    HW122874   2.792   3.471   9.668  2.3095  0.8050  0.1972
 3804SOL    HW222875   2.692   3.553   9.748  0.2535 -0.1305 -1.1120
 3805SOL     OW22876   2.933   4.649   0.620  0.0038 -0.4114  0.1282
 3805SOL    HW122877   2.932   4.569   0.673  1.7885  0.9154  2.1870
 3805SOL    HW222878   2.843   4.680   0.625 -0.2950 -1.1080 -1.0342
 3806SOL     OW22879   4.052   1.946   0.099 -0.3511 -0.8706  0.3437
 3806SOL    HW122880   4.076   1.873   0.157  1.2610 -0.8375 -0.2782
 3806SOL    HW222881   4.102   2.018   0.137 -0.1232 -0.5801 -0.5243
 3807SOL     OW22882   4.093   0.147   5.638 -0.2831  0.0981  0.1010
 3807SOL    HW122883   4.081   0.223   5.582 -1.6308  0.2573  0.5919
 3807SOL    HW222884   4.013   0.154   5.691  0.3130  0.8251  0.8998
 3808SOL     OW22885   0.621   3.110   3.358  0.1580 -0.4901  0.0611
 3808SOL    HW122886   0.662   3.066   3.283 -0.8490 -0.2857 -0.6103
 3808SOL    HW222887   0.699   3.118   3.413  1.2898 -1.3039 -1.4230
 3809SOL     OW22888   1.252   3.617   4.015 -0.3263  0.4146  0.4524
 3809SOL    HW122889   1.251   3.641   3.922  0.7803 -0.8590  0.1092
 3809SOL    HW222890   1.162   3.638   4.040 -0.5647  1.6727 -1.4311
 3810SOL     OW22891   3.470   0.907   4.984 -0.0288 -0.0924  0.4087
 3810SOL    HW122892   3.561   0.937   4.982 -0.1165  0.2261  1.5761
 3810SOL    HW222893   3.427   0.983   5.023  0.7759  0.5795 -0.0181
 3811SOL     OW22894   0.801   1.563  14.786  0.1719  0.2657 -0.2968
 3811SOL    HW122895   0.896   1.562  14.788  0.1471  1.5199  0.8811
 3811SOL    HW222896   0.786   1.584  14.693  0.3615 -2.0994 -0.8852
 3812SOL     OW22897   0.653   1.496   1.177 -0.6057  0.8727 -0.6164
 3812SOL    HW122898   0.614   1.502   1.090  0.0775  0.0304 -0.9861
 3812SOL    HW222899   0.683   1.405   1.172 -2.2640  0.3024  0.0639
 3813SOL     OW22900   4.324   1.102   9.372  0.1401 -0.4478 -0.2000
 3813SOL    HW122901   4.344   1.008   9.370  2.4578  0.0890 -1.7361
 3813SOL    HW222902   4.399   1.140   9.418  1.0907 -0.1117 -2.0301
 3814SOL     OW22903   2.250   2.042   4.823  0.4107  0.3820 -0.4965
 3814SOL    HW122904   2.312   1.983   4.781 -1.0368 -2.4058  1.2815
 3814SOL    HW222905   2.215   2.085   4.744 -0.4035 -0.1913 -0.4493
 3815SOL     OW22906   1.944   3.652   9.690 -0.2461  0.2938 -0.1216
 3815SOL    HW122907   1.893   3.587   9.642 -1.1599  0.6214  0.4043
 3815SOL    HW222908   1.892   3.655   9.771  2.1388  1.5307  1.3893
 3816SOL     OW22909   1.683   2.422   7.855 -0.3250 -0.2930  0.2335
 3816SOL    HW122910   1.679   2.468   7.939  1.8214  1.8151 -0.8179
 3816SOL    HW222911   1.717   2.335   7.879  0.0297 -0.6857 -1.7323
 3817SOL     OW22912   0.456   4.407  10.096  0.1052 -0.0707  0.3669
 3817SOL    HW122913   0.384   4.462  10.128 -0.5550 -0.4405 -0.4704
 3817SOL    HW222914   0.497   4.393  10.181 -0.0978  0.1785  0.5056
 3818SOL     OW22915   1.153   3.666  16.264 -0.4411 -0.2501  0.3020
 3818SOL    HW122916   1.230   3.722  16.273 -0.1660 -0.5317 -0.3286
 3818SOL    HW222917   1.121   3.694  16.178 -1.3222 -0.7734  0.4598
 3819SOL     OW22918   3.446   1.982   6.754 -0.0427  0.4484 -0.2298
 3819SOL    HW122919   3.481   2.071   6.766 -0.0763  0.1347  2.1355
 3819SOL    HW222920   3.494   1.937   6.823  1.4132  2.8515  0.3408
 3820SOL     OW22921   1.824   1.659   9.989 -0.5715  0.1849 -0.0423
 3820SOL    HW122922   1.794   1.580  10.035 -0.2780 -0.7929 -1.5356
 3820SOL    HW222923   1.917   1.637   9.980 -0.3577  0.8575  0.5085
 3821SOL     OW22924   1.829   2.727   7.060  0.8412  0.2368 -0.0589
 3821SOL    HW122925   1.782   2.707   7.141  3.7535 -0.8655  1.3630
 3821SOL    HW222926   1.790   2.652   7.015  2.1271  0.3446 -1.3692
 3822SOL     OW22927   0.429   2.610   9.771  0.0165  0.2931  0.0618
 3822SOL    HW122928   0.361   2.649   9.716  0.3943 -0.6165 -1.0556
 3822SOL    HW222929   0.440   2.674   9.841 -0.3514  1.8611 -1.3014
 3823SOL     OW22930   3.243   2.196   5.021  0.3478  0.0530  0.3363
 3823SOL    HW122931   3.293   2.144   4.958 -0.5813 -0.8570  0.3555
 3823SOL    HW222932   3.304   2.269   5.034 -0.3070  0.7526 -0.5129
 3824SOL     OW22933   3.038   2.088  14.638 -0.5748  0.0149  0.6104
 3824SOL    HW122934   2.993   2.014  14.596 -2.0276  1.0794  0.3072
 3824SOL    HW222935   2.965   2.141  14.670 -0.7333 -0.7107  1.4369
 3825SOL     OW22936   3.661   2.934   6.089 -0.3950 -0.2263  0.2272
 3825SOL    HW122937   3.614   2.855   6.063  0.1431 -0.5563  0.2711
 3825SOL    HW222938   3.599   3.006   6.073 -1.6573 -1.0152  1.5555
 3826SOL     OW22939   0.827   2.952  11.005 -0.0315  0.2984 -0.1113
 3826SOL    HW122940   0.862   3.011  10.939  2.4845 -0.7967  0.2352
 3826SOL    HW222941   0.744   2.937  10.960 -0.0860 -0.7688  0.3433
 3827SOL     OW22942   4.523   0.839   2.680 -0.3179 -0.2540 -0.5467
 3827SOL    HW122943   4.583   0.792   2.738  0.8344  0.0505 -1.4911
 3827SOL    HW222944   4.457   0.770   2.674 -0.7010  0.0797 -0.1406
 3828SOL     OW22945   2.650   1.924  17.427 -0.0192  0.2009 -0.4883
 3828SOL    HW122946   2.597   1.845  17.425  1.9420 -1.1064 -0.0089
 3828SOL    HW222947   2.582   1.981  17.391  0.2428  1.8145  1.5369
 3829SOL     OW22948   2.516   4.020   1.946  0.3776  0.1035 -0.1660
 3829SOL    HW122949   2.423   4.007   1.924  0.0456  3.2590 -0.6535
 3829SOL    HW222950   2.547   3.930   1.952  1.8691  0.5628 -1.1245
 3830SOL     OW22951   3.338   0.923   0.673  0.0163  0.4550 -0.5251
 3830SOL    HW122952   3.349   0.845   0.729  1.0214  0.2297 -1.0291
 3830SOL    HW222953   3.381   0.901   0.590 -1.5292  1.6419 -1.6269
 3831SOL     OW22954   0.732   1.815   9.099 -0.1753  0.3400  0.4619
 3831SOL    HW122955   0.737   1.861   9.183  1.8440 -1.7488  1.4970
 3831SOL    HW222956   0.808   1.848   9.053 -0.7165 -0.0761 -0.7223
 3832SOL     OW22957   1.488   2.456   7.337  0.3212 -0.3714 -0.5698
 3832SOL    HW122958   1.413   2.396   7.334 -0.0502  0.0981 -0.6190
 3832SOL    HW222959   1.528   2.419   7.416  0.9699 -0.2897 -0.8592
 3833SOL     OW22960   3.060   0.114  17.572  0.1074 -0.1308 -0.2352
 3833SOL    HW122961   3.053   0.209  17.583 -0.0523 -0.3218  1.3516
 3833SOL    HW222962   3.048   0.083  17.662  1.6354 -0.0346  0.0073
 3834SOL     OW22963   3.217   3.911   9.791  0.2206 -0.2679  0.3725
 3834SOL    HW122964   3.277   3.942   9.723 -0.8158 -0.5347 -0.6646
 3834SOL    HW222965   3.159   3.851   9.744  1.1859 -0.9154 -0.0058
 3835SOL     OW22966   4.153   2.285   6.449 -0.4241  0.1096 -0.3617
 3835SOL    HW122967   4.247   2.267   6.450 -0.7487 -1.3984  1.8686
 3835SOL    HW222968   4.134   2.327   6.365 -4.2278  0.1150  0.5159
 3836SOL     OW22969   0.720   3.956   5.605  0.1678 -0.2644 -0.5065
 3836SOL    HW122970   0.627   3.935   5.597 -0.2105  1.8933 -1.6816
 3836SOL    HW222971   0.717   4.052   5.604  0.3173 -0.2687 -1.6600
 3837SOL     OW22972   4.430   2.754   6.039  0.2867 -1.0027  0.3075
 3837SOL    HW122973   4.336   2.767   6.040  0.3092 -0.9821  1.5399
 3837SOL    HW222974   4.466   2.794   6.118 -0.1610 -0.2659  0.1291
 3838SOL     OW22975   0.830   4.588   7.531  0.1934  0.4232 -0.2381
 3838SOL    HW122976   0.754   4.619   7.579 -0.3255 -0.5572 -0.4254
 3838SOL    HW222977   0.812   4.610   7.440 -1.7267  0.5844  0.1861
 3839SOL     OW22978   1.714   2.174   0.282  0.3170 -0.4049  0.4062
 3839SOL    HW122979   1.746   2.260   0.312 -1.2030  0.0128  0.8235
 3839SOL    HW222980   1.712   2.186   0.187 -0.9530  0.4948  0.5322
 3840SOL     OW22981   1.735   3.913   6.609 -0.2212 -0.1514 -0.0983
 3840SOL    HW122982   1.783   3.979   6.559 -0.9793  1.8363  1.8043
 3840SOL    HW222983   1.706   3.847   6.546 -3.3533 -1.3677  2.6387
 3841SOL     OW22984   3.906   2.491   6.406  0.2813  0.3148 -0.5797
 3841SOL    HW122985   3.978   2.519   6.463  0.6863  0.1183 -0.9904
 3841SOL    HW222986   3.920   2.535   6.323  2.3816 -1.8524 -1.3982
 3842SOL     OW22987   0.863   4.675   6.880  0.4058  0.4149  0.5036
 3842SOL    HW122988   0.801   0.026   6.874  1.0659  0.6987 -2.6101
 3842SOL    HW222989   0.847   4.645   6.970  0.4781  0.5798  0.5706
 3843SOL     OW22990   3.113   3.716  11.398  0.1335  1.4970  0.1780
 3843SOL    HW122991   3.159   3.697  11.316  0.0907 -0.1107  0.5117
 3843SOL    HW222992   3.025   3.684  11.377  0.4794 -1.0769  2.5688
 3844SOL     OW22993   2.789   0.184   3.918 -0.6073 -0.0738  0.3402
 3844SOL    HW122994   2.813   0.099   3.953 -2.4405 -0.5119  0.5308
 3844SOL    HW222995   2.810   0.240   3.993 -0.5268 -2.4868  2.0947
 3845SOL     OW22996   2.293   2.685   6.302 -0.0769  0.0483  0.0625
 3845SOL    HW122997   2.256   2.720   6.221  0.7794  0.4436 -0.1525
 3845SOL    HW222998   2.302   2.765   6.354  0.0911  0.0075  0.0946
 3846SOL     OW22999   2.157   0.948   6.112 -0.4409 -0.1881 -0.5772
 3846SOL    HW123000   2.144   0.868   6.162  1.3056 -0.6420 -0.8482
 3846SOL    HW223001   2.097   1.014   6.147 -0.5698 -1.6206  1.8482
 3847SOL     OW23002   3.384   0.451   8.852 -0.2150 -0.0852 -0.2710
 3847SOL    HW123003   3.407   0.379   8.795 -1.9407 -1.3437  0.6001
 3847SOL    HW223004   3.468   0.489   8.877  0.8862 -1.6783 -1.6147
 3848SOL     OW23005   1.841   1.143   2.066  0.4979 -0.7507  0.4633
 3848SOL    HW123006   1.925   1.117   2.028  1.1674  1.4086  0.4634
 3848SOL    HW223007   1.798   1.221   2.029  2.4835  0.3529  0.4651
 3849SOL     OW23008   2.914   3.857   7.330 -0.5235  0.1439 -0.3084
 3849SOL    HW123009   2.958   3.941   7.318 -0.2725  0.0478 -0.0590
 3849SOL    HW223010   2.823   3.879   7.309 -0.9845 -0.4746  1.0768
 3850SOL     OW23011   0.674   3.046   4.880 -0.4625 -0.1951 -0.0514
 3850SOL    HW123012   0.700   2.978   4.943 -1.1648  0.4708  0.9578
 3850SOL    HW223013   0.614   3.093   4.938  1.3368 -0.1762  1.7822
 3851SOL     OW23014   3.687   3.610   7.227  0.3894  0.9318 -0.3012
 3851SOL    HW123015   3.703   3.596   7.320  0.3634 -2.6942 -0.8742
 3851SOL    HW223016   3.725   3.530   7.192 -0.7888 -0.5376  1.8113
 3852SOL     OW23017   1.226   2.131  11.672  0.0022 -0.2032 -0.7493
 3852SOL    HW123018   1.264   2.115  11.758  0.7340  1.1175 -0.8296
 3852SOL    HW223019   1.135   2.137  11.702 -0.5203 -0.1656 -2.3581
 3853SOL     OW23020   2.315   2.496   5.691  0.3248 -0.2094 -0.1144
 3853SOL    HW123021   2.264   2.485   5.772 -0.1225 -2.1973 -0.6902
 3853SOL    HW223022   2.354   2.409   5.690  0.0466 -0.3303 -0.4649
 3854SOL     OW23023   1.019   2.436   7.305 -0.6645  0.2920  0.2073
 3854SOL    HW123024   0.963   2.505   7.339 -0.8599  0.7324 -1.0257
 3854SOL    HW223025   0.979   2.443   7.218 -1.9141 -1.8493  0.5908
 3855SOL     OW23026   1.388   4.586   8.826 -0.1350  0.9962  0.0663
 3855SOL    HW123027   1.312   4.540   8.862  0.1607  0.6090  0.1912
 3855SOL    HW223028   1.457   4.570   8.890 -0.3231  1.4108  0.3724
 3856SOL     OW23029   0.347   0.100   4.394  0.1850  0.2226 -0.1884
 3856SOL    HW123030   0.431   0.087   4.437 -0.6024 -2.3325  0.6173
 3856SOL    HW223031   0.350   0.195   4.391  0.7175  0.2983  2.4336
 3857SOL     OW23032   4.230   0.304   3.976 -0.4135  0.4261 -0.4937
 3857SOL    HW123033   4.245   0.316   4.070  0.5735 -2.5225 -0.2546
 3857SOL    HW223034   4.293   0.235   3.955 -0.3838  0.5176 -0.7087
 3858SOL     OW23035   1.881   1.654   6.217  0.7808  0.3624  0.0800
 3858SOL    HW123036   1.977   1.660   6.218  0.9695 -2.5030  0.5103
 3858SOL    HW223037   1.860   1.657   6.123  1.5616  2.2919 -0.0309
 3859SOL     OW23038   1.062   1.813   9.288  0.3212 -0.3973  0.3396
 3859SOL    HW123039   1.008   1.735   9.275  0.3636 -0.5871  1.3081
 3859SOL    HW223040   1.054   1.856   9.203 -2.4172  1.3263  1.4325
 3860SOL     OW23041   1.211   4.085  12.761 -0.4011 -0.1622  0.8283
 3860SOL    HW123042   1.246   4.050  12.843 -0.2247  2.5540  1.9354
 3860SOL    HW223043   1.144   4.147  12.791  0.0388  0.8993 -0.3527
 3861SOL     OW23044   3.774   2.208   3.682  0.0811  0.1461  0.4162
 3861SOL    HW123045   3.687   2.247   3.675 -0.2339 -1.1210 -2.5381
 3861SOL    HW223046   3.812   2.253   3.758  0.3337  1.6257 -0.5795
 3862SOL     OW23047   3.164   2.611  13.658 -0.3947  0.1430  0.5926
 3862SOL    HW123048   3.117   2.659  13.727  1.3851  0.9809  1.2076
 3862SOL    HW223049   3.238   2.671  13.657  0.2744 -0.7003 -0.2979
 3863SOL     OW23050   3.955   1.456   7.583 -0.8169  0.2018 -0.1067
 3863SOL    HW123051   3.916   1.498   7.506 -1.0475  0.4894  0.1672
 3863SOL    HW223052   3.924   1.366   7.573  3.6761 -1.9076  5.7682
 3864SOL     OW23053   2.704   2.378   1.410  0.2125 -0.8333  0.4712
 3864SOL    HW123054   2.749   2.463   1.414  1.2026 -1.3510  0.4417
 3864SOL    HW223055   2.651   2.387   1.331 -2.2173  0.3528  2.2275
 3865SOL     OW23056   1.870   2.338   0.426  0.0209  0.2272 -0.3471
 3865SOL    HW123057   1.823   2.406   0.475  1.2113  0.1790  0.8586
 3865SOL    HW223058   1.959   2.375   0.423 -0.2094  0.9638  1.6511
 3866SOL     OW23059   2.322   4.513  14.867 -0.5846  0.6164  0.3132
 3866SOL    HW123060   2.322   4.421  14.840  0.0962  1.2315 -1.8467
 3866SOL    HW223061   2.239   4.544  14.830  0.0117  1.8050 -0.0255
 3867SOL     OW23062   1.005   2.645   0.368  0.1938 -0.5211 -0.1815
 3867SOL    HW123063   0.923   2.596   0.376 -0.4648  0.9518  2.2179
 3867SOL    HW223064   1.051   2.625   0.450 -1.5382 -2.0194  0.4367
 3868SOL     OW23065   1.966   0.956   5.762 -0.2993 -0.0400  0.0351
 3868SOL    HW123066   1.893   0.934   5.820 -0.8513 -0.5044 -0.8431
 3868SOL    HW223067   2.000   0.871   5.735  0.1204  0.1761 -0.1291
 3869SOL     OW23068   4.389   1.978   4.645 -0.3442 -0.0797  0.5157
 3869SOL    HW123069   4.444   1.993   4.722 -0.1084  1.5845  0.0341
 3869SOL    HW223070   4.310   1.939   4.682  0.6140 -2.0299  0.4603
 3870SOL     OW23071   0.392   1.136   2.304 -0.6874  0.2662 -0.4188
 3870SOL    HW123072   0.456   1.154   2.374 -0.0270  0.0025 -0.9595
 3870SOL    HW223073   0.406   1.044   2.286 -0.5677  0.2547 -0.2668
 3871SOL     OW23074   0.699   1.576  17.170 -0.0189  0.0676 -0.7387
 3871SOL    HW123075   0.728   1.488  17.147 -3.3632 -1.0416 -0.7162
 3871SOL    HW223076   0.698   1.578  17.266 -1.4206 -1.1572 -0.7323
 3872SOL     OW23077   0.388   1.829   8.609  0.2419  0.0524  0.5172
 3872SOL    HW123078   0.415   1.887   8.681 -0.6832  0.3015  0.6569
 3872SOL    HW223079   0.324   1.774   8.653 -0.8257 -0.8151 -2.1382
 3873SOL     OW23080   3.931   2.526   7.273  0.3407  0.3546  0.0772
 3873SOL    HW123081   3.910   2.576   7.194 -0.2988 -1.0341 -0.6349
 3873SOL    HW223082   4.025   2.539   7.280  0.6751 -1.3423 -1.3972
 3874SOL     OW23083   1.723   4.078  15.614 -0.2996  0.6701  0.7488
 3874SOL    HW123084   1.774   4.069  15.533  0.3199 -0.0735  1.2299
 3874SOL    HW223085   1.713   3.989  15.646 -1.5231  0.7198  0.5014
 3875SOL     OW23086   3.504   2.139   8.518 -0.2803  0.6885 -0.2108
 3875SOL    HW123087   3.488   2.046   8.532 -0.6929  0.6875 -0.6878
 3875SOL    HW223088   3.435   2.167   8.457 -0.8480  0.2600  0.2466
 3876SOL     OW23089   1.692   3.145  14.513 -0.4808  0.2888  0.1022
 3876SOL    HW123090   1.759   3.092  14.470  1.0290  0.1023  2.6945
 3876SOL    HW223091   1.680   3.203  14.437  1.7790  2.6696  1.5417
 3877SOL     OW23092   2.379   1.741   8.029 -0.1898 -0.2826  0.2568
 3877SOL    HW123093   2.365   1.686   8.106  0.7649  0.1770  0.7619
 3877SOL    HW223094   2.297   1.723   7.982 -0.5563 -0.6429  1.0430
 3878SOL     OW23095   4.514   4.043   4.465  0.7779  0.3640 -0.2790
 3878SOL    HW123096   4.561   4.114   4.422 -3.0364  2.3457 -1.1705
 3878SOL    HW223097   4.443   4.092   4.507  0.5419 -0.1398 -0.0970
 3879SOL     OW23098   0.081   3.997   9.231  0.0955  0.1166  0.2163
 3879SOL    HW123099   0.142   4.071   9.224  0.9157 -0.6920 -1.1865
 3879SOL    HW223100   0.052   3.995   9.139  1.6941 -0.7942 -0.2627
 3880SOL     OW23101   0.823   0.637   1.793 -0.2912 -0.3167 -0.2180
 3880SOL    HW123102   0.776   0.557   1.813 -2.0966  0.5822 -0.8405
 3880SOL    HW223103   0.755   0.702   1.776 -0.9710 -1.2615 -1.0586
 3881SOL     OW23104   1.800   0.667  16.986 -0.5285 -0.3712  0.2004
 3881SOL    HW123105   1.769   0.649  16.897 -1.8653 -1.9445  1.0036
 3881SOL    HW223106   1.834   0.755  16.969  1.3743 -0.9214  1.0589
 3882SOL     OW23107   0.168   3.145   1.956 -0.1398 -0.3570 -0.0842
 3882SOL    HW123108   0.083   3.188   1.964  0.8875  1.1006  3.1553
 3882SOL    HW223109   0.176   3.119   1.864  1.2012 -0.5759  0.1012
 3883SOL     OW23110   0.822   1.658  11.879  0.1881 -0.2261  0.3240
 3883SOL    HW123111   0.840   1.735  11.826 -1.6890 -1.1527 -1.6484
 3883SOL    HW223112   0.903   1.612  11.856  0.4520  0.0436  0.6975
 3884SOL     OW23113   2.561   3.864  12.821 -0.2531 -0.4993 -0.0896
 3884SOL    HW123114   2.474   3.825  12.836 -0.3986 -0.5649 -1.0608
 3884SOL    HW223115   2.560   3.901  12.733 -1.0766  1.6450  0.8380
 3885SOL     OW23116   0.413   0.634   5.725 -0.5557 -0.4841  0.0755
 3885SOL    HW123117   0.334   0.680   5.698 -1.1373 -2.1000 -0.9529
 3885SOL    HW223118   0.404   0.550   5.681  1.4495 -0.8809  0.4076
 3886SOL     OW23119   4.522   2.807   2.866 -0.2350  0.3385  0.5304
 3886SOL    HW123120   4.612   2.787   2.842 -0.3811 -1.6335  1.6494
 3886SOL    HW223121   4.517   2.771   2.955 -0.2786 -0.3359  0.2481
 3887SOL     OW23122   3.131   0.500   1.904 -0.0195 -0.2898  0.4154
 3887SOL    HW123123   3.067   0.439   1.866 -0.7825  1.3151 -0.8845
 3887SOL    HW223124   3.130   0.484   1.999 -0.5601  1.4699  0.7082
 3888SOL     OW23125   0.564   2.052  12.285 -0.0165  0.0408 -0.0654
 3888SOL    HW123126   0.514   2.106  12.347 -0.2262  0.2909 -0.4524
 3888SOL    HW223127   0.655   2.078  12.294  0.4824 -2.0304  0.9101
 3889SOL     OW23128   0.905   2.270   3.191 -0.0970  0.4840  0.3349
 3889SOL    HW123129   0.931   2.315   3.111  1.5339 -2.8610 -1.0580
 3889SOL    HW223130   0.945   2.329   3.255 -1.9027  0.7157  1.2638
 3890SOL     OW23131   2.285   1.341   7.093  0.2130 -0.2518  0.2039
 3890SOL    HW123132   2.330   1.388   7.023  0.7837  0.2195  0.8987
 3890SOL    HW223133   2.245   1.275   7.035  0.1826 -0.5565  0.5735
 3891SOL     OW23134   4.146   2.753   4.537  0.4319 -0.2079  0.1732
 3891SOL    HW123135   4.126   2.742   4.444 -1.7509 -0.4817  0.6624
 3891SOL    HW223136   4.226   2.706   4.560 -0.5887 -1.1159  1.8897
 3892SOL     OW23137   3.765   0.526   6.364 -0.1248 -0.0760 -0.3350
 3892SOL    HW123138   3.858   0.533   6.339 -0.0863  1.6259  0.2708
 3892SOL    HW223139   3.770   0.477   6.445  0.4067  0.7456  0.1335
 3893SOL     OW23140   0.918   0.729   3.415  0.2949 -0.0535 -0.3563
 3893SOL    HW123141   0.878   0.680   3.343 -0.9069  0.3649  0.0336
 3893SOL    HW223142   0.996   0.674   3.420 -0.0926 -0.5842 -0.0870
 3894SOL     OW23143   1.976   0.762   5.505  0.0579  0.4462  0.2479
 3894SOL    HW123144   1.909   0.730   5.565 -0.9219 -0.4660 -1.3256
 3894SOL    HW223145   1.923   0.834   5.470  0.3849  0.8852  0.6559
 3895SOL     OW23146   4.058   1.628   5.654  0.0742 -0.0782 -0.3445
 3895SOL    HW123147   3.997   1.611   5.582  1.6489 -2.2614 -1.1704
 3895SOL    HW223148   4.125   1.560   5.640  0.8084  0.3959  0.8747
 3896SOL     OW23149   2.077   4.249  13.065  0.0607 -0.1524  0.0189
 3896SOL    HW123150   2.157   4.207  13.096  0.0176 -0.3380 -0.1231
 3896SOL    HW223151   2.025   4.260  13.145 -0.7850  0.7202 -0.6571
 3897SOL     OW23152   3.801   0.361   6.579 -0.0288 -0.5220 -0.0455
 3897SOL    HW123153   3.826   0.269   6.575  0.9544 -0.2890  0.8842
 3897SOL    HW223154   3.709   0.343   6.597 -0.8843  2.8298 -1.0149
 3898SOL     OW23155   4.514   3.148   1.942 -0.5535  0.0091  0.3193
 3898SOL    HW123156   4.543   3.067   1.899 -1.4744 -0.2540  0.1935
 3898SOL    HW223157   4.420   3.132   1.948 -0.7144  0.9187  0.1145
 3899SOL     OW23158   3.080   3.934   8.529  0.4672 -0.3136  0.3679
 3899SOL    HW123159   3.031   3.852   8.534  0.8867 -0.6062 -0.3761
 3899SOL    HW223160   3.031   3.981   8.462 -0.1091 -1.7640 -0.2253
 3900SOL     OW23161   0.633   2.890   6.912  0.4145 -0.0405 -0.6249
 3900SOL    HW123162   0.561   2.843   6.872 -0.9485  3.0421 -1.8025
 3900SOL    HW223163   0.652   2.951   6.840 -1.8174 -0.3669 -1.4597
 3901SOL     OW23164   0.585   3.022   7.754  0.4421  0.3590  0.2414
 3901SOL    HW123165   0.545   3.079   7.819  1.4714  0.2376  0.9873
 3901SOL    HW223166   0.679   3.042   7.761  0.9349 -1.4864 -0.9296
 3902SOL     OW23167   4.384   3.726   3.055  0.0972 -0.2940  0.4483
 3902SOL    HW123168   4.383   3.633   3.033  2.1615 -0.4943  1.2203
 3902SOL    HW223169   4.415   3.769   2.976 -0.8254 -2.1714 -0.9073
 3903SOL     OW23170   0.458   1.863   7.566  0.5039 -0.1736 -0.2858
 3903SOL    HW123171   0.530   1.851   7.628  1.8331  3.0338 -1.1740
 3903SOL    HW223172   0.435   1.777   7.532 -1.3372  0.0548  0.4234
 3904SOL     OW23173   0.066   3.788   4.805 -0.3660 -0.2212 -0.0510
 3904SOL    HW123174   0.036   3.856   4.866 -1.0737 -0.7711  0.2192
 3904SOL    HW223175   0.010   3.798   4.727 -1.4751 -0.7646  0.6658
 3905SOL     OW23176   4.678   3.275   7.314 -0.1175 -0.0743 -1.0958
 3905SOL    HW123177   4.713   3.230   7.392  0.2442 -1.5990 -2.1418
 3905SOL    HW223178   4.661   3.364   7.345  0.1570  0.7307 -3.2631
 3906SOL     OW23179   0.781   0.695   6.105 -0.5489 -0.0446 -0.6236
 3906SOL    HW123180   0.866   0.692   6.150 -0.4325 -2.6337 -1.0370
 3906SOL    HW223181   0.712   0.718   6.167 -2.1629 -0.7967 -2.1369
 3907SOL     OW23182   0.656   0.433   1.840 -0.4096  0.2236  0.6379
 3907SOL    HW123183   0.645   0.350   1.793  0.3625 -0.2480  1.2997
 3907SOL    HW223184   0.584   0.482   1.800  0.8862  2.4314  1.0096
 3908SOL     OW23185   1.090   0.169   4.782 -0.2325  0.1818  0.1980
 3908SOL    HW123186   1.135   0.195   4.862  0.0769  1.7494 -0.4861
 3908SOL    HW223187   1.026   0.105   4.812 -0.5524 -1.1520 -3.2641
 3909SOL     OW23188   3.407   0.815   4.231  0.0914  0.0671  0.0644
 3909SOL    HW123189   3.364   0.859   4.157  0.7965 -1.0781 -1.0175
 3909SOL    HW223190   3.436   0.734   4.189  1.2532  0.1990  0.6224
 3910SOL     OW23191   3.416   3.049   7.083  0.0605 -0.2788  0.1302
 3910SOL    HW123192   3.492   3.034   7.027 -1.2094  2.4945 -2.3336
 3910SOL    HW223193   3.348   3.050   7.015  0.4098  0.0861 -0.2149
 3911SOL     OW23194   2.700   1.449   4.083 -0.1759 -0.1889 -0.1908
 3911SOL    HW123195   2.738   1.524   4.129  0.6762 -0.2537 -0.7786
 3911SOL    HW223196   2.783   1.406   4.062  0.1319 -0.5167  1.6878
 3912SOL     OW23197   0.927   1.911  12.059 -0.2300  0.2205  0.1797
 3912SOL    HW123198   0.972   1.927  12.142 -1.2193 -0.9638  0.9571
 3912SOL    HW223199   0.877   1.993  12.054 -0.0048  0.4235  1.2454
 3913SOL     OW23200   3.537   3.540   0.533 -0.0771 -0.2510 -0.1345
 3913SOL    HW123201   3.540   3.625   0.577  0.7935  0.5083 -1.6466
 3913SOL    HW223202   3.505   3.486   0.605  0.7122 -3.1325 -1.9522
 3914SOL     OW23203   2.403   4.127   8.032  0.6137  0.8561  0.5807
 3914SOL    HW123204   2.321   4.147   7.987 -0.3044 -0.7282  1.5472
 3914SOL    HW223205   2.375   4.077   8.109 -0.8850 -1.1548 -1.2740
 3915SOL     OW23206   1.188   0.405   7.034 -0.0550 -0.5211 -0.5756
 3915SOL    HW123207   1.252   0.334   7.025  0.2548 -0.0012 -2.4919
 3915SOL    HW223208   1.148   0.415   6.947 -0.2965  0.7368 -0.3209
 3916SOL     OW23209   0.226   4.313  14.750 -0.1262 -0.3924 -0.4553
 3916SOL    HW123210   0.310   4.352  14.726  0.2427 -1.3593 -0.7162
 3916SOL    HW223211   0.161   4.363  14.699  0.1352  2.4969  2.0692
 3917SOL     OW23212   2.663   0.487  14.636 -0.4475  0.3307 -0.0598
 3917SOL    HW123213   2.671   0.538  14.554 -0.5210  1.2554  0.5043
 3917SOL    HW223214   2.614   0.413  14.601 -1.3603  0.6200  0.6001
 3918SOL     OW23215   3.086   1.697   6.277 -0.1943 -0.5098  0.6260
 3918SOL    HW123216   3.155   1.640   6.243  0.0348 -1.2632  2.3366
 3918SOL    HW223217   3.068   1.669   6.367 -1.2440 -1.8518 -0.0035
 3919SOL     OW23218   0.124   3.245  16.182  0.2217  0.1386  0.3094
 3919SOL    HW123219   0.140   3.167  16.236 -0.3768 -0.4652 -0.3788
 3919SOL    HW223220   0.170   3.309  16.236  0.4055  1.2052 -1.1527
 3920SOL     OW23221   0.200   1.608   6.824 -0.1377 -0.7136 -1.0478
 3920SOL    HW123222   0.217   1.546   6.753  1.3712  0.9414 -2.1081
 3920SOL    HW223223   0.124   1.647   6.781 -0.1214  1.0939  0.5759
 3921SOL     OW23224   0.780   1.622   8.932  0.0298  0.1458 -0.6113
 3921SOL    HW123225   0.770   1.668   8.848  4.5153 -0.8426 -1.6947
 3921SOL    HW223226   0.753   1.693   8.990 -0.7324 -0.2147 -0.5218
 3922SOL     OW23227   0.739   2.266   6.635 -0.1709  0.4297  0.1667
 3922SOL    HW123228   0.786   2.190   6.601  1.5364  0.3510  2.7613
 3922SOL    HW223229   0.790   2.282   6.714  0.8692  0.2108 -0.4573
 3923SOL     OW23230   1.739   2.757   3.473  0.0440 -0.3154  0.1713
 3923SOL    HW123231   1.805   2.711   3.525 -0.8366 -1.0914  0.6253
 3923SOL    HW223232   1.730   2.842   3.517 -1.5998  0.6013 -1.9219
 3924SOL     OW23233   0.845   1.509   2.229  1.0896 -0.3225  0.0986
 3924SOL    HW123234   0.927   1.460   2.233  1.5756  0.4615 -0.2880
 3924SOL    HW223235   0.858   1.578   2.164  0.4323 -0.7667 -0.4957
 3925SOL     OW23236   1.873   1.841   7.740  0.0220  0.2108  0.1030
 3925SOL    HW123237   1.904   1.817   7.828 -2.2295 -0.1040  0.8216
 3925SOL    HW223238   1.780   1.825   7.758  0.0587  0.4365  0.4937
 3926SOL     OW23239   1.245   1.295  12.878  0.4238  0.2049  0.4618
 3926SOL    HW123240   1.209   1.256  12.798  2.1874  0.0529 -0.2523
 3926SOL    HW223241   1.284   1.221  12.925 -3.6476 -1.9762  0.4200
 3927SOL     OW23242   3.522   4.024  11.870  0.0299 -0.3172 -0.2151
 3927SOL    HW123243   3.514   4.095  11.933  2.7452 -0.1006 -0.1166
 3927SOL    HW223244   3.593   3.974  11.910 -1.3978 -1.6175  0.7106
 3928SOL     OW23245   2.114   0.734   3.670  0.2051 -0.1415 -0.2901
 3928SOL    HW123246   2.060   0.806   3.704  2.5552  1.7254 -0.4976
 3928SOL    HW223247   2.163   0.781   3.602  1.2491  2.1246  2.0514
 3929SOL     OW23248   4.008   3.763   2.862 -0.1441  0.6335 -0.2632
 3929SOL    HW123249   3.946   3.831   2.836 -0.3480  0.1017 -1.1553
 3929SOL    HW223250   4.084   3.774   2.805  0.6758  2.2970  1.1572
 3930SOL     OW23251   0.931   1.371   5.643  0.1950 -0.1346  1.0741
 3930SOL    HW123252   0.852   1.409   5.604 -0.4931 -2.9434 -0.2767
 3930SOL    HW223253   0.971   1.323   5.570 -3.5963  1.2615 -1.9629
 3931SOL     OW23254   2.674   2.827   6.259 -0.2532  0.4336 -0.0391
 3931SOL    HW123255   2.609   2.762   6.232  0.0016  0.3656 -0.4804
 3931SOL    HW223256   2.623   2.906   6.238  0.1166  0.5223 -0.6157
 3932SOL     OW23257   1.026   0.778  11.213  0.3831 -0.2053  0.4051
 3932SOL    HW123258   1.013   0.770  11.119 -2.5404 -0.6157  0.8608
 3932SOL    HW223259   1.105   0.832  11.212  0.3414 -0.1610 -0.2714
 3933SOL     OW23260   4.541   1.280   8.697  0.3871 -0.1543 -0.5100
 3933SOL    HW123261   4.516   1.367   8.726 -0.9715 -0.4795 -0.6918
 3933SOL    HW223262   4.556   1.226   8.775  1.6083 -0.5582 -1.0306
 3934SOL     OW23263   3.109   0.343  15.992  0.3194  0.0635 -0.0829
 3934SOL    HW123264   3.145   0.296  16.067  0.7414  0.5099 -0.0086
 3934SOL    HW223265   3.170   0.416  15.985 -1.9204  1.9572 -0.1796
 3935SOL     OW23266   3.747   0.607   5.992  0.1581  0.0776 -0.1382
 3935SOL    HW123267   3.831   0.623   6.037  1.1143 -0.1986 -1.8338
 3935SOL    HW223268   3.689   0.636   6.063 -1.3660  1.9514 -2.1558
 3936SOL     OW23269   3.455   1.413   4.598 -0.3326  0.5228 -0.6910
 3936SOL    HW123270   3.540   1.370   4.608 -0.0176  1.4229  0.5841
 3936SOL    HW223271   3.459   1.462   4.516  1.0013 -2.4763 -2.4169
 3937SOL     OW23272   1.608   0.298  14.334 -0.6701 -0.0110 -0.2911
 3937SOL    HW123273   1.567   0.235  14.394  1.7861 -0.5312  0.8438
 3937SOL    HW223274   1.552   0.297  14.256  2.0166 -0.6179 -2.2240
 3938SOL     OW23275   2.384   0.056  10.498  0.3922 -0.0672 -0.2768
 3938SOL    HW123276   2.405   0.030  10.587 -0.5762  1.1301  0.3008
 3938SOL    HW223277   2.292   0.030  10.493  0.6800 -1.3471  1.4348
 3939SOL     OW23278   0.521   0.250   6.093  0.2932 -0.2311 -0.4452
 3939SOL    HW123279   0.454   0.299   6.045  0.9197 -2.4676 -3.5646
 3939SOL    HW223280   0.584   0.321   6.109  0.3853 -0.3556 -0.2448
 3940SOL     OW23281   0.791   2.183  14.173  0.1085  0.1862  0.5020
 3940SOL    HW123282   0.807   2.095  14.138 -0.3187  0.7154 -1.0557
 3940SOL    HW223283   0.725   2.159  14.238  0.5402 -0.4210  0.7101
 3941SOL     OW23284   0.336   3.914   3.919 -0.2461  0.7368 -0.2217
 3941SOL    HW123285   0.376   3.866   3.846  0.3090 -2.5147  2.2029
 3941SOL    HW223286   0.354   4.002   3.886  1.5552  0.6947  0.6739
 3942SOL     OW23287   3.404   2.723   3.061 -0.8431  0.0853  0.0145
 3942SOL    HW123288   3.445   2.646   3.021 -1.0512  0.3911 -0.7905
 3942SOL    HW223289   3.338   2.753   2.998 -0.8746 -0.1269 -0.0532
 3943SOL     OW23290   1.785   2.999   2.880  0.4804 -0.0206 -0.0028
 3943SOL    HW123291   1.865   2.948   2.896 -2.5103 -3.8618  2.4311
 3943SOL    HW223292   1.721   2.931   2.861 -0.5958  0.1880  2.9908
 3944SOL     OW23293   2.285   0.869   3.514 -0.3628  0.4080 -0.5724
 3944SOL    HW123294   2.305   0.941   3.455 -0.0625 -1.2669 -2.5024
 3944SOL    HW223295   2.365   0.884   3.566  1.1123  1.4129 -3.1257
 3945SOL     OW23296   3.078   3.291   2.268 -0.2078 -0.1827 -0.0079
 3945SOL    HW123297   3.080   3.377   2.310 -0.4415  0.1117 -0.5870
 3945SOL    HW223298   3.069   3.222   2.334  1.4655 -2.4556 -2.1428
 3946SOL     OW23299   3.581   1.116   7.147  0.2568 -0.3923 -0.0100
 3946SOL    HW123300   3.512   1.138   7.085  0.3494  0.5113  0.2044
 3946SOL    HW223301   3.626   1.201   7.150  2.2699 -1.4523 -0.1960
 3947SOL     OW23302   1.377   1.854  17.320 -0.4007 -0.2684 -0.4045
 3947SOL    HW123303   1.386   1.949  17.328  0.2804 -0.1586 -2.4394
 3947SOL    HW223304   1.449   1.832  17.261 -0.0570  1.7885 -0.7487
 3948SOL     OW23305   0.062   3.248   4.346 -0.0416  0.3089  0.3380
 3948SOL    HW123306   0.142   3.299   4.355 -0.1184  0.4698  0.1047
 3948SOL    HW223307   0.098   3.161   4.328 -1.1121  0.7120 -3.6431
 3949SOL     OW23308   0.676   1.690   3.362 -0.1715  0.0548 -0.5586
 3949SOL    HW123309   0.660   1.779   3.329 -2.1302 -1.1371 -2.8422
 3949SOL    HW223310   0.768   1.690   3.334 -0.0921 -2.6345 -0.2728
 3950SOL     OW23311   2.676   1.661   2.530 -0.0392  0.3417 -0.0104
 3950SOL    HW123312   2.766   1.629   2.523  0.3487  1.2176  0.8916
 3950SOL    HW223313   2.663   1.706   2.446  2.1213 -0.1998 -0.6373
 3951SOL     OW23314   2.675   4.387  10.771  0.2535 -0.0960 -0.2502
 3951SOL    HW123315   2.721   4.467  10.796  0.5923 -0.6312  0.8700
 3951SOL    HW223316   2.590   4.422  10.744  0.5008  0.3199 -0.4764
 3952SOL     OW23317   1.935   0.029   5.461 -0.4071 -0.2660 -0.1994
 3952SOL    HW123318   2.000   4.686   5.486 -0.2081 -0.1853 -0.4998
 3952SOL    HW223319   1.980   0.103   5.502  2.3782 -2.1270  0.1214
 3953SOL     OW23320   0.108   2.122  12.796 -0.1077  0.1445 -0.0900
 3953SOL    HW123321   0.028   2.071  12.788  0.0044 -0.0501  0.0428
 3953SOL    HW223322   0.159   2.099  12.719 -0.4188 -0.7131 -0.0328
 3954SOL     OW23323   0.286   4.139   3.372 -0.1400 -0.0063  0.1964
 3954SOL    HW123324   0.358   4.106   3.319  1.0351 -0.8178  2.2973
 3954SOL    HW223325   0.341   4.199   3.421 -0.4806 -0.1151  0.7159
 3955SOL     OW23326   4.423   1.273   2.441 -0.3000 -0.1168 -0.2131
 3955SOL    HW123327   4.504   1.323   2.434 -0.8378  1.1967  2.9931
 3955SOL    HW223328   4.447   1.187   2.476 -1.4584  0.1602  1.2542
 3956SOL     OW23329   4.079   0.720   7.559 -0.3537 -0.5192 -0.0809
 3956SOL    HW123330   4.104   0.748   7.648  0.2742  0.1461 -0.4624
 3956SOL    HW223331   4.111   0.791   7.504  1.1023 -0.5338  0.7419
 3957SOL     OW23332   4.591   0.998  12.885  0.1780 -0.0455 -0.4578
 3957SOL    HW123333   4.537   0.930  12.845  0.8255 -0.1729 -1.1023
 3957SOL    HW223334   4.605   1.062  12.816  1.4670  0.7584  0.5371
 3958SOL     OW23335   0.522   2.636   2.939  0.4459 -0.4896  0.6065
 3958SOL    HW123336   0.488   2.711   2.987  0.6727  0.0477 -0.0774
 3958SOL    HW223337   0.471   2.644   2.859  0.2442  0.2063  0.8115
 3959SOL     OW23338   0.614   0.448   7.425  0.1888 -0.3958  0.0892
 3959SOL    HW123339   0.576   0.457   7.337  0.4097 -0.0007  0.0346
 3959SOL    HW223340   0.704   0.470   7.402  0.6266  1.0079  3.1393
 3960SOL     OW23341   4.251   4.573   4.342 -0.0768 -0.1549 -0.1620
 3960SOL    HW123342   4.229   4.611   4.258 -0.2656  2.8491  1.2499
 3960SOL    HW223343   4.330   4.623   4.362 -2.7488  3.6106  0.8656
 3961SOL     OW23344   2.637   0.170   8.600  0.2633  0.4494 -0.3984
 3961SOL    HW123345   2.702   0.132   8.659  0.4997 -1.6974 -2.0462
 3961SOL    HW223346   2.685   0.172   8.518 -0.4704  2.8920 -0.7593
 3962SOL     OW23347   1.070   3.368   4.124 -0.6376 -0.0741 -0.3157
 3962SOL    HW123348   1.042   3.327   4.042  0.1545 -1.4703  0.1252
 3962SOL    HW223349   1.037   3.457   4.113  1.7825  0.7876 -0.7951
 3963SOL     OW23350   4.338   1.864   9.251 -0.1032  0.9832  0.1926
 3963SOL    HW123351   4.331   1.785   9.198 -2.2588  0.6568  0.9685
 3963SOL    HW223352   4.290   1.922   9.192  2.4751  3.1305  0.2251
 3964SOL     OW23353   4.396   3.910  13.330 -0.1750  0.4966  0.2700
 3964SOL    HW123354   4.382   4.004  13.342  2.0377  1.0665 -1.7679
 3964SOL    HW223355   4.488   3.911  13.305 -0.0814  1.6826  0.6481
 3965SOL     OW23356   3.574   0.832   1.708 -0.0239 -0.3640 -0.1733
 3965SOL    HW123357   3.519   0.839   1.785  0.0660  0.3015 -0.1702
 3965SOL    HW223358   3.531   0.756   1.669 -1.6754  0.3259  0.2760
 3966SOL     OW23359   0.894   1.266   7.046 -0.0245 -0.2704  0.2879
 3966SOL    HW123360   0.860   1.249   7.134  1.6457 -1.7167  0.6510
 3966SOL    HW223361   0.961   1.199   7.047 -1.0278 -1.2888 -0.2945
 3967SOL     OW23362   0.191   2.508  15.032  0.1499 -0.0841  0.1137
 3967SOL    HW123363   0.097   2.493  15.022  0.2335 -1.0721  0.8462
 3967SOL    HW223364   0.222   2.421  15.055 -0.0253  0.5078  2.5577
 3968SOL     OW23365   2.660   0.965  17.439  0.2562  1.3202  0.3576
 3968SOL    HW123366   2.639   0.977  17.347  1.4291 -0.4998 -0.1537
 3968SOL    HW223367   2.641   1.051  17.477  0.6073  0.7637  1.8120
 3969SOL     OW23368   1.024   3.878   5.876 -0.0018  0.5358  0.3122
 3969SOL    HW123369   0.969   3.805   5.848  0.4027  0.6212 -0.6974
 3969SOL    HW223370   0.956   3.936   5.909 -1.1164 -0.3563 -0.4434
 3970SOL     OW23371   3.442   4.569   6.195 -0.1649  0.1923  0.3626
 3970SOL    HW123372   3.434   4.494   6.137  2.0361 -1.8534  2.6995
 3970SOL    HW223373   3.413   4.636   6.133  1.3913 -1.1046 -1.7442
 3971SOL     OW23374   2.100   2.199   6.523  0.1529  0.0362  0.1834
 3971SOL    HW123375   2.038   2.167   6.458 -1.8220 -0.3392  2.2459
 3971SOL    HW223376   2.100   2.291   6.496  0.6063  0.1260  0.4781
 3972SOL     OW23377   4.088   2.599   9.489 -0.2511  0.2944 -0.5976
 3972SOL    HW123378   4.015   2.539   9.469 -0.1030 -0.1886  0.3405
 3972SOL    HW223379   4.086   2.610   9.584  0.3670 -2.8609 -0.2036
 3973SOL     OW23380   2.892   1.748  17.206 -0.0372 -0.4386  0.1901
 3973SOL    HW123381   2.833   1.674  17.216  0.9479 -1.8979 -4.9679
 3973SOL    HW223382   2.926   1.743  17.117 -1.3193 -0.1547 -0.3055
 3974SOL     OW23383   2.383   4.555  16.856 -0.1092  0.0186 -0.1668
 3974SOL    HW123384   2.397   4.490  16.924 -2.1298 -0.7226 -0.4838
 3974SOL    HW223385   2.358   4.499  16.782  3.3642 -0.8748 -0.6644
 3975SOL     OW23386   3.720   1.420   5.895  0.2119  0.4263 -0.1700
 3975SOL    HW123387   3.692   1.452   5.809 -0.7592 -0.6793 -0.2681
 3975SOL    HW223388   3.774   1.494   5.923 -0.8073  1.2260 -0.3221
 3976SOL     OW23389   1.772   1.898   8.240  0.2572 -0.0985  0.3703
 3976SOL    HW123390   1.815   1.814   8.258 -1.3402 -0.9814  0.0557
 3976SOL    HW223391   1.704   1.905   8.307  0.1566  3.4515 -0.1017
 3977SOL     OW23392   4.151   3.071  14.855 -0.1163 -0.1351  0.3201
 3977SOL    HW123393   4.091   2.997  14.860 -0.6210  0.1912 -0.9239
 3977SOL    HW223394   4.217   3.039  14.793  0.9595  0.0237  1.4066
 3978SOL     OW23395   0.383   0.956   1.186  0.3118  0.1658  0.1205
 3978SOL    HW123396   0.431   0.883   1.147  0.8172 -1.2126  3.3513
 3978SOL    HW223397   0.437   0.978   1.262  1.2190 -0.5765 -0.3044
 3979SOL     OW23398   3.788   4.447   1.271 -0.4767  0.0994 -0.0471
 3979SOL    HW123399   3.693   4.437   1.269 -0.2748 -2.0194  0.8815
 3979SOL    HW223400   3.807   4.533   1.234  1.9136  0.6250  2.3632
 3980SOL     OW23401   4.104   4.710  15.911 -0.0399 -0.1024  0.4333
 3980SOL    HW123402   4.114   0.070  15.862  0.5862  0.3671  1.3425
 3980SOL    HW223403   4.144   4.633  15.871  0.2649  0.1940  0.1678
 3981SOL     OW23404   0.659   1.097   1.013 -0.0401 -0.8252  0.3982
 3981SOL    HW123405   0.665   1.117   1.107 -0.3427 -2.5008  0.7740
 3981SOL    HW223406   0.714   1.169   0.979 -1.5216 -0.0404 -0.3269
 3982SOL     OW23407   3.664   0.276   3.135 -0.0214 -0.3137 -0.5732
 3982SOL    HW123408   3.593   0.328   3.097 -0.2395  1.1830  1.8637
 3982SOL    HW223409   3.672   0.197   3.081  3.2628  0.2095 -0.8487
 3983SOL     OW23410   2.891   0.779   8.862  0.1139 -0.4229 -0.5233
 3983SOL    HW123411   2.976   0.745   8.891 -0.0838 -1.6380 -1.4142
 3983SOL    HW223412   2.861   0.828   8.939  0.5149  0.5943 -1.0068
 3984SOL     OW23413   2.314   3.467  16.163 -0.2025  0.0557 -0.1335
 3984SOL    HW123414   2.237   3.518  16.189  0.0554  0.5017 -0.2613
 3984SOL    HW223415   2.378   3.479  16.233 -1.4862 -0.1973  1.0845
 3985SOL     OW23416   4.163   1.545   4.286 -0.1520  0.0535 -0.0146
 3985SOL    HW123417   4.200   1.545   4.198  1.7201  0.4376  0.7800
 3985SOL    HW223418   4.083   1.592   4.260 -0.3291 -0.0015  0.4349
 3986SOL     OW23419   3.690   0.105  14.066  0.3869 -0.5450 -0.0186
 3986SOL    HW123420   3.690   0.181  14.008  1.1503 -0.0272  0.6615
 3986SOL    HW223421   3.639   0.039  14.018 -1.3040 -0.0311  1.0430
 3987SOL     OW23422   2.252   4.342  11.477 -0.1639 -0.7576 -0.2947
 3987SOL    HW123423   2.239   4.261  11.526 -0.3700  0.4587  1.7082
 3987SOL    HW223424   2.293   4.307  11.399  1.2093  1.9858 -0.8150
 3988SOL     OW23425   0.528   3.668   2.467 -0.2267  0.6477  0.0658
 3988SOL    HW123426   0.490   3.676   2.380 -2.3415 -1.2728  0.8147
 3988SOL    HW223427   0.618   3.641   2.447 -1.3712 -2.0683 -1.3081
 3989SOL     OW23428   0.375   0.892  11.205  0.2531  0.1614  0.4000
 3989SOL    HW123429   0.440   0.872  11.138 -0.2512 -1.7643  0.4751
 3989SOL    HW223430   0.399   0.977  11.241  1.0245  0.1575 -0.1111
 3990SOL     OW23431   1.666   4.425   6.498  0.2974  0.0234  0.0335
 3990SOL    HW123432   1.705   4.418   6.411 -0.4171  2.0983 -0.4638
 3990SOL    HW223433   1.747   4.415   6.547  0.4012  1.8457  0.2440
 3991SOL     OW23434   2.071   0.794   6.933 -0.3139 -0.8704 -0.4875
 3991SOL    HW123435   2.019   0.874   6.921 -2.0073 -1.6695  1.5535
 3991SOL    HW223436   2.117   0.820   7.013 -1.3948 -0.3782 -0.0210
 3992SOL     OW23437   1.705   2.904  15.957  0.2239  0.0506 -0.1129
 3992SOL    HW123438   1.633   2.967  15.962 -1.3720 -1.8150  0.3884
 3992SOL    HW223439   1.752   2.933  15.879 -0.3336  0.5247 -0.2747
 3993SOL     OW23440   4.403   0.811   5.069 -0.5364  0.3261  0.2889
 3993SOL    HW123441   4.339   0.872   5.032 -1.8945 -2.3600 -1.8262
 3993SOL    HW223442   4.358   0.727   5.081  0.5368 -0.1803  0.7585
 3994SOL     OW23443   1.061   1.920   5.659  0.1595 -0.1062  0.1112
 3994SOL    HW123444   1.133   1.884   5.710 -0.8086 -1.2761  0.6256
 3994SOL    HW223445   1.030   1.843   5.611  0.9028 -0.0204 -0.5112
 3995SOL     OW23446   2.686   0.699  12.894 -0.0499 -0.0770 -0.7186
 3995SOL    HW123447   2.602   0.662  12.867 -0.7768  2.3471 -1.7426
 3995SOL    HW223448   2.674   0.787  12.857 -2.8459 -0.7908 -1.5131
 3996SOL     OW23449   1.561   4.101  15.390 -0.1011 -0.1326 -0.2125
 3996SOL    HW123450   1.575   4.053  15.472  1.6141  1.4126  0.4025
 3996SOL    HW223451   1.592   4.039  15.324  0.2827 -1.2035  0.9820
 3997SOL     OW23452   2.117   3.674   7.294  0.6200  0.3923  0.4440
 3997SOL    HW123453   2.081   3.601   7.345  0.3714  0.8379  0.9071
 3997SOL    HW223454   2.040   3.729   7.309 -0.9865 -1.3011 -1.6131
 3998SOL     OW23455   3.783   2.432  14.285  0.6067 -0.0475 -0.1001
 3998SOL    HW123456   3.824   2.374  14.222  0.8980  0.7139 -0.6172
 3998SOL    HW223457   3.864   2.469  14.322 -0.4730  1.9456  0.3133
 3999SOL     OW23458   3.557   4.092   8.201 -0.9239  0.0673  0.3973
 3999SOL    HW123459   3.582   4.012   8.154 -2.1817 -0.3900  0.4779
 3999SOL    HW223460   3.478   4.063   8.247  0.7941 -1.7887  2.1687
 4000SOL     OW23461   0.095   2.976   7.154 -0.3802  0.2228  0.0966
 4000SOL    HW123462   0.062   2.889   7.176  0.6732 -0.3829 -0.7116
 4000SOL    HW223463   0.021   3.026   7.119 -0.6947 -0.3682 -0.0829
 4001SOL     OW23464   3.950   2.248   6.613  0.1336 -1.1889 -0.2434
 4001SOL    HW123465   3.875   2.287   6.568 -0.7764 -1.6223  0.8832
 4001SOL    HW223466   4.020   2.254   6.548  0.2583 -2.6766 -0.2567
 4002SOL     OW23467   1.741   3.810   5.782 -0.0532 -0.1498 -0.0039
 4002SOL    HW123468   1.805   3.744   5.807 -0.3196  0.3593  2.0694
 4002SOL    HW223469   1.793   3.889   5.766 -0.7377  0.0924 -0.9984
 4003SOL     OW23470   2.348   1.814   3.836 -0.0428 -0.2554  0.3010
 4003SOL    HW123471   2.304   1.802   3.921 -0.2166 -0.4699  0.1814
 4003SOL    HW223472   2.315   1.736   3.791  1.7672 -1.0930  0.3913
 4004SOL     OW23473   2.193   3.834   3.203  0.0910 -0.9050 -0.0623
 4004SOL    HW123474   2.152   3.765   3.152 -0.4853 -1.3707  1.0276
 4004SOL    HW223475   2.222   3.774   3.271  1.9488 -0.4769 -0.4747
 4005SOL     OW23476   2.733   4.039  11.488  0.1835 -0.0290  0.3299
 4005SOL    HW123477   2.768   3.986  11.417  2.4820 -1.4635  2.5605
 4005SOL    HW223478   2.644   4.052  11.455  0.5149 -1.8560 -1.3189
 4006SOL     OW23479   0.604   0.070   2.286  0.1644  0.1952 -0.8000
 4006SOL    HW123480   0.692   0.107   2.288 -0.3560  1.3023  1.2100
 4006SOL    HW223481   0.557   0.152   2.277 -0.9176 -0.3537 -0.1625
 4007SOL     OW23482   2.748   1.357   8.938  0.1316 -0.6150  0.1609
 4007SOL    HW123483   2.786   1.444   8.946  2.5042 -1.5711 -0.7170
 4007SOL    HW223484   2.670   1.378   8.887 -0.0870 -0.9681  0.3460
 4008SOL     OW23485   1.540   3.511   6.908  0.0161  0.8118  0.4832
 4008SOL    HW123486   1.527   3.605   6.921 -0.6946  0.7696  0.0812
 4008SOL    HW223487   1.452   3.473   6.910  0.3440 -0.0061 -0.7067
 4009SOL     OW23488   0.055   0.743   7.834  0.7799  0.2585  0.3291
 4009SOL    HW123489   0.026   0.829   7.864  0.1145  0.3754 -0.6416
 4009SOL    HW223490   0.056   0.770   7.742 -0.5320 -1.0603 -0.0726
 4010SOL     OW23491   0.583   4.233  10.687  0.3105 -0.2863  0.0107
 4010SOL    HW123492   0.546   4.160  10.737  0.9918 -0.2506  0.5630
 4010SOL    HW223493   0.499   4.272  10.663  1.5171  1.5455 -1.2049
 4011SOL     OW23494   0.589   0.086   6.329 -0.0040 -0.3457 -0.0372
 4011SOL    HW123495   0.535   0.132   6.265  1.4518  0.1734 -0.8978
 4011SOL    HW223496   0.673   0.130   6.312  0.7218 -1.9019 -0.4730
 4012SOL     OW23497   2.701   3.960   0.135 -0.6504 -0.1703 -0.3820
 4012SOL    HW123498   2.772   3.919   0.084  0.5215  0.4222  0.7606
 4012SOL    HW223499   2.717   3.918   0.219 -0.0949  2.7318  0.9854
 4013SOL     OW23500   3.571   2.299   1.373  0.3818 -0.0623  0.3622
 4013SOL    HW123501   3.600   2.343   1.293  2.9573 -1.1911  0.6716
 4013SOL    HW223502   3.586   2.363   1.443 -1.6113  1.9652 -1.0597
 4014SOL     OW23503   1.917   0.487   2.422  0.5173  0.9864  0.4962
 4014SOL    HW123504   1.824   0.464   2.412  0.7951  0.7869 -1.6616
 4014SOL    HW223505   1.934   0.440   2.504  2.2297 -0.6888 -0.8268
 4015SOL     OW23506   3.116   4.118   2.325 -0.3232 -0.2950  0.5046
 4015SOL    HW123507   3.146   4.168   2.401 -0.8986 -0.9863  1.1864
 4015SOL    HW223508   3.023   4.137   2.312 -0.1342 -0.1325 -0.6780
 4016SOL     OW23509   2.655   4.526  14.924 -0.0770  0.2422  0.1072
 4016SOL    HW123510   2.608   4.562  14.999 -1.0324  1.9592 -1.3049
 4016SOL    HW223511   2.722   4.468  14.959 -1.9285 -1.2321  1.1855
 4017SOL     OW23512   4.451   0.044  12.935  0.2100 -0.2283  0.0344
 4017SOL    HW123513   4.383   0.103  12.901 -0.6601 -0.5455  1.2551
 4017SOL    HW223514   4.405   4.690  12.971  2.0351 -1.7556 -0.8683
 4018SOL     OW23515   2.454   4.343   3.202  0.3035 -0.0787  0.1385
 4018SOL    HW123516   2.491   4.385   3.279  0.1301  0.3560 -0.0154
 4018SOL    HW223517   2.536   4.326   3.155  1.8496 -2.7961  3.7888
 4019SOL     OW23518   3.589   3.206  11.842 -0.1087  0.1519 -0.0542
 4019SOL    HW123519   3.512   3.228  11.789  0.1095  0.8444 -0.0837
 4019SOL    HW223520   3.581   3.279  11.903 -0.4441 -1.5161  1.9246
 4020SOL     OW23521   3.895   4.515   0.896  0.0581 -0.3291 -0.4821
 4020SOL    HW123522   3.941   4.599   0.894 -2.2705  0.9753 -0.2843
 4020SOL    HW223523   3.857   4.507   0.808  0.4516  2.9125 -0.9323
 4021SOL     OW23524   1.413   3.806   6.154  0.4607  0.2091 -0.2696
 4021SOL    HW123525   1.393   3.720   6.190  0.4540  0.2626 -0.1450
 4021SOL    HW223526   1.359   3.867   6.204  0.1092 -1.3875  1.2933
 4022SOL     OW23527   2.719   1.558   3.225  0.3068 -0.1031  0.0913
 4022SOL    HW123528   2.714   1.610   3.144  0.3288 -0.9904 -0.4774
 4022SOL    HW223529   2.789   1.497   3.201 -0.1008  0.0719 -1.5687
 4023SOL     OW23530   2.812   2.427   9.701  0.3000 -0.7602 -0.1716
 4023SOL    HW123531   2.820   2.522   9.714  3.5111 -1.3350  2.2086
 4023SOL    HW223532   2.880   2.428   9.634  1.9816  0.2190  1.5180
 4024SOL     OW23533   2.078   3.429   2.383 -0.0955 -0.4220  0.0125
 4024SOL    HW123534   2.019   3.481   2.438  0.4883 -0.2804  0.5019
 4024SOL    HW223535   2.153   3.486   2.365 -0.4155 -0.5698 -1.8198
 4025SOL     OW23536   1.861   1.142   5.198  0.1697 -0.0971  0.0937
 4025SOL    HW123537   1.783   1.114   5.150 -0.8059 -0.8525  2.1165
 4025SOL    HW223538   1.848   1.237   5.202 -1.4411 -0.3483  0.9741
 4026SOL     OW23539   3.161   0.179   8.181  0.3638  0.1889 -0.7582
 4026SOL    HW123540   3.134   0.196   8.091  0.5059  0.5378 -0.7335
 4026SOL    HW223541   3.158   0.273   8.199 -0.8402 -0.0231  0.2167
 4027SOL     OW23542   3.758   4.566   8.883  0.0137 -0.5414  0.2197
 4027SOL    HW123543   3.786   4.520   8.962 -1.2554  0.9185  1.5238
 4027SOL    HW223544   3.682   4.513   8.860 -1.9459  2.6429 -0.6423
 4028SOL     OW23545   1.551   0.749   8.424  0.7032 -0.2555 -0.1616
 4028SOL    HW123546   1.633   0.764   8.473  0.5181 -1.1155  0.4231
 4028SOL    HW223547   1.590   0.733   8.338 -1.0857 -2.1361 -0.6205
 4029SOL     OW23548   1.579   2.249  10.755 -0.0824  0.0367 -0.1060
 4029SOL    HW123549   1.486   2.239  10.777 -0.4326 -0.7613 -1.9263
 4029SOL    HW223550   1.599   2.161  10.723  2.4120  0.2682  0.8442
 4030SOL     OW23551   2.733   1.949   5.024 -0.4755 -0.0516  0.1394
 4030SOL    HW123552   2.721   1.998   4.943  0.6038 -0.3976 -0.2229
 4030SOL    HW223553   2.828   1.938   5.029 -0.4328 -0.5696 -1.7055
 4031SOL     OW23554   4.202   0.775   4.792  0.1359  1.1658 -0.2727
 4031SOL    HW123555   4.166   0.780   4.881  0.4128  3.7678 -0.3078
 4031SOL    HW223556   4.139   0.830   4.746  1.0885  2.0900 -0.4612
 4032SOL     OW23557   4.608   2.831   7.486 -0.2664 -0.0496 -0.0539
 4032SOL    HW123558   4.693   2.865   7.456 -0.3719 -0.0243 -0.3297
 4032SOL    HW223559   4.555   2.878   7.421  1.4920 -0.3021 -1.6973
 4033SOL     OW23560   1.598   0.902   3.717  0.5645 -0.2023  0.1781
 4033SOL    HW123561   1.598   0.888   3.812 -0.5832  1.8244  0.4734
 4033SOL    HW223562   1.656   0.837   3.677  0.8684 -0.0333  0.3469
 4034SOL     OW23563   1.684   1.659  14.982  0.6118 -0.4395 -0.4626
 4034SOL    HW123564   1.700   1.599  14.908  1.4076 -0.9013  0.0920
 4034SOL    HW223565   1.647   1.735  14.937 -0.8828 -0.2729  1.0497
 4035SOL     OW23566   3.766   3.598   4.062 -0.6171 -0.7230 -0.8760
 4035SOL    HW123567   3.678   3.630   4.083 -1.2545 -1.3566 -2.5335
 4035SOL    HW223568   3.830   3.667   4.080 -0.2169 -1.4618  0.5623
 4036SOL     OW23569   1.033   1.097   8.429  0.3371  0.5613 -0.3258
 4036SOL    HW123570   1.117   1.052   8.431 -0.7155 -1.3998 -0.5464
 4036SOL    HW223571   1.064   1.172   8.480  1.2909  0.1030 -0.2390
 4037SOL     OW23572   0.829   1.028  14.702  0.9648  0.4815 -0.1064
 4037SOL    HW123573   0.755   0.972  14.681  1.5017 -1.1121  2.2168
 4037SOL    HW223574   0.895   0.959  14.693  0.1185 -0.6820  2.4954
 4038SOL     OW23575   0.526   1.730   5.998 -0.3110  0.0815 -0.0762
 4038SOL    HW123576   0.473   1.723   5.919 -1.9099  0.5114  0.9496
 4038SOL    HW223577   0.608   1.768   5.968  0.5038 -1.1945  0.5156
 4039SOL     OW23578   3.006   4.395   9.135  0.1034  0.4751  0.3525
 4039SOL    HW123579   2.950   4.340   9.079  0.2725  2.0328 -1.3405
 4039SOL    HW223580   3.072   4.327   9.148 -0.0364  0.1055 -0.8635
 4040SOL     OW23581   2.683   3.905  10.698 -0.2926 -0.1056 -0.6734
 4040SOL    HW123582   2.630   3.973  10.740 -0.8862 -0.1282 -1.4057
 4040SOL    HW223583   2.769   3.949  10.697 -0.0120 -0.6892 -1.4844
 4041SOL     OW23584   1.501   3.473   3.859 -0.4641  0.0993  0.0114
 4041SOL    HW123585   1.430   3.536   3.847  0.7222  1.6924  1.1542
 4041SOL    HW223586   1.502   3.434   3.771  0.7143  2.7938 -1.1785
 4042SOL     OW23587   4.666   2.459   4.994  0.5920  0.3464 -0.1609
 4042SOL    HW123588   4.624   2.483   5.076 -2.3998  0.8838 -1.8556
 4042SOL    HW223589   4.716   2.383   5.026  0.0097 -0.3664 -0.9209
 4043SOL     OW23590   4.269   2.236   2.136 -0.3424  0.0095 -0.0430
 4043SOL    HW123591   4.317   2.301   2.084  0.5003 -0.3760  0.2578
 4043SOL    HW223592   4.229   2.298   2.197  0.9771  1.7789 -0.9506
 4044SOL     OW23593   1.663   4.368  16.078 -0.0042  0.0887 -0.3814
 4044SOL    HW123594   1.639   4.381  15.986 -2.2714 -0.8409  0.0769
 4044SOL    HW223595   1.694   4.278  16.066 -0.2260 -0.0242 -0.0896
 4045SOL     OW23596   0.199   3.126   4.670  0.4589 -0.0643 -0.3816
 4045SOL    HW123597   0.147   3.189   4.619 -0.6323 -0.8624 -0.2666
 4045SOL    HW223598   0.248   3.089   4.596 -0.2313  0.3640 -1.0605
 4046SOL     OW23599   2.525   2.874   1.642  0.3192 -0.4172  0.1765
 4046SOL    HW123600   2.606   2.915   1.613  0.8360 -2.3318 -1.0693
 4046SOL    HW223601   2.498   2.932   1.713 -0.8580  0.4638 -0.9921
 4047SOL     OW23602   2.658   3.841  17.357 -0.6740 -0.0963 -0.2958
 4047SOL    HW123603   2.569   3.856  17.328 -0.4558 -1.9442 -1.9083
 4047SOL    HW223604   2.699   3.805  17.278 -1.7496  0.4487 -1.1002
 4048SOL     OW23605   2.980   0.436   6.811  0.1170 -0.4655 -0.4598
 4048SOL    HW123606   3.054   0.392   6.852 -0.2392 -2.4342 -1.9611
 4048SOL    HW223607   3.019   0.477   6.734 -0.1564 -1.1114 -0.9411
 4049SOL     OW23608   3.009   4.260   5.977  0.3738 -0.4965  0.4023
 4049SOL    HW123609   2.976   4.289   5.892 -0.9551 -4.3414 -0.3983
 4049SOL    HW223610   3.076   4.328   5.990  0.5482 -0.5592 -0.1613
 4050SOL     OW23611   0.498   1.586   8.843 -0.0918 -0.1061  0.0073
 4050SOL    HW123612   0.538   1.559   8.760  0.3715  1.7427 -0.3775
 4050SOL    HW223613   0.490   1.499   8.881  1.0470 -1.4314 -2.7775
 4051SOL     OW23614   1.181   4.190  15.764  0.4274  0.9047 -0.1515
 4051SOL    HW123615   1.149   4.270  15.805 -0.5968  0.7787 -0.6821
 4051SOL    HW223616   1.227   4.228  15.690 -0.1213 -2.0268 -2.0127
 4052SOL     OW23617   4.110   3.135   8.890  0.2617  0.0424 -0.2962
 4052SOL    HW123618   4.047   3.172   8.829  0.7861 -0.4870 -1.1631
 4052SOL    HW223619   4.138   3.209   8.943 -0.6039  0.7967 -0.9053
 4053SOL     OW23620   3.422   0.718   8.448  0.0269  0.0704 -0.1919
 4053SOL    HW123621   3.344   0.769   8.427 -0.0951 -0.4653 -1.0514
 4053SOL    HW223622   3.390   0.630   8.469 -0.9878  0.5040  0.0812
 4054SOL     OW23623   4.575   0.725   3.801  0.6113 -0.3633 -0.7298
 4054SOL    HW123624   4.562   0.776   3.881 -0.6360  1.1603 -1.9161
 4054SOL    HW223625   4.509   0.657   3.817 -1.4344  1.5734 -0.8194
 4055SOL     OW23626   2.300   3.371   4.740  0.1826 -0.1832  0.1896
 4055SOL    HW123627   2.240   3.298   4.752 -1.0562  0.6573 -0.9191
 4055SOL    HW223628   2.320   3.368   4.646  2.4483  1.1931  0.6071
 4056SOL     OW23629   3.345   4.193  16.125 -0.3566 -0.3228 -0.0556
 4056SOL    HW123630   3.398   4.131  16.175  0.6286  0.6635  0.1209
 4056SOL    HW223631   3.267   4.152  16.088  0.9042 -1.6564 -1.2156
 4057SOL     OW23632   4.236   3.998   1.726  0.5035 -0.2363 -0.6059
 4057SOL    HW123633   4.183   4.017   1.803 -0.1006 -0.9482 -0.8466
 4057SOL    HW223634   4.174   3.953   1.669 -2.2825  3.3246 -0.4091
 4058SOL     OW23635   2.426   3.066   1.826 -0.3058 -0.0015 -0.0227
 4058SOL    HW123636   2.358   3.071   1.892 -1.0080 -0.5448 -0.7116
 4058SOL    HW223637   2.401   3.143   1.775  0.4170 -0.1412 -0.5917
 4059SOL     OW23638   0.805   4.345  10.814 -0.6053  0.1217  0.1905
 4059SOL    HW123639   0.719   4.313  10.787 -1.0876  0.9872  0.7142
 4059SOL    HW223640   0.783   4.427  10.857 -1.6997  0.2422 -0.6133
 4060SOL     OW23641   1.384   1.756  13.892 -0.4631  0.1160  0.6063
 4060SOL    HW123642   1.351   1.666  13.894 -1.8338  0.6086 -0.3930
 4060SOL    HW223643   1.316   1.801  13.942  2.5963  0.7169  4.2675
 4061SOL     OW23644   0.596   0.868   1.967  0.0127  0.1445 -0.4952
 4061SOL    HW123645   0.636   0.952   1.948 -0.0205  0.3202  0.1867
 4061SOL    HW223646   0.601   0.829   1.880 -1.0309  1.3054 -1.0723
 4062SOL     OW23647   3.492   1.775   3.297  0.3303 -0.0686  0.0999
 4062SOL    HW123648   3.493   1.802   3.205  0.4992 -0.5930 -0.0488
 4062SOL    HW223649   3.587   1.781   3.307  0.3615  0.2509 -0.3885
 4063SOL     OW23650   1.036   3.328  17.629  0.1269  0.2165 -0.2702
 4063SOL    HW123651   0.952   3.339  17.584 -0.4401 -2.1315  0.2250
 4063SOL    HW223652   1.067   3.416  17.651  0.0484  0.1387  0.1505
 4064SOL     OW23653   3.136   3.719   4.101  0.3418 -0.2901  0.5453
 4064SOL    HW123654   3.169   3.765   4.024 -1.4124 -0.6217 -0.4193
 4064SOL    HW223655   3.104   3.642   4.053  1.0071  0.5966 -1.3083
 4065SOL     OW23656   0.390   2.840   1.010 -0.0041 -0.1008  0.1644
 4065SOL    HW123657   0.368   2.773   0.945 -1.1856  0.2505  0.2134
 4065SOL    HW223658   0.392   2.781   1.084 -1.4554  0.6734  0.8279
 4066SOL     OW23659   0.561   1.418   0.490 -0.1537 -0.4333 -0.6810
 4066SOL    HW123660   0.618   1.345   0.516  0.8248  0.2268 -0.9463
 4066SOL    HW223661   0.484   1.396   0.541 -1.7360  0.3024 -2.7323
 4067SOL     OW23662   1.529   4.672  13.406  0.3656 -0.4330  0.4244
 4067SOL    HW123663   1.601   4.644  13.350  0.1941 -0.7263  0.3534
 4067SOL    HW223664   1.555   0.042  13.420 -1.9069  0.2322  0.1604
 4068SOL     OW23665   4.517   2.784  11.422 -0.4425 -0.0519  0.4163
 4068SOL    HW123666   4.425   2.782  11.450 -0.1973 -1.5438  1.0948
 4068SOL    HW223667   4.512   2.850  11.353  0.4935  1.5730  1.9073
 4069SOL     OW23668   3.536   0.044  13.860 -0.1107 -0.5337 -0.1241
 4069SOL    HW123669   3.513   4.674  13.859 -0.5692 -0.4156 -0.2129
 4069SOL    HW223670   3.502   0.068  13.773  2.1190 -1.0519 -1.1441
 4070SOL     OW23671   1.334   0.155   4.984 -0.0873 -1.1236  0.3399
 4070SOL    HW123672   1.424   0.161   4.952 -0.9345  2.0999 -1.4337
 4070SOL    HW223673   1.304   0.246   4.981 -0.0649 -1.0951  0.9305
 4071SOL     OW23674   3.502   1.856  14.762 -0.2512  0.5053 -0.4914
 4071SOL    HW123675   3.441   1.880  14.831 -0.7540  1.1355 -1.1497
 4071SOL    HW223676   3.560   1.932  14.766 -3.2190  2.6884  0.3377
 4072SOL     OW23677   0.204   2.969   3.977  0.6816 -0.1101  0.3134
 4072SOL    HW123678   0.277   2.967   4.039 -0.7932  1.3888  2.1135
 4072SOL    HW223679   0.193   2.879   3.944 -2.4652  0.5987 -0.6471
 4073SOL     OW23680   2.874   2.987   5.017  0.0551  0.2363  0.1602
 4073SOL    HW123681   2.838   3.018   5.100  0.6462 -0.3492  0.6398
 4073SOL    HW223682   2.822   3.036   4.954 -0.9889 -0.8241  0.2022
 4074SOL     OW23683   2.013   2.231   4.106 -0.1032 -0.7739 -0.0639
 4074SOL    HW123684   2.058   2.315   4.104  0.2207 -0.9370  0.2392
 4074SOL    HW223685   1.933   2.250   4.154  1.0936  1.0596  1.1836
 4075SOL     OW23686   1.971   1.700  14.787  0.1292  0.1718  0.7006
 4075SOL    HW123687   1.908   1.686  14.717 -0.3062  1.6464  0.8087
 4075SOL    HW223688   2.011   1.613  14.793 -2.0033 -0.7864  0.8521
 4076SOL     OW23689   3.331   2.525   4.087 -0.8650  0.5599  0.1037
 4076SOL    HW123690   3.300   2.447   4.040 -1.9043 -0.2508  2.1280
 4076SOL    HW223691   3.371   2.491   4.167  3.6634 -0.1886 -2.4913
 4077SOL     OW23692   0.032   2.169   7.772 -0.3671  0.1795 -0.2331
 4077SOL    HW123693   4.682   2.212   7.725  0.8374  1.9613 -0.4340
 4077SOL    HW223694   0.084   2.247   7.791 -1.5854  0.5141  1.7137
 4078SOL     OW23695   0.867   3.865  14.229  0.0255 -0.4820  0.3184
 4078SOL    HW123696   0.936   3.803  14.251  1.5733  0.9818 -0.4214
 4078SOL    HW223697   0.875   3.863  14.134 -1.3284  1.9536  0.1476
 4079SOL     OW23698   4.276   3.016   5.185  0.2812 -0.3188  0.2010
 4079SOL    HW123699   4.184   2.991   5.180  0.3944 -1.0095  1.6510
 4079SOL    HW223700   4.300   3.028   5.092  3.1640 -1.0381  0.8352
 4080SOL     OW23701   1.657   4.505   8.730 -0.7964  0.0961 -0.6898
 4080SOL    HW123702   1.726   4.461   8.779 -2.2108 -1.6601 -0.2872
 4080SOL    HW223703   1.583   4.449   8.753 -3.0724  2.1350 -3.0521
 4081SOL     OW23704   0.082   4.402   5.777 -0.0590  0.0028 -0.0041
 4081SOL    HW123705   0.161   4.381   5.727  1.2708  1.5669  1.4466
 4081SOL    HW223706   0.123   4.448   5.851  1.7934  0.4209 -1.2763
 4082SOL     OW23707   2.573   1.062   7.448  0.3137 -0.1629  0.5021
 4082SOL    HW123708   2.545   1.104   7.367 -0.9619  2.7099  2.4294
 4082SOL    HW223709   2.596   0.972   7.425 -4.1585 -1.4624  1.2514
 4083SOL     OW23710   2.149   0.388  11.491 -0.8277 -0.2906  0.0458
 4083SOL    HW123711   2.210   0.387  11.417 -0.3027  0.3825  0.4724
 4083SOL    HW223712   2.065   0.390  11.444 -0.9933  1.6217  0.4073
 4084SOL     OW23713   1.178   0.644   4.198 -0.5204  0.0645  0.1540
 4084SOL    HW123714   1.193   0.551   4.179 -0.0814  0.2827 -0.5448
 4084SOL    HW223715   1.140   0.647   4.286  0.2685 -1.4472  0.5488
 4085SOL     OW23716   4.632   2.779  15.933  0.0615 -0.0083  0.1266
 4085SOL    HW123717   4.584   2.786  15.851  0.8760 -2.8122 -0.5689
 4085SOL    HW223718   4.704   2.842  15.927  0.5127 -0.6916 -1.6336
 4086SOL     OW23719   2.958   0.634   4.552 -0.0785 -0.1923 -0.3426
 4086SOL    HW123720   3.023   0.572   4.585  1.2985  1.2357 -0.3525
 4086SOL    HW223721   2.953   0.611   4.459 -0.9341  1.4782 -0.7133
 4087SOL     OW23722   2.011   0.491   5.437 -0.4848 -0.3804  0.7672
 4087SOL    HW123723   1.982   0.456   5.521 -0.2632  0.1626  1.0673
 4087SOL    HW223724   1.978   0.581   5.444 -0.3943 -0.2898  0.0254
 4088SOL     OW23725   0.916   0.413   6.445  0.1904  0.8405 -0.1732
 4088SOL    HW123726   0.981   0.411   6.516  1.7251  1.2107 -1.5594
 4088SOL    HW223727   0.903   0.505   6.423 -1.6964  0.2156 -1.6512
 4089SOL     OW23728   4.644   1.636  10.436 -0.6850 -0.2119 -0.2463
 4089SOL    HW123729   4.650   1.666  10.345 -0.2569  0.2007 -0.0789
 4089SOL    HW223730   4.706   1.693  10.481 -0.8004  0.5712 -1.0804
 4090SOL     OW23731   1.116   4.196   7.645 -0.2060  0.2189  0.6305
 4090SOL    HW123732   1.087   4.244   7.567  1.1627 -1.6441 -1.0584
 4090SOL    HW223733   1.058   4.230   7.713  1.3723  0.1820  2.0022
 4091SOL     OW23734   1.568   0.442  14.570 -0.3082  0.3170  0.4926
 4091SOL    HW123735   1.565   0.480  14.482  1.9044  0.8249  0.6362
 4091SOL    HW223736   1.512   0.504  14.618 -0.9665  0.3938 -0.3755
 4092SOL     OW23737   1.864   1.253   0.003  0.0319  0.0478 -0.1037
 4092SOL    HW123738   1.876   1.180  17.633 -1.5420  0.1196 -0.5032
 4092SOL    HW223739   1.774   1.245   0.033 -0.5418  1.3056 -1.5465
 4093SOL     OW23740   4.577   0.423   4.722  0.1880  0.6622  0.0350
 4093SOL    HW123741   4.623   0.495   4.766  2.0510 -0.4294 -0.1359
 4093SOL    HW223742   4.611   0.345   4.765 -0.5557  1.5085  2.1642
 4094SOL     OW23743   2.054   0.295  14.777 -0.1796 -0.3789  0.5050
 4094SOL    HW123744   2.087   0.291  14.866 -2.0154  0.9907  1.2418
 4094SOL    HW223745   2.129   0.327  14.728  0.1549 -1.5775  0.2420
 4095SOL     OW23746   0.897   0.225   9.083  0.5450  0.2803 -0.5935
 4095SOL    HW123747   0.922   0.142   9.042  2.5173  0.9903 -0.8178
 4095SOL    HW223748   0.888   0.282   9.007  1.5837  0.0394 -0.9038
 4096SOL     OW23749   0.190   3.407   6.226 -0.0975 -0.5703 -0.0322
 4096SOL    HW123750   0.272   3.433   6.183  0.5647 -1.3430  0.7772
 4096SOL    HW223751   0.128   3.453   6.169  1.1103  0.7286 -0.3072
 4097SOL     OW23752   3.583   2.827   3.290 -0.0282 -0.2074 -0.1155
 4097SOL    HW123753   3.556   2.794   3.204  0.3882 -1.8555  0.3824
 4097SOL    HW223754   3.605   2.918   3.269 -0.4279 -0.4227 -1.5006
 4098SOL     OW23755   4.581   3.116   7.711 -0.6450  0.2080 -0.4829
 4098SOL    HW123756   4.511   3.127   7.775 -0.6597  0.0086 -0.4652
 4098SOL    HW223757   4.633   3.041   7.741 -0.4815  0.5331  0.0447
 4099SOL     OW23758   1.536   4.719  10.294  0.3952 -0.2816  0.2117
 4099SOL    HW123759   1.529   0.066  10.227  0.7808  2.4799  3.0213
 4099SOL    HW223760   1.460   4.661  10.286  1.2104 -1.3531  0.2247
 4100SOL     OW23761   3.810   3.295   5.989  0.0477 -0.5796 -0.0549
 4100SOL    HW123762   3.771   3.265   5.907  1.1068 -2.5660  0.1828
 4100SOL    HW223763   3.843   3.211   6.020 -1.7546 -1.6516 -1.0325
 4101SOL     OW23764   2.127   1.081  13.555  0.5005 -0.0663  0.4854
 4101SOL    HW123765   2.205   1.129  13.583 -1.7765  3.2891  1.0826
 4101SOL    HW223766   2.160   1.031  13.481  1.9867 -1.2781  1.9650
 4102SOL     OW23767   0.756   2.560  11.897  0.0944 -0.2153  0.4980
 4102SOL    HW123768   0.712   2.560  11.982 -0.9509 -0.6570 -0.0509
 4102SOL    HW223769   0.687   2.572  11.832 -2.8736  0.8864  3.8638
 4103SOL     OW23770   1.385   3.960   5.505 -0.2714 -0.2687 -0.3028
 4103SOL    HW123771   1.458   3.898   5.510 -1.3367 -1.4770  0.1549
 4103SOL    HW223772   1.358   3.969   5.596  2.3338  0.6753  0.3690
 4104SOL     OW23773   2.019   3.095   4.192 -0.1464  0.3322 -0.0561
 4104SOL    HW123774   2.024   3.018   4.136  0.5387  0.9247 -0.8224
 4104SOL    HW223775   1.958   3.152   4.145  1.0177  1.8737  0.2833
 4105SOL     OW23776   0.537   3.349   1.833 -0.1695 -0.4420 -0.1680
 4105SOL    HW123777   0.525   3.440   1.859  2.1678 -0.5114  1.1846
 4105SOL    HW223778   0.616   3.324   1.882 -0.8350 -0.9623  0.6384
 4106SOL     OW23779   3.029   4.595   8.123 -0.2307 -0.1490 -0.6819
 4106SOL    HW123780   3.030   4.499   8.112 -0.0285 -0.3154  0.8492
 4106SOL    HW223781   2.989   4.587   8.209  1.7869  0.5682  0.3084
 4107SOL     OW23782   0.724   4.608  10.872  0.1237 -0.3582 -0.4055
 4107SOL    HW123783   0.717   4.663  10.794 -1.7631  1.1061  0.7876
 4107SOL    HW223784   0.642   4.637  10.912  0.6855  0.5176  0.1172
 4108SOL     OW23785   3.390   0.635  13.883 -0.0230 -0.1795  0.0782
 4108SOL    HW123786   3.451   0.620  13.955  0.1285 -0.1110 -0.0356
 4108SOL    HW223787   3.430   0.573  13.822 -0.1174  1.8480 -2.0286
 4109SOL     OW23788   0.291   1.453   7.357 -0.2391 -0.1401  0.2910
 4109SOL    HW123789   0.318   1.378   7.410  0.3122 -0.7711 -0.8837
 4109SOL    HW223790   0.226   1.412   7.301 -2.5570  1.9007  1.5256
 4110SOL     OW23791   1.053   4.439   4.670  0.3527  0.0183 -0.2324
 4110SOL    HW123792   1.050   4.464   4.578  0.2184  0.7042 -0.0397
 4110SOL    HW223793   0.988   4.500   4.705  0.5915  1.2188 -1.8524
 4111SOL     OW23794   1.731   3.840  15.724 -0.2147  0.1499  0.2139
 4111SOL    HW123795   1.807   3.784  15.706 -0.3173 -0.1264  0.6467
 4111SOL    HW223796   1.719   3.820  15.817  0.5201 -0.4271  0.1858
 4112SOL     OW23797   4.706   3.010   4.142 -0.3530 -0.7619 -0.3563
 4112SOL    HW123798   4.612   2.998   4.126 -0.7528  2.1483 -0.1586
 4112SOL    HW223799   0.034   2.987   4.064 -0.1457  1.0182 -0.7305
 4113SOL     OW23800   1.279   0.578  17.380 -0.1516  0.8635 -0.8127
 4113SOL    HW123801   1.306   0.548  17.467  1.6800  1.1466 -1.2727
 4113SOL    HW223802   1.194   0.536  17.374  0.8465 -1.4501  0.9689
 4114SOL     OW23803   0.983   2.671  11.029 -0.4285  0.4652 -0.1672
 4114SOL    HW123804   0.888   2.666  11.031 -0.3083 -1.6514 -0.0490
 4114SOL    HW223805   1.018   2.604  11.088 -1.7625  1.2482  1.5188
 4115SOL     OW23806   3.397   1.603   8.522 -0.4545  0.2217  0.2642
 4115SOL    HW123807   3.440   1.524   8.490 -0.2881  0.2514  0.4127
 4115SOL    HW223808   3.312   1.570   8.551 -0.7189  2.1955  1.7555
 4116SOL     OW23809   0.315   3.341   4.340  0.0965  0.2422 -0.2809
 4116SOL    HW123810   0.384   3.346   4.406 -0.9278 -1.4499  0.9483
 4116SOL    HW223811   0.327   3.416   4.282 -0.2156  2.3678  2.4222
 4117SOL     OW23812   4.082   3.079   7.889 -0.4337  0.0102 -0.1717
 4117SOL    HW123813   4.151   3.014   7.890 -0.3918  0.0378 -0.9613
 4117SOL    HW223814   4.131   3.161   7.881  3.2677 -2.1421  0.9099
 4118SOL     OW23815   0.232   4.478   6.850  0.0609  0.2253  0.3214
 4118SOL    HW123816   0.164   4.437   6.905  1.9730 -3.1058  0.2329
 4118SOL    HW223817   0.316   4.473   6.895 -0.4675 -0.2724  1.2584
 4119SOL     OW23818   3.511   3.605  13.253 -0.7734 -0.0441 -0.0080
 4119SOL    HW123819   3.516   3.510  13.240  0.6145 -0.0788  0.7302
 4119SOL    HW223820   3.422   3.620  13.223 -1.5392 -1.9287  1.3730
 4120SOL     OW23821   0.154   1.268   0.859 -0.5511 -0.0512  0.1895
 4120SOL    HW123822   0.100   1.194   0.830  1.0140 -1.4238  0.8012
 4120SOL    HW223823   0.204   1.244   0.937  0.4350 -1.4858 -0.8819
 4121SOL     OW23824   1.775   4.402   5.400 -0.3753  0.2244 -0.1195
 4121SOL    HW123825   1.802   4.311   5.409 -1.9054 -0.5779 -3.7287
 4121SOL    HW223826   1.843   4.432   5.340 -0.3215  1.2512  0.4537
 4122SOL     OW23827   3.524   1.790   5.346  0.1140  0.2417 -0.1536
 4122SOL    HW123828   3.492   1.727   5.281 -2.7116 -1.3149  2.7795
 4122SOL    HW223829   3.470   1.866   5.323 -0.5586 -0.4188 -0.7730
 4123SOL     OW23830   4.137   4.626   2.486 -0.4421 -0.3309 -0.4225
 4123SOL    HW123831   4.080   4.578   2.425 -1.0692  0.0188 -0.1115
 4123SOL    HW223832   4.112   4.577   2.564  1.1210  1.0283  0.9157
 4124SOL     OW23833   1.542   2.864   9.918  0.4663  0.0388 -0.4290
 4124SOL    HW123834   1.576   2.936   9.971 -1.8793  1.0463 -0.2985
 4124SOL    HW223835   1.506   2.816   9.993 -1.7580 -0.5498 -1.8775
 4125SOL     OW23836   2.700   3.488  17.049 -0.2327 -0.0779 -0.3143
 4125SOL    HW123837   2.766   3.436  17.002 -0.8273 -0.2176 -0.9919
 4125SOL    HW223838   2.639   3.420  17.077  1.9915 -0.3683  3.8418
 4126SOL     OW23839   2.903   1.959   7.071 -0.2612 -0.3980  0.1772
 4126SOL    HW123840   2.873   1.979   6.982 -0.5878  0.5505  0.4988
 4126SOL    HW223841   2.920   1.865   7.061  3.8471  0.4558 -0.8189
 4127SOL     OW23842   0.982   2.059   1.054 -0.5534  0.8487 -0.1170
 4127SOL    HW123843   0.905   2.002   1.052  0.4748 -0.5815  0.4439
 4127SOL    HW223844   1.042   2.021   1.118 -1.1195 -0.4486 -0.3506
 4128SOL     OW23845   4.038   0.461  14.664  0.3392 -0.6289 -0.1007
 4128SOL    HW123846   4.130   0.464  14.689 -0.1380 -2.2861  1.8950
 4128SOL    HW223847   4.013   0.548  14.695  1.3996 -0.6248  0.7570
 4129SOL     OW23848   4.197   1.119   3.535 -0.1604 -0.1479  0.0036
 4129SOL    HW123849   4.220   1.028   3.553  0.1313  0.0995  0.8797
 4129SOL    HW223850   4.274   1.156   3.493  0.1149  0.6093  1.1996
 4130SOL     OW23851   0.562   2.954  10.916 -0.1120  0.0528  0.0154
 4130SOL    HW123852   0.484   2.901  10.903 -0.0746  0.1276 -0.5014
 4130SOL    HW223853   0.513   3.036  10.907  0.3813  0.6193  2.3660
 4131SOL     OW23854   1.108   0.661  12.937  0.2811  0.0853  0.8619
 4131SOL    HW123855   1.122   0.694  12.849 -0.9863 -0.6513  0.3824
 4131SOL    HW223856   1.116   0.566  12.924  2.2204  0.2293  0.9987
 4132SOL     OW23857   4.575   0.752   5.542  0.4159 -0.3294  0.3263
 4132SOL    HW123858   4.615   0.719   5.461 -0.4527 -0.6087  0.0180
 4132SOL    HW223859   4.501   0.803   5.511  0.9366  0.0388 -0.3264
 4133SOL     OW23860   0.718   2.790   7.636  0.0066  0.4643 -0.1062
 4133SOL    HW123861   0.747   2.774   7.726  1.2834 -1.1844 -0.7970
 4133SOL    HW223862   0.658   2.860   7.660  2.0441  1.5270  1.9750
 4134SOL     OW23863   1.243   2.551  11.279  0.1572  0.2610 -0.0219
 4134SOL    HW123864   1.172   2.487  11.279  0.6791 -0.3058 -0.5057
 4134SOL    HW223865   1.316   2.500  11.245  2.0820  2.2370  1.1874
 4135SOL     OW23866   0.320   1.725   3.603 -0.0910  0.1908  0.0876
 4135SOL    HW123867   0.274   1.647   3.634 -1.9576 -0.1451 -3.5010
 4135SOL    HW223868   0.244   1.764   3.561 -0.7605 -0.5811  0.5704
 4136SOL     OW23869   4.657   0.138   1.748  0.2244  0.2693  0.1528
 4136SOL    HW123870   4.690   0.206   1.688  1.9186  0.0122  0.8004
 4136SOL    HW223871   4.568   0.125   1.716  0.1995  1.1596 -0.1572
 4137SOL     OW23872   1.395   3.146  12.795 -0.2923 -0.0627  0.3837
 4137SOL    HW123873   1.435   3.075  12.744 -2.5649 -2.2678  1.6660
 4137SOL    HW223874   1.472   3.184  12.838 -1.3951 -0.3286  2.6240
 4138SOL     OW23875   2.985   3.929   6.982  0.1124 -0.9154 -0.2756
 4138SOL    HW123876   2.906   3.877   6.968  0.3632 -1.2444 -0.5002
 4138SOL    HW223877   2.985   3.930   7.077 -3.2877 -1.0901 -0.2895
 4139SOL     OW23878   2.927   4.251   1.256 -0.6822 -0.2339  0.0701
 4139SOL    HW123879   2.997   4.312   1.278 -1.3237  0.8503 -0.9378
 4139SOL    HW223880   2.860   4.293   1.311 -0.8730  0.7762 -0.9495
 4140SOL     OW23881   4.487   2.931   9.623  0.4696 -0.3078 -0.4806
 4140SOL    HW123882   4.557   2.865   9.624  2.4895  1.8527  0.7617
 4140SOL    HW223883   4.424   2.885   9.679 -1.0445  1.4793 -0.7195
 4141SOL     OW23884   2.274   3.174  10.972 -0.3299 -0.0696 -0.6220
 4141SOL    HW123885   2.338   3.103  10.974  1.6880  1.6973 -1.1749
 4141SOL    HW223886   2.338   3.246  10.974  0.9362 -1.3280  3.2589
 4142SOL     OW23887   3.093   4.714   1.611 -0.3853 -0.0303 -0.1349
 4142SOL    HW123888   3.069   0.051   1.540  1.6844  2.2081  1.0454
 4142SOL    HW223889   3.097   0.059   1.680 -0.4717 -0.0333 -0.1265
 4143SOL     OW23890   0.983   4.490  15.586 -0.0975  0.2267 -0.5552
 4143SOL    HW123891   0.907   4.434  15.575  1.4108 -2.0812  0.8296
 4143SOL    HW223892   1.022   4.457  15.667 -3.1701  0.3887  0.9632
 4144SOL     OW23893   4.359   2.693   8.002  0.1075  0.0383 -0.0773
 4144SOL    HW123894   4.409   2.612   7.991  1.8951  0.8753  1.8372
 4144SOL    HW223895   4.343   2.697   8.096  0.4252  1.8465 -0.1077
 4145SOL     OW23896   2.589   3.280   2.159 -0.1601  0.0965  0.6585
 4145SOL    HW123897   2.652   3.277   2.231 -0.9536  1.1824  1.3885
 4145SOL    HW223898   2.507   3.308   2.200  0.2456  0.7670  0.9983
 4146SOL     OW23899   1.802   4.357   4.739  0.3216  0.0459  0.5835
 4146SOL    HW123900   1.724   4.335   4.791 -0.2316  0.1901 -0.1783
 4146SOL    HW223901   1.776   4.448   4.728  0.7371  0.0803 -0.0895
 4147SOL     OW23902   1.722   0.783   1.962  0.3269 -0.6046 -0.2105
 4147SOL    HW123903   1.815   0.803   1.976 -0.2476  0.8237  1.4573
 4147SOL    HW223904   1.715   0.697   2.003  2.9037 -0.5581  0.3746
 4148SOL     OW23905   2.899   3.137   8.028 -0.1952  0.2705 -0.5538
 4148SOL    HW123906   2.892   3.217   8.080 -0.4033 -0.2236  0.1662
 4148SOL    HW223907   2.948   3.158   7.948 -0.4957 -0.8873 -1.0442
 4149SOL     OW23908   2.626   4.641   0.439  0.2586  0.0870  0.2098
 4149SOL    HW123909   2.631   4.680   0.527  1.7318  0.6095 -0.1039
 4149SOL    HW223910   2.541   4.597   0.434  0.3880  0.0235 -1.2494
 4150SOL     OW23911   4.467   0.725  16.524  0.2206  0.3162 -0.4857
 4150SOL    HW123912   4.419   0.808  16.530  0.3730  0.2123  2.1745
 4150SOL    HW223913   4.396   0.665  16.548 -0.8929  0.6093 -3.0267
 4151SOL     OW23914   2.538   0.451   5.195  0.1494  0.1265  0.5650
 4151SOL    HW123915   2.463   0.489   5.240 -2.3497 -0.5769 -2.9855
 4151SOL    HW223916   2.613   0.484   5.244  3.2815 -0.8860 -3.5399
 4152SOL     OW23917   0.211   3.510   8.494  0.1808  0.1401 -0.1846
 4152SOL    HW123918   0.139   3.484   8.551  0.0289  1.2058  0.1066
 4152SOL    HW223919   0.263   3.430   8.486  0.8299  0.4493  0.9023
 4153SOL     OW23920   2.715   3.288   5.116 -0.5732  0.5834  1.0454
 4153SOL    HW123921   2.771   3.364   5.128 -1.1439  1.0527  0.7292
 4153SOL    HW223922   2.655   3.324   5.051  1.4759  0.1097 -1.0933
 4154SOL     OW23923   2.749   4.248   0.150  0.4671 -0.0911  0.1950
 4154SOL    HW123924   2.749   4.153   0.142 -0.3605 -0.0103 -0.8045
 4154SOL    HW223925   2.797   4.273   0.229  0.1092  0.0959  0.3500
 4155SOL     OW23926   3.802   2.261  14.027  0.2939 -0.4242 -0.2584
 4155SOL    HW123927   3.802   2.195  13.958  0.1691 -0.1871 -0.4806
 4155SOL    HW223928   3.717   2.304  14.020  0.5894  0.3360  0.8932
 4156SOL     OW23929   4.210   3.387   9.059  0.2234 -0.0839 -0.1942
 4156SOL    HW123930   4.290   3.412   9.013  0.1547  0.0465 -0.2430
 4156SOL    HW223931   4.250   3.354   9.139 -0.5159 -0.1422  0.1504
 4157SOL     OW23932   1.358   0.311  16.163 -0.2801 -0.2472  0.4690
 4157SOL    HW123933   1.289   0.245  16.175 -0.4564  0.0103  0.9017
 4157SOL    HW223934   1.416   0.256  16.111 -0.2610  0.6664 -0.4782
 4158SOL     OW23935   1.421   4.594   7.503 -0.2999 -0.4071 -0.1079
 4158SOL    HW123936   1.342   4.616   7.553 -0.4685 -0.5987 -0.2929
 4158SOL    HW223937   1.467   4.527   7.554  2.9210  1.2938 -0.7422
 4159SOL     OW23938   1.299   0.792   0.115 -0.0171  0.6012  0.2154
 4159SOL    HW123939   1.300   0.697   0.101 -0.8368  0.8859 -1.8627
 4159SOL    HW223940   1.246   0.809   0.037 -1.3477  1.3122  1.2761
 4160SOL     OW23941   4.673   2.010   5.109  0.7702 -0.1008 -0.1342
 4160SOL    HW123942   4.676   2.091   5.161  1.6592  0.0235 -0.3749
 4160SOL    HW223943   4.615   1.959   5.166  0.8417 -0.8864 -0.7701
 4161SOL     OW23944   3.431   3.868   7.957  0.0308 -0.1009  0.2328
 4161SOL    HW123945   3.417   3.961   7.938  1.0801  0.0884  0.3825
 4161SOL    HW223946   3.352   3.819   7.935 -1.0955  2.3345 -1.1440
 4162SOL     OW23947   0.678   3.374   7.698 -0.0783  0.9227  0.2834
 4162SOL    HW123948   0.591   3.408   7.715  0.5121  2.7319 -0.3172
 4162SOL    HW223949   0.715   3.408   7.779 -0.2036  2.2352 -0.2044
 4163SOL     OW23950   2.665   0.471   5.453  0.3325  0.1297  0.2153
 4163SOL    HW123951   2.643   0.382   5.482 -1.2410  1.0213  1.7596
 4163SOL    HW223952   2.674   0.515   5.538 -2.3962 -1.6182  1.4311
 4164SOL     OW23953   2.589   0.252   0.179 -0.6244  0.0554  0.0888
 4164SOL    HW123954   2.636   0.170   0.195 -1.1099 -0.2247  0.0929
 4164SOL    HW223955   2.669   0.304   0.176 -2.1929  2.3812 -1.2140
 4165SOL     OW23956   0.108   3.331   6.858 -0.0765 -0.1280  0.3314
 4165SOL    HW123957   0.199   3.306   6.876  0.5122  1.6401 -0.2020
 4165SOL    HW223958   0.085   3.272   6.786  3.6317 -0.2585 -0.7382
 4166SOL     OW23959   3.554   1.752   2.778 -0.4117  0.3180  0.0049
 4166SOL    HW123960   3.502   1.793   2.709  0.3314 -0.3271 -0.9405
 4166SOL    HW223961   3.634   1.803   2.763 -0.3755  0.0474 -0.7201
 4167SOL     OW23962   4.412   3.504   5.595  0.7232  0.0289  0.3306
 4167SOL    HW123963   4.427   3.411   5.580  1.5073  0.1966  0.0570
 4167SOL    HW223964   4.399   3.536   5.506 -0.7700 -0.7640  0.2799
 4168SOL     OW23965   1.929   0.123   7.201  0.0719 -0.2985 -0.4062
 4168SOL    HW123966   1.986   0.184   7.154  1.6390 -0.9710  0.6190
 4168SOL    HW223967   1.999   0.084   7.252 -1.2752 -2.7604 -0.4766
 4169SOL     OW23968   1.063   2.180   0.799  0.3883  0.2554 -0.0306
 4169SOL    HW123969   0.977   2.144   0.779  0.2989 -0.1697  1.1529
 4169SOL    HW223970   1.086   2.135   0.880 -0.0223 -1.5209 -0.8885
 4170SOL     OW23971   3.246   1.377  11.375  0.2194  0.3925 -0.5235
 4170SOL    HW123972   3.181   1.386  11.444  0.1584  1.4419 -0.7194
 4170SOL    HW223973   3.266   1.283  11.369 -0.5278  0.2037 -0.0802
 4171SOL     OW23974   0.854   4.505  11.741 -0.1181  0.4352 -0.4777
 4171SOL    HW123975   0.780   4.554  11.776 -1.5093 -2.0115 -0.0455
 4171SOL    HW223976   0.821   4.416  11.736  1.7773 -0.2465 -0.7630
 4172SOL     OW23977   2.370   2.200   5.806 -0.1758 -0.2364 -0.1948
 4172SOL    HW123978   2.322   2.265   5.857  0.5122  0.1075  0.0121
 4172SOL    HW223979   2.297   2.140   5.793 -0.4309  0.1271 -0.4869
 4173SOL     OW23980   0.386   2.044   1.990 -0.3286 -0.5317  0.4337
 4173SOL    HW123981   0.331   2.058   2.067 -0.0042  0.4218  0.4935
 4173SOL    HW223982   0.422   1.958   2.012  0.2054  0.0024  1.6442
 4174SOL     OW23983   3.811   1.863   5.058  0.1514  0.6183  0.3648
 4174SOL    HW123984   3.905   1.869   5.043  0.0067  1.3571 -0.2951
 4174SOL    HW223985   3.809   1.788   5.117  1.8171  1.8418  1.9650
 4175SOL     OW23986   0.424   1.599   0.719  0.3188  0.0516  0.1281
 4175SOL    HW123987   0.355   1.614   0.784  1.0073  1.3202  0.5502
 4175SOL    HW223988   0.376   1.528   0.674  0.8914 -0.3476  0.1510
 4176SOL     OW23989   4.509   2.338   2.714 -0.0173 -0.3219 -0.0584
 4176SOL    HW123990   4.577   2.295   2.765  0.5944 -1.1001 -1.5242
 4176SOL    HW223991   4.469   2.257   2.684 -0.6922 -0.3341  0.8954
 4177SOL     OW23992   1.847   3.994  12.730 -0.3263 -0.2455 -0.5994
 4177SOL    HW123993   1.825   3.964  12.818  2.4334  0.9757  0.5135
 4177SOL    HW223994   1.788   3.932  12.688 -0.7876 -1.1622  1.4002
 4178SOL     OW23995   3.155   0.389   5.249  0.4139  0.5585  0.0555
 4178SOL    HW123996   3.148   0.449   5.174  2.2834  1.1398  0.3358
 4178SOL    HW223997   3.062   0.376   5.267  0.6420 -2.7070 -1.1198
 4179SOL     OW23998   2.903   3.143  16.220  0.1258  0.0138 -0.7549
 4179SOL    HW123999   2.898   3.236  16.241  1.2050  0.2022 -1.3274
 4179SOL    HW224000   2.928   3.151  16.128 -0.1038  0.0709 -0.8132
 4180SOL     OW24001   1.138   0.344  13.178  0.4908  0.3265 -0.1800
 4180SOL    HW124002   1.127   0.291  13.257  0.1750  1.0113  0.2389
 4180SOL    HW224003   1.227   0.378  13.184 -0.4605  2.5071  1.8197
 4181SOL     OW24004   1.867   0.677   2.842  0.4041 -0.0964 -0.1299
 4181SOL    HW124005   1.961   0.675   2.860  0.3720 -2.2893 -0.1806
 4181SOL    HW224006   1.873   0.720   2.756  1.3690  1.6460  0.8114
 4182SOL     OW24007   1.592   4.201   1.573 -0.0733  0.2281 -0.6248
 4182SOL    HW124008   1.587   4.209   1.478 -1.3017 -2.0136 -0.7541
 4182SOL    HW224009   1.500   4.186   1.595  0.7958  1.4892  3.8369
 4183SOL     OW24010   3.709   0.008  16.279 -0.8477  0.1997  0.7682
 4183SOL    HW124011   3.710   0.066  16.203  0.4404 -0.2812  0.4235
 4183SOL    HW224012   3.782   4.671  16.261  0.5780  1.8587  1.2159
 4184SOL     OW24013   1.099   4.178   7.209  0.0701  0.2557  0.0808
 4184SOL    HW124014   1.166   4.133   7.260 -1.1138 -2.4351 -0.6883
 4184SOL    HW224015   1.089   4.124   7.130 -0.3860  0.1730  0.1938
 4185SOL     OW24016   2.754   4.496  17.290 -0.2507  0.3051  0.1432
 4185SOL    HW124017   2.693   4.435  17.331 -1.3606  0.1436 -1.7415
 4185SOL    HW224018   2.803   4.520  17.369  1.6784 -0.7431 -0.7217
 4186SOL     OW24019   2.694   1.274   7.567 -0.2343  0.1104 -0.2837
 4186SOL    HW124020   2.619   1.326   7.537 -1.6551 -1.6828  0.1039
 4186SOL    HW224021   2.662   1.187   7.542 -3.1422  0.7495  1.2309
 4187SOL     OW24022   4.500   1.920   6.592  0.5054 -0.1191 -0.3073
 4187SOL    HW124023   4.595   1.911   6.594  0.4636 -0.9486 -1.4494
 4187SOL    HW224024   4.476   1.932   6.684  1.4357 -0.5873 -0.0002
 4188SOL     OW24025   0.898   0.935  13.616  0.1100 -0.1089  0.6549
 4188SOL    HW124026   0.975   0.951  13.670  1.3489 -2.1262 -0.4945
 4188SOL    HW224027   0.912   0.849  13.576  2.3334  1.7019 -2.4128
 4189SOL     OW24028   1.561   1.202   6.333  0.2802 -0.0375 -0.0992
 4189SOL    HW124029   1.604   1.287   6.345 -1.3083  0.7679 -0.0843
 4189SOL    HW224030   1.469   1.227   6.345  0.1516 -0.7366  0.3853
 4190SOL     OW24031   2.146   4.014   6.045  0.1252  0.3006  0.3155
 4190SOL    HW124032   2.122   4.066   6.122 -1.8291 -0.7753  0.4136
 4190SOL    HW224033   2.240   4.005   6.061  0.0874 -1.0403 -0.2397
 4191SOL     OW24034   1.944   4.534   3.171 -0.3416 -0.0796  0.6995
 4191SOL    HW124035   1.933   4.519   3.077 -1.4438  0.2082  0.7868
 4191SOL    HW224036   2.032   4.573   3.168 -1.4324  2.3430  0.4849
 4192SOL     OW24037   4.598   1.189   1.762  0.5494 -0.0569  0.1553
 4192SOL    HW124038   4.633   1.195   1.851  1.3503  0.9533 -0.2337
 4192SOL    HW224039   4.504   1.177   1.778  0.4180 -1.7864 -1.8482
 4193SOL     OW24040   2.823   1.523   6.840  0.2010  0.0841  0.0415
 4193SOL    HW124041   2.870   1.454   6.793 -1.0797 -0.5660 -0.2767
 4193SOL    HW224042   2.838   1.598   6.782 -1.1919  0.6397  0.3933
 4194SOL     OW24043   3.742   3.581   7.494 -0.1753  0.3261 -0.2495
 4194SOL    HW124044   3.704   3.540   7.571 -0.2592 -0.4250 -0.6894
 4194SOL    HW224045   3.822   3.528   7.489 -0.0309  0.6612 -1.6420
 4195SOL     OW24046   3.518   0.773   8.973  0.2249  0.2725 -0.2267
 4195SOL    HW124047   3.455   0.806   9.036  0.2256  1.3311 -0.7748
 4195SOL    HW224048   3.539   0.856   8.930  1.9980 -0.4868 -0.8610
 4196SOL     OW24049   2.673   1.275   6.865  0.2197  0.7567 -0.6140
 4196SOL    HW124050   2.718   1.357   6.887 -1.6537  1.4857  0.4921
 4196SOL    HW224051   2.738   1.216   6.827  0.1253  0.7805 -0.8121
 4197SOL     OW24052   4.476   4.204   7.075 -0.2954  0.1881  0.3879
 4197SOL    HW124053   4.397   4.225   7.025 -0.4267 -1.4392 -0.0785
 4197SOL    HW224054   4.436   4.170   7.155  0.6942  0.7166  1.1038
 4198SOL     OW24055   0.721   0.504   5.584  0.5768  0.2390 -0.3887
 4198SOL    HW124056   0.668   0.542   5.513 -0.4862 -0.4693  0.0180
 4198SOL    HW224057   0.798   0.471   5.538  1.4094  1.0184  0.4495
 4199SOL     OW24058   4.440   1.905  10.663  0.4997 -0.1167 -0.2540
 4199SOL    HW124059   4.481   1.830  10.706 -1.1984 -0.6258  0.4712
 4199SOL    HW224060   4.420   1.954  10.743 -0.8327  1.3189 -1.4575
 4200SOL     OW24061   1.330   0.701  15.381 -0.1309 -0.0195 -0.0773
 4200SOL    HW124062   1.241   0.666  15.376 -0.6937  1.7474 -2.2486
 4200SOL    HW224063   1.353   0.667  15.468 -0.3785  0.3995  0.1556
 4201SOL     OW24064   4.298   3.108   1.382  0.1311  0.1003  0.3055
 4201SOL    HW124065   4.226   3.080   1.438 -1.4102  1.0897 -1.1883
 4201SOL    HW224066   4.273   3.199   1.372  0.0252  0.1067  0.6428
 4202SOL     OW24067   1.145   3.791   1.645 -0.0480  0.4179  0.0219
 4202SOL    HW124068   1.167   3.699   1.631  0.7088  0.9479 -2.3976
 4202SOL    HW224069   1.088   3.788   1.721  0.5275 -1.4864  0.3622
 4203SOL     OW24070   0.379   1.067   0.636 -0.5530  0.1665  0.2409
 4203SOL    HW124071   0.421   0.996   0.685  0.8058  1.1133  0.4573
 4203SOL    HW224072   0.291   1.032   0.625 -1.2131  1.3693  1.6527
 4204SOL     OW24073   4.066   3.367  11.651  0.7393  0.1073  0.2477
 4204SOL    HW124074   4.046   3.340  11.741  1.4194 -1.9636 -0.2279
 4204SOL    HW224075   3.980   3.361  11.609  0.1766 -0.4454  1.4668
 4205SOL     OW24076   2.641   1.790   8.133 -0.1381 -0.1553  0.2736
 4205SOL    HW124077   2.652   1.884   8.119  0.6516 -0.4833 -1.2888
 4205SOL    HW224078   2.561   1.770   8.085  1.9898  3.0984 -4.6483
 4206SOL     OW24079   2.664   2.138   4.795  0.7328 -0.3533 -0.2275
 4206SOL    HW124080   2.647   2.118   4.703 -2.0085  0.0428  0.2143
 4206SOL    HW224081   2.600   2.209   4.794  0.1244 -0.8685  2.6300
 4207SOL     OW24082   1.146   1.559   3.278  0.0241 -0.1201  0.6937
 4207SOL    HW124083   1.133   1.589   3.188 -2.1425  0.5930  1.2418
 4207SOL    HW224084   1.065   1.592   3.316 -0.4584  0.9997 -1.2897
 4208SOL     OW24085   0.224   0.582   2.853  0.5929  0.2423  0.1402
 4208SOL    HW124086   0.226   0.536   2.769  1.7674 -0.3027  0.4579
 4208SOL    HW224087   0.217   0.675   2.832  2.5073  0.8240  1.9961
 4209SOL     OW24088   3.858   3.927   6.420  0.1191 -0.5838  0.5507
 4209SOL    HW124089   3.855   4.009   6.468  1.4450  0.6888 -1.5462
 4209SOL    HW224090   3.859   3.859   6.487  0.9736  0.9157  2.0483
 4210SOL     OW24091   3.021   0.679   5.232  0.0875 -0.2897  0.4534
 4210SOL    HW124092   3.066   0.638   5.159  1.7999  2.5279 -0.0587
 4210SOL    HW224093   2.996   0.600   5.279 -0.5826 -0.6642 -0.5354
 4211SOL     OW24094   4.404   0.870   8.439 -0.0758  0.4242  0.4050
 4211SOL    HW124095   4.455   0.792   8.460 -0.0621  0.2737 -0.1737
 4211SOL    HW224096   4.322   0.861   8.489 -0.2940 -0.4219 -0.1060
 4212SOL     OW24097   1.456   3.541   8.024 -0.1380 -0.4817  0.5818
 4212SOL    HW124098   1.462   3.615   7.963 -1.1632 -0.9229 -0.0646
 4212SOL    HW224099   1.401   3.480   7.975  0.6775 -0.9870  0.3056
 4213SOL     OW24100   3.934   1.102   6.318  0.1386 -0.1321  0.2785
 4213SOL    HW124101   3.960   1.193   6.302 -1.7607  0.1728 -1.0066
 4213SOL    HW224102   3.916   1.068   6.230 -0.2829 -1.0390  0.7175
 4214SOL     OW24103   0.407   4.288   4.847  0.1569 -0.5591 -0.1062
 4214SOL    HW124104   0.456   4.231   4.907 -0.6623 -0.0895  0.9911
 4214SOL    HW224105   0.478   4.336   4.803 -1.4980 -1.2842 -3.5737
 4215SOL     OW24106   3.232   1.328   6.524  0.4512 -0.6234 -0.6367
 4215SOL    HW124107   3.287   1.399   6.489  0.5497 -0.2259  0.3442
 4215SOL    HW224108   3.170   1.330   6.451  1.2833  0.5174 -1.3204
 4216SOL     OW24109   3.640   0.711   8.224  0.5033  0.4652  0.0045
 4216SOL    HW124110   3.581   0.757   8.284 -1.1068 -0.7870 -0.6219
 4216SOL    HW224111   3.700   0.774   8.184  0.5821  0.2698 -0.1855
 4217SOL     OW24112   0.455   0.621   8.768  0.2099  0.2073 -0.1936
 4217SOL    HW124113   0.368   0.659   8.770  0.8872  1.7519 -0.1523
 4217SOL    HW224114   0.450   0.579   8.682  1.7860  1.2155 -0.7783
 4218SOL     OW24115   1.844   3.163   2.650 -0.0646  0.1883 -0.0561
 4218SOL    HW124116   1.809   3.111   2.722 -0.4437 -0.2047 -0.5235
 4218SOL    HW224117   1.825   3.106   2.575  2.0528 -2.0423  1.1319
 4219SOL     OW24118   2.942   3.054   2.891  0.3313  0.3356  0.1877
 4219SOL    HW124119   2.948   2.959   2.879  2.1275  0.9048 -3.3172
 4219SOL    HW224120   2.847   3.070   2.892  0.8733  3.6449 -1.7330
 4220SOL     OW24121   2.007   0.284   3.767  0.2628  0.1813 -0.2719
 4220SOL    HW124122   2.060   0.207   3.790  1.4761  0.6787 -1.3887
 4220SOL    HW224123   2.078   0.348   3.772  0.2832  0.3167 -2.4056
 4221SOL     OW24124   1.971   4.248   4.546 -0.0833 -0.2855  0.2489
 4221SOL    HW124125   1.922   4.282   4.621  1.5346 -1.1264  1.6924
 4221SOL    HW224126   1.937   4.306   4.478  1.1222 -0.8409 -0.8072
 4222SOL     OW24127   4.230   4.123   4.182 -0.3898  0.5751  0.1876
 4222SOL    HW124128   4.324   4.128   4.163 -0.4148 -1.0327 -0.3698
 4222SOL    HW224129   4.230   4.028   4.190 -1.3862  0.2510 -3.4385
 4223SOL     OW24130   2.291   2.406  11.668  0.0052  0.3396 -0.4278
 4223SOL    HW124131   2.328   2.320  11.689 -1.6787 -0.8389 -2.2528
 4223SOL    HW224132   2.356   2.466  11.703  0.7368 -0.2514 -0.7446
 4224SOL     OW24133   2.498   0.128   7.179 -0.1625 -0.5351 -0.1420
 4224SOL    HW124134   2.541   0.174   7.251 -2.8124  2.0417 -0.1986
 4224SOL    HW224135   2.408   0.126   7.210 -0.3667  0.7635 -0.6323
 4225SOL     OW24136   1.224   1.268   8.088 -0.1883 -0.3495 -0.2073
 4225SOL    HW124137   1.319   1.273   8.086 -0.2051 -0.1618 -0.5213
 4225SOL    HW224138   1.199   1.178   8.068  0.0503 -0.6253  0.7194
 4226SOL     OW24139   3.466   0.806   0.071  0.3897  0.3385 -0.2289
 4226SOL    HW124140   3.439   0.892   0.104 -0.6600 -0.3702  0.7594
 4226SOL    HW224141   3.561   0.812   0.085  0.5129 -2.0293 -0.1240
 4227SOL     OW24142   1.050   3.956  15.836 -0.2882  0.1660 -0.7250
 4227SOL    HW124143   0.971   4.010  15.835 -1.2529 -1.2721 -0.5989
 4227SOL    HW224144   1.116   4.020  15.808  1.0717 -1.4776 -1.2371
 4228SOL     OW24145   4.515   1.846   8.495  0.2122 -0.0580 -0.6564
 4228SOL    HW124146   4.492   1.771   8.440 -1.7088  1.3291 -1.7756
 4228SOL    HW224147   4.425   1.879   8.498 -0.5540 -2.0579 -1.3191
 4229SOL     OW24148   4.178   1.414   6.303  0.4200  0.8295 -0.6391
 4229SOL    HW124149   4.140   1.470   6.371 -1.4123 -0.8062 -0.3141
 4229SOL    HW224150   4.118   1.430   6.230  1.4058 -0.6509 -1.7879
 4230SOL     OW24151   3.136   2.595  10.064  0.1870 -0.5355  0.1401
 4230SOL    HW124152   3.149   2.679  10.108 -3.3419  0.6295 -1.0616
 4230SOL    HW224153   3.120   2.624   9.974 -0.2475  0.2389  0.4680
 4231SOL     OW24154   1.428   4.201  12.639 -0.1607  0.1852 -0.0252
 4231SOL    HW124155   1.423   4.167  12.550 -0.3273  0.0669  0.0285
 4231SOL    HW224156   1.348   4.175  12.685 -0.7890  0.9725 -0.6800
 4232SOL     OW24157   1.704   2.425   4.913  0.3174  0.2616 -0.1868
 4232SOL    HW124158   1.785   2.439   4.864  1.2802 -3.1095  0.3951
 4232SOL    HW224159   1.656   2.499   4.876 -1.4860 -0.6358  0.3667
 4233SOL     OW24160   0.904   3.301   9.204  0.0423 -0.8998  0.1319
 4233SOL    HW124161   0.817   3.273   9.176 -0.2584  1.2362 -1.0853
 4233SOL    HW224162   0.917   3.241   9.278 -1.0658  1.3050  2.1526
 4234SOL     OW24163   2.411   2.512   4.941  0.0197  0.9264  0.6338
 4234SOL    HW124164   2.505   2.512   4.922  0.3230  0.7062  2.0971
 4234SOL    HW224165   2.421   2.548   5.029  0.7934  1.5305  0.3021
 4235SOL     OW24166   3.287   0.962   7.833 -0.4414  0.4881  0.1796
 4235SOL    HW124167   3.300   0.942   7.925 -0.2371 -1.4626 -0.2650
 4235SOL    HW224168   3.194   0.961   7.814 -0.2361  1.0339 -0.8505
 4236SOL     OW24169   0.802   2.464   7.117  0.0496 -0.2143 -0.0506
 4236SOL    HW124170   0.780   2.555   7.136  2.1096  0.1608  0.5932
 4236SOL    HW224171   0.720   2.420   7.138 -1.0428  1.5640 -0.6055
 4237SOL     OW24172   2.226   3.343   3.116 -0.3012  0.4321 -0.0913
 4237SOL    HW124173   2.159   3.354   3.183 -0.2189  1.2300 -0.1488
 4237SOL    HW224174   2.169   3.315   3.044  1.7234  1.0082 -1.9159
 4238SOL     OW24175   4.216   4.043   7.599  0.1920 -0.2663 -0.2144
 4238SOL    HW124176   4.251   4.131   7.589  1.5507 -0.5468  2.1584
 4238SOL    HW224177   4.136   4.043   7.545 -0.3145 -0.9761  0.5408
 4239SOL     OW24178   2.074   0.668   0.345 -0.0346 -0.6241  0.5039
 4239SOL    HW124179   2.043   0.694   0.258  0.4743 -1.1555  0.1641
 4239SOL    HW224180   2.105   0.745   0.391 -0.0929 -0.7841  0.8117
 4240SOL     OW24181   3.937   1.683  13.713  0.4527 -0.0754  0.7480
 4240SOL    HW124182   4.019   1.678  13.763  1.3940 -0.1195 -0.8096
 4240SOL    HW224183   3.973   1.663  13.627  1.0931  4.3958 -0.0145
 4241SOL     OW24184   4.581   3.207  10.120  0.3859 -0.0398 -0.4089
 4241SOL    HW124185   4.581   3.294  10.080  0.5281  0.2418  0.1998
 4241SOL    HW224186   4.640   3.160  10.061  0.5712 -2.9526  2.0937
 4242SOL     OW24187   2.290   0.068   7.877 -0.4305  0.1935 -0.7119
 4242SOL    HW124188   2.274   4.707   7.833 -0.3218 -0.8461  1.2054
 4242SOL    HW224189   2.258   0.043   7.964 -2.3877 -0.7567 -1.7033
 4243SOL     OW24190   0.107   1.969   1.441 -0.2461  0.1481  0.0092
 4243SOL    HW124191   0.033   2.023   1.415  1.4941  0.9551 -3.3272
 4243SOL    HW224192   0.129   1.938   1.353  1.9616  1.7149  0.0243
 4244SOL     OW24193   0.787   0.861   1.485 -0.2191 -0.5775 -0.0712
 4244SOL    HW124194   0.869   0.896   1.520  1.2096  0.3476 -4.2731
 4244SOL    HW224195   0.816   0.807   1.411 -0.5212 -0.4375 -0.2929
 4245SOL     OW24196   1.253   3.395   2.811 -0.4665 -0.1252 -0.0295
 4245SOL    HW124197   1.196   3.318   2.805 -0.3794 -0.2103  0.2669
 4245SOL    HW224198   1.228   3.437   2.728  0.0653 -0.1628 -0.2063
 4246SOL     OW24199   1.247   3.012  14.634  0.6086 -0.0236  0.3706
 4246SOL    HW124200   1.285   3.076  14.695  3.2029 -1.2306 -0.0320
 4246SOL    HW224201   1.268   2.930  14.678  0.7918  1.2023  2.5857
 4247SOL     OW24202   1.077   2.911   9.558 -0.2552 -0.2334 -0.0724
 4247SOL    HW124203   1.017   2.949   9.493  0.7934  0.9929 -0.3265
 4247SOL    HW224204   1.164   2.946   9.540 -1.0657  1.7439 -0.2250
 4248SOL     OW24205   4.668   2.933  16.159  0.0581 -0.1663  0.4198
 4248SOL    HW124206   0.008   2.876  16.205  1.8961  0.7781 -0.8447
 4248SOL    HW224207   4.634   2.869  16.097  3.2234 -0.9102 -0.5777
 4249SOL     OW24208   0.696   2.071   1.422 -0.3483 -0.7456 -0.8782
 4249SOL    HW124209   0.786   2.077   1.456  0.1094 -3.4132 -1.7002
 4249SOL    HW224210   0.694   1.987   1.377  0.5985 -2.8345  2.9488
 4250SOL     OW24211   1.412   4.492   6.538 -0.6210 -0.0869 -0.1084
 4250SOL    HW124212   1.491   4.440   6.546 -0.1637  0.0712 -3.5368
 4250SOL    HW224213   1.403   4.513   6.631  0.8449 -1.4662  0.3368
 4251SOL     OW24214   4.246   2.669   7.651 -0.0297 -0.4327  0.0133
 4251SOL    HW124215   4.194   2.599   7.690 -0.9326 -0.1307 -0.6487
 4251SOL    HW224216   4.338   2.641   7.648  0.3134  0.8539 -1.7864
 4252SOL     OW24217   1.931   1.816   5.966  0.0880 -0.0001 -0.0917
 4252SOL    HW124218   1.856   1.831   5.909 -1.4399  1.2839  2.2653
 4252SOL    HW224219   1.998   1.826   5.899 -1.5652  0.4266 -1.6636
 4253SOL     OW24220   3.980   2.257  14.906  0.0786  0.0760 -0.1265
 4253SOL    HW124221   3.920   2.225  14.974 -0.9896  0.6161 -0.8179
 4253SOL    HW224222   4.015   2.175  14.871  1.5936  0.9456 -0.6448
 4254SOL     OW24223   0.816   3.648  10.930  0.2909 -0.2977 -0.0103
 4254SOL    HW124224   0.727   3.634  10.961  0.4766 -0.4608  0.4486
 4254SOL    HW224225   0.787   3.676  10.843  0.8479 -1.9732 -0.7460
 4255SOL     OW24226   2.752   4.465   6.746 -0.1735 -0.0732 -0.1454
 4255SOL    HW124227   2.817   4.510   6.691 -0.6384  0.1525 -0.5109
 4255SOL    HW224228   2.678   4.498   6.695 -0.9303  0.1661  1.1068
 4256SOL     OW24229   0.379   0.673   4.216 -0.8086  0.5792  0.5756
 4256SOL    HW124230   0.429   0.704   4.291 -1.6413  0.2038  1.2771
 4256SOL    HW224231   0.368   0.583   4.244 -0.0427  0.2207 -0.2501
 4257SOL     OW24232   3.071   3.870   4.810  0.7168 -0.2781 -0.1568
 4257SOL    HW124233   2.995   3.812   4.815 -0.7800  1.5806 -1.3770
 4257SOL    HW224234   3.135   3.814   4.855  1.3748  1.6736  1.3332
 4258SOL     OW24235   1.025   1.977   6.216 -0.5404 -0.3735 -0.0414
 4258SOL    HW124236   1.100   1.975   6.276 -0.7231  0.7278  0.2139
 4258SOL    HW224237   1.042   2.035   6.143  0.4967 -1.7982 -0.9417
 4259SOL     OW24238   0.947   1.717   8.060  0.2518 -0.2630 -0.9633
 4259SOL    HW124239   0.915   1.800   8.025  0.8457  0.1886 -0.4452
 4259SOL    HW224240   1.041   1.735   8.067 -0.4549  2.3334  2.0541
 4260SOL     OW24241   0.727   1.577   3.760  0.1405  0.7494 -0.2603
 4260SOL    HW124242   0.782   1.555   3.685  0.2661 -1.4262  0.4512
 4260SOL    HW224243   0.667   1.636   3.715 -0.1817 -0.1357 -1.0037
 4261SOL     OW24244   1.392   0.378   5.225  0.4290 -0.2966 -0.1574
 4261SOL    HW124245   1.367   0.291   5.257 -1.2679  0.4269  0.5179
 4261SOL    HW224246   1.467   0.399   5.279 -0.7506 -0.1130  1.4202
 4262SOL     OW24247   1.706   3.999   8.200  0.5930  0.5478 -0.4469
 4262SOL    HW124248   1.662   4.006   8.285 -0.5370  1.9274 -1.1353
 4262SOL    HW224249   1.662   4.059   8.139  1.0646  0.7101 -0.6266
 4263SOL     OW24250   2.714   1.576  17.355  0.3829 -0.3599 -0.5481
 4263SOL    HW124251   2.665   1.656  17.372 -0.2167 -0.8807  0.1769
 4263SOL    HW224252   2.653   1.504  17.373 -0.3673  0.3476 -0.2433
 4264SOL     OW24253   3.412   3.411  13.961 -0.1207  0.0637 -0.5292
 4264SOL    HW124254   3.412   3.364  14.045  0.1712 -0.5991 -0.9054
 4264SOL    HW224255   3.336   3.372  13.917 -0.7615  0.6522  0.0535
 4265SOL     OW24256   0.100   0.787   4.141 -0.4302 -0.6720  0.2568
 4265SOL    HW124257   0.116   0.875   4.106  0.3232 -0.2856  1.5824
 4265SOL    HW224258   0.186   0.751   4.161 -0.2402  0.7273  1.9778
 4266SOL     OW24259   3.939   2.737   2.697 -0.3406 -0.7505  0.6750
 4266SOL    HW124260   3.901   2.649   2.696  0.4876 -1.1125  0.6461
 4266SOL    HW224261   4.021   2.716   2.741  0.3503 -0.1591 -0.3446
 4267SOL     OW24262   2.702   3.914   2.440 -0.7797 -0.0696  0.0355
 4267SOL    HW124263   2.665   3.877   2.359 -0.1420 -1.0537  0.1978
 4267SOL    HW224264   2.796   3.897   2.435 -0.7420 -0.4628  2.1557
 4268SOL     OW24265   0.083   0.478   7.134 -0.0276  0.1207 -0.3513
 4268SOL    HW124266   0.109   0.535   7.206 -1.7390  1.5388 -0.8478
 4268SOL    HW224267   0.165   0.430   7.122  0.0349  0.4738 -1.2905
 4269SOL     OW24268   2.969   1.256   4.391  0.2811  0.2805  0.1129
 4269SOL    HW124269   2.932   1.337   4.356 -1.6894 -0.1335  1.2187
 4269SOL    HW224270   3.031   1.279   4.460 -1.2300 -0.9911  1.9338
 4270SOL     OW24271   3.544   3.418   6.449  0.0234 -0.3103 -0.3339
 4270SOL    HW124272   3.476   3.468   6.492  0.5705  1.5430 -1.6234
 4270SOL    HW224273   3.614   3.478   6.474  1.1180 -0.6399 -2.6043
 4271SOL     OW24274   4.385   2.676   6.582 -0.4019  0.0946  0.2305
 4271SOL    HW124275   4.310   2.693   6.525 -0.6286  0.0159  0.5045
 4271SOL    HW224276   4.341   2.651   6.663 -0.5612 -0.3213  0.0175
 4272SOL     OW24277   4.052   3.852   1.576 -0.3834  0.4849  1.0023
 4272SOL    HW124278   4.048   3.760   1.549  1.2059  0.7452 -0.0696
 4272SOL    HW224279   3.976   3.891   1.531 -1.4162 -2.2072  0.4319
 4273SOL     OW24280   4.417   4.146   6.656 -0.3302 -0.0242 -0.3006
 4273SOL    HW124281   4.486   4.080   6.652 -0.4312 -0.1205 -0.4843
 4273SOL    HW224282   4.365   4.135   6.735 -0.4465  1.2459 -0.1972
 4274SOL     OW24283   2.036   1.317  14.262  0.2561 -0.2330 -0.2619
 4274SOL    HW124284   2.036   1.241  14.204 -0.4528  0.6019 -1.3506
 4274SOL    HW224285   1.973   1.378  14.225  0.1879  0.3191  0.7612
 4275SOL     OW24286   1.145   3.429   3.066 -0.0821 -0.1538  0.1359
 4275SOL    HW124287   1.139   3.344   3.109  1.7649 -0.1535  0.4349
 4275SOL    HW224288   1.186   3.411   2.981  1.1073 -0.1874  0.7149
 4276SOL     OW24289   2.510   2.644   4.365  0.0128  0.3603  0.1111
 4276SOL    HW124290   2.415   2.636   4.357 -0.0447 -0.3720  1.5655
 4276SOL    HW224291   2.542   2.555   4.377 -0.8845 -0.2300 -1.8103
 4277SOL     OW24292   4.249   3.751   3.920  1.0042  0.1014  0.6216
 4277SOL    HW124293   4.216   3.773   3.833  0.9449  1.3460  0.9690
 4277SOL    HW224294   4.341   3.763   3.895 -0.5274  0.9971 -4.4583
 4278SOL     OW24295   1.440   4.020   9.704 -0.3263 -0.1891  0.1820
 4278SOL    HW124296   1.485   4.100   9.730  0.7328 -0.4201 -0.9399
 4278SOL    HW224297   1.366   4.029   9.764 -2.5277  0.2796 -2.5822
 4279SOL     OW24298   2.449   1.055   5.017  0.2833  0.5241  0.0474
 4279SOL    HW124299   2.483   1.144   5.009  3.1157 -0.4609  0.9415
 4279SOL    HW224300   2.496   1.013   4.946  0.0270  0.2933  0.0145
 4280SOL     OW24301   2.556   2.678   5.726 -0.8182 -0.2906 -0.3452
 4280SOL    HW124302   2.597   2.595   5.703 -0.0098 -0.3901  1.5124
 4280SOL    HW224303   2.467   2.651   5.746 -0.9646  0.4412 -0.0003
 4281SOL     OW24304   4.387   1.831   4.427 -0.1686 -0.4574 -0.2506
 4281SOL    HW124305   4.369   1.884   4.505 -1.5788 -0.1508 -0.7709
 4281SOL    HW224306   4.375   1.743   4.463 -1.7119 -0.8493 -1.6965
 4282SOL     OW24307   2.461   2.589   5.193  0.0025 -0.5388  0.2733
 4282SOL    HW124308   2.382   2.603   5.246 -1.1752  0.8878 -1.8669
 4282SOL    HW224309   2.518   2.609   5.267  0.8826  0.5106 -0.6974
 4283SOL     OW24310   3.483   2.044   4.313  0.4592  0.1266 -0.4053
 4283SOL    HW124311   3.541   1.990   4.367 -0.8097 -0.0739  0.7489
 4283SOL    HW224312   3.546   2.112   4.289  1.4293 -1.2825 -1.8242
 4284SOL     OW24313   1.786   1.672   4.175 -0.0164 -0.4497  0.8362
 4284SOL    HW124314   1.739   1.737   4.228 -0.1426  0.2545 -0.1319
 4284SOL    HW224315   1.773   1.707   4.086  1.9447 -0.2096  0.6325
 4285SOL     OW24316   1.951   0.094   2.667 -0.3801  0.6559  0.0100
 4285SOL    HW124317   1.892   0.048   2.607  0.2516  0.0472 -0.1354
 4285SOL    HW224318   2.038   0.058   2.653 -0.6904  0.8781 -2.4503
 4286SOL     OW24319   4.468   2.901   4.915  0.0446  0.2129 -0.3911
 4286SOL    HW124320   4.475   2.997   4.911  1.5559  0.0225 -2.4480
 4286SOL    HW224321   4.553   2.880   4.876  0.6068  2.5893 -0.4573
 4287SOL     OW24322   1.770   0.073   2.114 -0.1339  0.0818  0.2790
 4287SOL    HW124323   1.822   0.039   2.041 -1.1500 -1.0383  0.0982
 4287SOL    HW224324   1.835   0.129   2.157 -0.5584 -0.4364  1.5967
 4288SOL     OW24325   3.998   1.102   0.718 -0.2803  0.0887 -0.2613
 4288SOL    HW124326   4.017   1.196   0.718  1.5202 -0.2837 -0.3024
 4288SOL    HW224327   4.086   1.066   0.719  0.6898  2.4687  1.1244
 4289SOL     OW24328   1.986   0.517   3.265  0.3400 -0.1433 -0.5306
 4289SOL    HW124329   2.019   0.444   3.317  1.4405  1.2567  0.7297
 4289SOL    HW224330   1.909   0.471   3.232  0.3327  0.0086 -0.7228
 4290SOL     OW24331   3.723   3.143   8.241  0.3742  0.1612 -0.6321
 4290SOL    HW124332   3.729   3.238   8.235 -1.2297  0.4159  1.8076
 4290SOL    HW224333   3.810   3.113   8.216  0.7523  2.4370 -2.0775
 4291SOL     OW24334   3.043   3.361   8.535 -0.4868 -0.2145  0.0928
 4291SOL    HW124335   3.109   3.345   8.602  0.9742  0.1247 -1.2521
 4291SOL    HW224336   3.002   3.442   8.565  0.5478 -0.0101  0.9360
 4292SOL     OW24337   1.722   3.613   7.254  0.0788 -0.0426  0.0184
 4292SOL    HW124338   1.632   3.580   7.251 -0.0598  0.3108  0.2821
 4292SOL    HW224339   1.752   3.602   7.164  0.1354 -0.7443  0.1290
 4293SOL     OW24340   4.162   3.006   2.236 -0.5865 -0.1392 -0.3389
 4293SOL    HW124341   4.160   3.071   2.166  1.3999  0.5068  0.2082
 4293SOL    HW224342   4.202   2.927   2.198  3.6780  1.3857  0.9742
 4294SOL     OW24343   0.105   4.705   6.654 -0.2909 -0.5263 -0.0133
 4294SOL    HW124344   0.158   0.057   6.684  1.2684 -0.1675 -3.6989
 4294SOL    HW224345   0.143   4.624   6.687 -0.5788 -0.7280 -0.1800
 4295SOL     OW24346   4.513   1.733   5.797  0.6915 -0.0599 -0.0888
 4295SOL    HW124347   4.480   1.774   5.717  2.1771  0.5219 -0.3921
 4295SOL    HW224348   4.518   1.811   5.852  1.1185 -0.4047  0.3675
 4296SOL     OW24349   1.781   2.218   0.032  0.5543 -0.3735  0.0442
 4296SOL    HW124350   1.775   2.176  17.636 -1.9447  0.3908 -0.1504
 4296SOL    HW224351   1.871   2.251   0.035 -0.1732  1.7370 -1.2119
 4297SOL     OW24352   1.317   0.479   2.548 -0.3337 -0.3812  0.1168
 4297SOL    HW124353   1.409   0.494   2.568 -0.4560  1.1042 -0.3979
 4297SOL    HW224354   1.304   0.402   2.603 -1.6220 -0.0536  0.2713
 4298SOL     OW24355   2.710   2.758   5.930 -0.1680 -0.2866  0.1791
 4298SOL    HW124356   2.695   2.720   5.844 -0.4589 -1.0783  0.5752
 4298SOL    HW224357   2.683   2.845   5.902  1.3457  0.2682  0.4606
 4299SOL     OW24358   1.187   3.335  10.129  0.2594 -0.4921 -0.1087
 4299SOL    HW124359   1.235   3.306  10.207  0.3897  0.0069  0.0027
 4299SOL    HW224360   1.189   3.431  10.124 -2.6098 -0.3904  0.7297
 4300SOL     OW24361   1.102   3.846   3.236 -0.1569  0.0753 -0.2249
 4300SOL    HW124362   1.158   3.769   3.239  1.8840  1.4325 -3.8379
 4300SOL    HW224363   1.026   3.813   3.284  0.2741 -0.0700  0.3491
 4301SOL     OW24364   1.708   3.733   4.549  0.2991  0.5472 -0.0252
 4301SOL    HW124365   1.656   3.700   4.622 -0.6295  0.6711 -0.6292
 4301SOL    HW224366   1.661   3.693   4.476 -0.5342 -3.0096  2.4487
 4302SOL     OW24367   1.074   3.140   0.550 -0.3393 -1.0051 -0.5851
 4302SOL    HW124368   1.060   3.062   0.495  1.7889 -0.2409 -2.2374
 4302SOL    HW224369   1.139   3.105   0.611  0.8472 -1.3731 -2.0523
 4303SOL     OW24370   0.467   0.951   6.995  0.2365  0.4614  0.3027
 4303SOL    HW124371   0.535   0.888   6.974 -0.5668 -0.1606 -0.4151
 4303SOL    HW224372   0.448   0.987   6.908 -2.2781 -0.8423  0.2960
 4304SOL     OW24373   3.831   1.576  17.648 -0.0548  0.0612  0.2293
 4304SOL    HW124374   3.736   1.578  17.643 -0.1018 -2.5107 -0.1605
 4304SOL    HW224375   3.846   1.570   0.052 -0.5848 -2.3878  0.1731
 4305SOL     OW24376   3.305   2.065   2.282  0.1878 -0.0081  0.3497
 4305SOL    HW124377   3.296   2.070   2.377  1.8335  1.1752  0.4442
 4305SOL    HW224378   3.227   2.021   2.249  1.6732 -3.2158  1.0985
 4306SOL     OW24379   3.140   3.935   4.247 -0.2430 -0.3589 -0.1923
 4306SOL    HW124380   3.147   3.885   4.328 -2.7236 -0.1039  0.1687
 4306SOL    HW224381   3.124   3.859   4.192  1.9251 -1.6438  0.9607
 4307SOL     OW24382   3.506   2.084   7.115 -0.6577 -0.6272 -0.3926
 4307SOL    HW124383   3.461   2.066   7.197  4.0305 -1.2738  2.0583
 4307SOL    HW224384   3.442   2.102   7.046  1.1463  2.5816 -1.2592
 4308SOL     OW24385   2.233   3.017  10.306 -0.2799 -0.2557  0.1619
 4308SOL    HW124386   2.167   2.951  10.285  1.1916 -1.3159 -1.1670
 4308SOL    HW224387   2.303   2.954  10.325 -1.0530 -1.2823 -0.4123
 4309SOL     OW24388   0.774   0.530   2.094 -0.3219 -0.4093  0.1796
 4309SOL    HW124389   0.794   0.451   2.144  1.4834 -0.7332 -1.0445
 4309SOL    HW224390   0.738   0.506   2.009  2.0406  0.0865 -0.9654
 4310SOL     OW24391   3.349   2.969   6.480  0.3249 -0.4036 -0.8343
 4310SOL    HW124392   3.277   2.984   6.418 -0.2617 -1.9699 -0.5393
 4310SOL    HW224393   3.361   3.062   6.498 -2.7038 -0.4697  1.4142
 4311SOL     OW24394   1.684   2.807   5.629  0.6894  0.5827 -0.0171
 4311SOL    HW124395   1.603   2.765   5.598  0.2545 -1.3947  3.7389
 4311SOL    HW224396   1.744   2.732   5.631 -0.0778 -0.0870 -1.3758
 4312SOL     OW24397   3.368   3.810   0.580  0.2127 -0.7350 -0.5281
 4312SOL    HW124398   3.300   3.868   0.546  1.0556  1.2172  1.0611
 4312SOL    HW224399   3.445   3.861   0.552 -0.9037  0.7020 -0.9620
 4313SOL     OW24400   4.618   1.982   1.985 -0.2077 -0.2166  0.2697
 4313SOL    HW124401   4.701   1.986   1.937  0.2452  0.7408  1.1389
 4313SOL    HW224402   4.560   2.017   1.918  2.4731  2.7154 -0.5143
 4314SOL     OW24403   4.466   3.708   6.114 -0.3254  0.4642 -0.1774
 4314SOL    HW124404   4.448   3.784   6.059  2.5632  0.4072 -1.2009
 4314SOL    HW224405   4.509   3.643   6.058  0.8640  2.8625 -2.0394
 4315SOL     OW24406   1.719   0.520   8.661 -0.0894  0.5571  0.1185
 4315SOL    HW124407   1.654   0.450   8.652  1.1061 -0.6243  0.6757
 4315SOL    HW224408   1.666   0.588   8.700  0.4205  0.7360  0.4945
 4316SOL     OW24409   1.374   3.186   4.952 -0.1172  0.4198 -0.0538
 4316SOL    HW124410   1.451   3.144   4.915 -0.6397  0.0672 -0.7387
 4316SOL    HW224411   1.392   3.271   4.912 -0.3964  1.8793  2.9473
 4317SOL     OW24412   4.356   3.726  13.122 -0.4939  0.7390 -0.1249
 4317SOL    HW124413   4.320   3.805  13.081  1.1354  0.0897 -2.8336
 4317SOL    HW224414   4.368   3.761  13.210  4.3770 -1.8385  0.2527
 4318SOL     OW24415   0.174   2.518   0.509  0.1985  0.1199 -0.3483
 4318SOL    HW124416   0.219   2.436   0.530 -1.0633  0.0666  2.0974
 4318SOL    HW224417   0.247   2.577   0.490  0.6109 -0.8840 -1.9454
 4319SOL     OW24418   2.129   4.517  12.147 -0.0224 -0.1912 -0.5499
 4319SOL    HW124419   2.125   4.437  12.094  0.8982 -0.5613 -0.0454
 4319SOL    HW224420   2.160   4.476  12.228 -0.4287 -0.0885 -0.3396
 4320SOL     OW24421   3.168   1.368  12.439 -0.2905 -0.1038 -0.3954
 4320SOL    HW124422   3.228   1.396  12.508 -0.8675  0.0642  0.0365
 4320SOL    HW224423   3.119   1.448  12.425  2.4571  1.6525  0.1126
 4321SOL     OW24424   1.685   1.795   2.769 -0.4543  0.1645  0.2588
 4321SOL    HW124425   1.633   1.849   2.828  0.6459  2.0393 -0.5054
 4321SOL    HW224426   1.750   1.857   2.738  1.5764 -2.2826 -0.3807
 4322SOL     OW24427   1.842   1.063   8.535  0.1709 -0.2350 -0.3889
 4322SOL    HW124428   1.767   1.122   8.533 -1.4592 -2.3182 -0.8689
 4322SOL    HW224429   1.910   1.123   8.565  0.3892 -1.9231  2.4734
 4323SOL     OW24430   3.143   3.410  15.080 -1.1510 -0.1033  0.3071
 4323SOL    HW124431   3.168   3.414  14.987  1.0163  2.8961  1.0025
 4323SOL    HW224432   3.065   3.466  15.076 -1.6049 -0.8622 -1.4999
 4324SOL     OW24433   3.912   0.960   5.198 -0.5085  0.5688 -0.3044
 4324SOL    HW124434   3.926   1.010   5.279 -2.0818 -2.7734  2.0310
 4324SOL    HW224435   3.831   0.920   5.229 -0.0407  0.3171  0.6050
 4325SOL     OW24436   3.320   2.526   6.189  0.1388  0.1803 -1.0534
 4325SOL    HW124437   3.313   2.575   6.107 -0.2688 -0.6542 -1.5135
 4325SOL    HW224438   3.276   2.579   6.256  0.6458  1.7577 -1.9604
 4326SOL     OW24439   4.698   0.739   5.281 -0.2273  0.0545  0.1219
 4326SOL    HW124440   0.039   0.723   5.211  0.2063  0.5170  0.4072
 4326SOL    HW224441   4.666   0.827   5.263  3.9735  1.4281 -0.6402
 4327SOL     OW24442   2.118   4.385   7.315  0.3189  0.0665 -0.6098
 4327SOL    HW124443   2.132   4.305   7.364 -0.9958  0.5765  0.6091
 4327SOL    HW224444   2.141   4.453   7.378  2.9074 -1.5687  0.2203
 4328SOL     OW24445   4.172   3.357   1.400 -0.0742 -0.3762 -0.0002
 4328SOL    HW124446   4.089   3.401   1.386  0.1994 -0.1072 -0.8179
 4328SOL    HW224447   4.230   3.420   1.356 -1.5635 -1.0190 -2.9047
 4329SOL     OW24448   4.110   0.762   3.287  0.0125  0.1383 -0.1582
 4329SOL    HW124449   4.134   0.679   3.246 -0.7042 -0.5412  0.8029
 4329SOL    HW224450   4.198   0.798   3.293  0.7919 -1.4744 -2.0364
 4330SOL     OW24451   0.821   1.961   6.847  0.5812  0.1925 -0.0158
 4330SOL    HW124452   0.735   1.979   6.885 -0.1848 -1.8008 -0.8073
 4330SOL    HW224453   0.800   1.890   6.787 -2.2655  0.6596  0.4210
 4331SOL     OW24454   0.028   3.734   1.631  0.4914  0.2047  0.2498
 4331SOL    HW124455   4.680   3.734   1.566 -1.2476 -0.0910  2.1391
 4331SOL    HW224456   4.694   3.715   1.705  1.3892 -0.1789  0.8287
 4332SOL     OW24457   3.578   3.651  10.796 -0.3054  0.0602  0.2233
 4332SOL    HW124458   3.663   3.606  10.788  0.2304  0.7859  1.7956
 4332SOL    HW224459   3.590   3.734  10.841 -0.4992  0.1894  0.0311
 4333SOL     OW24460   3.527   0.842   7.165  0.3905  0.0860  0.2962
 4333SOL    HW124461   3.571   0.827   7.249  0.7181 -0.0065  0.1096
 4333SOL    HW224462   3.559   0.930   7.145  2.1573 -0.1567  2.0383
 4334SOL     OW24463   2.184   2.257  12.812 -0.4903  0.1202  0.4526
 4334SOL    HW124464   2.172   2.290  12.901  0.5424 -3.1606  1.7761
 4334SOL    HW224465   2.101   2.291  12.779  1.0105  0.9527 -2.4640
 4335SOL     OW24466   4.050   1.972   7.436  0.5313 -0.7217  0.4527
 4335SOL    HW124467   4.090   1.973   7.524 -0.7547  0.5363  1.0299
 4335SOL    HW224468   4.037   2.066   7.422  1.3500 -0.6906 -0.1013
 4336SOL     OW24469   3.985   0.752   9.046 -0.0543 -0.6865  0.0879
 4336SOL    HW124470   4.038   0.761   9.126 -1.3908  1.6683  0.7134
 4336SOL    HW224471   4.050   0.765   8.978 -1.2076  0.4828 -0.7791
 4337SOL     OW24472   0.935   0.019   3.773 -0.2118  0.7983 -1.3545
 4337SOL    HW124473   1.028   0.036   3.759 -0.4218  2.2552 -1.0138
 4337SOL    HW224474   0.924   4.668   3.712 -0.5734 -0.5161  0.2806
 4338SOL     OW24475   0.082   4.452   7.869  0.2402 -0.2463 -0.3421
 4338SOL    HW124476   0.050   4.489   7.787  1.1944 -0.0193 -0.6183
 4338SOL    HW224477   0.002   4.408   7.897 -1.0678  1.0562 -1.9630
 4339SOL     OW24478   2.651   3.484   1.658  0.2730  0.4961 -0.2246
 4339SOL    HW124479   2.561   3.468   1.631  0.3167  0.2595 -0.2275
 4339SOL    HW224480   2.674   3.402   1.703 -6.5767 -1.9273 -1.1314
 4340SOL     OW24481   1.610   1.126   6.613 -0.0844 -0.2422 -0.0165
 4340SOL    HW124482   1.588   1.194   6.677  0.1954 -1.1021  0.9886
 4340SOL    HW224483   1.585   1.167   6.530  1.3518 -1.2282 -0.9268
 4341SOL     OW24484   2.585   1.737   8.368 -1.0812  0.2654 -0.1427
 4341SOL    HW124485   2.569   1.824   8.404  1.8972  1.1121 -0.8874
 4341SOL    HW224486   2.624   1.750   8.282  0.1579 -0.7017  0.2746
 4342SOL     OW24487   1.233   1.452   9.081 -0.4996 -0.3815 -0.1033
 4342SOL    HW124488   1.151   1.502   9.086  0.4944  1.5323 -2.9901
 4342SOL    HW224489   1.201   1.363   9.092  0.3773 -0.5506  1.0926
 4343SOL     OW24490   1.547   2.901   6.138 -0.3880  0.1235 -0.5584
 4343SOL    HW124491   1.585   2.988   6.147 -0.5498 -0.2973  4.0658
 4343SOL    HW224492   1.564   2.878   6.047 -0.4142 -1.0723 -0.2681
 4344SOL     OW24493   1.687   4.173   1.310 -0.1444  0.6220 -0.2570
 4344SOL    HW124494   1.712   4.086   1.278 -2.5223 -0.9114  2.0337
 4344SOL    HW224495   1.753   4.234   1.278 -1.3735  1.1652 -1.7794
 4345SOL     OW24496   3.675   0.544   0.765  0.6230  0.1786 -0.4500
 4345SOL    HW124497   3.714   0.541   0.852  0.7444  1.8980 -0.4582
 4345SOL    HW224498   3.599   0.493   0.794 -0.0750  0.6175 -1.4783
 4346SOL     OW24499   4.669   3.120  13.235  0.3565 -0.1055  0.1708
 4346SOL    HW124500   0.036   3.146  13.259 -0.2964  1.2451  1.1187
 4346SOL    HW224501   4.654   3.170  13.154  2.2903 -0.9350 -0.6981
 4347SOL     OW24502   1.140   0.575   6.058  0.3135  0.2106 -0.8737
 4347SOL    HW124503   1.107   0.489   6.030 -0.4640  0.4428 -0.6584
 4347SOL    HW224504   1.199   0.590   5.983  1.0903  1.1208 -0.0739
 4348SOL     OW24505   3.658   3.129  11.260 -0.1758 -0.4835  0.0134
 4348SOL    HW124506   3.708   3.063  11.211 -0.8815 -1.3261  0.4115
 4348SOL    HW224507   3.575   3.084  11.277 -0.0087 -0.5486  0.6608
 4349SOL     OW24508   3.013   0.650  15.824 -1.2654  0.3132 -0.4056
 4349SOL    HW124509   2.942   0.593  15.794 -1.2496  0.2327 -0.2874
 4349SOL    HW224510   3.009   0.646  15.919  0.0759  0.3225 -0.3434
 4350SOL     OW24511   0.788   0.178   5.545  0.4420  0.3911  0.2437
 4350SOL    HW124512   0.757   0.198   5.633  2.2026 -1.3383  1.2701
 4350SOL    HW224513   0.854   0.111   5.562 -0.1351 -0.5140 -1.0309
 4351SOL     OW24514   0.865   1.956   5.457 -0.3037 -0.4564 -0.1461
 4351SOL    HW124515   0.946   1.971   5.506 -0.5470  0.4782 -0.0275
 4351SOL    HW224516   0.860   1.860   5.455  1.4477 -0.5135 -1.7935
 4352SOL     OW24517   0.017   2.107  11.815 -0.6892  0.0941 -0.1400
 4352SOL    HW124518   0.017   2.015  11.838  0.1374  0.5175  1.5399
 4352SOL    HW224519   4.700   2.103  11.727  0.3524  0.2652 -0.6156
 4353SOL     OW24520   2.698   1.191   9.461 -0.0065  0.1020  0.4544
 4353SOL    HW124521   2.607   1.164   9.471 -0.6112  2.0895  0.2415
 4353SOL    HW224522   2.707   1.235   9.376 -2.5709  0.9183  0.6263
 4354SOL     OW24523   1.329   3.611   2.393 -0.3000  0.2078 -0.1113
 4354SOL    HW124524   1.281   3.632   2.313  1.0107  2.5179 -0.2690
 4354SOL    HW224525   1.411   3.587   2.349  1.1062  3.6903  0.5870
 4355SOL     OW24526   0.417   0.654   9.509 -0.0032 -0.0841  0.6207
 4355SOL    HW124527   0.473   0.628   9.582 -0.3473 -2.2952  0.1005
 4355SOL    HW224528   0.338   0.687   9.552 -0.2805 -0.9996  0.8051
 4356SOL     OW24529   2.308   4.678  17.210 -0.0036  0.3433  0.6854
 4356SOL    HW124530   2.278   4.718  17.128 -0.7198  0.7675  1.1497
 4356SOL    HW224531   2.274   0.004  17.286 -0.0707 -1.0244  1.5156
 4357SOL     OW24532   1.651   4.595  12.445  0.2135 -0.0763  0.3745
 4357SOL    HW124533   1.558   4.608  12.427  0.5066  2.6706  0.9554
 4357SOL    HW224534   1.673   4.686  12.463 -0.4509  0.4105 -1.3054
 4358SOL     OW24535   4.048   1.937   1.027  0.2888 -0.1360  0.2221
 4358SOL    HW124536   3.984   1.890   1.081  1.0336 -0.5331  0.7485
 4358SOL    HW224537   4.020   2.022   1.060 -1.9147 -0.5991 -0.4072
 4359SOL     OW24538   0.816   0.651  14.832 -0.4101  0.5214  0.7105
 4359SOL    HW124539   0.779   0.571  14.869  1.2855 -1.0076 -0.9305
 4359SOL    HW224540   0.744   0.714  14.836 -1.3881 -0.5034 -0.6405
 4360SOL     OW24541   2.392   3.354  14.020 -0.1899 -0.1087 -0.1424
 4360SOL    HW124542   2.436   3.334  13.937 -0.2789 -1.3477  0.1239
 4360SOL    HW224543   2.424   3.443  14.038  0.5706 -0.3088 -0.4968
 4361SOL     OW24544   0.828   0.199   6.321 -0.0185 -0.0788 -0.2466
 4361SOL    HW124545   0.834   0.287   6.359  0.7364 -0.6741  1.0327
 4361SOL    HW224546   0.902   0.158   6.366  0.6615  0.7926 -0.5706
 4362SOL     OW24547   2.564   0.939  16.664  0.0096 -0.3405 -0.1738
 4362SOL    HW124548   2.523   0.935  16.751  1.3947 -2.8103  0.3475
 4362SOL    HW224549   2.556   0.846  16.645  1.4655  0.0924 -2.9340
 4363SOL     OW24550   1.657   3.368  11.559  0.3687  0.2199 -0.6281
 4363SOL    HW124551   1.733   3.409  11.601 -0.5617  1.3407 -0.0728
 4363SOL    HW224552   1.592   3.356  11.628  0.3704 -0.0386 -0.6703
 4364SOL     OW24553   4.159   4.042   0.396  0.0414  0.2951 -0.8854
 4364SOL    HW124554   4.238   4.021   0.445  0.1702 -1.3391 -1.7848
 4364SOL    HW224555   4.099   3.970   0.416 -0.1662  0.2404 -1.6866
 4365SOL     OW24556   1.732   3.641   6.472  0.2220  0.2064  0.5328
 4365SOL    HW124557   1.696   3.606   6.554 -3.5263 -0.8040 -1.5477
 4365SOL    HW224558   1.826   3.649   6.490  0.2042  1.8603 -0.1763
 4366SOL     OW24559   2.396   4.162   3.633  0.1074 -0.5507 -0.6719
 4366SOL    HW124560   2.349   4.123   3.559  0.7386 -0.2743 -1.2203
 4366SOL    HW224561   2.485   4.136   3.611  0.1595 -1.0340  0.1497
 4367SOL     OW24562   3.503   4.407   7.663  0.1913  0.4915  0.2096
 4367SOL    HW124563   3.459   4.341   7.610 -1.2856  1.1276  0.6070
 4367SOL    HW224564   3.482   4.487   7.614 -0.5988  0.1404 -0.0260
 4368SOL     OW24565   4.582   3.547   4.695  0.1231  0.1371  0.3383
 4368SOL    HW124566   4.659   3.525   4.749  1.5250  1.8329 -0.9579
 4368SOL    HW224567   4.623   3.617   4.644  0.7506  0.0095  0.6590
 4369SOL     OW24568   1.951   4.103   8.207  0.0007  0.2487 -0.1459
 4369SOL    HW124569   1.868   4.057   8.204  0.8457 -1.3578  1.2538
 4369SOL    HW224570   1.993   4.026   8.246  0.9343  1.4786  1.2655
 4370SOL     OW24571   2.322   2.270   3.900  0.1584  0.7451 -0.2602
 4370SOL    HW124572   2.377   2.234   3.831 -0.6121 -2.0621  0.5933
 4370SOL    HW224573   2.373   2.336   3.948  3.3196 -2.3940  0.6713
 4371SOL     OW24574   2.017   3.676   0.114  0.1335  0.8816  0.1825
 4371SOL    HW124575   2.108   3.701   0.129  0.2237 -0.6755  2.2926
 4371SOL    HW224576   1.967   3.748   0.152 -1.0482 -0.3535  1.0061
 4372SOL     OW24577   4.148   0.040   7.808 -0.2568 -1.0560 -0.8070
 4372SOL    HW124578   4.181   0.124   7.840 -2.0151  1.0890 -4.6406
 4372SOL    HW224579   4.065   0.026   7.854  0.5297 -0.5055  0.7673
 4373SOL     OW24580   3.859   4.375   5.662 -0.0677 -0.2832  0.4286
 4373SOL    HW124581   3.791   4.366   5.728  0.1642 -0.6115  0.6239
 4373SOL    HW224582   3.907   4.454   5.686  1.0705 -0.7862 -0.2015
 4374SOL     OW24583   3.809   0.373   7.107 -0.4054  0.0606 -0.3215
 4374SOL    HW124584   3.855   0.343   7.186  1.0522  1.5321 -0.6047
 4374SOL    HW224585   3.872   0.338   7.044 -0.0859  0.6025 -0.2998
 4375SOL     OW24586   2.139   0.661   9.159  0.1106  0.2574  0.1990
 4375SOL    HW124587   2.168   0.650   9.250 -0.4783  0.2701  0.3905
 4375SOL    HW224588   2.091   0.580   9.139 -0.6623  0.6302  0.5242
 4376SOL     OW24589   2.665   2.407   4.397  0.1767  0.3663  0.3272
 4376SOL    HW124590   2.711   2.348   4.337  0.3407  0.8002  0.0241
 4376SOL    HW224591   2.724   2.410   4.472  0.9757  0.5793 -0.3186
 4377SOL     OW24592   1.538   1.937   6.003  0.7999  0.3304 -0.1163
 4377SOL    HW124593   1.510   1.847   5.986 -0.7945  0.2541  3.0418
 4377SOL    HW224594   1.573   1.926   6.091 -1.9363  0.6488  0.9891
 4378SOL     OW24595   1.837   1.364   5.997  0.5340  0.1436 -0.4776
 4378SOL    HW124596   1.760   1.403   6.039 -0.0643 -0.3408 -1.1252
 4378SOL    HW224597   1.820   1.269   5.997 -0.0341  0.2461 -0.3033
 4379SOL     OW24598   4.647   3.725   4.507  0.1419  0.2285  0.2122
 4379SOL    HW124599   4.596   3.805   4.492  0.3274  0.2880 -0.0945
 4379SOL    HW224600   4.699   3.727   4.427  0.5207 -0.0237  0.4537
 4380SOL     OW24601   0.734   2.619   8.304 -0.0705  0.2931 -0.4887
 4380SOL    HW124602   0.669   2.628   8.374 -1.6857 -0.5203 -1.8780
 4380SOL    HW224603   0.817   2.641   8.346 -0.7436 -1.8153  1.9581
 4381SOL     OW24604   1.732   2.388   3.523 -0.5270  0.0144  0.6885
 4381SOL    HW124605   1.788   2.439   3.580 -2.1438  0.2070  2.1105
 4381SOL    HW224606   1.741   2.439   3.442  0.7409 -2.6183 -0.8549
 4382SOL     OW24607   3.276   3.230   7.937  0.5566 -0.2484  0.0849
 4382SOL    HW124608   3.195   3.265   7.900 -1.2250 -0.1678  3.9975
 4382SOL    HW224609   3.309   3.178   7.864 -3.4959  0.3753 -2.1986
 4383SOL     OW24610   4.473   3.869  11.640 -0.3229 -0.1452 -0.2613
 4383SOL    HW124611   4.431   3.949  11.609 -1.4798 -1.0279 -0.9523
 4383SOL    HW224612   4.412   3.802  11.610 -2.7832  2.1272 -0.3116
 4384SOL     OW24613   4.475   1.005   3.231  0.2510  0.5696 -0.6084
 4384SOL    HW124614   4.403   0.977   3.174  0.1413  0.9859 -0.6740
 4384SOL    HW224615   4.538   0.935   3.213 -0.1316  0.6436 -2.2526
 4385SOL     OW24616   4.290   0.193   4.587  0.2840 -0.2142 -0.2081
 4385SOL    HW124617   4.252   0.200   4.674  2.5696  0.6162  0.7206
 4385SOL    HW224618   4.339   0.112   4.600  1.4154  1.1939  4.3618
 4386SOL     OW24619   4.124   3.862   6.291  0.4272  0.1826 -0.3457
 4386SOL    HW124620   4.147   3.770   6.276 -1.2305 -0.3677  0.4140
 4386SOL    HW224621   4.041   3.854   6.339 -0.2869  0.1815 -1.5732
 4387SOL     OW24622   1.831   0.385   4.983  0.0218  0.0565  0.1154
 4387SOL    HW124623   1.767   0.402   5.052  0.4571  1.3452  0.1942
 4387SOL    HW224624   1.857   0.476   4.970  1.4041  0.0259  2.6094
 4388SOL     OW24625   1.160   1.096  16.953  0.0805 -0.1278 -0.3533
 4388SOL    HW124626   1.102   1.171  16.944 -0.0052 -0.1831 -0.2539
 4388SOL    HW224627   1.199   1.134  17.032  1.5214  1.7062 -1.9519
 4389SOL     OW24628   2.920   1.093   9.582 -0.7398 -0.2141  0.8896
 4389SOL    HW124629   2.882   1.094   9.670 -0.7612 -1.3057  0.8901
 4389SOL    HW224630   2.845   1.126   9.532 -0.7333  0.4740  1.3352
 4390SOL     OW24631   1.421   4.091   9.315 -0.0399 -0.1557 -0.5660
 4390SOL    HW124632   1.442   4.002   9.287 -0.7187 -0.5730  0.2208
 4390SOL    HW224633   1.486   4.106   9.384  0.6239  0.2208 -1.2742
 4391SOL     OW24634   3.749   1.052   1.054 -0.6460 -0.4016  0.4350
 4391SOL    HW124635   3.732   0.961   1.081 -1.4011 -0.7183 -1.1413
 4391SOL    HW224636   3.666   1.077   1.013 -0.4279 -1.0679 -0.4168
 4392SOL     OW24637   0.946   3.514   5.778 -0.3012 -0.4913  0.4711
 4392SOL    HW124638   0.894   3.594   5.786  0.4373  0.1456 -1.1493
 4392SOL    HW224639   0.884   3.442   5.764  0.4763 -0.4568 -3.1009
 4393SOL     OW24640   3.496   2.099   0.391 -0.8007 -0.1346  0.5695
 4393SOL    HW124641   3.576   2.049   0.408  0.0576  1.0575  0.0334
 4393SOL    HW224642   3.538   2.164   0.334  0.3245 -0.5175  0.9444
 4394SOL     OW24643   3.179   3.023   0.304  0.3654  0.2681 -0.4531
 4394SOL    HW124644   3.210   3.043   0.392  2.0961  0.9847 -1.2302
 4394SOL    HW224645   3.090   3.059   0.313 -0.9909 -2.9914 -0.8825
 4395SOL     OW24646   4.153   1.266   4.350  0.4994  0.3746  0.3566
 4395SOL    HW124647   4.157   1.262   4.446 -0.0349 -0.7302  0.3362
 4395SOL    HW224648   4.139   1.361   4.345 -0.3757  0.1110 -2.3405
 4396SOL     OW24649   4.496   2.993   8.679 -0.6128  0.8351  0.3294
 4396SOL    HW124650   4.528   2.994   8.770  1.6710  0.6845 -0.4728
 4396SOL    HW224651   4.579   3.007   8.634 -0.4215  0.4584  0.5616
 4397SOL     OW24652   2.615   4.167   6.898  0.3967 -0.4626 -0.6174
 4397SOL    HW124653   2.525   4.196   6.887  1.3449  2.4885 -0.8529
 4397SOL    HW224654   2.613   4.116   6.978 -0.7956 -0.3546 -0.5878
 4398SOL     OW24655   0.855   0.902   5.316  0.0780 -0.0829  0.0553
 4398SOL    HW124656   0.760   0.909   5.323  0.1765  1.0372  0.1892
 4398SOL    HW224657   0.877   0.852   5.395 -3.2469  0.7253  1.5230
 4399SOL     OW24658   2.270   3.642  13.159  0.1866  0.2988  0.9988
 4399SOL    HW124659   2.365   3.630  13.156 -0.0754 -1.1585 -1.7582
 4399SOL    HW224660   2.274   3.725  13.206  0.6606 -0.1485  1.7584
 4400SOL     OW24661   0.101   1.812   5.288 -0.2008 -0.2101  0.0422
 4400SOL    HW124662   0.028   1.798   5.348  0.8050 -2.2604  0.7871
 4400SOL    HW224663   0.079   1.754   5.215  1.5255 -1.5266  0.5391
 4401SOL     OW24664   0.164   1.639   8.968  0.9385  0.3486 -0.6261
 4401SOL    HW124665   0.140   1.725   9.001 -1.1188 -0.6551  0.4795
 4401SOL    HW224666   0.138   1.591   9.047  2.4967  0.8349  0.1775
 4402SOL     OW24667   3.672   1.539   3.633 -0.2566  0.0588 -0.5981
 4402SOL    HW124668   3.765   1.547   3.612 -0.1980 -1.1393 -0.7614
 4402SOL    HW224669   3.661   1.633   3.645 -1.1293 -0.1988  0.5967
 4403SOL     OW24670   3.443   3.361   1.618 -0.1550  0.3413  0.4276
 4403SOL    HW124671   3.489   3.382   1.536 -0.6905  0.9200  0.2747
 4403SOL    HW224672   3.447   3.441   1.670  0.7904 -0.7651  2.0505
 4404SOL     OW24673   3.867   0.392   1.803  0.1942  0.2190 -0.4621
 4404SOL    HW124674   3.918   0.419   1.727 -1.2331  1.5910 -0.9487
 4404SOL    HW224675   3.944   0.362   1.851 -1.1496 -2.4572 -0.0141
 4405SOL     OW24676   3.755   4.434   8.120 -0.1516  0.1159 -0.2351
 4405SOL    HW124677   3.676   4.421   8.066 -0.1120 -3.4979  0.5822
 4405SOL    HW224678   3.722   4.459   8.206  0.8409  0.6192 -0.0113
 4406SOL     OW24679   3.568   3.050  14.915 -0.1931 -0.0519  0.3498
 4406SOL    HW124680   3.657   3.045  14.880  0.8538 -1.3791  3.1867
 4406SOL    HW224681   3.533   3.138  14.903 -0.3756 -0.0219  1.1058
 4407SOL     OW24682   1.685   3.296  16.786  0.4593 -0.0861  0.4586
 4407SOL    HW124683   1.727   3.312  16.702  0.8072 -0.5167  0.5507
 4407SOL    HW224684   1.606   3.348  16.771  0.4578  0.2648  1.7258
 4408SOL     OW24685   1.160   4.244   2.339  0.0966  0.5622  0.3045
 4408SOL    HW124686   1.079   4.196   2.356  0.7243 -0.4653  0.4352
 4408SOL    HW224687   1.182   4.215   2.250 -0.4524 -1.3609  0.7814
 4409SOL     OW24688   2.192   4.233   2.052  0.0688 -0.4118 -0.2116
 4409SOL    HW124689   2.218   4.141   2.057  0.4369 -0.4254 -2.3907
 4409SOL    HW224690   2.100   4.242   2.026 -0.0093 -0.1563  0.1586
 4410SOL     OW24691   0.947   2.357   4.548  0.5956 -0.0970 -0.5378
 4410SOL    HW124692   0.890   2.340   4.473 -0.1695 -0.4788  0.1403
 4410SOL    HW224693   0.963   2.267   4.575  0.5507 -0.4842 -1.8161
 4411SOL     OW24694   2.944   2.216  10.616  0.0106 -0.3216 -0.3620
 4411SOL    HW124695   2.980   2.305  10.618 -0.6049 -0.0688 -0.7274
 4411SOL    HW224696   3.024   2.167  10.637 -0.5257 -0.9332  0.2610
 4412SOL     OW24697   2.310   3.274   2.295  0.2712  0.3533  0.0102
 4412SOL    HW124698   2.223   3.303   2.321  0.9846  0.5183  2.2219
 4412SOL    HW224699   2.289   3.194   2.248 -0.5606  0.1885  0.6597
 4413SOL     OW24700   4.137   3.376   4.565 -0.0851 -0.4954 -0.1872
 4413SOL    HW124701   4.157   3.465   4.597  0.6237 -0.4994 -0.6154
 4413SOL    HW224702   4.203   3.377   4.496 -0.0518  2.5586 -0.1229
 4414SOL     OW24703   0.972   2.921  11.309 -0.3669 -0.4798 -0.6383
 4414SOL    HW124704   1.000   2.851  11.368 -0.0045 -0.4630 -0.7911
 4414SOL    HW224705   0.938   2.983  11.374 -0.1026 -1.9644  0.8999
 4415SOL     OW24706   4.584   1.477  11.773  0.8976  0.3285 -0.1194
 4415SOL    HW124707   4.543   1.554  11.811  1.8399  1.6307 -1.7355
 4415SOL    HW224708   4.608   1.433  11.854 -1.1352  1.7376  1.2477
 4416SOL     OW24709   1.344   1.873   4.391 -0.2259  0.3839 -0.2633
 4416SOL    HW124710   1.264   1.924   4.405  0.2115  0.7600  0.8957
 4416SOL    HW224711   1.394   1.898   4.469  0.4812 -1.2604 -0.1996
 4417SOL     OW24712   3.252   3.238   1.938 -0.2064 -0.1366  0.0739
 4417SOL    HW124713   3.346   3.231   1.920 -0.1819  1.3705 -0.3992
 4417SOL    HW224714   3.241   3.181   2.014  2.2433 -0.7388 -0.0315
 4418SOL     OW24715   3.628   0.931   6.398 -0.2684 -0.5476 -0.5360
 4418SOL    HW124716   3.558   0.885   6.352 -1.4786  0.9245 -0.1713
 4418SOL    HW224717   3.603   1.023   6.394  2.0362  0.1455  0.8096
 4419SOL     OW24718   3.842   1.967   3.143  0.5732  0.2622  0.3963
 4419SOL    HW124719   3.920   2.010   3.180 -0.0167  0.8277  0.9778
 4419SOL    HW224720   3.787   2.026   3.194  0.0777  1.7439 -1.8598
 4420SOL     OW24721   4.691   0.940   2.475  0.5219  0.9464  0.4045
 4420SOL    HW124722   4.639   0.884   2.533  1.8805  0.3131  1.0259
 4420SOL    HW224723   0.032   0.979   2.537  0.8054  2.3329 -0.7529
 4421SOL     OW24724   1.916   1.005  14.379  0.4782 -0.4042 -0.3865
 4421SOL    HW124725   1.857   0.941  14.419 -1.8101 -0.0633 -3.1749
 4421SOL    HW224726   1.937   1.059  14.455  1.6770  1.3929 -1.9905
 4422SOL     OW24727   3.526   4.021  12.673  0.5907 -0.1069 -0.0342
 4422SOL    HW124728   3.567   4.106  12.691 -0.7372  0.7606 -1.0718
 4422SOL    HW224729   3.582   3.968  12.730  0.3879  0.9219  1.1271
 4423SOL     OW24730   0.418   3.957   9.273 -0.5075  0.4332  0.0289
 4423SOL    HW124731   0.425   4.039   9.321  1.5867  0.4982 -0.3857
 4423SOL    HW224732   0.342   3.915   9.312 -1.2565 -0.0918 -1.9554
 4424SOL     OW24733   3.505   4.105   2.675  0.5754 -0.1621  0.5244
 4424SOL    HW124734   3.551   4.079   2.594 -0.7649 -2.0241  0.3667
 4424SOL    HW224735   3.531   4.027   2.724 -1.1305  0.7456  2.8312
 4425SOL     OW24736   2.428   0.511   8.344  0.0096 -0.1529 -0.0664
 4425SOL    HW124737   2.498   0.504   8.279 -0.0305  0.0296 -0.1303
 4425SOL    HW224738   2.464   0.576   8.404 -1.2077  2.7868 -2.4908
 4426SOL     OW24739   3.795   0.539  11.365 -0.7919 -0.3749 -0.5902
 4426SOL    HW124740   3.727   0.600  11.393 -2.5069 -3.4369  1.9610
 4426SOL    HW224741   3.871   0.583  11.402 -1.3448 -0.7140  0.9278
 4427SOL     OW24742   0.533   1.363   1.457 -0.7021  0.2573  0.1186
 4427SOL    HW124743   0.448   1.399   1.434 -0.3643  1.0056  0.0532
 4427SOL    HW224744   0.583   1.441   1.482  0.1232 -0.3476  0.4028
 4428SOL     OW24745   0.224   2.347   5.735  0.2857  0.6357  0.3412
 4428SOL    HW124746   0.141   2.356   5.780 -0.0044 -1.6388  0.2681
 4428SOL    HW224747   0.248   2.254   5.744 -0.1504  0.3161 -1.8767
 4429SOL     OW24748   4.526   0.967   7.759 -0.2696  0.7812 -0.2142
 4429SOL    HW124749   4.518   0.880   7.798  2.5169  0.8593  0.5457
 4429SOL    HW224750   4.558   1.023   7.829 -0.4102 -0.7875  1.1022
 4430SOL     OW24751   1.023   0.966   9.295  0.0579  1.6090  0.0126
 4430SOL    HW124752   1.082   0.988   9.367 -2.3946  3.7082  1.3557
 4430SOL    HW224753   1.037   0.872   9.287 -0.2459  1.4238  1.6100
 4431SOL     OW24754   0.943   1.150   3.697  0.0161 -0.5223  0.3456
 4431SOL    HW124755   0.860   1.180   3.661 -0.7136 -1.4009  1.3089
 4431SOL    HW224756   0.999   1.222   3.668  0.9376 -2.1406 -1.9093
 4432SOL     OW24757   3.900   3.222   4.238 -0.0458  0.1764  0.2335
 4432SOL    HW124758   3.809   3.240   4.216  0.0966  0.1746 -0.3575
 4432SOL    HW224759   3.919   3.143   4.188 -1.7570  0.7689 -1.3342
 4433SOL     OW24760   3.842   4.629   8.538 -0.1551 -0.8636  0.4857
 4433SOL    HW124761   3.837   4.690   8.465  1.2316  0.8023  1.7763
 4433SOL    HW224762   3.751   4.600   8.543 -0.4522 -0.8213 -4.5289
 4434SOL     OW24763   1.059   4.593   2.948  0.0962  0.6317  0.2486
 4434SOL    HW124764   1.011   4.601   3.031 -2.0587 -0.5551 -0.8785
 4434SOL    HW224765   1.104   4.510   2.963 -0.3334  0.3735  0.1153
 4435SOL     OW24766   2.638   1.205  13.166 -0.0682  0.3215 -0.0246
 4435SOL    HW124767   2.553   1.246  13.177  0.8230  1.9873  0.6071
 4435SOL    HW224768   2.644   1.152  13.245  2.5612  0.2935 -0.2311
 4436SOL     OW24769   0.655   2.952   1.379  0.1810  0.3096  0.7995
 4436SOL    HW124770   0.685   2.924   1.292  0.8987 -0.3396  1.2589
 4436SOL    HW224771   0.674   2.869   1.423  0.3289  0.4251  0.9538
 4437SOL     OW24772   4.622   4.491   1.415 -0.0473 -0.6547  0.1099
 4437SOL    HW124773   4.584   4.521   1.497  1.2826  1.2038  0.0556
 4437SOL    HW224774   4.551   4.466   1.355 -0.3868  0.8337 -0.0993
 4438SOL     OW24775   2.206   4.292   3.826 -0.4540  0.7036  0.3716
 4438SOL    HW124776   2.149   4.220   3.853  1.1603 -0.0739  1.7039
 4438SOL    HW224777   2.245   4.261   3.744  0.1445  2.1184  0.1211
 4439SOL     OW24778   3.676   2.686  11.242 -0.0726  0.1961 -0.0037
 4439SOL    HW124779   3.720   2.740  11.307  0.0435 -0.8975  0.8334
 4439SOL    HW224780   3.706   2.727  11.161  2.0703  0.3896  0.8878
 4440SOL     OW24781   2.207   3.588  16.467  0.5274 -0.0976  0.0974
 4440SOL    HW124782   2.297   3.556  16.477  1.0534  1.9596  2.1230
 4440SOL    HW224783   2.149   3.529  16.515  0.0084  0.6108  0.3372
 4441SOL     OW24784   1.798   0.703   2.304 -0.1151 -0.4909  1.0579
 4441SOL    HW124785   1.776   0.630   2.246  2.0487  0.5592 -1.1209
 4441SOL    HW224786   1.862   0.662   2.361  1.0134 -1.0553 -0.6012
 4442SOL     OW24787   0.264   3.778   4.999 -0.3729  0.1993  0.6274
 4442SOL    HW124788   0.345   3.818   4.966 -1.3239  1.3733 -0.3006
 4442SOL    HW224789   0.211   3.767   4.920  0.9663 -0.3331 -0.1907
 4443SOL     OW24790   4.689   1.870   0.805  0.6188  0.1029 -0.0282
 4443SOL    HW124791   0.046   1.901   0.760  0.9477  0.2226  0.6324
 4443SOL    HW224792   4.615   1.915   0.764 -0.5945 -2.0298 -0.1760
 4444SOL     OW24793   3.906   2.218   1.760  0.6061 -0.3073  0.0362
 4444SOL    HW124794   3.873   2.146   1.813 -0.2692  1.2189  1.5443
 4444SOL    HW224795   3.862   2.286   1.812  0.0848  0.4988 -1.4589
 4445SOL     OW24796   0.211   0.365  11.408 -0.4512 -0.1560  0.5643
 4445SOL    HW124797   0.199   0.455  11.436  0.2186  0.5096 -1.2837
 4445SOL    HW224798   0.124   0.325  11.399 -1.7048  2.5987  0.5722
 4446SOL     OW24799   1.312   1.364   3.347 -0.1240  0.0728  0.2102
 4446SOL    HW124800   1.253   1.437   3.333  2.6533  1.8566 -2.1045
 4446SOL    HW224801   1.290   1.354   3.440 -1.6811  1.7976  0.0213
 4447SOL     OW24802   0.040   3.330  17.114  0.0352 -0.3547  0.1860
 4447SOL    HW124803   0.053   3.236  17.108  0.3222 -0.3950  1.4781
 4447SOL    HW224804   0.031   3.342  17.209  0.4954 -1.1701  0.3321
 4448SOL     OW24805   0.010   0.348   1.566  0.1367  0.1751  0.5422
 4448SOL    HW124806   0.008   0.435   1.606 -0.8618 -1.1682  3.4560
 4448SOL    HW224807   0.003   0.353   1.471  3.6484 -2.0912  0.1643
 4449SOL     OW24808   4.363   1.227   5.331  1.0156 -0.2874 -0.3150
 4449SOL    HW124809   4.321   1.199   5.412 -0.9638  0.6221 -1.0225
 4449SOL    HW224810   4.288   1.262   5.283  1.9817  0.3839 -1.3304
 4450SOL     OW24811   4.529   3.368   6.360 -0.0980 -0.2640 -0.0494
 4450SOL    HW124812   4.563   3.456   6.375  0.0438 -0.5812  1.4809
 4450SOL    HW224813   4.445   3.385   6.316 -0.7506  2.6404  2.2765
 4451SOL     OW24814   0.922   2.015   7.668 -0.0601 -0.1064  0.0329
 4451SOL    HW124815   0.978   1.943   7.640  2.8380  1.8404  0.8203
 4451SOL    HW224816   0.985   2.086   7.657  1.3484 -0.7415  4.0971
 4452SOL     OW24817   3.219   1.385   9.002 -0.1531 -0.2680  1.0065
 4452SOL    HW124818   3.260   1.354   9.082 -1.8084 -1.3259  1.4574
 4452SOL    HW224819   3.282   1.444   8.962 -0.1479  0.9902  2.8338
 4453SOL     OW24820   3.006   2.093  10.054  0.1823  0.4888 -0.1568
 4453SOL    HW124821   3.024   2.185  10.036 -1.7030  1.4999  3.0586
 4453SOL    HW224822   3.003   2.108  10.149 -0.1623 -0.5148 -0.0055
 4454SOL     OW24823   0.624   3.886   1.015  0.7755 -0.5347 -0.4704
 4454SOL    HW124824   0.692   3.947   0.984  0.7713 -0.4292 -0.2675
 4454SOL    HW224825   0.616   3.909   1.107  0.1750  0.3970 -0.7593
 4455SOL     OW24826   4.536   3.836   9.935  0.0125 -0.1101  0.1537
 4455SOL    HW124827   4.586   3.918   9.942  1.9179 -1.2216 -0.5364
 4455SOL    HW224828   4.445   3.861   9.950 -0.1674 -0.6966  0.0286
 4456SOL     OW24829   4.066   2.305   5.978  0.3490 -0.1921 -0.5271
 4456SOL    HW124830   4.011   2.263   5.911 -1.1042  1.9138 -0.6474
 4456SOL    HW224831   4.111   2.224   6.003  1.2736 -0.0228 -1.6524
 4457SOL     OW24832   1.455   4.465  14.815 -0.3508 -0.4198  0.5991
 4457SOL    HW124833   1.404   4.414  14.752  0.6784  1.1388 -1.5120
 4457SOL    HW224834   1.421   4.439  14.900 -2.0754  0.7552  0.2531
 4458SOL     OW24835   3.460   3.035  16.997 -0.1617 -0.1844  0.3021
 4458SOL    HW124836   3.422   2.995  17.075  1.9619  1.2271  2.0700
 4458SOL    HW224837   3.527   2.976  16.962  0.5765 -0.5798  2.3773
 4459SOL     OW24838   2.735   1.279   5.806  0.6263  0.5300  0.3687
 4459SOL    HW124839   2.657   1.287   5.861  0.4902  4.0381 -0.3132
 4459SOL    HW224840   2.701   1.238   5.727  1.0931  0.7642  0.0486
 4460SOL     OW24841   4.024   3.151  14.364 -0.3554  0.7188  0.6301
 4460SOL    HW124842   3.978   3.152  14.280  1.9444 -1.7575 -0.6595
 4460SOL    HW224843   3.961   3.196  14.420 -1.4577  3.1666 -2.5712
 4461SOL     OW24844   3.865   1.293   5.271 -0.3673  0.0179 -0.1091
 4461SOL    HW124845   3.851   1.367   5.331 -1.4137 -0.9665  0.8733
 4461SOL    HW224846   3.789   1.290   5.213 -0.2619 -0.0564 -0.2402
 4462SOL     OW24847   0.452   3.932   2.552 -0.5651  0.2740 -0.1418
 4462SOL    HW124848   0.532   3.974   2.583  0.3845 -1.2654 -0.4891
 4462SOL    HW224849   0.480   3.841   2.543 -0.9229  0.2022 -0.5374
 4463SOL     OW24850   1.223   0.673   7.482  0.5767 -0.3368 -0.0993
 4463SOL    HW124851   1.143   0.668   7.534  0.0125  1.1690 -0.8313
 4463SOL    HW224852   1.183   0.632   7.405 -0.8326  0.8313  0.0105
 4464SOL     OW24853   1.662   3.419   1.544  0.3322  0.5289  0.2841
 4464SOL    HW124854   1.594   3.360   1.578 -0.8061  0.7063 -1.6772
 4464SOL    HW224855   1.629   3.507   1.558  3.0478  1.6775 -0.6409
 4465SOL     OW24856   1.304   2.350  10.407 -0.4350 -0.0572  0.5981
 4465SOL    HW124857   1.284   2.257  10.393 -0.3446 -0.0418  0.3533
 4465SOL    HW224858   1.301   2.349  10.502 -1.1590  2.6228  0.6118
 4466SOL     OW24859   3.718   3.923   4.862  0.3167  0.1222 -0.5540
 4466SOL    HW124860   3.808   3.950   4.877  0.0016  0.7787  0.1742
 4466SOL    HW224861   3.667   4.002   4.843  0.6546  0.6809  0.8394
 4467SOL     OW24862   1.415   0.313   0.169 -0.1576 -0.6041  0.1684
 4467SOL    HW124863   1.339   0.256   0.174  0.3962 -1.6808 -3.3515
 4467SOL    HW224864   1.477   0.275   0.231 -0.9977 -0.9345  0.8037
 4468SOL     OW24865   0.276   1.005   4.083 -0.4829  0.4444  0.5422
 4468SOL    HW124866   0.260   1.099   4.091 -2.3290  0.2417 -0.7981
 4468SOL    HW224867   0.336   0.990   4.156 -0.9546 -0.2632  0.7916
 4469SOL     OW24868   0.530   2.369   1.013 -0.6388  0.0878  0.2151
 4469SOL    HW124869   0.594   2.318   0.962  0.5868  0.4843  1.3812
 4469SOL    HW224870   0.511   2.302   1.078  2.5775  0.0615  1.1433
 4470SOL     OW24871   1.866   1.547  15.210 -0.2465 -0.5713 -0.5829
 4470SOL    HW124872   1.879   1.536  15.304 -3.3243  0.0760 -0.0819
 4470SOL    HW224873   1.848   1.640  15.199  1.6425  0.0644  1.6116
 4471SOL     OW24874   3.860   0.009  10.463  0.4251  0.5632  0.1992
 4471SOL    HW124875   3.914   4.658  10.493 -1.2260 -1.4166 -1.6676
 4471SOL    HW224876   3.926   0.075  10.438  1.4786 -0.9285 -0.9932
 4472SOL     OW24877   3.241   0.180   9.026 -0.2400  0.4409  0.3577
 4472SOL    HW124878   3.317   0.132   8.994 -0.2679  0.4369  0.2961
 4472SOL    HW224879   3.187   0.108   9.059  0.9504  0.8696  3.1366
 4473SOL     OW24880   3.958   3.550  13.594  0.0967  0.2818  0.5965
 4473SOL    HW124881   4.030   3.583  13.540  0.6497  0.6188  1.5177
 4473SOL    HW224882   3.890   3.615  13.578  0.5653  0.7115  0.3463
 4474SOL     OW24883   2.883   1.988   9.816 -0.2958  0.3952 -0.0167
 4474SOL    HW124884   2.933   2.029   9.887  0.6029  0.9875 -0.9856
 4474SOL    HW224885   2.891   1.896   9.841  2.1023  0.2766 -1.1956
 4475SOL     OW24886   1.903   3.361   6.594 -0.3211  0.0864 -0.5844
 4475SOL    HW124887   1.986   3.315   6.580 -0.3948 -0.1018 -0.3902
 4475SOL    HW224888   1.861   3.345   6.509 -0.3262 -1.2362 -0.3395
 4476SOL     OW24889   1.539   2.343   2.298 -0.4079  0.2917  0.1794
 4476SOL    HW124890   1.519   2.308   2.385 -0.5157  3.9208  1.6148
 4476SOL    HW224891   1.460   2.390   2.270  1.2338  4.2238  2.1396
 4477SOL     OW24892   1.666   1.158  12.540 -0.6176 -0.5175  0.5475
 4477SOL    HW124893   1.585   1.154  12.591 -0.1961 -0.7945  1.1877
 4477SOL    HW224894   1.649   1.092  12.473  2.3573  1.1523 -1.8778
 4478SOL     OW24895   0.083   0.030   8.068 -0.5452 -0.2537 -0.6422
 4478SOL    HW124896   0.017   0.071   8.012 -1.0122  0.6320  0.5692
 4478SOL    HW224897   0.050   4.668   8.099  0.8288 -1.1506 -1.6057
 4479SOL     OW24898   0.247   1.028  13.843  0.4233 -0.0342 -0.3045
 4479SOL    HW124899   0.180   1.075  13.793 -0.4452 -1.2336 -0.2766
 4479SOL    HW224900   0.209   1.030  13.931 -0.1118  0.3905 -0.5420
 4480SOL     OW24901   1.699   2.296   9.097  0.7380 -0.1792 -0.6893
 4480SOL    HW124902   1.747   2.231   9.149  0.3259  0.4860  0.5323
 4480SOL    HW224903   1.772   2.355   9.077  1.0664  0.2078  1.6041
 4481SOL     OW24904   3.003   3.987   9.268  0.2519  0.1189  0.2654
 4481SOL    HW124905   2.951   3.961   9.345  0.6845 -0.5416  0.3281
 4481SOL    HW224906   3.050   3.904   9.263  0.1772  0.0926  0.0015
 4482SOL     OW24907   4.586   0.044   7.921  0.5300 -0.2522  0.0155
 4482SOL    HW124908   4.560   0.037   7.829  2.2673 -0.5360 -0.4677
 4482SOL    HW224909   4.510   0.001   7.960  1.4851  0.1733  2.3229
 4483SOL     OW24910   0.363   2.582   1.588 -0.6906  0.1933 -0.4705
 4483SOL    HW124911   0.400   2.662   1.624  0.2438  0.4732 -2.0345
 4483SOL    HW224912   0.279   2.587   1.633  0.1025 -1.1010  1.1133
 4484SOL     OW24913   1.508   3.963  12.804 -0.4122 -0.4042  0.2045
 4484SOL    HW124914   1.514   3.991  12.896 -2.2512  0.1314  0.1630
 4484SOL    HW224915   1.507   4.048  12.760 -0.2120  0.4535  1.8635
 4485SOL     OW24916   0.698   3.466   3.770  0.4188 -0.2337 -0.3748
 4485SOL    HW124917   0.636   3.418   3.715  0.9216 -1.2514 -0.0480
 4485SOL    HW224918   0.644   3.527   3.821  0.7612 -1.4759  1.4944
 4486SOL     OW24919   3.852   1.451  16.634  0.8292  0.2040 -0.1761
 4486SOL    HW124920   3.763   1.416  16.638  0.9080 -0.0585 -0.7164
 4486SOL    HW224921   3.826   1.534  16.594 -1.6771  1.0000  3.0680
 4487SOL     OW24922   4.227   1.361  15.466  0.1492  0.1437 -0.1698
 4487SOL    HW124923   4.150   1.314  15.499 -1.1685  1.5410 -1.2111
 4487SOL    HW224924   4.188   1.396  15.386  1.0990  2.4179  0.3442
 4488SOL     OW24925   0.041   2.666  13.358  0.2701 -0.4786  0.0688
 4488SOL    HW124926   0.122   2.618  13.376 -1.4286 -3.3938 -0.0020
 4488SOL    HW224927   4.711   2.593  13.324 -0.3200  0.9456 -2.0841
 4489SOL     OW24928   1.641   4.469  13.914  0.2977  0.6248  0.2845
 4489SOL    HW124929   1.579   4.521  13.863  1.0092 -0.0436 -1.2635
 4489SOL    HW224930   1.697   4.450  13.839  2.7819  0.4040  2.2204
 4490SOL     OW24931   3.002   1.147   4.878  0.0926 -0.2598 -0.2697
 4490SOL    HW124932   2.939   1.168   4.947 -1.3660 -0.5674 -1.5043
 4490SOL    HW224933   2.975   1.199   4.802 -0.8181  0.6163  0.6623
 4491SOL     OW24934   4.458   4.585  14.204  0.2874 -0.1550 -0.5633
 4491SOL    HW124935   4.463   4.648  14.277  0.4978 -1.2061  0.3252
 4491SOL    HW224936   4.523   4.523  14.238  0.1300 -0.4834 -0.8681
 4492SOL     OW24937   0.831   0.578   3.195 -0.1877  0.5386 -0.2540
 4492SOL    HW124938   0.807   0.504   3.140  0.5141  1.0207 -1.2099
 4492SOL    HW224939   0.908   0.612   3.149 -1.1643  2.9760 -0.1049
 4493SOL     OW24940   0.739   3.977   9.288  0.3140 -0.0714 -0.8925
 4493SOL    HW124941   0.648   3.963   9.264 -0.6371  0.8205  2.1718
 4493SOL    HW224942   0.742   4.072   9.273  3.5214  0.0289  0.2369
 4494SOL     OW24943   3.926   0.080   2.706 -0.1280 -0.8372 -0.0569
 4494SOL    HW124944   3.937   0.129   2.624 -0.1115 -0.4631  0.1680
 4494SOL    HW224945   3.905   4.711   2.686  1.4492 -0.8160 -1.7868
 4495SOL     OW24946   4.624   3.830   3.227 -0.0332  0.1570  0.4576
 4495SOL    HW124947   4.602   3.874   3.309 -2.0095  2.5070 -1.3309
 4495SOL    HW224948   4.541   3.819   3.181 -0.1171 -1.2708  0.9678
 4496SOL     OW24949   0.035   1.998  10.753 -0.6028 -0.1396  0.3768
 4496SOL    HW124950   4.672   2.041  10.751  0.2010  1.3659 -1.3754
 4496SOL    HW224951   0.019   1.922  10.810 -2.0171  0.5349  0.8812
 4497SOL     OW24952   0.029   3.102   8.698 -0.2839 -0.3875 -0.4774
 4497SOL    HW124953   0.038   3.106   8.794 -1.4498  0.4895 -0.4114
 4497SOL    HW224954   4.720   3.189   8.674 -1.9464 -0.6193  0.7962
 4498SOL     OW24955   0.183   3.792  10.143 -0.6317 -0.2444 -0.1816
 4498SOL    HW124956   0.161   3.714  10.195  0.6691  0.1685  0.9789
 4498SOL    HW224957   0.107   3.848  10.157 -1.3107 -1.5640  1.5188
 4499SOL     OW24958   3.300   3.427   3.936 -0.1502  0.1423 -0.4835
 4499SOL    HW124959   3.349   3.507   3.916  2.3152 -1.9594 -2.8042
 4499SOL    HW224960   3.218   3.466   3.968  0.6606  1.0772  0.4400
 4500SOL     OW24961   4.475   3.452  17.166 -0.4287 -0.1730  0.5893
 4500SOL    HW124962   4.417   3.384  17.132  1.5158 -0.0392 -2.9284
 4500SOL    HW224963   4.519   3.466  17.082 -0.0166 -0.4679  0.7559
 4501SOL     OW24964   0.505   4.574   6.927  0.2414 -0.0344  0.8244
 4501SOL    HW124965   0.586   4.583   6.979  0.8053  2.1924 -0.4412
 4501SOL    HW224966   0.506   4.482   6.901  1.2915 -0.0924  1.0713
 4502SOL     OW24967   2.779   4.012   3.063 -0.0049 -0.2859 -0.2985
 4502SOL    HW124968   2.822   4.034   3.146 -1.6809 -3.0398  1.2983
 4502SOL    HW224969   2.740   3.925   3.072 -1.1557  0.2636 -0.0293
 4503SOL     OW24970   2.631   2.312  16.586  0.7276 -0.4705 -0.8056
 4503SOL    HW124971   2.697   2.380  16.600 -1.1127  1.0121  0.7179
 4503SOL    HW224972   2.658   2.253  16.656 -1.1098  0.5997  0.8219
 4504SOL     OW24973   4.019   1.600   6.424 -0.1775  0.1266 -0.1839
 4504SOL    HW124974   3.952   1.555   6.476 -1.9635  2.1618 -0.7380
 4504SOL    HW224975   3.967   1.639   6.354 -2.1247 -0.4277  0.9619
 4505SOL     OW24976   3.607   2.415   8.225  0.0824  0.1368 -0.0264
 4505SOL    HW124977   3.601   2.481   8.155 -0.6481 -0.0456 -0.1403
 4505SOL    HW224978   3.517   2.383   8.216 -0.8551  2.1251  2.1447
 4506SOL     OW24979   2.697   4.267   5.397  0.4191  0.0844 -0.8293
 4506SOL    HW124980   2.603   4.250   5.406  0.3213 -0.6250 -3.2980
 4506SOL    HW224981   2.704   4.361   5.377  0.6219 -0.0946 -1.5688
 4507SOL     OW24982   3.601   2.689   3.509  0.6225 -0.0339 -0.2400
 4507SOL    HW124983   3.519   2.723   3.544  2.1808  1.7069  1.6869
 4507SOL    HW224984   3.601   2.716   3.417  2.2518 -0.3170 -0.3200
 4508SOL     OW24985   4.646   4.560   3.449  0.5133  0.8914  0.3335
 4508SOL    HW124986   4.648   4.655   3.463 -0.0886  1.0829 -0.8413
 4508SOL    HW224987   4.555   4.533   3.442  0.5561  0.6207  0.8247
 4509SOL     OW24988   3.313   1.636   4.366 -0.1738  0.7174  0.4697
 4509SOL    HW124989   3.262   1.604   4.441  0.9900  2.2329  1.8990
 4509SOL    HW224990   3.248   1.663   4.301  0.5266 -0.1333 -0.6057
 4510SOL     OW24991   3.710   3.675   0.746 -0.2237 -0.4880 -0.3572
 4510SOL    HW124992   3.664   3.598   0.780 -0.3095 -0.3178 -0.0856
 4510SOL    HW224993   3.749   3.720   0.821 -0.6282 -0.9055  0.1056
 4511SOL     OW24994   1.827   0.427  10.653 -0.1577  0.5446  0.2499
 4511SOL    HW124995   1.863   0.344  10.621  3.0521  2.1608 -0.3275
 4511SOL    HW224996   1.885   0.433  10.728  3.4039  0.0726 -2.4629
 4512SOL     OW24997   3.366   3.283  15.108  0.9263  0.3149  0.0982
 4512SOL    HW124998   3.287   3.337  15.110 -0.2733 -1.4817  1.1219
 4512SOL    HW224999   3.422   3.335  15.051 -0.6529  1.1491 -0.6908
 4513SOL     OW25000   0.750   4.539   8.140 -0.3027  0.0605 -0.6946
 4513SOL    HW125001   0.703   4.493   8.070  2.1393 -3.9194  0.2729
 4513SOL    HW225002   0.748   4.464   8.200 -0.0127  0.6472  0.0436
 4514SOL     OW25003   4.193   1.084   5.914  0.1928  0.2709  0.1471
 4514SOL    HW125004   4.287   1.103   5.923  0.3789  0.1616 -1.6829
 4514SOL    HW225005   4.156   1.168   5.887 -0.3058  0.2029  0.6262
 4515SOL     OW25006   4.324   2.971   8.170 -0.0498  0.0870  0.1549
 4515SOL    HW125007   4.272   2.894   8.196 -1.9302  0.2829 -2.9876
 4515SOL    HW225008   4.409   2.950   8.208 -0.1986  0.9651  0.9757
 4516SOL     OW25009   1.549   0.036  14.483  0.1856 -0.1053 -0.2607
 4516SOL    HW125010   1.624   4.706  14.453  0.8632  0.5308  0.3224
 4516SOL    HW225011   1.483   4.689  14.488 -0.5490  0.5892 -0.4692
 4517SOL     OW25012   4.205   4.480   4.599 -0.1599  0.0757  0.4552
 4517SOL    HW125013   4.212   4.498   4.505  2.1461  0.1372  0.6360
 4517SOL    HW225014   4.297   4.473   4.623 -0.0584  2.0734  0.6671
 4518SOL     OW25015   3.747   3.902   2.476  0.2274 -0.2591 -0.3589
 4518SOL    HW125016   3.701   3.820   2.459  1.3826 -1.0997  0.5578
 4518SOL    HW225017   3.825   3.874   2.525  0.0357 -1.0196 -0.4853
 4519SOL     OW25018   2.620   1.706   5.319  0.1199  0.2166  0.1461
 4519SOL    HW125019   2.653   1.751   5.397 -3.0143  1.5330  0.7136
 4519SOL    HW225020   2.704   1.665   5.295 -0.6372 -0.9502 -0.4945
 4520SOL     OW25021   0.884   4.060   6.700  0.0818  0.3839 -0.3485
 4520SOL    HW125022   0.902   4.053   6.606  1.3888  0.6038 -0.1112
 4520SOL    HW225023   0.851   4.150   6.700 -0.2959  0.2542 -1.0924
 4521SOL     OW25024   4.446   2.072  10.447  0.2322  0.0411  0.8029
 4521SOL    HW125025   4.462   2.020  10.526  0.8487 -1.0563 -0.0444
 4521SOL    HW225026   4.456   2.003  10.382  1.3102  1.6318 -0.7168
 4522SOL     OW25027   1.093   1.358  17.266  0.1730 -0.5407 -0.8856
 4522SOL    HW125028   1.075   1.450  17.284  3.1203  0.1211 -1.4511
 4522SOL    HW225029   1.164   1.356  17.202  1.5808 -0.0315  0.6824
 4523SOL     OW25030   0.764   1.510   2.492  0.3341  0.9741 -0.0546
 4523SOL    HW125031   0.775   1.489   2.399 -1.9490  1.4609 -0.4182
 4523SOL    HW225032   0.812   1.591   2.473 -1.8019  1.8030 -1.8803
 4524SOL     OW25033   1.442   2.571   5.785  0.3241 -0.5039 -1.0166
 4524SOL    HW125034   1.415   2.541   5.872 -2.7150  1.6649 -1.2381
 4524SOL    HW225035   1.505   2.639   5.809  1.3797 -1.6319 -0.6109
 4525SOL     OW25036   1.754   0.828  16.438 -0.2459 -0.3461  1.4888
 4525SOL    HW125037   1.673   0.790  16.405  0.4967 -0.6261  0.0343
 4525SOL    HW225038   1.807   0.823  16.359 -2.0149  1.0408  0.2079
 4526SOL     OW25039   0.356   2.682   1.248 -0.7017  0.3584  0.7377
 4526SOL    HW125040   0.441   2.648   1.220 -0.2968  1.3092  0.8135
 4526SOL    HW225041   0.330   2.604   1.298  2.6176  0.3752  2.5197
 4527SOL     OW25042   1.712   3.334   0.594 -0.2684  0.4069 -0.1312
 4527SOL    HW125043   1.628   3.373   0.619 -0.5132  0.6238 -1.3187
 4527SOL    HW225044   1.724   3.258   0.651 -0.8423  0.8371  0.5677
 4528SOL     OW25045   1.170   4.582   9.953 -0.3218 -0.0006  0.0195
 4528SOL    HW125046   1.165   4.494   9.989  0.9005  0.4764  1.4134
 4528SOL    HW225047   1.093   4.616   9.999  0.0827  1.1484 -0.1431
 4529SOL     OW25048   3.231   3.991   3.400 -0.1487  0.0954  0.3209
 4529SOL    HW125049   3.156   3.997   3.459 -0.9036  0.3697 -0.6639
 4529SOL    HW225050   3.235   3.897   3.383 -2.2840 -0.2978  2.0867
 4530SOL     OW25051   1.399   2.865  17.403 -0.3744  0.9576 -0.0562
 4530SOL    HW125052   1.432   2.782  17.369 -0.2093  0.3301  1.6022
 4530SOL    HW225053   1.357   2.838  17.485 -2.5001 -1.0690 -1.7995
 4531SOL     OW25054   3.899   3.042   6.041  0.0408 -0.4288  0.4231
 4531SOL    HW125055   3.825   3.002   6.086 -0.3082  0.4730  0.6587
 4531SOL    HW225056   3.888   3.013   5.950 -0.2691  0.7469  0.0854
 4532SOL     OW25057   1.350   2.222   2.471 -0.5586  0.4505  0.1445
 4532SOL    HW125058   1.323   2.216   2.379 -0.2335  0.0059  0.0774
 4532SOL    HW225059   1.274   2.269   2.505 -0.9694 -1.0275  1.2834
 4533SOL     OW25060   1.775   4.242   0.895 -0.8128 -0.1303 -0.3648
 4533SOL    HW125061   1.732   4.158   0.912  1.0986 -1.0141  0.1047
 4533SOL    HW225062   1.866   4.228   0.922 -0.4750  2.2768 -0.2800
 4534SOL     OW25063   4.141   1.721  15.929 -0.1395 -0.1547 -0.4066
 4534SOL    HW125064   4.174   1.631  15.938  1.5951  0.4854 -0.2615
 4534SOL    HW225065   4.151   1.747  16.020  0.3708  1.4032 -0.9147
 4535SOL     OW25066   1.985   1.382   6.943  0.3179 -0.4248  0.0089
 4535SOL    HW125067   1.985   1.351   7.034  2.1714 -0.7248 -0.0892
 4535SOL    HW225068   2.051   1.326   6.901  0.5285 -0.0677 -0.1388
 4536SOL     OW25069   1.279   2.100  15.176  0.0676  0.3910  0.2227
 4536SOL    HW125070   1.224   2.029  15.209  0.0481  0.1995 -0.2161
 4536SOL    HW225071   1.351   2.087  15.238 -0.0348  0.7382  0.4091
 4537SOL     OW25072   3.573   3.150   4.211 -0.5668 -0.2660 -0.0030
 4537SOL    HW125073   3.485   3.170   4.180  0.9280 -0.9487 -4.8198
 4537SOL    HW225074   3.580   3.208   4.286 -0.2614 -0.1658 -0.1072
 4538SOL     OW25075   1.532   0.128   6.518 -0.6935  0.5505  0.2852
 4538SOL    HW125076   1.465   0.074   6.476  0.2867 -0.4972  0.0771
 4538SOL    HW225077   1.594   0.141   6.446  0.5267  0.5693  1.3361
 4539SOL     OW25078   3.942   1.493   8.470 -0.0743 -0.5021  1.1051
 4539SOL    HW125079   3.857   1.505   8.429  1.5856  0.1337 -2.1664
 4539SOL    HW225080   3.916   1.434   8.541  0.3925 -1.2169  0.6889
 4540SOL     OW25081   2.280   0.636   6.360 -0.2783 -0.1116  0.3812
 4540SOL    HW125082   2.226   0.664   6.286  1.3064  0.8087 -0.4270
 4540SOL    HW225083   2.358   0.604   6.314 -1.4713 -0.2930 -1.5268
 4541SOL     OW25084   4.597   3.528   7.338  0.1459  0.1446 -0.9648
 4541SOL    HW125085   4.513   3.487   7.360  0.2855  1.5274  2.0854
 4541SOL    HW225086   4.590   3.576   7.255 -0.6722 -0.1226 -1.0492
 4542SOL     OW25087   0.918   3.369   8.173 -0.3601  0.0373 -0.0390
 4542SOL    HW125088   0.951   3.419   8.247 -0.7966 -0.3189  0.3931
 4542SOL    HW225089   0.871   3.293   8.207 -0.3287  0.5634  1.1418
 4543SOL     OW25090   0.375   1.577   7.593 -0.3660  0.3226  0.8192
 4543SOL    HW125091   0.331   1.553   7.511 -0.6625  1.9507  0.5121
 4543SOL    HW225092   0.308   1.566   7.660  0.0287 -1.0689  0.9842
 4544SOL     OW25093   4.330   4.558  10.354 -0.5316 -0.1872 -0.3989
 4544SOL    HW125094   4.251   4.598  10.318 -0.2027 -0.0172 -0.9227
 4544SOL    HW225095   4.300   4.472  10.385 -2.7862  0.2038 -1.5061
 4545SOL     OW25096   2.731   1.465   2.311 -0.5856 -0.2823  0.0814
 4545SOL    HW125097   2.684   1.541   2.277  1.9112  2.3439  2.3951
 4545SOL    HW225098   2.698   1.466   2.401  0.7419  1.7499  0.5536
 4546SOL     OW25099   0.789   0.364   2.303  0.0486  0.0246 -0.5811
 4546SOL    HW125100   0.806   0.437   2.363  0.1282 -0.8243  0.4183
 4546SOL    HW225101   0.847   0.303   2.348 -0.9784 -1.2735 -1.0307
 4547SOL     OW25102   1.210   0.222  16.567 -0.0987 -0.0079 -0.0924
 4547SOL    HW125103   1.175   0.210  16.656 -3.5175  0.2581 -1.4027
 4547SOL    HW225104   1.274   0.150  16.567  0.8040  0.8083 -2.8979
 4548SOL     OW25105   4.117   3.126  15.463 -0.6347 -0.0379 -0.0076
 4548SOL    HW125106   4.124   3.163  15.376 -0.4568 -0.8412 -0.3369
 4548SOL    HW225107   4.184   3.058  15.451 -0.5662  0.0072  0.1135
 4549SOL     OW25108   0.434   3.531   8.148  0.1962 -0.1439  0.5290
 4549SOL    HW125109   0.516   3.481   8.140 -0.2440 -0.4338 -1.9594
 4549SOL    HW225110   0.452   3.590   8.075 -0.3172  1.2136  1.4986
 4550SOL     OW25111   1.936   1.790   8.023  0.1201  0.3148  0.2542
 4550SOL    HW125112   1.897   1.856   8.081 -1.8142 -1.9852  1.5772
 4550SOL    HW225113   2.024   1.800   8.060  1.0102 -0.6605 -1.6469
 4551SOL     OW25114   2.580   4.009   4.934 -0.4772 -0.3805  0.0035
 4551SOL    HW125115   2.545   4.098   4.925 -0.5382 -0.2393  1.8046
 4551SOL    HW225116   2.603   3.988   4.843 -0.4412 -2.5986  0.5275
 4552SOL     OW25117   4.307   0.199   3.188 -0.5467  0.0416 -0.4458
 4552SOL    HW125118   4.345   0.185   3.274 -2.3215 -0.0548  0.3370
 4552SOL    HW225119   4.275   0.111   3.172  1.0388 -0.3326 -1.5582
 4553SOL     OW25120   2.255   3.005   2.933 -0.1427 -0.4902  0.6700
 4553SOL    HW125121   2.233   3.079   2.876 -0.7336 -0.7575  0.5513
 4553SOL    HW225122   2.168   2.989   2.969 -1.2801 -1.5359 -2.4924
 4554SOL     OW25123   2.386   1.442   1.287  0.3341 -0.3971  0.5235
 4554SOL    HW125124   2.463   1.415   1.236  1.4321 -0.7879  2.3990
 4554SOL    HW225125   2.410   1.426   1.378  3.2464 -1.0861 -0.3698
 4555SOL     OW25126   0.379   0.489   3.774 -0.5346  0.1572  0.2439
 4555SOL    HW125127   0.418   0.407   3.805  0.0625  0.3502 -0.0125
 4555SOL    HW225128   0.404   0.549   3.844  1.3229  0.5963 -0.8178
 4556SOL     OW25129   1.543   0.136  10.046 -0.1008 -0.3106 -0.3512
 4556SOL    HW125130   1.530   0.045  10.019  0.0085 -0.1407 -0.9722
 4556SOL    HW225131   1.508   0.183   9.971  0.1201 -1.4724 -1.1840
 4557SOL     OW25132   3.925   0.718   2.237 -0.2852 -0.4039  0.1691
 4557SOL    HW125133   4.007   0.718   2.188 -0.7102  0.5118 -0.5409
 4557SOL    HW225134   3.891   0.630   2.220 -1.0337  0.1666 -1.2696
 4558SOL     OW25135   3.589   3.295  10.759  0.2227  0.4765  0.7638
 4558SOL    HW125136   3.647   3.317  10.686 -2.7432  0.9710 -1.4270
 4558SOL    HW225137   3.532   3.224  10.729  0.8996  0.1860  0.1763
 4559SOL     OW25138   4.209   1.443   0.541  0.2891 -0.2297 -0.7829
 4559SOL    HW125139   4.126   1.403   0.515  1.5287 -0.1858 -4.7848
 4559SOL    HW225140   4.214   1.421   0.634 -4.2504  0.7046 -0.3427
 4560SOL     OW25141   2.626   3.956   7.822  0.5811  0.2293 -0.2255
 4560SOL    HW125142   2.549   3.961   7.766 -1.6949 -0.6000  2.7957
 4560SOL    HW225143   2.649   4.048   7.834  0.3168  0.5898 -2.5415
 4561SOL     OW25144   1.875   1.208   2.318 -0.4269 -0.1040 -0.0317
 4561SOL    HW125145   1.871   1.181   2.226 -1.3260 -0.1875  0.0374
 4561SOL    HW225146   1.875   1.119   2.352 -2.5311 -0.4890 -1.0793
 4562SOL     OW25147   2.314   4.378  14.551  0.3107  0.2193 -0.0255
 4562SOL    HW125148   2.401   4.376  14.591  0.5095 -0.0733 -0.4813
 4562SOL    HW225149   2.326   4.296  14.502 -1.1304  0.9112 -1.5326
 4563SOL     OW25150   2.452   0.536   3.781  0.2999  0.1067  0.9741
 4563SOL    HW125151   2.526   0.572   3.733  0.1405  0.8573  1.2790
 4563SOL    HW225152   2.459   0.595   3.857 -0.2792  1.4212  0.0079
 4564SOL     OW25153   0.714   3.953   3.898 -0.2519  0.1738 -0.1537
 4564SOL    HW125154   0.700   4.045   3.918  0.2933  0.2496 -0.1275
 4564SOL    HW225155   0.713   3.911   3.984  0.9158 -1.0574 -0.7436
 4565SOL     OW25156   2.949   3.359   3.129 -0.3199 -0.0366  0.0085
 4565SOL    HW125157   3.001   3.309   3.067 -3.4880 -3.4321  0.0627
 4565SOL    HW225158   2.878   3.386   3.071  0.3356 -1.8758 -1.6700
 4566SOL     OW25159   4.129   4.432   7.329  0.3170 -0.6528 -0.5356
 4566SOL    HW125160   4.075   4.476   7.395 -0.8953 -0.0704 -1.9289
 4566SOL    HW225161   4.215   4.431   7.371  0.0022 -0.4794  0.1251
 4567SOL     OW25162   1.116   4.634   7.631  0.4974  0.4635  0.1480
 4567SOL    HW125163   1.127   4.545   7.665  2.4980  0.3120 -0.9183
 4567SOL    HW225164   1.026   4.632   7.599  0.8642  1.5491 -0.9614
 4568SOL     OW25165   3.266   2.756   7.703 -0.1371  0.0284  0.3568
 4568SOL    HW125166   3.341   2.748   7.762  1.0501  1.0413 -0.9943
 4568SOL    HW225167   3.283   2.717   7.618 -0.3960  1.4674 -0.3555
 4569SOL     OW25168   1.229   2.270  10.698  0.7417 -0.4338 -0.1093
 4569SOL    HW125169   1.255   2.353  10.736 -0.2308 -0.6737  1.1004
 4569SOL    HW225170   1.162   2.240  10.760  1.7180 -0.0373  1.1223
 4570SOL     OW25171   0.225   1.528   7.826 -0.2213 -0.3027 -0.4407
 4570SOL    HW125172   0.206   1.592   7.894 -1.5758 -0.7167 -0.4384
 4570SOL    HW225173   0.170   1.454   7.852 -1.5006  1.2980  1.4387
 4571SOL     OW25174   0.531   4.009   8.573 -0.1709  0.6661  0.3990
 4571SOL    HW125175   0.565   3.925   8.604  0.1054  1.3319  1.8861
 4571SOL    HW225176   0.513   4.002   8.479  0.4464  2.9375  0.1301
 4572SOL     OW25177   0.980   2.467  11.792  0.3325 -0.7620  0.1427
 4572SOL    HW125178   0.909   2.508  11.842 -1.3926 -0.9223 -2.1389
 4572SOL    HW225179   1.042   2.534  11.763  0.4923  0.2564  2.8434
 4573SOL     OW25180   0.609   2.239   3.275  0.2426 -0.0767  0.0437
 4573SOL    HW125181   0.581   2.310   3.218 -1.6115 -0.2645  0.7281
 4573SOL    HW225182   0.604   2.282   3.360  3.4520 -0.5210  0.4722
 4574SOL     OW25183   1.615   1.062   7.612 -0.6074 -0.3284  0.4190
 4574SOL    HW125184   1.607   1.147   7.656 -0.7434 -0.2362  0.2176
 4574SOL    HW225185   1.525   1.032   7.599 -0.1117 -2.1019  1.1238
 4575SOL     OW25186   4.584   0.507   9.598 -0.5007 -0.2636  0.1189
 4575SOL    HW125187   4.653   0.515   9.663 -1.6857  0.4826  1.2790
 4575SOL    HW225188   4.512   0.483   9.657  1.5096 -1.4165  2.0739
 4576SOL     OW25189   2.820   0.906   1.862 -0.5353  0.0533  0.4463
 4576SOL    HW125190   2.786   0.995   1.854 -0.7464  0.0611  1.3814
 4576SOL    HW225191   2.831   0.885   1.770  0.4416 -0.0999  0.5941
 4577SOL     OW25192   1.994   3.426   9.895  0.1599  0.7051  0.3797
 4577SOL    HW125193   2.049   3.385   9.962 -0.2552  0.5693  0.6346
 4577SOL    HW225194   1.913   3.420   9.945 -1.1470 -0.3399 -1.8502
 4578SOL     OW25195   4.625   3.978   7.156  0.5156  0.2414 -0.3270
 4578SOL    HW125196   4.593   4.046   7.096 -2.3464 -0.1909  0.7057
 4578SOL    HW225197   4.686   3.931   7.099 -0.5487  0.2107 -1.4641
 4579SOL     OW25198   1.832   3.598   6.207 -0.4339  0.3081  0.3557
 4579SOL    HW125199   1.845   3.693   6.210  2.2390 -0.0032 -1.5231
 4579SOL    HW225200   1.784   3.571   6.285  1.3172 -1.9930  0.6445
 4580SOL     OW25201   2.414   2.239   5.033  0.6952  0.1609 -0.6777
 4580SOL    HW125202   2.414   2.332   5.008  2.1444  0.2948 -0.1893
 4580SOL    HW225203   2.361   2.188   4.971  1.6299  1.2372 -2.3462
 4581SOL     OW25204   1.188   2.015   2.999 -0.0671 -0.0026  0.4380
 4581SOL    HW125205   1.158   1.985   2.914  1.2848  3.0370 -1.1036
 4581SOL    HW225206   1.223   2.104   2.988 -0.1996 -0.2914 -2.1034
 4582SOL     OW25207   1.746   0.579   5.249  0.0630  0.1510 -0.2189
 4582SOL    HW125208   1.835   0.582   5.215 -0.1081 -2.3247 -0.8680
 4582SOL    HW225209   1.708   0.662   5.218 -1.2799 -0.1682  0.5849
 4583SOL     OW25210   1.730   2.563   5.172 -1.1096 -0.1874  0.4286
 4583SOL    HW125211   1.693   2.492   5.224  0.5628  0.0103  1.9117
 4583SOL    HW225212   1.732   2.512   5.092  1.9979 -1.8516  1.5754
 4584SOL     OW25213   4.363   3.625   1.561  0.0820 -0.4003  0.2728
 4584SOL    HW125214   4.307   3.702   1.552  0.4373  0.0005  1.4868
 4584SOL    HW225215   4.451   3.652   1.533  0.5970 -0.1441  2.1079
 4585SOL     OW25216   3.500   3.311  14.860  0.1737 -0.4809  0.0392
 4585SOL    HW125217   3.566   3.331  14.793  0.3394 -2.3022 -0.3604
 4585SOL    HW225218   3.428   3.364  14.826 -1.1864 -1.2521  1.7186
 4586SOL     OW25219   1.181   2.629   0.617  0.3727 -0.8920  0.3300
 4586SOL    HW125220   1.251   2.661   0.560  0.8231 -0.5161  1.0807
 4586SOL    HW225221   1.191   2.535   0.604  0.9366 -0.7701 -0.0904
 4587SOL     OW25222   2.488   2.545  14.827  0.3210 -0.6420 -0.0301
 4587SOL    HW125223   2.406   2.496  14.824 -0.2538  0.1661  3.0310
 4587SOL    HW225224   2.456   2.629  14.861 -1.2997 -0.4354 -2.0351
 4588SOL     OW25225   0.562   1.954   5.144  0.4134  0.0815 -0.0901
 4588SOL    HW125226   0.600   1.999   5.219  0.4487 -2.3670  1.3511
 4588SOL    HW225227   0.475   1.952   5.185  0.3306  1.9986 -0.1611
 4589SOL     OW25228   0.243   0.987   7.605 -0.5725  0.2080 -0.2526
 4589SOL    HW125229   0.186   1.035   7.666  2.1295 -0.1123  2.5593
 4589SOL    HW225230   0.174   0.931   7.572 -0.9325 -1.0892  2.6909
 4590SOL     OW25231   1.656   3.942   2.596 -0.0644  0.4814  1.0762
 4590SOL    HW125232   1.673   3.873   2.660 -2.4652 -0.4485  0.6887
 4590SOL    HW225233   1.745   3.938   2.562 -1.2592  1.9769 -2.2795
 4591SOL     OW25234   0.410   1.489   9.297  0.4047 -0.8140 -0.8226
 4591SOL    HW125235   0.434   1.580   9.317  0.9015 -0.8767 -1.1252
 4591SOL    HW225236   0.474   1.456   9.235  2.2151  0.5205  0.3348
 4592SOL     OW25237   2.229   4.199  13.902  0.2643  0.1081 -0.2727
 4592SOL    HW125238   2.225   4.295  13.908 -1.5738 -0.0764  1.3262
 4592SOL    HW225239   2.161   4.181  13.967 -0.2260 -2.4855 -1.5422
 4593SOL     OW25240   1.585   4.356   9.526  0.0946 -0.5107  0.2874
 4593SOL    HW125241   1.494   4.374   9.501 -0.0342 -0.7838  0.5493
 4593SOL    HW225242   1.604   4.435   9.576 -0.6899  0.4620 -0.9449
 4594SOL     OW25243   1.192   3.983   8.619  0.3447 -0.0072 -0.3884
 4594SOL    HW125244   1.280   3.945   8.621 -0.8659 -2.8069  0.5958
 4594SOL    HW225245   1.181   4.010   8.710  1.5702 -0.1122 -0.2032
 4595SOL     OW25246   3.374   2.761   2.681  0.0491 -0.2528  0.7854
 4595SOL    HW125247   3.462   2.794   2.701 -1.5667  2.2114  3.7032
 4595SOL    HW225248   3.386   2.667   2.668 -0.1747  0.0610 -1.7228
 4596SOL     OW25249   0.595   1.188   4.498 -0.5085 -0.1232  0.0925
 4596SOL    HW125250   0.633   1.139   4.571 -0.1273 -0.5947 -0.4147
 4596SOL    HW225251   0.667   1.172   4.436  1.7393  1.4379  2.2795
 4597SOL     OW25252   4.631   0.001   7.067 -0.0082  0.9089  0.1877
 4597SOL    HW125253   4.543   0.007   7.105 -0.3219 -0.5649 -0.2962
 4597SOL    HW225254   4.618   0.001   6.972 -1.6661  0.8283  0.4004
 4598SOL     OW25255   3.827   3.150  14.130 -0.1551  0.3155 -0.5052
 4598SOL    HW125256   3.769   3.221  14.104  0.1194  0.3337 -1.0627
 4598SOL    HW225257   3.770   3.074  14.140  1.3541 -1.1866 -3.2629
 4599SOL     OW25258   4.371   4.651   8.038  0.1338  0.0488 -0.2251
 4599SOL    HW125259   4.309   4.591   7.996  3.2691 -3.7967  0.6488
 4599SOL    HW225260   4.378   4.617   8.127 -1.1964 -3.0757 -1.3098
 4600SOL     OW25261   0.055   0.151   7.250  0.5624 -0.0762 -0.2732
 4600SOL    HW125262   4.721   0.225   7.226 -0.3561 -0.7930 -0.3096
 4600SOL    HW225263   0.061   0.108   7.165  0.1748 -0.7213  0.0287
 4601SOL     OW25264   4.494   3.361   2.219  0.1459 -0.3661  0.3775
 4601SOL    HW125265   4.435   3.390   2.289  2.4034 -2.1522  3.0382
 4601SOL    HW225266   4.462   3.273   2.201 -0.0515 -0.1744 -0.1998
 4602SOL     OW25267   0.810   2.015   7.147 -0.7275  0.1272  0.2332
 4602SOL    HW125268   0.751   1.956   7.193 -2.7079  2.0905  0.1856
 4602SOL    HW225269   0.856   2.062   7.217 -0.2088  2.1108 -1.4142
 4603SOL     OW25270   4.520   1.445   5.546 -0.4949 -0.4280 -0.2710
 4603SOL    HW125271   4.481   1.383   5.484  3.5681 -2.3484 -0.9024
 4603SOL    HW225272   4.508   1.529   5.502  0.2543  0.2896  0.9031
 4604SOL     OW25273   2.205   1.229   3.536  0.0095 -0.1348  0.3709
 4604SOL    HW125274   2.186   1.310   3.584 -1.6721  0.8317 -1.9157
 4604SOL    HW225275   2.154   1.229   3.455 -0.6764  3.4193  0.8074
 4605SOL     OW25276   4.626   3.670   6.321  0.5072 -0.2385 -0.0146
 4605SOL    HW125277   4.540   3.669   6.279  0.1755 -2.1997  0.7118
 4605SOL    HW225278   4.676   3.704   6.247  3.3359 -0.0010  1.9728
 4606SOL     OW25279   2.898   2.789   4.158  0.2552 -0.6013  0.7763
 4606SOL    HW125280   2.966   2.724   4.172 -1.3896 -1.9706  2.3512
 4606SOL    HW225281   2.882   2.785   4.064 -1.3819 -1.2727  1.0897
 4607SOL     OW25282   2.340   4.544   5.344 -0.1729  0.0428 -0.1931
 4607SOL    HW125283   2.260   4.525   5.294  0.7726  2.1113 -2.4738
 4607SOL    HW225284   2.305   4.590   5.420  1.9664 -0.4421  1.0657
 4608SOL     OW25285   0.797   1.922   4.986  0.5010  0.2881 -0.3897
 4608SOL    HW125286   0.719   1.905   5.040  1.0941  1.2315  0.7647
 4608SOL    HW225287   0.871   1.914   5.046  0.7538  2.6256 -0.3754
 4609SOL     OW25288   4.673   0.175  12.841 -0.4371  0.5520  0.1377
 4609SOL    HW125289   4.605   0.124  12.886  1.5303 -1.0539  1.2993
 4609SOL    HW225290   4.633   0.260  12.859  0.6498  1.1071 -0.0435
 4610SOL     OW25291   1.861   4.487   4.049 -0.0342  0.0546 -0.6372
 4610SOL    HW125292   1.886   4.400   4.080 -0.3622  0.8522  1.8372
 4610SOL    HW225293   1.930   4.502   3.985  1.7160  0.0606  1.2608
 4611SOL     OW25294   4.708   1.103   4.117 -0.0368 -0.1151  0.1118
 4611SOL    HW125295   0.034   1.159   4.177 -0.1515 -1.0101  1.0437
 4611SOL    HW225296   4.623   1.146   4.125  0.1678 -0.1530  2.4686
 4612SOL     OW25297   0.450   4.314   3.058  0.0691 -0.0234  0.8093
 4612SOL    HW125298   0.532   4.267   3.068 -1.4435 -3.5061 -3.0656
 4612SOL    HW225299   0.453   4.328   2.964  2.9397  1.4368  1.1368
 4613SOL     OW25300   2.968   1.946   7.845 -0.5224 -0.2313  0.1128
 4613SOL    HW125301   3.004   1.927   7.931 -0.0815 -2.9035 -0.6666
 4613SOL    HW225302   2.876   1.918   7.850 -0.0615 -2.3048 -2.9578
 4614SOL     OW25303   2.831   3.608  15.380 -0.2292 -1.2047  0.6405
 4614SOL    HW125304   2.791   3.641  15.300 -0.3598 -0.6388  0.9383
 4614SOL    HW225305   2.894   3.674  15.412  0.4551 -0.7481 -1.6222
 4615SOL     OW25306   3.622   4.664  11.754  0.4079 -0.1293  0.6475
 4615SOL    HW125307   3.581   4.581  11.729 -0.5862 -0.6445  3.9780
 4615SOL    HW225308   3.545   4.721  11.757  0.1140 -0.5773  1.7300
 4616SOL     OW25309   4.325   2.725   8.269  0.1428 -0.6773 -0.3525
 4616SOL    HW125310   4.243   2.681   8.291 -0.4797  1.3946  1.4189
 4616SOL    HW225311   4.371   2.734   8.352  1.5911 -1.0715 -1.1076
 4617SOL     OW25312   3.097   2.506  10.898 -0.0546  0.1972 -0.3654
 4617SOL    HW125313   3.180   2.528  10.942  1.0405 -0.9572 -1.8293
 4617SOL    HW225314   3.040   2.569  10.942 -0.9256 -0.8107 -0.0615
 4618SOL     OW25315   4.259   0.591  11.034 -0.0503  0.0105 -0.4090
 4618SOL    HW125316   4.240   0.685  11.033  3.2717  0.6874 -0.0700
 4618SOL    HW225317   4.176   0.561  11.071 -0.9427  4.3262  1.1157
 4619SOL     OW25318   2.692   1.700  13.032 -0.6120  0.0861  0.0764
 4619SOL    HW125319   2.634   1.767  13.069  0.6957  0.8522  0.7268
 4619SOL    HW225320   2.631   1.629  13.054 -0.4886 -0.8421 -2.6298
 4620SOL     OW25321   3.017   0.301  10.549  0.2338 -0.6232 -0.2593
 4620SOL    HW125322   3.098   0.250  10.550 -0.1465 -1.1965  0.9425
 4620SOL    HW225323   2.959   0.227  10.568  0.9783 -1.4954 -1.4206
 4621SOL     OW25324   4.070   0.818   9.847 -0.3954 -0.0830 -0.4355
 4621SOL    HW125325   4.085   0.846   9.756 -0.1517 -0.2193 -0.4369
 4621SOL    HW225326   4.157   0.804   9.883 -1.0410 -1.2243  0.6859
 4622SOL     OW25327   2.865   3.699   4.804  0.0104 -0.3341 -0.2249
 4622SOL    HW125328   2.898   3.618   4.766 -0.9809  0.0708 -1.9582
 4622SOL    HW225329   2.772   3.693   4.780  0.1154 -1.1040 -0.4283
 4623SOL     OW25330   3.172   3.864   2.090  0.0387  0.6067  0.1248
 4623SOL    HW125331   3.173   3.814   2.008  3.4011 -1.6161  1.5294
 4623SOL    HW225332   3.093   3.841   2.139  0.6449 -1.9590 -0.1281
 4624SOL     OW25333   4.440   4.206  14.238  0.1224 -0.0163 -0.4000
 4624SOL    HW125334   4.503   4.155  14.289 -1.2508 -0.4895  0.8018
 4624SOL    HW225335   4.500   4.281  14.236 -2.2893  1.9179 -0.6417
 4625SOL     OW25336   0.387   1.256   6.786 -0.3041 -0.1088  0.1062
 4625SOL    HW125337   0.324   1.317   6.747  0.1872  0.1604 -0.2607
 4625SOL    HW225338   0.375   1.185   6.724  0.7859  0.7142 -1.0469
 4626SOL     OW25339   4.073   0.630   6.876 -0.1500 -0.3297  0.1954
 4626SOL    HW125340   4.070   0.643   6.781 -1.1421  1.0530  0.4169
 4626SOL    HW225341   3.991   0.672   6.902 -1.2248 -2.7066  0.6922
 4627SOL     OW25342   0.603   0.297   8.546  0.0419  0.5594 -0.2617
 4627SOL    HW125343   0.522   0.348   8.550 -0.7582 -0.7842  0.7482
 4627SOL    HW225344   0.661   0.373   8.555  0.7848 -0.1483  0.8357
 4628SOL     OW25345   2.675   0.819   0.770  0.2202  0.1162  0.4803
 4628SOL    HW125346   2.736   0.768   0.823  1.2854  0.4970 -0.3771
 4628SOL    HW225347   2.604   0.832   0.832  0.9614  0.2098  1.3079
 4629SOL     OW25348   2.797   3.971   5.855  0.1155  0.0480  0.3991
 4629SOL    HW125349   2.707   3.938   5.850  0.5705 -1.0201 -0.7495
 4629SOL    HW225350   2.814   3.981   5.761  1.3453  2.4315  0.8723
 4630SOL     OW25351   3.044   1.926  15.909  0.9134 -0.3121 -0.4846
 4630SOL    HW125352   3.041   1.832  15.926 -1.2497 -0.2575 -0.6662
 4630SOL    HW225353   2.973   1.953  15.967 -1.2587 -0.6608 -3.0256
 4631SOL     OW25354   2.712   2.679   8.612  0.1069  0.0338  0.0578
 4631SOL    HW125355   2.800   2.642   8.619  0.4667  1.1584  1.6134
 4631SOL    HW225356   2.683   2.682   8.703  0.3617  0.9140  0.1071
 4632SOL     OW25357   3.209   4.555   6.700  0.7266  0.9035 -0.1659
 4632SOL    HW125358   3.232   4.514   6.784 -1.0464 -0.0872 -0.1655
 4632SOL    HW225359   3.164   4.484   6.655  1.1747 -0.7516  1.9760
 4633SOL     OW25360   1.985   3.971   5.801 -0.1397 -0.0243 -0.2658
 4633SOL    HW125361   2.036   3.965   5.721 -2.1218  0.0744 -1.5317
 4633SOL    HW225362   2.053   3.962   5.869 -1.1836 -1.2759  0.5944
 4634SOL     OW25363   0.023   3.950  15.853  0.7432 -0.1269 -0.1255
 4634SOL    HW125364   4.676   3.975  15.792  2.0468 -0.7477 -1.8176
 4634SOL    HW225365   0.089   3.924  15.789  1.5541  2.9677 -0.5312
 4635SOL     OW25366   3.646   2.498   0.389 -0.2833  0.3175 -0.1825
 4635SOL    HW125367   3.742   2.504   0.386 -0.2272 -0.9415 -0.8716
 4635SOL    HW225368   3.617   2.415   0.352 -1.6832  1.1359 -0.9044
 4636SOL     OW25369   0.981   2.852   6.871 -0.2422  0.5636 -0.1500
 4636SOL    HW125370   0.986   2.947   6.881 -0.0616  0.6312 -0.9094
 4636SOL    HW225371   0.961   2.824   6.960 -2.0933 -0.5511 -0.9216
 4637SOL     OW25372   0.991   3.348   6.220 -0.4211 -0.0067 -0.2541
 4637SOL    HW125373   0.982   3.265   6.266 -1.4913  0.4013  0.2734
 4637SOL    HW225374   1.002   3.316   6.130  1.0726  0.1703 -0.1307
 4638SOL     OW25375   2.927   3.754   2.173 -0.1286  0.1416 -0.1089
 4638SOL    HW125376   2.835   3.748   2.200  0.5851  0.2943  2.3556
 4638SOL    HW225377   2.944   3.676   2.122 -0.7380 -0.7445  1.0448
 4639SOL     OW25378   4.511   3.154  11.564  0.3891  0.4287 -0.9028
 4639SOL    HW125379   4.451   3.180  11.494 -2.0304 -1.3333  0.4975
 4639SOL    HW225380   4.474   3.201  11.639 -1.0580 -0.6755 -0.9294
 4640SOL     OW25381   1.719   0.433   5.908  0.0051 -0.0087 -0.0254
 4640SOL    HW125382   1.648   0.371   5.892  1.6122 -1.4524 -1.5236
 4640SOL    HW225383   1.762   0.433   5.822 -1.9109 -1.2623 -1.0012
 4641SOL     OW25384   4.124   1.299   2.402  0.0766  0.1210 -0.8028
 4641SOL    HW125385   4.219   1.300   2.393  0.1649 -1.3706 -0.0378
 4641SOL    HW225386   4.099   1.391   2.413 -1.0591 -0.2698 -0.1947
 4642SOL     OW25387   1.323   2.297   4.211  0.3819  1.2686 -0.2207
 4642SOL    HW125388   1.319   2.392   4.198  0.7152  0.8064 -3.7621
 4642SOL    HW225389   1.263   2.280   4.283  2.0451  2.3222  1.4266
 4643SOL     OW25390   0.677   1.647   0.292  0.1946  0.6247 -0.0741
 4643SOL    HW125391   0.606   1.668   0.233 -0.5133  0.7995  0.8360
 4643SOL    HW225392   0.750   1.650   0.231 -0.5558 -0.3844 -1.0239
 4644SOL     OW25393   2.810   4.201   6.707  0.1794 -0.3093  0.0140
 4644SOL    HW125394   2.807   4.296   6.700 -1.6281 -0.2792  1.3117
 4644SOL    HW225395   2.730   4.187   6.757  0.7737  1.9661  1.5655
 4645SOL     OW25396   2.003   0.309  12.898 -0.2085  0.0328 -0.1032
 4645SOL    HW125397   1.965   0.385  12.854  2.3955  0.1297 -2.2060
 4645SOL    HW225398   2.088   0.353  12.910  0.7113 -1.8366  0.1972
 4646SOL     OW25399   2.647   2.620   0.344 -0.3127  0.0349  0.4105
 4646SOL    HW125400   2.591   2.547   0.321 -0.6237 -0.0740  1.4954
 4646SOL    HW225401   2.727   2.593   0.300 -0.2389 -1.6744  1.5935
 4647SOL     OW25402   1.915   0.053  10.278 -0.0539  0.3953  0.2934
 4647SOL    HW125403   1.902   0.134  10.228  1.4836 -1.4248 -3.0325
 4647SOL    HW225404   2.010   0.045  10.265  0.0701  0.0309  1.4473
 4648SOL     OW25405   0.229   0.251  12.942  0.1091  0.3139  0.1536
 4648SOL    HW125406   0.241   0.189  12.870 -2.0656  0.3317 -0.2037
 4648SOL    HW225407   0.143   0.228  12.977 -0.2960  0.3400 -0.8217
 4649SOL     OW25408   0.891   2.269   5.224 -0.0404 -0.0657  0.3146
 4649SOL    HW125409   0.855   2.350   5.189 -0.0303  0.1368  0.7739
 4649SOL    HW225410   0.964   2.263   5.163 -1.3711 -0.3538 -1.2367
 4650SOL     OW25411   4.561   4.083   2.290  0.1153 -0.0683  0.3989
 4650SOL    HW125412   4.605   4.043   2.364 -0.1463 -0.0319  0.5719
 4650SOL    HW225413   4.480   4.105   2.336 -1.5852  0.6965 -2.8886
 4651SOL     OW25414   0.717   0.287   3.126  0.0077  0.3843  0.2714
 4651SOL    HW125415   0.773   0.327   3.060  0.0201 -3.2771 -1.9529
 4651SOL    HW225416   0.767   0.206   3.114 -0.3073 -0.1396  2.4590
 4652SOL     OW25417   0.251   3.199   2.659 -0.5679 -0.3065 -0.8410
 4652SOL    HW125418   0.272   3.111   2.629 -0.0137 -0.7825  1.0009
 4652SOL    HW225419   0.322   3.201   2.722 -0.2294 -1.8509 -1.1723
 4653SOL     OW25420   1.967   4.255  13.659 -0.0131 -0.5066 -0.5236
 4653SOL    HW125421   2.051   4.299  13.673  0.7466 -1.6871 -1.3574
 4653SOL    HW225422   1.991   4.169  13.695  2.0977  0.2179 -0.1766
 4654SOL     OW25423   4.018   1.618   8.027  0.3357 -0.0573  0.3605
 4654SOL    HW125424   3.993   1.668   7.949  0.2273  1.4563  1.3706
 4654SOL    HW225425   4.025   1.526   8.001  0.7389  0.3029 -0.8065
 4655SOL     OW25426   0.261   0.443  11.046 -0.3369 -0.2946  0.7171
 4655SOL    HW125427   0.235   0.534  11.053 -0.3556 -0.2113 -0.4018
 4655SOL    HW225428   0.183   0.390  11.063  0.3280 -0.8973  1.8994
 4656SOL     OW25429   1.445   0.274   1.089  0.8952  0.2463  0.1884
 4656SOL    HW125430   1.362   0.271   1.137  2.2901 -2.5662  2.4783
 4656SOL    HW225431   1.445   0.194   1.036  0.8838  0.8572 -0.7311
 4657SOL     OW25432   4.353   3.214  11.355 -0.2181 -0.2188 -0.2823
 4657SOL    HW125433   4.264   3.179  11.352  1.0765 -3.7749  2.5388
 4657SOL    HW225434   4.390   3.177  11.275  1.2495  1.2120 -0.2547
 4658SOL     OW25435   0.994   2.458   5.776 -0.2733  0.2533  0.2634
 4658SOL    HW125436   0.967   2.489   5.862 -1.0149 -0.4116  0.2716
 4658SOL    HW225437   1.071   2.408   5.803 -0.7724 -0.1254  0.9743
 4659SOL     OW25438   3.230   3.512   9.272  0.3343 -0.1017 -0.1730
 4659SOL    HW125439   3.317   3.475   9.285  0.9806  1.3083 -0.5684
 4659SOL    HW225440   3.210   3.513   9.365  0.0826 -2.0521 -0.1918
 4660SOL     OW25441   3.506   1.354   9.053 -0.7301 -0.4741 -0.2837
 4660SOL    HW125442   3.486   1.320   9.140  3.0741 -2.0259 -0.0151
 4660SOL    HW225443   3.578   1.296   9.027 -1.6534 -0.6611 -2.4070
 4661SOL     OW25444   3.321   2.597   1.158  0.3531 -0.6070  0.0126
 4661SOL    HW125445   3.277   2.648   1.226 -0.0278  2.4684 -2.5759
 4661SOL    HW225446   3.243   2.546   1.135  0.7247 -0.9134 -0.5744
 4662SOL     OW25447   0.526   3.894  10.625 -0.1865 -0.5874 -0.2697
 4662SOL    HW125448   0.506   3.956  10.695  1.0382  0.0552 -0.5027
 4662SOL    HW225449   0.522   3.811  10.673  0.6805 -0.3470  0.2102
 4663SOL     OW25450   0.729   2.443  14.136 -0.1496  0.2939  0.1523
 4663SOL    HW125451   0.654   2.455  14.194 -0.1270  0.1597  0.2116
 4663SOL    HW225452   0.732   2.347  14.133  1.1347  0.3460 -0.2974
 4664SOL     OW25453   1.063   0.711  17.575 -0.0488  0.1106  0.1786
 4664SOL    HW125454   1.108   0.735  17.494 -0.9999  0.8045 -0.1422
 4664SOL    HW225455   1.101   0.628  17.603 -1.8765 -0.3076  1.4259
 4665SOL     OW25456   1.457   1.514   7.626 -0.1859  0.2051 -0.6176
 4665SOL    HW125457   1.405   1.594   7.615  0.3603  0.6973  0.3476
 4665SOL    HW225458   1.412   1.455   7.565  0.5125 -1.1112  0.1325
 4666SOL     OW25459   0.160   1.958   4.221 -0.1079 -0.0196 -0.0904
 4666SOL    HW125460   0.141   1.941   4.128  0.0036 -1.9657  0.2316
 4666SOL    HW225461   0.081   1.922   4.261  1.2986 -2.4390  0.5005
 4667SOL     OW25462   4.691   2.118   3.709  0.2882 -0.2795  0.4165
 4667SOL    HW125463   4.631   2.134   3.636  2.7815  0.8371 -1.3663
 4667SOL    HW225464   0.000   2.206   3.728 -2.4977  0.8489 -0.1953
 4668SOL     OW25465   2.647   1.989   6.157 -0.4009  0.1133 -0.0682
 4668SOL    HW125466   2.564   2.033   6.139 -3.1033 -3.7779  2.9550
 4668SOL    HW225467   2.624   1.906   6.199  2.6004 -0.6649  0.0920
 4669SOL     OW25468   0.623   2.325   0.706 -0.0422  0.2668  0.3634
 4669SOL    HW125469   0.686   2.378   0.656  2.6421 -1.6578  1.7238
 4669SOL    HW225470   0.678   2.270   0.761  0.2381 -1.3045 -1.5045
 4670SOL     OW25471   2.213   3.189   7.641 -0.1783  0.2849 -0.4822
 4670SOL    HW125472   2.262   3.221   7.566  2.1532 -0.1888  0.8353
 4670SOL    HW225473   2.284   3.164   7.701  0.1209  0.3290 -0.8209
 4671SOL     OW25474   3.686   0.065   2.972  0.2993 -0.2290 -0.3091
 4671SOL    HW125475   3.592   0.058   2.952  0.1680  1.6973 -0.4065
 4671SOL    HW225476   3.710   4.700   2.942 -0.0331  0.1386 -1.6493
 4672SOL     OW25477   1.874   1.032   7.758  0.0887 -0.4537  0.4973
 4672SOL    HW125478   1.779   1.027   7.766 -0.2027  1.4706 -1.6004
 4672SOL    HW225479   1.869   1.028   7.662  0.4060 -0.1498  0.4674
 4673SOL     OW25480   3.536   1.754  10.462 -0.0440  0.2567 -0.2181
 4673SOL    HW125481   3.615   1.722  10.420  0.3313  2.1524 -0.9468
 4673SOL    HW225482   3.484   1.773  10.384 -0.7483 -2.2029 -0.3424
 4674SOL     OW25483   3.296   2.252   4.685  1.0132  0.3190  0.2038
 4674SOL    HW125484   3.342   2.318   4.737 -0.2809  1.2942  0.0903
 4674SOL    HW225485   3.326   2.172   4.729 -1.0620 -1.5244 -1.6867
 4675SOL     OW25486   3.841   0.100   8.357 -0.6160  0.6706 -0.2400
 4675SOL    HW125487   3.798   0.154   8.291 -0.1524  1.2940 -0.0321
 4675SOL    HW225488   3.909   0.162   8.386  1.6905 -1.9199 -0.1461
 4676SOL     OW25489   1.705   3.884  14.215 -0.1573 -0.2341  0.1465
 4676SOL    HW125490   1.703   3.962  14.159 -0.4755  0.2670  0.8649
 4676SOL    HW225491   1.718   3.920  14.302 -0.0471 -0.2376  0.1316
 4677SOL     OW25492   0.897   3.359   8.598  0.1066 -1.3710 -0.0575
 4677SOL    HW125493   0.884   3.451   8.574 -0.8269 -1.7283 -0.8734
 4677SOL    HW225494   0.825   3.316   8.553  0.3340  0.5118 -2.2350
 4678SOL     OW25495   3.632   1.589   1.836 -0.5984 -0.0802 -0.1515
 4678SOL    HW125496   3.582   1.521   1.882  3.0690 -2.3394  0.5223
 4678SOL    HW225497   3.666   1.548   1.757 -1.1615  1.6926 -1.2965
 4679SOL     OW25498   2.485   2.347   6.458 -0.0042  0.8135 -0.1056
 4679SOL    HW125499   2.542   2.319   6.530 -0.3346 -0.9661 -0.5195
 4679SOL    HW225500   2.437   2.266   6.439  1.7851  0.0764 -1.4163
 4680SOL     OW25501   3.333   0.694  16.875 -0.1503  0.0958 -0.2617
 4680SOL    HW125502   3.282   0.670  16.952  2.0990 -4.3165 -0.1478
 4680SOL    HW225503   3.424   0.672  16.897 -0.3314 -0.7073 -0.3207
 4681SOL     OW25504   3.009   0.937   3.095  0.1525  0.0109  0.1576
 4681SOL    HW125505   3.036   0.904   3.180  2.4430  0.1640 -0.5200
 4681SOL    HW225506   3.095   0.939   3.054  1.4936  1.4177  3.0326
 4682SOL     OW25507   1.716   3.240   5.040 -0.3814  0.2913  0.6004
 4682SOL    HW125508   1.749   3.290   4.965  1.3396 -0.1608  1.0588
 4682SOL    HW225509   1.764   3.279   5.113  0.5215  2.1044 -0.9729
 4683SOL     OW25510   3.307   2.183   0.574 -0.3601  0.0146  0.6076
 4683SOL    HW125511   3.381   2.147   0.524 -0.1809 -0.2740  1.0791
 4683SOL    HW225512   3.334   2.275   0.572  0.6729 -0.2707  1.8488
 4684SOL     OW25513   0.564   0.651   9.281 -0.3107  0.3243 -0.3601
 4684SOL    HW125514   0.588   0.560   9.266 -2.1206 -0.1079 -0.6875
 4684SOL    HW225515   0.506   0.643   9.357 -2.2380  0.4377 -1.8073
 4685SOL     OW25516   1.753   3.559   4.980 -0.6253 -0.8229 -0.2702
 4685SOL    HW125517   1.704   3.640   4.989  0.4444 -0.1830 -0.2389
 4685SOL    HW225518   1.761   3.545   5.075  0.4178  0.0291 -0.2248
 4686SOL     OW25519   1.670   1.248   8.766  0.1320 -0.2354 -0.1304
 4686SOL    HW125520   1.741   1.200   8.808 -0.6741 -0.2681  1.2021
 4686SOL    HW225521   1.658   1.305   8.842  1.7523  0.0615 -0.1028
 4687SOL     OW25522   2.975   1.291  12.625  0.3511  0.4988 -0.1083
 4687SOL    HW125523   3.045   1.297  12.560 -0.7583 -1.8605 -1.5309
 4687SOL    HW225524   2.930   1.218  12.582 -1.7952  2.0634 -0.5153
 4688SOL     OW25525   4.324   4.170   4.607  0.6669  0.4463  0.3138
 4688SOL    HW125526   4.331   4.100   4.672 -2.3166 -0.3443 -0.2216
 4688SOL    HW225527   4.229   4.173   4.598  0.5770 -2.4070  0.1745
 4689SOL     OW25528   1.779   0.328   9.735  0.0978  0.1509  0.6721
 4689SOL    HW125529   1.772   0.413   9.778  1.4252 -0.6259  2.4719
 4689SOL    HW225530   1.701   0.327   9.680  1.1438 -1.5014 -0.7654
 4690SOL     OW25531   0.577   3.233  15.289  0.5821  0.2415  0.2038
 4690SOL    HW125532   0.629   3.294  15.340 -1.4628  0.5352  1.9459
 4690SOL    HW225533   0.596   3.144  15.320  0.1333  0.7205  1.8309
 4691SOL     OW25534   2.610   4.172  10.195  0.2398  0.1771  0.0210
 4691SOL    HW125535   2.673   4.234  10.232  0.5713  0.7299 -1.4680
 4691SOL    HW225536   2.656   4.093  10.165 -1.8230 -0.9185 -0.2924
 4692SOL     OW25537   2.916   0.749  10.987  0.1568 -0.4612 -0.3771
 4692SOL    HW125538   2.963   0.714  10.911  2.0123 -0.0959  0.5859
 4692SOL    HW225539   2.857   0.807  10.939  0.9862 -0.5179 -1.4676
 4693SOL     OW25540   1.262   0.845  15.104 -0.9233 -0.5850  0.1737
 4693SOL    HW125541   1.235   0.794  15.180 -0.1754 -0.9719  0.1755
 4693SOL    HW225542   1.344   0.805  15.076 -0.9690 -0.0301 -0.7435
 4694SOL     OW25543   0.354   1.200   1.047  0.0317  0.0596  0.4993
 4694SOL    HW125544   0.374   1.135   1.114 -0.0387  1.9517  2.3513
 4694SOL    HW225545   0.401   1.168   0.970 -1.7452 -0.2623 -0.4717
 4695SOL     OW25546   0.036   1.374   5.642  0.6471  0.4916 -0.4190
 4695SOL    HW125547   4.679   1.405   5.597 -0.3120 -0.6005  0.5196
 4695SOL    HW225548   0.005   1.285   5.654  3.3307 -0.2604  0.9646
 4696SOL     OW25549   2.385   0.811   0.322 -0.4490  0.3962 -0.0640
 4696SOL    HW125550   2.424   0.760   0.393  1.3422 -0.9055 -1.9907
 4696SOL    HW225551   2.316   0.859   0.369 -1.0716 -0.3230 -0.2479
 4697SOL     OW25552   2.840   3.041   4.130 -0.1158  0.0371 -0.3961
 4697SOL    HW125553   2.850   2.947   4.144  2.5940  0.6454  1.6954
 4697SOL    HW225554   2.860   3.044   4.036  0.2093  1.0383 -0.2975
 4698SOL     OW25555   1.324   4.430   9.447 -0.1735 -0.7313  0.2174
 4698SOL    HW125556   1.279   4.364   9.395 -0.8950  0.4273 -0.6550
 4698SOL    HW225557   1.253   4.470   9.497 -0.1657  0.9634 -1.1180
 4699SOL     OW25558   3.645   4.125  11.573  0.3506 -0.2206  0.2404
 4699SOL    HW125559   3.628   4.044  11.525 -2.4073  0.4756  0.0269
 4699SOL    HW225560   3.554   4.158  11.576  0.6099  0.6131 -0.9296
 4700SOL     OW25561   0.172   2.994   4.351 -0.2777 -0.3139  0.3707
 4700SOL    HW125562   0.122   2.958   4.278 -1.0390  0.9390  0.2769
 4700SOL    HW225563   0.176   2.922   4.415 -1.8232 -0.2824  0.4922
 4701SOL     OW25564   0.743   0.508   6.917 -0.1007 -0.4670 -0.2861
 4701SOL    HW125565   0.710   0.472   6.999  1.3435 -0.4420  0.2862
 4701SOL    HW225566   0.715   0.599   6.910  0.1468 -0.4122 -0.5583
 4702SOL     OW25567   0.280   2.160   0.957  0.4976  0.2025 -0.5767
 4702SOL    HW125568   0.358   2.189   1.005  1.0813  0.0429 -1.4369
 4702SOL    HW225569   0.258   2.082   1.008 -1.4270  1.3202  0.2983
 4703SOL     OW25570   1.194   4.709   5.421 -0.1880  0.3277 -0.2654
 4703SOL    HW125571   1.120   4.690   5.480 -1.5561 -0.3013 -2.1897
 4703SOL    HW225572   1.171   0.077   5.398 -0.6304 -0.0610 -1.3229
 4704SOL     OW25573   1.705   3.375  15.323  0.3965 -0.0573  0.3209
 4704SOL    HW125574   1.708   3.289  15.281 -1.6933 -0.7165  1.5354
 4704SOL    HW225575   1.648   3.425  15.264 -0.2016 -0.4107  0.6096
 4705SOL     OW25576   1.134   1.895   1.190 -0.0817  0.0421 -0.3176
 4705SOL    HW125577   1.156   1.819   1.137 -1.6444 -0.9980  0.5143
 4705SOL    HW225578   1.221   1.926   1.215 -1.0710  0.1409  3.0323
 4706SOL     OW25579   4.295   1.485   8.872  0.0639 -0.2601  0.7162
 4706SOL    HW125580   4.338   1.509   8.790  1.1641  0.0645  1.3766
 4706SOL    HW225581   4.238   1.414   8.846 -0.3877  0.7917 -1.1419
 4707SOL     OW25582   0.843   0.399   5.001  0.0952  0.4250 -0.2626
 4707SOL    HW125583   0.845   0.315   4.955 -1.7680  0.2001  0.0607
 4707SOL    HW225584   0.800   0.368   5.081  0.0739  1.7214  0.2186
 4708SOL     OW25585   3.696   1.934  10.994 -0.1209  0.3481 -0.4598
 4708SOL    HW125586   3.724   1.909  11.082 -1.6230  0.1399 -0.0472
 4708SOL    HW225587   3.748   1.871  10.944  0.5435  1.3576 -1.0607
 4709SOL     OW25588   4.418   3.350   9.281 -0.0292 -0.7025  0.2771
 4709SOL    HW125589   4.482   3.340   9.211 -0.0402 -3.3676  0.6461
 4709SOL    HW225590   4.421   3.269   9.331  2.1290 -1.1259 -0.5242
 4710SOL     OW25591   4.386   4.487   3.435  0.1034  0.4727 -0.6730
 4710SOL    HW125592   4.392   4.519   3.525 -2.0205 -1.8138  0.2829
 4710SOL    HW225593   4.299   4.519   3.412  0.5798  1.5296 -1.0193
 4711SOL     OW25594   0.832   3.357   9.523  0.3074 -0.1348  0.0076
 4711SOL    HW125595   0.874   3.271   9.514  2.6055  1.1122 -1.4237
 4711SOL    HW225596   0.794   3.332   9.607  1.8406 -0.5137  0.6003
 4712SOL     OW25597   3.190   3.050   3.947  0.1974 -0.0435 -0.1262
 4712SOL    HW125598   3.161   3.037   3.857 -0.8072  0.6293  0.1014
 4712SOL    HW225599   3.105   3.051   3.990 -0.0665 -0.8094 -0.6213
 4713SOL     OW25600   0.247   2.516  13.417  0.1544 -0.1643  0.0529
 4713SOL    HW125601   0.315   2.461  13.457 -1.8343 -2.3091  0.5272
 4713SOL    HW225602   0.306   2.545  13.348 -0.0113  0.8007  0.3287
 4714SOL     OW25603   1.683   3.892   3.622  0.0006 -0.1821 -0.2819
 4714SOL    HW125604   1.624   3.920   3.692 -0.6112  0.6955 -1.1366
 4714SOL    HW225605   1.617   3.863   3.559 -0.8399  2.8940 -0.8197
 4715SOL     OW25606   4.705   1.734   8.675  0.5493 -0.5894  0.4369
 4715SOL    HW125607   0.034   1.811   8.700  0.2383 -0.9126  2.0592
 4715SOL    HW225608   4.644   1.782   8.621  0.6549 -0.2063  0.6611
 4716SOL     OW25609   2.405   0.823   4.212 -0.6082  0.8568 -0.0776
 4716SOL    HW125610   2.371   0.910   4.191  3.1876  2.5017  0.5867
 4716SOL    HW225611   2.497   0.842   4.228 -0.4223  0.1617 -0.3639
 4717SOL     OW25612   0.329   3.655   5.793  0.2130  0.3430  0.1961
 4717SOL    HW125613   0.342   3.609   5.876  1.5580 -1.7466 -1.1797
 4717SOL    HW225614   0.279   3.731   5.822 -1.1109 -0.6395  0.4825
 4718SOL     OW25615   3.230   4.460  15.825 -0.5177  0.3106  0.1922
 4718SOL    HW125616   3.152   4.515  15.829 -0.4349  0.3473  1.3183
 4718SOL    HW225617   3.263   4.465  15.915  1.3504 -0.1216 -0.4688
 4719SOL     OW25618   0.552   1.749   0.019  0.1080 -0.4908 -0.0926
 4719SOL    HW125619   0.570   1.843   0.021 -0.3612 -0.4343  2.0817
 4719SOL    HW225620   0.466   1.750  17.668  0.3054  0.1834 -0.4955
 4720SOL     OW25621   2.193   0.798   6.587  0.1659  0.2025  0.0896
 4720SOL    HW125622   2.204   0.751   6.505  0.1634  1.7008 -0.7547
 4720SOL    HW225623   2.265   0.860   6.597  0.0536  0.4125 -0.4549
 4721SOL     OW25624   3.440   3.095   8.156 -0.5452  0.6071  0.3321
 4721SOL    HW125625   3.400   3.146   8.086 -0.1683  0.6020  0.1113
 4721SOL    HW225626   3.532   3.122   8.154 -0.3810 -0.2170 -2.4362
 4722SOL     OW25627   1.166   0.333  13.487  0.2421  0.5022  0.5851
 4722SOL    HW125628   1.253   0.346  13.524  1.1717  0.8551 -1.6947
 4722SOL    HW225629   1.111   0.402  13.525  0.2084  0.5770  0.4014
 4723SOL     OW25630   3.718   0.976   6.922  0.5419  0.1730  0.2165
 4723SOL    HW125631   3.714   1.008   6.832  0.7094  1.9292  0.8445
 4723SOL    HW225632   3.626   0.968   6.947  1.2186  1.0065  2.9268
 4724SOL     OW25633   3.809   3.298   0.118  0.4912 -0.1289 -0.5145
 4724SOL    HW125634   3.862   3.378   0.118  1.5386 -0.8284 -0.7429
 4724SOL    HW225635   3.765   3.308   0.202  0.8079  1.6135 -0.5569
 4725SOL     OW25636   3.377   4.538  16.571 -0.1032 -0.5549  0.1865
 4725SOL    HW125637   3.435   4.507  16.640 -2.2903 -1.7430  1.4554
 4725SOL    HW225638   3.318   4.463  16.561 -1.7528  0.7292  0.2064
 4726SOL     OW25639   4.394   3.117   2.646 -0.4323 -0.0886 -0.0008
 4726SOL    HW125640   4.331   3.185   2.619 -0.3155  0.2159  0.5045
 4726SOL    HW225641   4.334   3.042   2.647 -0.0534 -0.3811  0.3398
 4727SOL     OW25642   4.250   2.421   4.450  0.5838  0.3768 -0.5766
 4727SOL    HW125643   4.296   2.340   4.471  2.4228  0.6337 -3.6380
 4727SOL    HW225644   4.169   2.415   4.501  0.7685 -0.0090 -0.3266
 4728SOL     OW25645   3.264   1.628   8.826  0.1716  0.0313 -0.3135
 4728SOL    HW125646   3.205   1.694   8.861 -2.5782 -2.9021  0.5535
 4728SOL    HW225647   3.209   1.602   8.752 -0.4018 -1.0505  0.5004
 4729SOL     OW25648   4.310   1.148   1.063  0.3213 -0.3843  0.1444
 4729SOL    HW125649   4.216   1.131   1.074  0.3101  0.3653  1.2376
 4729SOL    HW225650   4.316   1.144   0.968  0.4778  2.2937  0.0355
 4730SOL     OW25651   2.659   1.306   2.563 -0.3248  0.0295 -0.2241
 4730SOL    HW125652   2.578   1.317   2.613  0.8560  3.1750  0.9650
 4730SOL    HW225653   2.632   1.234   2.506  0.4743 -0.4893  0.0539
 4731SOL     OW25654   4.608   3.337  13.030  0.3994  0.0441 -0.2230
 4731SOL    HW125655   4.521   3.370  13.051  0.4473  0.9658 -1.4497
 4731SOL    HW225656   4.631   3.397  12.959  1.0153 -0.9726 -0.8886
 4732SOL     OW25657   0.598   1.511   0.922  0.1576  0.2759  0.1910
 4732SOL    HW125658   0.679   1.470   0.892 -0.1513 -0.8906  0.9575
 4732SOL    HW225659   0.558   1.543   0.842  2.2341 -1.4894 -1.5515
 4733SOL     OW25660   4.622   0.963   8.693 -0.9611 -0.2073 -0.3215
 4733SOL    HW125661   4.580   1.001   8.616  0.3405  1.7676 -0.0499
 4733SOL    HW225662   4.596   0.873   8.673 -1.4235 -0.7540  2.6398
 4734SOL     OW25663   3.133   0.998   4.371 -0.0770 -0.0896  0.1009
 4734SOL    HW125664   3.047   0.973   4.406  0.2796  0.1474  1.1466
 4734SOL    HW225665   3.115   1.089   4.351 -1.3689  0.2188  2.7011
 4735SOL     OW25666   2.763   4.180   2.276 -0.1420 -0.1901  0.1379
 4735SOL    HW125667   2.735   4.099   2.317  2.3767 -1.2803 -0.2626
 4735SOL    HW225668   2.731   4.172   2.186  1.6388 -0.4129 -0.4769
 4736SOL     OW25669   2.735   1.171  16.880 -0.4707 -0.5362  0.0316
 4736SOL    HW125670   2.715   1.080  16.860 -3.6880  0.6460 -2.2508
 4736SOL    HW225671   2.830   1.180  16.872 -0.6842  0.3951 -1.6155
 4737SOL     OW25672   4.104   0.009   1.982 -0.1902 -0.4252 -0.3648
 4737SOL    HW125673   4.115   4.646   2.024 -0.7525 -0.0124  0.6320
 4737SOL    HW225674   4.190   0.032   1.948  0.9392 -0.9120  2.2169
 4738SOL     OW25675   0.070   0.519   5.825  0.4006 -0.2851  0.6794
 4738SOL    HW125676   0.099   0.608   5.803  0.4022 -0.1212  1.3630
 4738SOL    HW225677   0.026   0.487   5.746  1.1389 -1.0854  0.5974
 4739SOL     OW25678   1.564   1.564  17.264  0.2210  0.5051 -0.2501
 4739SOL    HW125679   1.623   1.576  17.338 -0.4795 -0.3237  0.4443
 4739SOL    HW225680   1.560   1.646  17.216 -1.9427  0.6586  0.1877
 4740SOL     OW25681   2.590   3.208  17.022 -0.1922 -0.3804  0.3053
 4740SOL    HW125682   2.624   3.140  16.964  0.6619 -1.4648  2.0750
 4740SOL    HW225683   2.603   3.165  17.106 -0.5260 -3.1354 -1.0822
 4741SOL     OW25684   3.859   2.704   3.608  0.2159  0.1609 -0.0015
 4741SOL    HW125685   3.908   2.740   3.534  0.0053 -0.6760 -0.5503
 4741SOL    HW225686   3.770   2.730   3.583  0.2607  0.6283  0.3353
 4742SOL     OW25687   3.280   4.294   4.261 -0.4801  0.3334 -0.5238
 4742SOL    HW125688   3.204   4.272   4.207  0.4628 -2.3393 -0.7679
 4742SOL    HW225689   3.329   4.360   4.212  1.9851  0.1594  1.7180
 4743SOL     OW25690   4.034   4.141   9.621  0.1020 -0.1211  0.1653
 4743SOL    HW125691   3.967   4.124   9.554 -0.3944  2.0598  0.1089
 4743SOL    HW225692   4.090   4.064   9.618  0.4923  0.1796 -0.2592
 4744SOL     OW25693   3.478   1.877   3.035 -0.4363  0.2532  0.1131
 4744SOL    HW125694   3.387   1.868   3.006 -0.3875 -1.5904  0.4883
 4744SOL    HW225695   3.516   1.860   2.949 -0.8404 -0.6665  0.1074
 4745SOL     OW25696   2.252   4.126  10.362  0.2339 -0.2925 -0.8444
 4745SOL    HW125697   2.319   4.063  10.389 -0.0403 -0.0384  0.4437
 4745SOL    HW225698   2.288   4.166  10.284  0.6006  2.3800  0.7042
 4746SOL     OW25699   0.164   4.539   6.016  0.3213  0.0676  0.6204
 4746SOL    HW125700   0.182   4.633   6.013  1.7014 -0.2481 -0.4687
 4746SOL    HW225701   0.069   4.543   6.028  0.1653  1.7311 -1.0895
 4747SOL     OW25702   2.029   4.469   2.631  0.7032  0.0705 -0.0652
 4747SOL    HW125703   2.098   4.527   2.600  1.8645 -0.5417  1.3522
 4747SOL    HW225704   2.056   4.475   2.723 -2.3379 -0.0996  0.8532
 4748SOL     OW25705   1.055   1.034   2.149 -0.5363 -0.1164 -0.3463
 4748SOL    HW125706   1.113   0.963   2.122  0.3635 -0.3439  2.2232
 4748SOL    HW225707   1.118   1.106   2.140  1.6959 -2.0212  0.0166
 4749SOL     OW25708   1.751   1.030   9.259  0.2852  0.3876  0.4239
 4749SOL    HW125709   1.785   0.953   9.214 -0.0912  0.6539 -0.3168
 4749SOL    HW225710   1.729   1.003   9.348 -2.0111 -1.4749 -0.7168
 4750SOL     OW25711   4.656   2.080   8.581  0.1699 -0.3862  0.0156
 4750SOL    HW125712   4.610   2.062   8.663  0.3725 -0.3784  0.1308
 4750SOL    HW225713   4.617   2.006   8.534  0.2616 -2.1369  2.6789
 4751SOL     OW25714   3.495   4.457   3.424 -0.8144 -0.7385  0.1804
 4751SOL    HW125715   3.564   4.423   3.480 -0.0032 -0.5561 -0.7029
 4751SOL    HW225716   3.543   4.504   3.355 -1.1185 -1.1851 -0.3363
 4752SOL     OW25717   2.457   3.149   8.577 -0.3199  0.1520  0.4392
 4752SOL    HW125718   2.475   3.207   8.504  1.4109  0.2341  0.9183
 4752SOL    HW225719   2.498   3.069   8.544 -0.2811  0.3914 -0.0815
 4753SOL     OW25720   3.008   4.341   5.331  0.1899  0.1054  0.1449
 4753SOL    HW125721   3.057   4.333   5.413  0.5268  0.8358  0.0148
 4753SOL    HW225722   2.972   4.253   5.321  1.3293 -0.5251  1.7122
 4754SOL     OW25723   2.950   2.883   7.365 -0.0456  0.1129  0.0902
 4754SOL    HW125724   2.928   2.810   7.424  1.3287  0.6798  1.2902
 4754SOL    HW225725   2.972   2.833   7.286 -1.0106  1.9309 -1.3195
 4755SOL     OW25726   0.943   2.535  14.338  0.2352  0.1966  0.2450
 4755SOL    HW125727   0.970   2.457  14.385 -1.1480  0.5459  1.6185
 4755SOL    HW225728   0.892   2.496  14.267 -0.9622  0.9908  0.6775
 4756SOL     OW25729   4.096   4.569   8.339  0.0310 -0.1039 -0.4762
 4756SOL    HW125730   4.042   4.640   8.374  1.1995  1.3233 -1.5989
 4756SOL    HW225731   4.040   4.497   8.369  2.3610 -1.5802  0.3439
 4757SOL     OW25732   1.754   0.467   1.825  0.2727 -0.2002  0.0622
 4757SOL    HW125733   1.809   0.420   1.762  0.5802 -2.1277  1.7842
 4757SOL    HW225734   1.732   0.539   1.766  0.6587 -1.2602 -1.3677
 4758SOL     OW25735   3.089   3.380   0.586 -1.2831 -0.2565 -0.1272
 4758SOL    HW125736   3.012   3.390   0.530 -1.3935  1.1733  0.2838
 4758SOL    HW225737   3.110   3.469   0.611  1.5421 -1.4059  1.5793
 4759SOL     OW25738   4.370   3.154   9.493  0.2013 -0.4814  0.2877
 4759SOL    HW125739   4.316   3.130   9.419  1.7027 -2.1543 -0.2682
 4759SOL    HW225740   4.418   3.072   9.507  1.3303  0.3175  1.0997
 4760SOL     OW25741   0.530   1.520   4.937 -0.6709 -0.0464 -0.1992
 4760SOL    HW125742   0.504   1.587   4.874  0.8898  0.2513 -0.5423
 4760SOL    HW225743   0.624   1.535   4.950 -0.1734 -0.4074 -3.3266
 4761SOL     OW25744   0.141   2.294   1.193 -0.2144 -0.0447 -0.3301
 4761SOL    HW125745   0.117   2.221   1.251  0.3552 -0.6145 -0.8127
 4761SOL    HW225746   0.220   2.325   1.236 -0.9775 -0.6528  1.5391
 4762SOL     OW25747   4.329   1.331  13.116 -0.0990 -0.3885  0.1564
 4762SOL    HW125748   4.276   1.383  13.056  0.9097 -1.3037 -1.5283
 4762SOL    HW225749   4.327   1.246  13.071  0.2221  1.3364 -3.0716
 4763SOL     OW25750   3.236   1.830   3.369  0.0695 -0.4469 -0.0573
 4763SOL    HW125751   3.327   1.815   3.344 -0.1443 -0.9848 -0.5125
 4763SOL    HW225752   3.228   1.925   3.368 -1.3773 -0.5421  0.7336
 4764SOL     OW25753   3.924   4.609  12.080 -0.3256  0.3296  0.0961
 4764SOL    HW125754   3.906   4.630  11.988 -0.5297  0.1577  0.0973
 4764SOL    HW225755   3.839   4.621  12.123 -0.7044  0.6149 -0.7241
 4765SOL     OW25756   0.636   3.415   4.793  0.1075  0.1375 -0.3351
 4765SOL    HW125757   0.679   3.330   4.780 -0.6285 -0.2389 -0.2907
 4765SOL    HW225758   0.634   3.421   4.889 -1.5247  1.3277 -0.4489
 4766SOL     OW25759   4.546   2.096   1.748 -0.3162 -0.1992 -0.1817
 4766SOL    HW125760   4.587   2.042   1.680 -0.3229  0.7687 -0.9667
 4766SOL    HW225761   4.457   2.084   1.714 -0.5868  0.9821  0.1036
 4767SOL     OW25762   0.890   4.205   0.101  0.5852  0.0889 -0.1575
 4767SOL    HW125763   0.917   4.148   0.029 -1.2190  1.6171 -2.0376
 4767SOL    HW225764   0.847   4.142   0.159  1.3825  1.4835  1.9341
 4768SOL     OW25765   2.860   3.818   3.710 -0.0541  0.2720  0.9760
 4768SOL    HW125766   2.850   3.724   3.728  1.3859  0.1243  0.9763
 4768SOL    HW225767   2.804   3.852   3.781 -1.8962  0.1681 -0.4251
 4769SOL     OW25768   0.106   2.705   6.824 -0.7439  0.1074 -0.3962
 4769SOL    HW125769   0.108   2.609   6.830  0.8346  0.1630 -0.1017
 4769SOL    HW225770   0.023   2.721   6.870 -0.4234  0.8815 -0.1024
 4770SOL     OW25771   3.547   2.411   9.378 -0.4434 -0.1890  0.1134
 4770SOL    HW125772   3.618   2.473   9.366 -1.7241  1.1719 -0.4281
 4770SOL    HW225773   3.481   2.447   9.319  1.3487  0.3769 -1.5344
 4771SOL     OW25774   2.233   0.861  14.056  0.9331 -0.2153 -0.2618
 4771SOL    HW125775   2.277   0.799  13.998  0.6828 -0.2911 -0.3735
 4771SOL    HW225776   2.153   0.807  14.057 -0.1837  1.4557  0.5427
 4772SOL     OW25777   2.103   0.320   3.445 -0.2492  0.5808 -0.9156
 4772SOL    HW125778   2.149   0.292   3.524 -0.3014  1.1918 -0.6667
 4772SOL    HW225779   2.107   0.247   3.383 -0.1431 -0.4251  0.2802
 4773SOL     OW25780   1.172   1.337   8.533  0.5664 -0.4585  0.0678
 4773SOL    HW125781   1.225   1.344   8.613  0.3936  1.5509  0.0125
 4773SOL    HW225782   1.241   1.336   8.467  0.3008 -0.5407 -0.2079
 4774SOL     OW25783   0.357   3.983  17.143 -0.2187  0.2780 -0.2581
 4774SOL    HW125784   0.314   3.924  17.082  2.0388 -0.3531 -1.2497
 4774SOL    HW225785   0.298   4.055  17.122 -0.6799  0.2400  0.9027
 4775SOL     OW25786   2.878   1.275  11.932  0.4941 -0.0915  0.0117
 4775SOL    HW125787   2.970   1.249  11.923  0.9734  2.5227 -2.5252
 4775SOL    HW225788   2.862   1.228  12.014  0.1948  0.8945  0.5101
 4776SOL     OW25789   1.830   2.318  12.856 -0.7916  0.3579  0.5334
 4776SOL    HW125790   1.831   2.406  12.895  0.7368 -0.1482  1.6303
 4776SOL    HW225791   1.865   2.344  12.771  1.6396  0.1108  1.4589
 4777SOL     OW25792   3.008   2.053   2.796  0.0080  0.6689 -0.1696
 4777SOL    HW125793   3.011   2.128   2.737 -1.4377  1.6973  1.0586
 4777SOL    HW225794   2.934   2.080   2.850 -1.5359  0.3197 -2.1309
 4778SOL     OW25795   3.916   3.504  15.432  0.1926  0.3556  0.1669
 4778SOL    HW125796   3.909   3.431  15.370 -1.5049  0.8635 -0.2248
 4778SOL    HW225797   3.957   3.575  15.382  0.7419 -0.0075  0.0930
 4779SOL     OW25798   1.897   3.456   7.053 -0.5596  0.3920  0.7234
 4779SOL    HW125799   1.944   3.380   7.018  2.8454  1.5821  2.6549
 4779SOL    HW225800   1.852   3.416   7.127  1.4902  2.0704  2.8798
 4780SOL     OW25801   1.996   4.444   2.206 -0.0060 -0.2130 -0.0586
 4780SOL    HW125802   1.963   4.533   2.190 -0.1366 -0.0273  1.2555
 4780SOL    HW225803   2.090   4.457   2.220  0.0128 -0.1519 -0.2371
 4781SOL     OW25804   0.357   4.467   1.700  0.0848 -0.0308  0.8283
 4781SOL    HW125805   0.417   4.527   1.657  0.0851 -0.6853 -0.0949
 4781SOL    HW225806   0.434   4.441   1.750  0.3122 -0.4253  0.2752
 4782SOL     OW25807   0.823   2.946   2.214  0.4206  0.3754 -0.2034
 4782SOL    HW125808   0.894   2.906   2.265  1.1611  0.0221 -1.4871
 4782SOL    HW225809   0.825   2.900   2.130  0.5895 -3.4405  1.8911
 4783SOL     OW25810   2.044   3.720  11.706  0.5729  0.7527  0.3296
 4783SOL    HW125811   2.030   3.694  11.615 -1.2926  3.8707 -0.2408
 4783SOL    HW225812   2.128   3.682  11.733  0.0574 -0.7961 -0.2076
 4784SOL     OW25813   2.883   1.875   6.067  0.3200 -0.4218 -0.2061
 4784SOL    HW125814   2.792   1.887   6.094 -0.2172 -1.6987 -1.4896
 4784SOL    HW225815   2.933   1.920   6.135  0.2420  1.9488 -1.7071
 4785SOL     OW25816   1.121   0.503   7.275 -0.0255  0.5218 -0.0029
 4785SOL    HW125817   1.109   0.489   7.181 -1.5749 -0.6182  0.3618
 4785SOL    HW225818   1.174   0.429   7.304  0.0532  0.1682 -1.0502
 4786SOL     OW25819   3.051   3.026   8.858  0.3257  0.1859 -0.1233
 4786SOL    HW125820   3.105   2.975   8.798  0.1992  2.4129 -2.1493
 4786SOL    HW225821   2.976   3.038   8.800  0.6819  0.1386 -0.5938
 4787SOL     OW25822   2.874   1.732   3.891  0.0987 -0.2219  0.4421
 4787SOL    HW125823   2.908   1.664   3.834  1.6578  0.6058  0.3876
 4787SOL    HW225824   2.805   1.778   3.843  0.7514 -0.9201 -1.1767
 4788SOL     OW25825   3.756   2.176   8.712 -0.8503  0.1472 -0.3024
 4788SOL    HW125826   3.668   2.156   8.679 -0.6244 -1.3437 -0.0053
 4788SOL    HW225827   3.738   2.264   8.745 -0.3559  0.3893 -0.6881
 4789SOL     OW25828   0.133   2.330  13.095  0.4829 -0.5644  0.3697
 4789SOL    HW125829   0.105   2.239  13.082 -0.2164 -0.2860 -0.0768
 4789SOL    HW225830   0.077   2.356  13.167  0.3764  0.7509 -0.1975
 4790SOL     OW25831   1.184   0.266  13.823  0.5550 -0.1628 -0.3837
 4790SOL    HW125832   1.220   0.355  13.828 -0.0849  0.1281 -1.0623
 4790SOL    HW225833   1.092   0.289  13.833  0.9695  0.0451  2.9318
 4791SOL     OW25834   1.517   4.368   7.650 -0.3214 -0.1102  0.0788
 4791SOL    HW125835   1.458   4.346   7.578 -1.1437  2.2340  0.0328
 4791SOL    HW225836   1.481   4.319   7.724 -3.8925 -1.1226 -2.3995
 4792SOL     OW25837   2.206   4.298   4.101 -0.1365  0.5538 -0.3924
 4792SOL    HW125838   2.112   4.283   4.092 -0.1920  2.2838 -2.7587
 4792SOL    HW225839   2.236   4.300   4.010  3.3629  1.2969  0.7799
 4793SOL     OW25840   4.169   0.508  16.242  0.3300  0.5347  0.4703
 4793SOL    HW125841   4.166   0.546  16.154 -1.5629 -1.4903 -0.3431
 4793SOL    HW225842   4.122   0.580  16.285  1.3892  1.2488  0.4393
 4794SOL     OW25843   2.482   0.880   7.051 -0.5835  0.4983 -0.1833
 4794SOL    HW125844   2.554   0.900   6.991 -0.6407  1.8181  0.1843
 4794SOL    HW225845   2.414   0.932   7.009  1.7196  1.9341 -2.1860
 4795SOL     OW25846   3.860   2.891   8.386 -0.4717 -0.0278  0.0669
 4795SOL    HW125847   3.948   2.924   8.371  1.0832 -3.7677  0.8242
 4795SOL    HW225848   3.842   2.846   8.303  1.5095  0.5545 -0.6756
 4796SOL     OW25849   3.427   0.701   1.162  1.0107  0.2170  0.0843
 4796SOL    HW125850   3.484   0.683   1.237  0.1032 -2.2805  0.1775
 4796SOL    HW225851   3.364   0.629   1.168  1.0667  0.1715  0.1296
 4797SOL     OW25852   1.621   3.489   6.657  0.4223 -0.1365  0.1356
 4797SOL    HW125853   1.610   3.493   6.752 -0.1435  1.6911  0.0041
 4797SOL    HW225854   1.646   3.400   6.633  0.4796 -0.2153  0.4884
 4798SOL     OW25855   0.820   2.098  12.417  0.2450  0.2193 -0.1473
 4798SOL    HW125856   0.760   2.169  12.441 -2.2947 -1.9461 -0.0634
 4798SOL    HW225857   0.844   2.058  12.501  1.1673 -1.5077 -1.2355
 4799SOL     OW25858   0.740   0.666  15.243  0.2695 -0.0663 -0.7820
 4799SOL    HW125859   0.737   0.675  15.338  0.6605  0.6795 -0.8428
 4799SOL    HW225860   0.696   0.580  15.244 -0.2681  0.2308  1.5662
 4800SOL     OW25861   2.882   0.417   5.307  0.2227  0.1536 -0.3031
 4800SOL    HW125862   2.862   0.324   5.306  0.1375  0.1668  1.4085
 4800SOL    HW225863   2.809   0.457   5.354 -0.1205 -1.5123  0.5530
 4801SOL     OW25864   3.810   4.594   2.570 -0.1310  0.6562  0.6599
 4801SOL    HW125865   3.779   4.654   2.502  0.9351  0.8379  0.3365
 4801SOL    HW225866   3.772   4.512   2.538 -0.2561  0.9559  0.0331
 4802SOL     OW25867   3.204   2.126  10.599  0.5435  0.3981 -0.4277
 4802SOL    HW125868   3.229   2.148  10.688 -0.6741  1.5671 -0.3689
 4802SOL    HW225869   3.289   2.106  10.560  1.5266  1.5232  1.1628
 4803SOL     OW25870   1.274   2.940  12.954  0.3063 -0.3169  0.2795
 4803SOL    HW125871   1.340   2.999  12.919 -0.3613  0.9788  1.2421
 4803SOL    HW225872   1.188   2.975  12.933 -0.0894 -0.3161  1.9180
 4804SOL     OW25873   3.395   1.422   9.664 -0.6764 -0.3055 -0.0601
 4804SOL    HW125874   3.454   1.379   9.726 -0.2165 -0.0282 -0.2969
 4804SOL    HW225875   3.313   1.374   9.659 -0.5728 -0.5493  0.6056
 4805SOL     OW25876   0.764   2.244   0.921 -0.8480  0.3072 -0.0958
 4805SOL    HW125877   0.775   2.273   1.012  1.4707 -0.4300 -0.1485
 4805SOL    HW225878   0.797   2.155   0.923  0.4461  0.8212  1.6619
 4806SOL     OW25879   3.186   1.213   3.490 -0.8535  0.0641  0.3759
 4806SOL    HW125880   3.258   1.171   3.443  0.0715  1.1236  0.8504
 4806SOL    HW225881   3.175   1.291   3.434 -0.6652 -0.8983 -0.9959
 4807SOL     OW25882   0.062   4.646   5.636  0.3650  0.0485  0.0518
 4807SOL    HW125883   0.077   4.568   5.690  1.5775  0.7895  0.7688
 4807SOL    HW225884   0.050   4.594   5.556  0.8428 -0.4985  0.3299
 4808SOL     OW25885   4.345   4.541   0.394  0.2418 -0.0312  0.1351
 4808SOL    HW125886   4.429   4.561   0.436  0.7517 -0.3896 -0.7279
 4808SOL    HW225887   4.279   4.571   0.457 -1.1722  0.4614 -1.5932
 4809SOL     OW25888   1.578   4.360   3.674 -0.1600 -0.2195  0.7182
 4809SOL    HW125889   1.593   4.321   3.588 -1.5453  0.7080  0.0523
 4809SOL    HW225890   1.659   4.412   3.681 -2.3064  3.1491  0.7349
 4810SOL     OW25891   4.326   4.553  15.482  0.0562 -0.0329  0.3898
 4810SOL    HW125892   4.301   4.550  15.390  1.9351 -0.8234 -0.1070
 4810SOL    HW225893   4.418   4.580  15.476 -0.1015  0.8177  1.7141
 4811SOL     OW25894   2.851   1.077   6.754  0.0844  0.0713 -0.2339
 4811SOL    HW125895   2.929   1.090   6.807 -0.3813 -1.0661  0.7322
 4811SOL    HW225896   2.888   1.076   6.666  2.3312  0.6649  0.7117
 4812SOL     OW25897   4.081   2.262   0.486 -0.4112 -0.4971  0.6205
 4812SOL    HW125898   4.017   2.326   0.455 -0.3451 -1.8051 -2.1828
 4812SOL    HW225899   4.035   2.237   0.565 -0.6022 -1.1749  0.2884
 4813SOL     OW25900   4.100   1.311   2.014 -0.2405  0.5404 -0.0162
 4813SOL    HW125901   4.072   1.274   1.931 -3.4906  1.5082  0.6578
 4813SOL    HW225902   4.132   1.231   2.056 -0.3251  0.3496 -0.3133
 4814SOL     OW25903   0.703   3.529  13.999 -0.0254  0.0559 -0.1629
 4814SOL    HW125904   0.614   3.493  13.997 -0.2770  0.6495  0.4949
 4814SOL    HW225905   0.681   3.606  13.947  1.8256 -0.4897 -1.7538
 4815SOL     OW25906   0.326   1.118  17.635 -0.4827  0.4268  0.4624
 4815SOL    HW125907   0.332   1.144   0.037 -1.6574  1.3642  0.2798
 4815SOL    HW225908   0.231   1.121  17.621 -0.7466 -4.0243  1.4515
 4816SOL     OW25909   3.132   3.065   5.090  0.1940 -0.8893  0.3439
 4816SOL    HW125910   3.107   3.154   5.067 -1.4909 -2.0419 -2.3218
 4816SOL    HW225911   3.051   3.014   5.080  0.1622 -0.6214 -0.7372
 4817SOL     OW25912   3.641   3.942   2.847  0.2988  0.5924  0.1529
 4817SOL    HW125913   3.601   3.940   2.934  1.2083 -1.8213  0.5195
 4817SOL    HW225914   3.621   3.857   2.807  1.5657  0.0015  0.7546
 4818SOL     OW25915   4.617   0.492  16.442 -0.0449  0.4672  0.3167
 4818SOL    HW125916   4.553   0.563  16.442  2.2620  2.5135  1.5157
 4818SOL    HW225917   4.685   0.522  16.383  2.0189  0.2213  2.5888
 4819SOL     OW25918   0.365   3.663   5.229 -0.3177  0.3819 -0.4243
 4819SOL    HW125919   0.456   3.690   5.222 -0.1085  0.1079  1.2123
 4819SOL    HW225920   0.330   3.700   5.149  0.3545  0.3830 -0.7147
 4820SOL     OW25921   2.974   1.886   8.109 -0.1514  0.1569 -0.0997
 4820SOL    HW125922   2.892   1.928   8.135  1.1945  1.6524  1.6194
 4820SOL    HW225923   2.995   1.842   8.191 -1.9170 -0.0527  0.2448
 4821SOL     OW25924   3.844   2.200   2.766 -0.1209 -0.3883  0.0001
 4821SOL    HW125925   3.826   2.246   2.684  1.4425 -0.5584 -0.4320
 4821SOL    HW225926   3.794   2.246   2.833 -0.7906 -0.4909 -0.4339
 4822SOL     OW25927   1.191   0.317   1.722  0.0324  0.0115  0.1980
 4822SOL    HW125928   1.163   0.277   1.804  4.3856  0.4559  1.8691
 4822SOL    HW225929   1.275   0.358   1.744 -0.8675  1.0387  1.7243
 4823SOL     OW25930   3.111   2.717   7.173 -0.6583 -0.5522 -0.1752
 4823SOL    HW125931   3.139   2.631   7.142 -1.2538 -1.0045  0.5194
 4823SOL    HW225932   3.135   2.776   7.102  0.2592 -0.4376  0.2323
 4824SOL     OW25933   2.362   4.228  11.207 -0.1208 -0.2369 -0.2944
 4824SOL    HW125934   2.374   4.146  11.255 -0.6935 -1.1248 -1.6959
 4824SOL    HW225935   2.453   4.244  11.180  0.1872  1.7946  1.9362
 4825SOL     OW25936   2.127   1.956   1.458  0.0116 -0.0776 -0.4300
 4825SOL    HW125937   2.143   1.887   1.394 -1.6759 -0.8300 -0.0437
 4825SOL    HW225938   2.032   1.949   1.455 -0.0810  0.1106  1.9753
 4826SOL     OW25939   1.449   4.423   4.180  0.1835  0.4272 -0.2618
 4826SOL    HW125940   1.504   4.501   4.192  0.8144  0.0344 -0.6338
 4826SOL    HW225941   1.506   4.366   4.232 -0.9173 -0.7603 -0.3608
 4827SOL     OW25942   3.093   1.358  16.300 -0.2341  0.0581  0.3560
 4827SOL    HW125943   3.146   1.303  16.358 -0.0326  0.1319  0.2427
 4827SOL    HW225944   3.050   1.299  16.238 -0.2537  1.3184 -0.8279
 4828SOL     OW25945   0.763   2.930   3.745  0.2874  0.4007 -0.0505
 4828SOL    HW125946   0.766   2.930   3.841 -0.8799 -0.8967 -0.0173
 4828SOL    HW225947   0.667   2.936   3.743  0.2653 -0.3362 -0.6185
 4829SOL     OW25948   1.869   4.168  12.509 -0.0159  0.0073 -0.0330
 4829SOL    HW125949   1.865   4.103  12.580  3.5283 -0.0359  0.1482
 4829SOL    HW225950   1.800   4.229  12.533  2.0324  3.0344 -1.8462
 4830SOL     OW25951   1.618   2.020  17.473  0.6484  0.2256 -0.1618
 4830SOL    HW125952   1.683   2.086  17.449  1.5027 -1.5195 -2.7084
 4830SOL    HW225953   1.554   2.056  17.412  0.5358  0.1549 -0.0843
 4831SOL     OW25954   2.620   4.564   5.400  0.6603 -0.3685  0.5175
 4831SOL    HW125955   2.691   4.588   5.340 -0.3070 -1.7573 -1.1698
 4831SOL    HW225956   2.556   4.540   5.333  0.0746  0.8214  0.6402
 4832SOL     OW25957   0.183   4.182  17.065  0.6741  0.4029  0.0817
 4832SOL    HW125958   0.173   4.278  17.063 -0.5635  0.2906  1.0766
 4832SOL    HW225959   0.097   4.143  17.079  0.3852  0.7143 -0.8088
 4833SOL     OW25960   1.260   0.534   0.075 -0.4968 -0.3557 -1.1135
 4833SOL    HW125961   1.318   0.489   0.137  1.4158  3.3651 -0.2444
 4833SOL    HW225962   1.212   0.459   0.040 -2.0599  0.8205 -1.4919
 4834SOL     OW25963   2.700   0.720   6.467 -0.1876 -0.3083 -0.3340
 4834SOL    HW125964   2.680   0.777   6.541  0.0558 -1.2523  0.4584
 4834SOL    HW225965   2.665   0.640   6.506  2.3316 -0.7774  0.9495
 4835SOL     OW25966   4.629   1.005   5.345  0.6357  0.2308  0.0103
 4835SOL    HW125967   4.574   0.994   5.423  1.3182 -2.4192  0.0987
 4835SOL    HW225968   4.591   1.083   5.305  0.2452  1.1852  2.2411
 4836SOL     OW25969   0.310   2.702   8.300 -0.1603  0.2227 -0.2670
 4836SOL    HW125970   0.346   2.771   8.244  0.6898 -0.2187 -0.2730
 4836SOL    HW225971   0.215   2.706   8.292  0.0485  2.0612 -1.8737
 4837SOL     OW25972   0.100   3.551   7.066  0.5584  0.2570 -0.0460
 4837SOL    HW125973   0.072   3.468   7.026  0.1338  1.0941 -1.4775
 4837SOL    HW225974   0.022   3.606   7.068 -0.1071 -0.6198 -1.6500
 4838SOL     OW25975   1.297   0.886   2.063 -0.2348 -0.1158 -0.6058
 4838SOL    HW125976   1.265   0.876   1.973 -1.0369 -0.5758 -0.2691
 4838SOL    HW225977   1.388   0.914   2.059 -0.5791  1.0207 -0.6192
 4839SOL     OW25978   0.437   2.779   7.885  0.0624  0.3321 -0.1134
 4839SOL    HW125979   0.446   2.869   7.853  1.2648 -0.4978 -2.0243
 4839SOL    HW225980   0.452   2.787   7.980 -3.2417 -0.6578  0.4935
 4840SOL     OW25981   1.905   4.467  12.383 -0.6084  0.2887  0.8193
 4840SOL    HW125982   1.814   4.493  12.387 -0.1548  1.7999  1.0725
 4840SOL    HW225983   1.933   4.551  12.346 -1.8036 -0.4639 -1.7809
 4841SOL     OW25984   1.815   1.006   6.173  0.3451 -0.0835  0.8549
 4841SOL    HW125985   1.735   0.965   6.205 -0.5486  0.8388 -0.1954
 4841SOL    HW225986   1.827   0.966   6.087 -0.2601  0.7429  0.3910
 4842SOL     OW25987   2.055   2.463   7.999  0.0359  0.4864 -0.7830
 4842SOL    HW125988   1.987   2.420   7.947  0.8274 -2.1413  0.3681
 4842SOL    HW225989   2.014   2.500   8.078  0.9317 -0.5968  0.1818
 4843SOL     OW25990   0.077   3.524   5.252 -0.0932  0.1935  0.1860
 4843SOL    HW125991   0.146   3.490   5.195 -1.4032 -0.1938 -1.1837
 4843SOL    HW225992   4.714   3.500   5.216  1.0695 -1.1334 -1.6931
 4844SOL     OW25993   0.362   3.039   8.771 -0.4911 -0.3709  0.0202
 4844SOL    HW125994   0.301   3.017   8.701  0.5746 -3.2597 -0.0238
 4844SOL    HW225995   0.397   3.126   8.752 -2.2605  0.0103 -1.5664
 4845SOL     OW25996   3.167   4.576   8.943  0.0552 -0.1612  0.8867
 4845SOL    HW125997   3.168   4.486   8.908 -2.0389  0.5087 -0.9241
 4845SOL    HW225998   3.225   4.564   9.018 -0.6914  0.0516  1.5020
 4846SOL     OW25999   0.179   3.854   3.192  0.1079 -0.3015 -0.6185
 4846SOL    HW126000   0.088   3.866   3.219  0.1082 -0.8994 -0.3426
 4846SOL    HW226001   0.189   3.762   3.218  1.7605 -0.0896 -0.5017
 4847SOL     OW26002   0.987   4.127   4.477 -0.1488 -0.1781 -0.3385
 4847SOL    HW126003   0.902   4.140   4.435 -1.4117  1.8897  2.8946
 4847SOL    HW226004   1.026   4.094   4.396  0.9087 -0.3803  0.2629
 4848SOL     OW26005   3.019   0.930   7.748  0.1449 -0.3117  0.5390
 4848SOL    HW126006   2.965   0.853   7.766 -0.3523  0.1426  0.9669
 4848SOL    HW226007   2.972   0.994   7.800 -3.7762 -2.9183  0.1723
 4849SOL     OW26008   2.285   0.952   4.803 -0.1987  0.4532 -0.0574
 4849SOL    HW126009   2.308   1.045   4.797 -0.2614  0.5693  1.6025
 4849SOL    HW226010   2.288   0.948   4.898 -0.6659 -0.3330 -0.0760
 4850SOL     OW26011   3.922   3.425   1.303  0.3920 -0.0145  0.3751
 4850SOL    HW126012   3.860   3.401   1.371 -0.8753  1.4818 -0.2492
 4850SOL    HW226013   3.874   3.482   1.243  0.3405 -0.9063 -0.4216
 4851SOL     OW26014   1.207   1.847  16.607 -0.6029 -0.1895  0.4391
 4851SOL    HW126015   1.236   1.772  16.555  0.7966 -1.1834  2.6409
 4851SOL    HW226016   1.252   1.923  16.569  0.9421 -0.9236  0.8306
 4852SOL     OW26017   0.238   1.154   5.799  0.0998  0.2166  0.0244
 4852SOL    HW126018   0.218   1.193   5.884  0.7025  2.1079 -0.7197
 4852SOL    HW226019   0.155   1.134   5.756 -0.2687 -0.1370  0.8983
 4853SOL     OW26020   3.625   3.112   3.492 -0.5761 -0.6035  0.2858
 4853SOL    HW126021   3.669   3.071   3.567  0.3315  3.1281  1.7998
 4853SOL    HW226022   3.671   3.066   3.421  0.6945 -1.9403  1.9593
 4854SOL     OW26023   4.381   0.692   2.899 -0.2097  0.5989  0.2583
 4854SOL    HW126024   4.424   0.608   2.913  0.1251  0.2553 -2.9219
 4854SOL    HW226025   4.338   0.672   2.816  1.0666  0.4818 -0.3781
 4855SOL     OW26026   2.706   0.937  11.237 -0.3968 -0.3336 -0.0632
 4855SOL    HW126027   2.696   0.842  11.231 -2.6238 -0.0336 -1.1371
 4855SOL    HW226028   2.743   0.946  11.325 -1.5151 -1.1405  0.4998
 4856SOL     OW26029   0.206   2.560   3.579  0.1315 -0.1990  0.4416
 4856SOL    HW126030   0.259   2.485   3.605  0.6386 -0.8823 -2.4677
 4856SOL    HW226031   0.192   2.547   3.485  0.8809  1.6554  0.0745
 4857SOL     OW26032   3.619   3.991   5.669  0.1540  0.1437 -0.4649
 4857SOL    HW126033   3.551   4.045   5.709 -0.1284 -1.8502  1.7104
 4857SOL    HW226034   3.580   3.904   5.676  0.2104  0.1153 -0.5018
 4858SOL     OW26035   1.436   2.802   5.260 -0.6053 -0.1571 -0.4179
 4858SOL    HW126036   1.392   2.822   5.342  0.4903  1.8639 -0.3402
 4858SOL    HW226037   1.524   2.807   5.298  0.0243 -0.0730 -1.9059
 4859SOL     OW26038   3.547   2.852  15.127  0.1861  0.0844  0.3470
 4859SOL    HW126039   3.543   2.914  15.054 -1.5242  1.3464  1.4958
 4859SOL    HW226040   3.468   2.799  15.118  0.2221  0.5386 -2.6746
 4860SOL     OW26041   4.308   0.464   2.247 -0.0893  0.0573 -0.1070
 4860SOL    HW126042   4.359   0.384   2.238 -3.2317 -2.0860  1.0321
 4860SOL    HW226043   4.377   0.525   2.272  0.5849 -0.1038 -1.5834
 4861SOL     OW26044   4.576   0.329   7.191 -0.1656 -0.2586 -0.2326
 4861SOL    HW126045   4.498   0.361   7.236 -0.5771 -0.2705 -0.9385
 4861SOL    HW226046   4.639   0.400   7.183  0.3967 -0.6359  0.8918
 4862SOL     OW26047   3.510   4.717   6.600 -0.3322  0.0289  0.2167
 4862SOL    HW126048   3.499   4.688   6.690 -1.4033  0.7400  0.3049
 4862SOL    HW226049   3.476   4.639   6.556  0.2855 -1.5218  2.5150
 4863SOL     OW26050   1.111   4.547   9.229 -0.4554 -0.1879  0.2480
 4863SOL    HW126051   1.047   4.508   9.169 -0.9689  0.0758  0.6217
 4863SOL    HW226052   1.169   4.471   9.236 -1.0305 -0.6462  0.0120
 4864SOL     OW26053   0.994   3.794   1.873  0.3331 -0.3682 -0.6168
 4864SOL    HW126054   0.923   3.731   1.889  0.0334 -0.0319 -0.6167
 4864SOL    HW226055   1.037   3.791   1.958  2.6792 -0.4516 -1.8258
 4865SOL     OW26056   3.305   1.010   0.109 -0.0958 -0.7995  0.7598
 4865SOL    HW126057   3.240   1.026   0.042  1.9802  1.6070 -0.6674
 4865SOL    HW226058   3.328   1.095   0.147  0.5547 -0.7613  0.2947
 4866SOL     OW26059   3.813   3.406   2.684 -0.3779  0.7609  0.0697
 4866SOL    HW126060   3.909   3.405   2.676 -0.2653 -0.5611  1.5092
 4866SOL    HW226061   3.787   3.378   2.597  0.3091 -1.5420  0.6067
 4867SOL     OW26062   1.133   1.129  12.678  0.1835  0.1550 -0.2722
 4867SOL    HW126063   1.107   1.121  12.587 -2.8819  0.6447  0.5517
 4867SOL    HW226064   1.049   1.111  12.722  0.4675 -1.7125 -0.4854
 4868SOL     OW26065   1.475   0.575  17.057  0.1255 -1.2451 -0.2898
 4868SOL    HW126066   1.518   0.543  16.977  2.0061  0.4720  0.0198
 4868SOL    HW226067   1.380   0.573  17.044  0.0673  0.7248 -0.1233
 4869SOL     OW26068   2.592   2.456   6.943 -0.3186 -0.1625  0.0995
 4869SOL    HW126069   2.606   2.362   6.954  1.7648  0.0067 -1.0859
 4869SOL    HW226070   2.603   2.462   6.848  1.4776  1.3851  0.4152
 4870SOL     OW26071   0.918   3.280   3.763  0.5304 -0.1888 -0.3809
 4870SOL    HW126072   0.968   3.345   3.713 -0.1622 -0.4694 -1.4370
 4870SOL    HW226073   0.843   3.335   3.788  1.6593  0.2512  1.9643
 4871SOL     OW26074   0.390   4.439   5.713  0.9606  0.3861 -0.4782
 4871SOL    HW126075   0.438   4.522   5.719  1.3945  0.0922  0.2017
 4871SOL    HW226076   0.457   4.375   5.739  1.9034  1.3047 -0.6552
 4872SOL     OW26077   2.229   1.432  14.883 -0.0900 -0.3380 -0.5667
 4872SOL    HW126078   2.267   1.437  14.971 -0.3764 -0.8347 -0.4130
 4872SOL    HW226079   2.292   1.482  14.832  0.9901 -0.5819  0.5281
 4873SOL     OW26080   1.487   3.904   5.253  0.6913 -0.0423  0.3246
 4873SOL    HW126081   1.516   3.991   5.226 -0.2658 -0.4241 -1.9699
 4873SOL    HW226082   1.438   3.925   5.333 -0.9582 -1.1626 -0.3846
 4874SOL     OW26083   0.895   1.552   1.354  0.2728  0.0782 -0.6148
 4874SOL    HW126084   0.917   1.531   1.263  2.3034  1.5370 -0.4790
 4874SOL    HW226085   0.883   1.461   1.378 -1.2835  0.7770  1.2078
 4875SOL     OW26086   0.552   4.487  11.560 -0.2920  0.0660 -0.4203
 4875SOL    HW126087   0.637   4.466  11.599 -0.7708  0.8027  1.0340
 4875SOL    HW226088   0.522   4.408  11.517  1.5663 -0.0137 -1.5586
 4876SOL     OW26089   0.451   1.898  12.558 -0.0138  0.5109 -0.6814
 4876SOL    HW126090   0.389   1.971  12.556  0.6911  1.0904 -1.1504
 4876SOL    HW226091   0.404   1.846  12.624 -1.0500  1.0776 -0.9763
 4877SOL     OW26092   2.809   3.651   1.396  0.0513 -0.0494 -0.6268
 4877SOL    HW126093   2.813   3.643   1.492  0.3056 -3.2402 -0.8836
 4877SOL    HW226094   2.812   3.743   1.372 -1.4653  0.7388  2.2570
 4878SOL     OW26095   2.018   1.622   2.645  0.0906  0.1103  0.8108
 4878SOL    HW126096   2.112   1.633   2.626 -0.1821  1.6878  0.3387
 4878SOL    HW226097   1.993   1.547   2.591  1.0361  1.5142 -1.5907
 4879SOL     OW26098   1.391   2.889   2.781  0.5425  0.0104  0.0229
 4879SOL    HW126099   1.326   2.913   2.847  1.5707 -0.2479  1.1215
 4879SOL    HW226100   1.361   2.935   2.703 -1.0298  2.1939  1.9324
 4880SOL     OW26101   3.448   1.489   3.327  0.5135  0.3608  0.4712
 4880SOL    HW126102   3.490   1.482   3.413  2.2188 -1.2697 -0.5032
 4880SOL    HW226103   3.462   1.583   3.315  0.3105  0.1978 -1.0808
 4881SOL     OW26104   1.972   4.568   9.678  0.3337 -0.1376  0.4122
 4881SOL    HW126105   2.053   4.517   9.685  0.6572  0.2468 -0.4920
 4881SOL    HW226106   1.912   4.505   9.719 -1.2879  1.9067  1.1954
 4882SOL     OW26107   4.468   1.632  14.421 -0.2364 -0.3149  0.0013
 4882SOL    HW126108   4.525   1.567  14.461  1.7592  0.6122 -1.3291
 4882SOL    HW226109   4.497   1.720  14.445 -1.9617 -0.0527  1.1055
 4883SOL     OW26110   3.232   3.318   8.710 -0.3751  0.1903  0.0441
 4883SOL    HW126111   3.190   3.287   8.790  1.2681 -0.2519  0.7264
 4883SOL    HW226112   3.304   3.258   8.691  1.4228  2.8984 -1.6816
 4884SOL     OW26113   0.792   2.188  10.284 -0.3812 -0.1082 -0.2839
 4884SOL    HW126114   0.833   2.177  10.369  2.1594  2.3363 -1.1932
 4884SOL    HW226115   0.801   2.104  10.238 -1.9616  1.0032 -2.6263
 4885SOL     OW26116   2.273   0.672   0.768  0.2366 -0.0803 -0.4409
 4885SOL    HW126117   2.326   0.729   0.823  1.6451 -1.8210  0.0165
 4885SOL    HW226118   2.194   0.672   0.822 -0.0936 -1.8806 -0.9385
 4886SOL     OW26119   3.152   0.909  10.718  0.3761 -0.2368  0.2004
 4886SOL    HW126120   3.167   0.985  10.775  2.0772 -1.1555  1.0039
 4886SOL    HW226121   3.201   0.942  10.643 -2.3066  2.0041 -0.5914
 4887SOL     OW26122   3.050   3.751   6.178  0.2029 -0.0757 -0.3507
 4887SOL    HW126123   3.005   3.834   6.192 -0.6287 -0.9048  1.8148
 4887SOL    HW226124   3.000   3.719   6.102  0.1647  0.6566 -0.6314
 4888SOL     OW26125   1.069   3.777   7.462  0.0437 -0.0027  0.1077
 4888SOL    HW126126   1.029   3.693   7.484  1.1255 -0.9781 -1.7395
 4888SOL    HW226127   1.067   3.822   7.547 -0.4247 -1.7194  0.9961
 4889SOL     OW26128   3.199   4.102   6.414 -0.2398 -0.5873  0.0165
 4889SOL    HW126129   3.157   4.056   6.342  0.3191 -1.4757  0.2603
 4889SOL    HW226130   3.238   4.031   6.465  2.3301  0.6124 -0.2747
 4890SOL     OW26131   0.554   3.924  14.654 -0.1651  0.1858 -0.2614
 4890SOL    HW126132   0.500   3.997  14.624  0.1507  0.7016  0.4359
 4890SOL    HW226133   0.606   3.973  14.718 -0.4740 -0.1992  0.2861
 4891SOL     OW26134   2.061   0.034  15.026 -0.1132  0.5075  0.2878
 4891SOL    HW126135   2.040   0.052  14.934 -1.3919 -0.8283  0.3063
 4891SOL    HW226136   2.093   0.120  15.052  2.0145 -0.2226  0.0782
 4892SOL     OW26137   3.237   3.019  15.109  0.3551 -0.1177 -0.3024
 4892SOL    HW126138   3.296   3.093  15.123 -0.7354 -0.3304  5.3483
 4892SOL    HW226139   3.176   3.042  15.038 -1.5192 -0.0702  1.3376
 4893SOL     OW26140   3.245   2.656   7.439  0.0354 -0.4124 -0.1288
 4893SOL    HW126141   3.221   2.710   7.364 -0.5356  0.3546  0.6053
 4893SOL    HW226142   3.340   2.658   7.435  0.0514  0.5740  0.6003
 4894SOL     OW26143   2.951   4.073   1.055 -0.3469 -0.1949 -0.2260
 4894SOL    HW126144   2.910   4.133   1.118 -0.1297  2.0969 -2.2427
 4894SOL    HW226145   3.035   4.118   1.042  1.3395 -2.3879  3.0448
 4895SOL     OW26146   1.547   0.328   7.993 -0.2330  0.3638  0.1677
 4895SOL    HW126147   1.539   0.287   8.080 -0.1431 -0.4619 -0.2105
 4895SOL    HW226148   1.491   0.404   8.006 -0.1696  0.6909 -1.4978
 4896SOL     OW26149   3.020   4.657  15.827 -0.2519  0.3977 -0.0454
 4896SOL    HW126150   2.989   4.699  15.907  0.9739  0.2605  0.4955
 4896SOL    HW226151   3.066   0.002  15.775 -0.3598  0.8799  0.4846
 4897SOL     OW26152   2.473   0.434   7.506 -0.1851 -0.9084  0.1627
 4897SOL    HW126153   2.511   0.382   7.435 -0.7573  2.5195 -2.6210
 4897SOL    HW226154   2.392   0.384   7.518 -0.6235  0.4093  2.7239
 4898SOL     OW26155   2.262   2.367   2.315 -0.1578  0.1560 -0.0954
 4898SOL    HW126156   2.219   2.287   2.343  4.3753 -2.2662 -0.0432
 4898SOL    HW226157   2.341   2.335   2.271  0.2613  0.2599  0.5861
 4899SOL     OW26158   3.321   2.235   0.084 -0.1215  0.1586  0.1394
 4899SOL    HW126159   3.340   2.296   0.013  0.8026 -0.5112 -0.1777
 4899SOL    HW226160   3.309   2.291   0.160 -1.0765  1.1364 -0.7233
 4900SOL     OW26161   4.665   3.025   9.901 -0.1132 -0.0587 -0.0278
 4900SOL    HW126162   4.620   2.991   9.824 -0.4063 -4.0592  1.8740
 4900SOL    HW226163   4.716   2.950   9.934 -2.3428 -1.9600 -0.8743
 4901SOL     OW26164   1.946   2.008  14.687  0.4056 -0.1274  0.0614
 4901SOL    HW126165   1.889   1.938  14.655  1.6225 -1.3581  0.5603
 4901SOL    HW226166   2.012   2.000  14.618 -0.2884  0.2215 -0.6397
 4902SOL     OW26167   1.463   1.271   5.187  0.0013  0.1086 -0.6766
 4902SOL    HW126168   1.375   1.265   5.150 -1.1614 -0.5214  2.1755
 4902SOL    HW226169   1.506   1.340   5.135 -0.4989  1.8768  1.2438
 4903SOL     OW26170   0.800   0.962   8.491 -0.0835 -0.4279 -0.3051
 4903SOL    HW126171   0.821   0.877   8.527  1.0271  0.1038  0.2961
 4903SOL    HW226172   0.887   1.000   8.477 -0.8124  1.4698  0.2982
 4904SOL     OW26173   2.014   3.595   2.123  0.2805 -0.1044  0.2086
 4904SOL    HW126174   2.050   3.598   2.212 -0.6953  0.5149  0.5831
 4904SOL    HW226175   1.920   3.588   2.141 -0.0657  2.3501 -0.6740
 4905SOL     OW26176   2.848   2.365  13.081  0.1884 -0.4433  0.0551
 4905SOL    HW126177   2.925   2.389  13.131 -0.2539  0.9203  0.0744
 4905SOL    HW226178   2.865   2.277  13.047  1.0065  0.6766 -2.4262
 4906SOL     OW26179   1.323   3.263   3.366  0.1475 -0.1618  0.2043
 4906SOL    HW126180   1.236   3.280   3.403  1.5976  1.5479  2.7788
 4906SOL    HW226181   1.301   3.181   3.321 -1.4929  0.7643 -0.7018
 4907SOL     OW26182   3.186   3.641   0.671  0.0879 -0.1866  0.7547
 4907SOL    HW126183   3.251   3.704   0.640  0.9060 -2.6568 -2.6214
 4907SOL    HW226184   3.218   3.632   0.760 -0.2444 -3.4615  0.5362
 4908SOL     OW26185   0.630   1.764   1.244 -0.0476 -0.2724 -0.2230
 4908SOL    HW126186   0.639   1.672   1.219  0.6545 -0.2287 -0.1443
 4908SOL    HW226187   0.678   1.804   1.172  0.3954  3.0956  1.9617
 4909SOL     OW26188   4.655   4.091   2.774  0.4292 -0.0803 -0.0737
 4909SOL    HW126189   4.662   4.117   2.866 -1.6001 -1.2918  0.4382
 4909SOL    HW226190   4.631   4.176   2.739 -1.7654 -1.1329 -1.1522
 4910SOL     OW26191   1.440   0.806   3.367 -0.1066 -0.4615  0.4152
 4910SOL    HW126192   1.445   0.713   3.387 -0.0809 -0.4488  0.4661
 4910SOL    HW226193   1.389   0.790   3.288  2.0178  1.3968 -1.3676
 4911SOL     OW26194   1.891   0.593  10.423  0.0550 -0.2718  0.3513
 4911SOL    HW126195   1.820   0.544  10.464 -0.7665  0.8076  0.2302
 4911SOL    HW226196   1.962   0.566  10.481 -0.7123 -0.8778  1.0073
 4912SOL     OW26197   2.836   0.396   8.441  0.3349 -0.1429 -0.6500
 4912SOL    HW126198   2.860   0.312   8.402 -3.0038 -0.2634 -2.3738
 4912SOL    HW226199   2.808   0.444   8.363 -0.9232 -2.0291 -1.3469
 4913SOL     OW26200   1.937   4.020   7.167 -0.0671 -0.1845 -0.9564
 4913SOL    HW126201   2.029   4.035   7.144 -0.1281  0.8616 -0.5099
 4913SOL    HW226202   1.891   4.104   7.155 -0.9457 -0.6972 -1.1994
 4914SOL     OW26203   0.456   1.442   5.175 -0.1333 -0.8048  0.3682
 4914SOL    HW126204   0.480   1.486   5.094 -0.8601  0.5124  0.8759
 4914SOL    HW226205   0.404   1.369   5.142  0.7842 -0.8699 -0.9171
 4915SOL     OW26206   3.658   0.007   7.621  0.8572 -0.7196 -0.1295
 4915SOL    HW126207   3.699   4.654   7.580 -0.9936 -0.8561 -1.7148
 4915SOL    HW226208   3.740   0.057   7.632  0.4443 -0.7695  3.3598
 4916SOL     OW26209   1.160   2.132  11.223 -0.2671  0.6292 -0.0025
 4916SOL    HW126210   1.244   2.174  11.206 -0.0590  0.2532  0.1087
 4916SOL    HW226211   1.106   2.210  11.240  0.0122  0.7080  0.5186
 4917SOL     OW26212   0.640   4.301   2.537 -0.3040 -0.0658  0.1021
 4917SOL    HW126213   0.568   4.341   2.488  1.3843 -1.2119 -3.3009
 4917SOL    HW226214   0.689   4.264   2.464  1.7803  1.2778  0.8172
 4918SOL     OW26215   3.574   0.979  13.447 -0.1005  0.2521 -0.4141
 4918SOL    HW126216   3.542   0.903  13.397  1.8490 -2.2933  2.1966
 4918SOL    HW226217   3.544   0.952  13.534  1.2525  2.5665  0.7608
 4919SOL     OW26218   2.128   3.220  15.047 -0.7163 -0.0484 -0.0858
 4919SOL    HW126219   2.108   3.305  15.010  3.4285  1.4881  1.2087
 4919SOL    HW226220   2.146   3.247  15.137 -2.5471  0.1772  0.2223
 4920SOL     OW26221   3.544   3.989   7.710 -0.6728  0.1681  0.1631
 4920SOL    HW126222   3.565   4.010   7.619  2.1248  1.4062  1.0839
 4920SOL    HW226223   3.505   3.902   7.715  1.3160 -0.7995 -0.9446
 4921SOL     OW26224   1.301   4.223   0.456  0.1755 -0.3440  0.1390
 4921SOL    HW126225   1.387   4.212   0.498 -0.7152  1.7697  2.5076
 4921SOL    HW226226   1.323   4.200   0.365 -0.9904 -1.9484  0.2690
 4922SOL     OW26227   2.809   4.188   7.236  0.5794 -0.2086 -0.3175
 4922SOL    HW126228   2.749   4.160   7.305  0.9802  1.2294  0.6212
 4922SOL    HW226229   2.892   4.148   7.260  0.8065 -0.7003 -1.9217
 4923SOL     OW26230   3.865   4.284  10.405 -0.7274  0.4682  0.4202
 4923SOL    HW126231   3.873   4.300  10.311  0.7249  0.1484  0.4947
 4923SOL    HW226232   3.820   4.362  10.438 -0.2632  1.4035 -1.1903
 4924SOL     OW26233   1.979   2.948  17.038 -0.5518 -0.5054 -0.1872
 4924SOL    HW126234   1.972   3.001  17.117 -0.3541 -2.2576  0.9924
 4924SOL    HW226235   1.915   2.978  16.973 -0.7677  0.3562  0.4334
 4925SOL     OW26236   1.738   2.825   4.088  0.3845 -0.0524 -0.5499
 4925SOL    HW126237   1.747   2.737   4.125 -0.8252 -0.2356 -0.6952
 4925SOL    HW226238   1.730   2.804   3.995  1.0816 -0.7531 -0.4534
 4926SOL     OW26239   4.113   2.929   7.233  0.2545  0.5233  0.2149
 4926SOL    HW126240   4.040   2.897   7.180 -0.6576  4.7929 -1.1116
 4926SOL    HW226241   4.067   3.002   7.275 -0.7472 -0.4870  0.9018
 4927SOL     OW26242   1.930   4.241   4.113 -0.2182  0.2068  0.0832
 4927SOL    HW126243   1.876   4.186   4.170  1.1543 -0.6577  0.5601
 4927SOL    HW226244   1.906   4.193   4.033 -0.0825 -0.5962  0.5295
 4928SOL     OW26245   0.856   2.991  14.921  0.1196  0.3373  0.0454
 4928SOL    HW126246   0.878   2.966  14.831 -1.9164 -0.4476 -0.2316
 4928SOL    HW226247   0.798   3.066  14.906  1.0154  0.8020 -1.0831
 4929SOL     OW26248   3.621   2.364   0.813 -0.1108  0.0407  0.0789
 4929SOL    HW126249   3.595   2.444   0.858 -1.8451  0.6469 -2.0259
 4929SOL    HW226250   3.637   2.307   0.888 -1.0961  0.3980  0.5630
 4930SOL     OW26251   1.913   0.807  16.223 -0.0237  0.1732  0.1260
 4930SOL    HW126252   1.861   0.728  16.212 -1.2578  1.0244 -0.1528
 4930SOL    HW226253   1.970   0.815  16.147 -0.0378 -1.6379 -0.0733
 4931SOL     OW26254   4.033   3.272   3.978 -0.3387 -0.0866  0.5558
 4931SOL    HW126255   3.947   3.282   4.018 -0.6218 -0.8459  0.1566
 4931SOL    HW226256   4.042   3.363   3.951  0.2197 -0.4349 -0.4450
 4932SOL     OW26257   0.430   3.674   6.533  0.4334 -0.4944 -0.4019
 4932SOL    HW126258   0.350   3.680   6.481  0.4155 -0.0065 -0.3219
 4932SOL    HW226259   0.397   3.645   6.618  0.4664 -0.1604 -0.2728
 4933SOL     OW26260   3.286   0.879   2.676 -0.1570  0.3596  0.4982
 4933SOL    HW126261   3.365   0.831   2.701  0.0493  0.0666 -0.7207
 4933SOL    HW226262   3.255   0.915   2.759 -0.7625 -1.8274  1.2188
 4934SOL     OW26263   2.172   4.011  14.789 -0.0592  0.1713 -0.4626
 4934SOL    HW126264   2.112   3.936  14.790 -1.3622  1.2095 -0.3971
 4934SOL    HW226265   2.158   4.054  14.873 -0.1034 -2.7804  1.0625
 4935SOL     OW26266   1.129   0.133   6.163  0.0136  0.4392 -0.3137
 4935SOL    HW126267   1.146   0.220   6.200 -0.7603  0.8520 -0.9431
 4935SOL    HW226268   1.216   0.093   6.169  0.0250  0.3798 -0.9759
 4936SOL     OW26269   4.094   1.057  10.876  0.4060  0.5470  0.3734
 4936SOL    HW126270   4.140   1.085  10.956 -0.8448  0.2187  1.2086
 4936SOL    HW226271   4.033   1.130  10.863 -0.7164 -0.2375  1.2108
 4937SOL     OW26272   1.541   4.685   2.236  0.7150 -0.3976  0.0289
 4937SOL    HW126273   1.547   4.599   2.194  0.2226 -0.0111 -0.8126
 4937SOL    HW226274   1.607   0.012   2.188  1.5756 -0.4612  1.1285
 4938SOL     OW26275   0.264   2.801  16.353 -0.5852  0.1303 -0.0644
 4938SOL    HW126276   0.261   2.780  16.446  3.6813  2.5843  0.5816
 4938SOL    HW226277   0.335   2.863  16.339  0.5083 -1.0650  0.2034
 4939SOL     OW26278   3.867   1.189   7.582 -0.2356 -0.3483  0.2796
 4939SOL    HW126279   3.920   1.151   7.652 -1.3923  0.5541  1.6278
 4939SOL    HW226280   3.862   1.113   7.524 -1.3511 -0.8619  1.0481
 4940SOL     OW26281   0.225   3.947   6.332  0.2164 -0.3502 -0.0666
 4940SOL    HW126282   0.166   3.982   6.399  2.7032  1.8062  0.9812
 4940SOL    HW226283   0.213   3.852   6.328  0.2369 -0.3145 -0.9298
 4941SOL     OW26284   3.762   1.077  10.738 -0.1668 -0.2687 -0.5565
 4941SOL    HW126285   3.774   1.091  10.644  1.6849 -1.7641 -0.5449
 4941SOL    HW226286   3.708   0.998  10.739 -1.5613  0.7059  0.4762
 4942SOL     OW26287   3.243   0.891   2.133  0.1903 -0.3847  0.4761
 4942SOL    HW126288   3.152   0.888   2.106  0.3414 -0.3969 -0.0276
 4942SOL    HW226289   3.241   0.873   2.227 -0.7650 -2.8310  0.0007
 4943SOL     OW26290   0.425   3.185   8.480 -0.5614  0.5180 -0.8369
 4943SOL    HW126291   0.468   3.220   8.558 -1.6656  1.7252 -0.7672
 4943SOL    HW226292   0.353   3.124   8.501 -1.2984  1.1839 -1.4304
 4944SOL     OW26293   2.108   4.544  14.658 -0.1827  0.0010  0.0732
 4944SOL    HW126294   2.171   4.505  14.598 -1.2522 -1.0183 -0.4050
 4944SOL    HW226295   2.074   4.462  14.694  2.8849 -1.2576  0.0907
 4945SOL     OW26296   4.709   4.513   8.172 -0.1633  0.4364  0.1278
 4945SOL    HW126297   4.701   4.442   8.109  0.0856  3.6346 -3.5452
 4945SOL    HW226298   4.652   4.482   8.242 -0.8126  0.8224 -0.2282
 4946SOL     OW26299   3.300   1.480   0.049 -0.7888 -0.7223 -0.4622
 4946SOL    HW126300   3.314   1.509  17.650  0.3582 -0.5967 -0.2396
 4946SOL    HW226301   3.227   1.419   0.036 -0.8912 -0.3144 -1.7082
 4947SOL     OW26302   3.089   4.710   4.946 -0.1662 -0.6640  0.4774
 4947SOL    HW126303   3.159   4.721   4.882  0.5511 -1.8171  1.0588
 4947SOL    HW226304   3.103   4.620   4.977  0.8079 -0.1114  1.6569
 4948SOL     OW26305   2.946   0.114   1.406 -0.0887  0.3419 -0.5024
 4948SOL    HW126306   2.948   0.189   1.347  2.4442  1.0733  0.5341
 4948SOL    HW226307   2.865   0.138   1.452 -0.7852  0.0001 -1.5572
 4949SOL     OW26308   3.683   0.203   8.165  0.1269 -0.4152 -0.1712
 4949SOL    HW126309   3.605   0.148   8.161 -0.6658  0.6474  0.4754
 4949SOL    HW226310   3.676   0.256   8.085 -2.2208  1.0248  0.9851
 4950SOL     OW26311   3.531   0.156  12.881  0.1674  0.7439  0.8223
 4950SOL    HW126312   3.459   0.146  12.818  0.7361  0.3081  0.2458
 4950SOL    HW226313   3.606   0.182  12.828 -0.8926  2.0860 -0.0040
 4951SOL     OW26314   1.516   3.694   4.749  0.1018 -0.2455 -0.2085
 4951SOL    HW126315   1.517   3.705   4.844 -2.1376 -0.0832 -0.2146
 4951SOL    HW226316   1.540   3.602   4.745 -0.1088 -0.2552 -1.1205
 4952SOL     OW26317   3.882   2.803   4.650  0.2203 -0.1808 -0.1657
 4952SOL    HW126318   3.970   2.796   4.614 -0.5252 -0.2810 -2.0030
 4952SOL    HW226319   3.839   2.853   4.580 -1.0791 -0.3831  0.4839
 4953SOL     OW26320   0.187   3.408  13.447  0.5612 -0.3766 -0.4590
 4953SOL    HW126321   0.117   3.473  13.454 -0.6386 -1.7323  0.1287
 4953SOL    HW226322   0.260   3.455  13.487 -1.0258  0.8192  1.0365
 4954SOL     OW26323   3.410   3.363   6.202  0.5583  0.2295  0.4868
 4954SOL    HW126324   3.398   3.331   6.292 -1.5416  1.5125  0.6640
 4954SOL    HW226325   3.341   3.429   6.200  0.5137  0.1998  0.8695
 4955SOL     OW26326   0.398   4.449   7.562  0.1862  0.5171  0.1720
 4955SOL    HW126327   0.470   4.496   7.603 -0.4530  0.4114  1.4352
 4955SOL    HW226328   0.412   4.483   7.474  0.2024 -0.9380 -0.3849
 4956SOL     OW26329   1.849   1.637  13.386  0.1568 -0.0237  0.2710
 4956SOL    HW126330   1.805   1.710  13.342  2.7549  1.8419  0.7966
 4956SOL    HW226331   1.938   1.665  13.405 -0.1721  1.2823 -0.0974
 4957SOL     OW26332   0.070   1.048   6.062 -0.0753 -0.4407  0.4821
 4957SOL    HW126333   0.046   0.986   5.992 -1.4314  1.4531 -0.7108
 4957SOL    HW226334   0.033   1.132   6.035  1.4366  0.4755  1.2784
 4958SOL     OW26335   2.442   4.094  15.509 -0.1238 -0.7650 -0.1894
 4958SOL    HW126336   2.421   4.181  15.475 -1.5900 -0.4775  1.4373
 4958SOL    HW226337   2.385   4.037  15.457  0.7182  1.2561 -3.3047
 4959SOL     OW26338   0.905   1.276   3.359  0.1282  0.0624 -0.2967
 4959SOL    HW126339   0.959   1.197   3.359  1.3413  0.8766  2.5819
 4959SOL    HW226340   0.951   1.327   3.293  1.2190  0.0046  0.4337
 4960SOL     OW26341   2.653   3.790   2.196  0.1371 -0.0584 -0.0409
 4960SOL    HW126342   2.649   3.757   2.106 -0.0654  2.0940 -0.8229
 4960SOL    HW226343   2.564   3.822   2.210  0.2771  0.4089 -0.2350
 4961SOL     OW26344   4.151   2.720   9.124 -0.0097 -0.4575 -0.4138
 4961SOL    HW126345   4.182   2.748   9.210 -0.3092  0.6882 -0.6820
 4961SOL    HW226346   4.105   2.794   9.084  1.3815  1.0559  0.8587
 4962SOL     OW26347   3.549   1.799   8.142 -0.5698 -0.0119  0.4542
 4962SOL    HW126348   3.463   1.790   8.184 -0.6760  1.2590  0.5107
 4962SOL    HW226349   3.604   1.751   8.204  0.3612  2.4571  1.5110
 4963SOL     OW26350   0.438   0.416   1.116 -0.9334 -0.0946  0.7768
 4963SOL    HW126351   0.361   0.421   1.059  1.0181 -1.0683 -1.9777
 4963SOL    HW226352   0.430   0.327   1.151 -0.3417 -1.8876 -3.6857
 4964SOL     OW26353   0.958   0.144   5.173 -0.4469 -0.3862  0.2659
 4964SOL    HW126354   0.882   0.089   5.189 -1.9841  1.2777 -1.4311
 4964SOL    HW226355   1.008   0.087   5.115  0.2959  1.1646 -0.6185
 4965SOL     OW26356   3.285   0.697   9.584  0.3110  0.2545  0.1375
 4965SOL    HW126357   3.244   0.784   9.591 -0.1429  0.0970 -0.5050
 4965SOL    HW226358   3.270   0.655   9.668 -4.8101 -0.2646 -1.0134
 4966SOL     OW26359   3.051   3.054   5.893 -0.2191 -0.4653  0.1426
 4966SOL    HW126360   3.087   3.023   5.976 -0.3072  2.4741  1.2820
 4966SOL    HW226361   3.017   2.978   5.846 -0.5928 -0.7849  0.9335
 4967SOL     OW26362   4.552   3.514  11.718  0.3051 -0.3121  0.1070
 4967SOL    HW126363   4.495   3.465  11.658  0.4087 -0.8144  0.4209
 4967SOL    HW226364   4.625   3.536  11.660 -0.2275 -1.8279 -1.1397
 4968SOL     OW26365   4.289   2.820   9.378 -0.0778  0.8070 -0.1839
 4968SOL    HW126366   4.377   2.782   9.384 -1.0355 -1.3155  0.5851
 4968SOL    HW226367   4.246   2.781   9.454  1.7544 -1.6168 -0.3981
 4969SOL     OW26368   3.993   3.098   7.476  0.0553  0.4117 -0.5407
 4969SOL    HW126369   3.985   3.017   7.525 -0.9605 -0.4832 -2.2020
 4969SOL    HW226370   4.057   3.144   7.531 -1.9935 -0.0144  2.1755
 4970SOL     OW26371   0.177   4.526   3.592 -0.3360 -0.1920  0.5543
 4970SOL    HW126372   0.110   4.515   3.524  0.1430  1.6244 -0.2471
 4970SOL    HW226373   0.247   4.578   3.551 -0.9592 -0.5462 -0.9849
 4971SOL     OW26374   3.487   3.345  17.678  0.0342  0.1854  0.3074
 4971SOL    HW126375   3.487   3.426   0.039  3.0158 -0.5952  1.5426
 4971SOL    HW226376   3.523   3.387  17.600  2.2050 -1.0087  0.6799
 4972SOL     OW26377   3.831   0.183   4.719  0.2465  0.0512 -0.5905
 4972SOL    HW126378   3.904   0.123   4.704 -0.2092 -1.3903  2.8228
 4972SOL    HW226379   3.882   0.247   4.770  0.0492 -0.1542 -0.1309
 4973SOL     OW26380   3.917   2.439   3.488 -0.8738 -0.3731  0.0952
 4973SOL    HW126381   3.934   2.517   3.540  2.5022  0.0596 -1.6804
 4973SOL    HW226382   3.830   2.413   3.519 -1.2912  0.4968 -0.3468
 4974SOL     OW26383   0.427   0.002   6.523 -0.2810 -0.5279  0.0978
 4974SOL    HW126384   0.366   0.075   6.519  1.0751  0.5633 -0.9641
 4974SOL    HW226385   0.484   0.014   6.446  0.5568 -0.5634  0.7082
 4975SOL     OW26386   0.033   1.691  12.226 -0.7060 -0.5940 -0.3702
 4975SOL    HW126387   4.668   1.654  12.208 -0.8774 -1.2486  1.8222
 4975SOL    HW226388   0.088   1.615  12.208  0.1079  0.3428 -1.8959
 4976SOL     OW26389   2.302   1.919   6.000 -0.2413  0.0462  0.0021
 4976SOL    HW126390   2.311   1.994   6.058 -0.2224  0.2089 -0.2129
 4976SOL    HW226391   2.216   1.926   5.957  0.7217 -1.8394 -2.2667
 4977SOL     OW26392   3.272   2.752  10.817  0.0993  0.2583  0.6309
 4977SOL    HW126393   3.303   2.727  10.904  1.4914 -0.8716 -0.1708
 4977SOL    HW226394   3.251   2.844  10.828  1.2743  0.2800  2.5374
 4978SOL     OW26395   3.171   1.461  14.309  0.7348  0.1196 -0.1815
 4978SOL    HW126396   3.217   1.525  14.363  0.9635 -0.3836  0.2130
 4978SOL    HW226397   3.158   1.397  14.379 -1.6678  2.0474  1.1290
 4979SOL     OW26398   0.773   0.953   3.200  0.2930 -0.1358  0.0797
 4979SOL    HW126399   0.854   0.932   3.247 -0.5524 -0.6924  1.3012
 4979SOL    HW226400   0.716   0.877   3.216  1.2791 -0.7032  0.8927
 4980SOL     OW26401   0.348   3.224   7.315  0.3894  0.0707  0.4489
 4980SOL    HW126402   0.262   3.257   7.342  0.2700 -1.8992  2.5672
 4980SOL    HW226403   0.402   3.302   7.326  2.0514 -0.8708 -0.9867
 4981SOL     OW26404   3.859   2.144   6.869 -0.2663  0.4834  0.0863
 4981SOL    HW126405   3.772   2.145   6.830 -0.8513 -0.9538  1.3610
 4981SOL    HW226406   3.917   2.149   6.793  0.9938  2.8113  1.2168
 4982SOL     OW26407   4.361   2.621   4.717 -0.1767  0.2037 -0.1333
 4982SOL    HW126408   4.283   2.586   4.760 -0.2125  1.1666  0.5762
 4982SOL    HW226409   4.421   2.546   4.728 -1.3416 -0.9685 -1.8189
 4983SOL     OW26410   2.670   3.770   3.067 -0.1613  0.0718  0.1121
 4983SOL    HW126411   2.705   3.688   3.100 -2.5334 -0.3161  1.6712
 4983SOL    HW226412   2.647   3.748   2.976 -0.1933 -0.6280  0.2900
 4984SOL     OW26413   0.868   1.229  17.372  0.5477  0.1823 -0.0001
 4984SOL    HW126414   0.932   1.287  17.330  0.6192  0.4611  0.4856
 4984SOL    HW226415   0.930   1.159  17.391 -0.0001 -0.2421  0.2212
 4985SOL     OW26416   2.126   2.579   2.665 -0.8501  0.0655  0.5850
 4985SOL    HW126417   2.052   2.633   2.637 -2.2291 -2.8461 -1.3869
 4985SOL    HW226418   2.193   2.616   2.608 -0.2945 -0.6109  0.7925
 4986SOL     OW26419   3.147   3.591   2.909 -0.0034 -0.3481 -0.2292
 4986SOL    HW126420   3.113   3.502   2.920 -1.5745  0.5138  2.0498
 4986SOL    HW226421   3.083   3.630   2.849 -1.6396 -1.0882  1.0222
 4987SOL     OW26422   4.517   3.078  10.517  0.1338  0.9113  0.2630
 4987SOL    HW126423   4.515   2.986  10.544  1.7255  0.4857 -1.0751
 4987SOL    HW226424   4.605   3.107  10.542  0.3563 -1.6092  2.3986
 4988SOL     OW26425   1.456   0.143   5.982  0.4680  0.2450 -0.4272
 4988SOL    HW126426   1.517   0.185   5.921  1.2709 -0.8122 -0.3628
 4988SOL    HW226427   1.460   0.055   5.943  0.0732 -0.0890  0.2903
 4989SOL     OW26428   0.404   4.509   9.656 -0.3885  0.0659  0.6060
 4989SOL    HW126429   0.351   4.480   9.582  1.6696  1.2449 -1.3204
 4989SOL    HW226430   0.378   4.600   9.670 -1.4793  0.1354 -1.8755
 4990SOL     OW26431   2.367   4.576   7.192  0.4269 -0.1991  0.1402
 4990SOL    HW126432   2.343   4.484   7.188  3.5010 -1.0124  0.2731
 4990SOL    HW226433   2.446   4.574   7.138 -0.2609 -2.3413 -0.7595
 4991SOL     OW26434   3.459   4.367   2.662 -0.1963 -0.4085 -0.0357
 4991SOL    HW126435   3.468   4.279   2.698  1.4825  1.0224  3.0535
 4991SOL    HW226436   3.458   4.424   2.740 -3.9862 -0.7367  0.1401
 4992SOL     OW26437   3.853   2.210   3.988 -0.4008 -0.2287 -0.5650
 4992SOL    HW126438   3.775   2.162   3.960  1.5050 -1.6283 -3.4500
 4992SOL    HW226439   3.921   2.143   3.989  0.6000  0.8131  1.1431
 4993SOL     OW26440   2.594   2.475   8.339 -0.0515  0.5997 -0.1175
 4993SOL    HW126441   2.674   2.427   8.318 -0.3310 -0.3449  0.9834
 4993SOL    HW226442   2.623   2.563   8.363  1.6392 -0.0702  0.2508
 4994SOL     OW26443   3.494   0.503   4.375 -0.2946  0.3292  0.1912
 4994SOL    HW126444   3.432   0.533   4.441  1.2852  2.0087  0.8947
 4994SOL    HW226445   3.449   0.423   4.347 -0.6987  0.1153  1.4702
 4995SOL     OW26446   2.115   4.093   7.958  0.2982  0.1906 -0.3787
 4995SOL    HW126447   2.057   4.051   7.894  0.5949 -1.9255  0.7435
 4995SOL    HW226448   2.054   4.146   8.010  0.7510  0.6063 -0.2667
 4996SOL     OW26449   1.257   4.412   0.810 -0.2468 -0.0299  0.1794
 4996SOL    HW126450   1.215   4.331   0.838  0.8080 -0.7144 -0.2045
 4996SOL    HW226451   1.250   4.456   0.895  3.0574 -4.2511  2.6344
 4997SOL     OW26452   4.134   4.693   6.962 -0.0749  0.2340 -0.6304
 4997SOL    HW126453   4.065   4.634   6.993  0.5011  0.6120  1.3845
 4997SOL    HW226454   4.149   4.658   6.874  0.1645 -1.9598  0.2571
 4998SOL     OW26455   4.718   0.179   3.017  0.1675  0.1946 -0.2470
 4998SOL    HW126456   0.072   0.194   2.961  0.5092  1.7025  0.6140
 4998SOL    HW226457   4.691   0.100   2.971  1.3520 -1.2765  1.6031
 4999SOL     OW26458   2.224   1.545   8.577  0.1254 -0.0917  0.2370
 4999SOL    HW126459   2.197   1.458   8.549  1.5401  0.0389 -1.5774
 4999SOL    HW226460   2.216   1.527   8.670  0.1151 -0.8189  0.0924
 5000SOL     OW26461   4.611   4.667   4.108 -0.1436 -0.1708  0.2034
 5000SOL    HW126462   4.607   0.026   4.057  1.3962  0.3596  0.9276
 5000SOL    HW226463   4.638   4.700   4.193 -1.9505 -0.0350  0.7197
 5001SOL     OW26464   1.191   3.171   1.410 -0.2943 -0.6796  0.0841
 5001SOL    HW126465   1.165   3.092   1.363 -2.7050 -0.2062  0.5972
 5001SOL    HW226466   1.220   3.235   1.344 -0.5871 -1.9759 -1.2996
 5002SOL     OW26467   2.378   3.912  17.279  0.1375 -0.0406 -0.4905
 5002SOL    HW126468   2.357   4.006  17.275 -2.3050 -0.5822 -0.8490
 5002SOL    HW226469   2.295   3.875  17.310  0.3146  1.9953  2.4435
 5003SOL     OW26470   2.300   2.009   3.257  0.2380  0.1771  0.5990
 5003SOL    HW126471   2.238   1.994   3.185  3.9205 -1.7632 -2.1558
 5003SOL    HW226472   2.241   2.011   3.332 -0.1945 -1.1739  0.3037
 5004SOL     OW26473   0.657   1.521   7.539 -0.2094 -0.0855 -0.3112
 5004SOL    HW126474   0.666   1.431   7.508  2.5796 -0.2019  0.8240
 5004SOL    HW226475   0.569   1.531   7.575 -0.8150  0.7273 -2.0194
 5005SOL     OW26476   2.200   3.055   9.049 -0.8048  0.0950 -0.1540
 5005SOL    HW126477   2.118   3.076   9.005 -1.3602  0.6963  1.1719
 5005SOL    HW226478   2.234   3.144   9.060 -0.2332  0.0247 -1.3792
 5006SOL     OW26479   2.526   4.093   5.590  0.1118 -0.3563  0.2073
 5006SOL    HW126480   2.550   4.034   5.519  0.4274  2.0150 -1.6663
 5006SOL    HW226481   2.492   4.174   5.552  0.9241 -0.6532 -1.1362
 5007SOL     OW26482   4.302   3.933   5.111 -0.0362 -0.0428  0.1009
 5007SOL    HW126483   4.396   3.936   5.130 -0.0495  1.2864 -0.0308
 5007SOL    HW226484   4.268   3.854   5.153  2.5111 -1.0589  0.2846
 5008SOL     OW26485   4.207   0.502   7.096 -0.1943  0.3553 -0.0196
 5008SOL    HW126486   4.182   0.523   7.007  0.3648  1.6214  0.1238
 5008SOL    HW226487   4.132   0.539   7.142 -1.1592 -3.4137  1.5036
 5009SOL     OW26488   4.636   0.078   6.112 -0.1696 -0.6817 -0.3051
 5009SOL    HW126489   4.620   4.721   6.061 -0.0369 -0.7513 -0.2380
 5009SOL    HW226490   4.658   0.131   6.034 -1.2049 -1.2260 -0.9658
 5010SOL     OW26491   3.951   4.234  17.607 -0.2045 -0.2659  0.2122
 5010SOL    HW126492   3.889   4.278  17.665 -1.2559 -1.3539 -0.0862
 5010SOL    HW226493   4.016   4.195  17.666  0.3481  1.0088  0.4371
 5011SOL     OW26494   2.596   1.093   4.629 -0.0539  0.1285 -0.4151
 5011SOL    HW126495   2.671   1.043   4.598  1.3619  1.9967 -0.0060
 5011SOL    HW226496   2.535   1.082   4.557 -2.6026  1.1859  1.5563
 5012SOL     OW26497   4.480   0.193   2.725  0.0470 -0.1476  0.2202
 5012SOL    HW126498   4.546   0.262   2.732  1.9016 -1.7489 -1.4399
 5012SOL    HW226499   4.510   0.150   2.645 -0.8698  2.8744 -1.7341
 5013SOL     OW26500   1.029   3.994   7.985 -0.2561 -0.0858 -0.4110
 5013SOL    HW126501   1.097   3.953   8.039  0.0748  3.1957  1.6948
 5013SOL    HW226502   1.049   4.085   8.010 -2.7608  0.3754 -0.1584
 5014SOL     OW26503   2.478   0.699   3.979 -0.5108  0.1228 -0.2797
 5014SOL    HW126504   2.497   0.791   3.964 -0.8442  0.0769 -0.9427
 5014SOL    HW226505   2.443   0.702   4.068 -1.0803 -1.2790 -0.4599
 5015SOL     OW26506   1.498   3.244   2.736 -0.2033 -0.5091 -0.3247
 5015SOL    HW126507   1.433   3.309   2.711 -2.0720 -2.2393  0.0332
 5015SOL    HW226508   1.446   3.168   2.709  1.7433 -2.7164  2.0830
 5016SOL     OW26509   3.948   1.066   3.110  0.6690  0.1417 -0.1338
 5016SOL    HW126510   3.972   1.094   3.198 -0.9612 -3.7426  1.5465
 5016SOL    HW226511   4.013   1.108   3.054 -0.5063  1.0701 -0.8214
 5017SOL     OW26512   1.815   0.378   6.997  0.3253  0.8116  0.3010
 5017SOL    HW126513   1.892   0.406   7.046 -1.0235 -0.6205  3.2391
 5017SOL    HW226514   1.772   0.322   7.062 -1.3783  1.4490 -0.2673
 5018SOL     OW26515   2.755   0.394   2.963  0.7124 -0.7574 -0.2256
 5018SOL    HW126516   2.764   0.353   3.049  4.2467 -0.1617 -0.3288
 5018SOL    HW226517   2.791   0.323   2.910 -0.1206 -0.9578 -0.5247
 5019SOL     OW26518   1.396   0.284  12.460  0.1292 -0.1355 -0.1366
 5019SOL    HW126519   1.335   0.358  12.453 -1.4854 -1.5273 -0.7784
 5019SOL    HW226520   1.478   0.328  12.437 -0.8924  2.0075  0.3060
 5020SOL     OW26521   4.670   2.738   5.916  0.2947  0.0261  0.2339
 5020SOL    HW126522   4.590   2.737   5.967 -1.2551 -1.1093 -2.2630
 5020SOL    HW226523   4.638   2.739   5.826  0.6173  1.3338  0.1276
 5021SOL     OW26524   2.228   0.386   7.595  0.0904  0.3610  0.2541
 5021SOL    HW126525   2.243   0.372   7.688  0.4287 -0.2456  0.1105
 5021SOL    HW226526   2.173   0.463   7.606 -1.1882 -0.3947 -0.7473
 5022SOL     OW26527   2.267   2.856   4.163 -0.4290  0.3751 -0.6500
 5022SOL    HW126528   2.193   2.840   4.105  1.6045  0.3265 -3.2384
 5022SOL    HW226529   2.223   2.902   4.234  1.6890 -0.7032  1.3479
 5023SOL     OW26530   1.120   0.717   5.767  0.1215  0.7336  0.3211
 5023SOL    HW126531   1.089   0.631   5.738 -1.2343  0.9830  0.9925
 5023SOL    HW226532   1.044   0.748   5.817 -0.4449 -0.8582  0.4764
 5024SOL     OW26533   0.589   0.788  11.476 -0.2511 -0.1065 -0.4705
 5024SOL    HW126534   0.644   0.717  11.510 -0.1476 -0.4968 -1.4808
 5024SOL    HW226535   0.525   0.743  11.421  1.3333  0.5313 -2.8365
 5025SOL     OW26536   4.034   1.164   1.011 -0.9387 -0.0316  0.2918
 5025SOL    HW126537   3.952   1.144   1.056 -0.9207  0.3741  0.5070
 5025SOL    HW226538   4.010   1.127   0.926  1.5021 -0.5870 -0.1283
 5026SOL     OW26539   3.753   1.759  13.867  0.4767  0.4109  0.4269
 5026SOL    HW126540   3.788   1.801  13.945 -0.6434 -0.1011  1.2098
 5026SOL    HW226541   3.826   1.726  13.814 -0.0823 -1.1386  0.6275
 5027SOL     OW26542   0.265   0.240   6.482 -0.3439  0.6060  0.5998
 5027SOL    HW126543   0.261   0.336   6.480  0.1840  0.5991 -0.6975
 5027SOL    HW226544   0.236   0.221   6.393 -0.7010  0.2277  0.8020
 5028SOL     OW26545   2.945   2.820   3.875 -0.0062  0.5102 -0.1485
 5028SOL    HW126546   2.883   2.755   3.841 -1.6294  1.3955  1.0756
 5028SOL    HW226547   3.026   2.789   3.835 -0.1724  1.3881 -1.1750
 5029SOL     OW26548   3.722   0.186  14.519  0.7140  0.3587 -0.2879
 5029SOL    HW126549   3.722   0.282  14.525  2.1440  0.3693 -0.5464
 5029SOL    HW226550   3.634   0.164  14.548  0.8624  0.8812  0.5836
 5030SOL     OW26551   0.087   1.182  13.724 -0.0278  0.6302  0.1115
 5030SOL    HW126552   0.113   1.274  13.716  0.9626  0.1588 -2.0814
 5030SOL    HW226553   4.715   1.179  13.706  0.4743  0.5489 -2.4192
 5031SOL     OW26554   4.218   3.057   9.279 -0.2285  0.3958  0.0390
 5031SOL    HW126555   4.243   2.975   9.322 -0.8894 -0.1828 -0.6858
 5031SOL    HW226556   4.122   3.056   9.273 -0.2138  1.6013 -0.4814
 5032SOL     OW26557   1.192   1.567   4.378 -0.0374 -0.0433 -0.1447
 5032SOL    HW126558   1.267   1.508   4.391 -0.2125 -0.2087  0.0991
 5032SOL    HW226559   1.197   1.604   4.466  1.2440 -0.7974  0.1080
 5033SOL     OW26560   1.722   3.845  10.921  0.0970  0.0228  0.3603
 5033SOL    HW126561   1.699   3.806  11.005 -0.1939  0.8621  0.6687
 5033SOL    HW226562   1.716   3.940  10.925 -0.4268  0.1600 -3.1445
 5034SOL     OW26563   1.501   4.104   2.857 -0.6584  0.6017  0.1609
 5034SOL    HW126564   1.432   4.170   2.856  0.8688  2.2290  2.0992
 5034SOL    HW226565   1.500   4.061   2.772 -3.4903 -0.2417  0.6293
 5035SOL     OW26566   3.539   1.689   7.209 -0.1287  0.0785 -0.3395
 5035SOL    HW126567   3.568   1.601   7.233 -2.3610 -1.3508 -2.9351
 5035SOL    HW226568   3.498   1.722   7.289 -1.6717  0.7389 -1.4042
 5036SOL     OW26569   2.692   2.528  16.279 -0.1631  0.3451 -0.6660
 5036SOL    HW126570   2.778   2.487  16.286  0.1092  0.9859 -0.2745
 5036SOL    HW226571   2.646   2.465  16.223 -0.6673 -1.1785  1.4627
 5037SOL     OW26572   0.186   2.159   1.614  0.3284 -0.0339 -0.5620
 5037SOL    HW126573   0.265   2.139   1.664 -0.0549 -0.0721  0.0217
 5037SOL    HW226574   0.175   2.082   1.558 -0.4745 -0.4021  0.0917
 5038SOL     OW26575   3.811   3.235   6.958  0.1414  0.5506  0.3091
 5038SOL    HW126576   3.791   3.299   6.889 -0.1639  0.0051 -0.1168
 5038SOL    HW226577   3.849   3.159   6.916 -2.6071 -1.0264  0.6571
 5039SOL     OW26578   1.085   2.384   8.556 -0.2783  0.1520 -0.2011
 5039SOL    HW126579   1.080   2.324   8.630  1.4278 -3.4950 -3.0125
 5039SOL    HW226580   1.164   2.347   8.515  0.1036 -0.4177  1.0522
 5040SOL     OW26581   3.122   0.149   3.197  0.1333  0.2522 -0.5102
 5040SOL    HW126582   3.116   0.154   3.101 -1.7407  2.2817 -0.2864
 5040SOL    HW226583   3.119   0.241   3.225 -0.0092  0.0062  0.2534
 5041SOL     OW26584   0.264   3.793   9.450 -0.2068 -0.0107 -0.0624
 5041SOL    HW126585   0.285   3.829   9.536 -0.7072 -0.8301  0.4035
 5041SOL    HW226586   0.317   3.714   9.450 -1.6052 -0.9930  4.2899
 5042SOL     OW26587   2.278   4.453   8.028 -0.3366 -0.0903  0.3455
 5042SOL    HW126588   2.313   4.432   8.114  1.5559 -0.6220 -0.5428
 5042SOL    HW226589   2.185   4.471   8.040 -0.1858  0.7367  0.2809
 5043SOL     OW26590   0.770   3.667  11.661 -0.1990 -0.5089 -0.0846
 5043SOL    HW126591   0.795   3.622  11.580 -2.4251  0.6342 -1.4249
 5043SOL    HW226592   0.791   3.607  11.732 -0.3022 -0.0409  0.3353
 5044SOL     OW26593   4.457   0.114   3.410  0.0080  0.1614 -0.1254
 5044SOL    HW126594   4.535   0.158   3.443  1.0738 -0.9526 -1.1893
 5044SOL    HW226595   4.421   0.077   3.490 -1.1873 -0.1818 -0.8230
 5045SOL     OW26596   0.769   0.548  13.748 -0.0837  0.1161 -0.4039
 5045SOL    HW126597   0.787   0.461  13.783 -0.1918  0.6241  0.8868
 5045SOL    HW226598   0.793   0.606  13.820 -2.8918 -0.9248  1.3350
 5046SOL     OW26599   0.543   0.050  11.344  0.0906  0.4813  0.0991
 5046SOL    HW126600   0.601   0.086  11.277 -1.7045  1.4836 -0.9235
 5046SOL    HW226601   0.498   4.704  11.293 -1.3449 -0.7258  2.9824
 5047SOL     OW26602   2.423   1.358   7.492  0.3052  0.2340  0.0745
 5047SOL    HW126603   2.328   1.349   7.492  0.2423  0.8622  0.0080
 5047SOL    HW226604   2.427   1.419   7.566  1.3773  0.4344 -0.1470
 5048SOL     OW26605   0.112   2.647   8.856  0.1627  0.1085 -0.3441
 5048SOL    HW126606   0.172   2.706   8.810 -0.6730 -0.5725 -2.3202
 5048SOL    HW226607   0.161   2.565   8.856  1.1834  0.7194 -3.2476
 5049SOL     OW26608   2.623   0.793   9.474  0.1421  0.0458  0.4457
 5049SOL    HW126609   2.529   0.795   9.489  0.5582  1.0324  2.9551
 5049SOL    HW226610   2.647   0.806   9.565 -0.3372  1.1906  0.4118
 5050SOL     OW26611   2.350   4.029   4.121  0.2002 -0.5783 -0.0855
 5050SOL    HW126612   2.289   4.102   4.131 -0.0793 -0.7282 -0.7058
 5050SOL    HW226613   2.345   4.026   4.026  2.6560  2.5752 -0.3306
 5051SOL     OW26614   1.487   4.468   3.114  0.4280  0.3348 -0.1126
 5051SOL    HW126615   1.485   4.402   3.184  0.5912  0.3050 -0.1362
 5051SOL    HW226616   1.415   4.439   3.059  1.7982 -1.3062 -1.0421
 5052SOL     OW26617   1.533   2.668   1.305 -0.5775  0.1499  0.0510
 5052SOL    HW126618   1.595   2.680   1.232  0.6359 -1.4772  0.8133
 5052SOL    HW226619   1.452   2.695   1.262 -0.5215 -0.1661 -0.2527
 5053SOL     OW26620   0.016   0.434   5.566  0.1977  0.5329 -0.0942
 5053SOL    HW126621   4.681   0.372   5.520 -0.7034 -0.7362  2.7383
 5053SOL    HW226622   0.103   0.395   5.574  0.1210  0.0457 -1.6511
 5054SOL     OW26623   4.320   1.409   1.289  0.1435 -0.1776 -0.3491
 5054SOL    HW126624   4.403   1.447   1.317  0.1912  0.0417 -0.7906
 5054SOL    HW226625   4.338   1.359   1.209 -0.3956 -1.1702  0.1465
 5055SOL     OW26626   0.792   2.934   5.788  0.1903 -0.1718 -0.5559
 5055SOL    HW126627   0.778   2.968   5.876 -2.5173  1.1669 -1.4930
 5055SOL    HW226628   0.710   2.884   5.784 -0.2713  0.3177  2.9458
 5056SOL     OW26629   2.132   1.388   1.183  0.1763 -0.1515  0.5723
 5056SOL    HW126630   2.095   1.434   1.259 -1.0435  1.4666 -0.9900
 5056SOL    HW226631   2.225   1.393   1.205 -0.0860 -2.4378  2.2745
 5057SOL     OW26632   3.307   0.319   4.814  0.4149  0.4953 -0.3461
 5057SOL    HW126633   3.382   0.290   4.865  0.0053 -0.1197 -0.0921
 5057SOL    HW226634   3.261   0.236   4.803  1.3036  0.1715 -1.6547
 5058SOL     OW26635   1.139   4.246   6.043 -0.7976 -0.3243  0.1128
 5058SOL    HW126636   1.063   4.269   5.989 -1.1471 -0.5408  0.5067
 5058SOL    HW226637   1.107   4.285   6.125  1.1663  0.7072  0.3886
 5059SOL     OW26638   1.862   0.180  15.805  0.9331  0.4576  0.1000
 5059SOL    HW126639   1.813   0.197  15.725  0.6834 -0.3597  0.0833
 5059SOL    HW226640   1.942   0.139  15.770  0.8327 -0.7087  1.2338
 5060SOL     OW26641   0.652   4.112   7.109 -0.0481  1.0359  0.0398
 5060SOL    HW126642   0.640   4.060   7.189  2.5352 -1.0334 -0.9356
 5060SOL    HW226643   0.601   4.068   7.042  0.7708 -0.9865  0.7397
 5061SOL     OW26644   1.525   1.951   6.302 -0.1726 -0.0558  0.2481
 5061SOL    HW126645   1.526   2.028   6.358 -2.2430 -0.9950  1.5613
 5061SOL    HW226646   1.498   1.885   6.367  2.1922 -0.6962  0.6016
 5062SOL     OW26647   1.632   1.323   7.740  0.1461  0.2739 -0.1168
 5062SOL    HW126648   1.554   1.371   7.714 -0.3169 -0.2351  0.3413
 5062SOL    HW226649   1.664   1.370   7.817 -2.1006  3.2909 -1.0367
 5063SOL     OW26650   0.512   3.804  13.331 -0.3831  0.0203  0.5080
 5063SOL    HW126651   0.503   3.897  13.347  1.8924  0.0448  1.6504
 5063SOL    HW226652   0.607   3.791  13.342 -0.3095  0.0595 -0.0843
 5064SOL     OW26653   3.357   3.964   7.063  0.7351 -0.6517  0.4497
 5064SOL    HW126654   3.421   3.932   7.126 -0.9282  2.0785  3.5270
 5064SOL    HW226655   3.370   4.059   7.071  0.6687 -0.8803  3.5112
 5065SOL     OW26656   1.368   0.261   9.135 -0.0381 -0.0525 -0.1797
 5065SOL    HW126657   1.321   0.188   9.093 -1.3269  1.1654 -0.8423
 5065SOL    HW226658   1.409   0.297   9.057  0.5134 -0.8883 -0.2768
 5066SOL     OW26659   0.573   2.864   9.524  0.1171  0.5684  0.1052
 5066SOL    HW126660   0.602   2.913   9.447 -0.8381 -1.2489 -1.4220
 5066SOL    HW226661   0.643   2.885   9.585 -1.0078  1.2117  1.1716
 5067SOL     OW26662   2.198   4.682   2.629 -0.1948  0.0569 -0.6111
 5067SOL    HW126663   2.260   4.631   2.577 -1.9753 -1.2408 -1.4907
 5067SOL    HW226664   2.244   0.043   2.640 -0.5001  0.4522 -2.3064
 5068SOL     OW26665   2.971   3.169  15.958 -0.6618  0.1775 -0.4438
 5068SOL    HW126666   3.028   3.241  15.929 -0.0821  0.3007  0.9763
 5068SOL    HW226667   2.922   3.146  15.880  2.6310 -1.1090 -2.1241
 5069SOL     OW26668   0.254   0.064   7.049 -0.0253 -0.3630 -0.1273
 5069SOL    HW126669   0.341   0.031   7.025  0.5853  0.5643  0.8222
 5069SOL    HW226670   0.213   4.704   7.077  1.0263 -1.0785 -0.6924
 5070SOL     OW26671   4.619   4.202   8.373 -0.7972  0.7753  0.6950
 5070SOL    HW126672   4.613   4.286   8.418 -2.0056 -0.1532  2.2789
 5070SOL    HW226673   4.635   4.149   8.451 -0.2517  0.3277  0.2823
 5071SOL     OW26674   1.332   0.523   5.576  0.2862  0.1737  0.0769
 5071SOL    HW126675   1.364   0.447   5.625  1.4228  1.0114  0.6259
 5071SOL    HW226676   1.274   0.561   5.642 -0.7447 -0.6726 -0.3360
 5072SOL     OW26677   1.402   2.421   8.201 -0.0267 -0.2708  0.0746
 5072SOL    HW126678   1.438   2.436   8.288  1.8939 -0.7002 -0.6643
 5072SOL    HW226679   1.423   2.328   8.193  2.5619  0.5359 -2.3147
 5073SOL     OW26680   1.538   0.359   9.620 -0.1485 -0.4967  0.3443
 5073SOL    HW126681   1.553   0.453   9.633 -1.1742 -0.2170 -0.6133
 5073SOL    HW226682   1.518   0.353   9.527  1.6547  1.0218 -0.1523
 5074SOL     OW26683   2.928   1.191   5.958 -0.5587  1.1377  0.4407
 5074SOL    HW126684   2.857   1.233   5.910 -1.1579  2.4840  2.4944
 5074SOL    HW226685   2.979   1.268   5.982  0.3396  1.3882 -2.2632
 5075SOL     OW26686   4.603   1.502   9.120 -0.2549 -0.5379 -0.2264
 5075SOL    HW126687   4.685   1.520   9.167  1.0924 -1.2290 -2.2778
 5075SOL    HW226688   4.535   1.549   9.168 -0.6230 -2.1076  0.7621
 5076SOL     OW26689   1.945   0.491   4.160 -0.1455  0.2916  0.6819
 5076SOL    HW126690   1.992   0.414   4.191 -1.0636 -0.3899  0.3608
 5076SOL    HW226691   2.011   0.532   4.103 -1.5030  1.8038  0.1988
 5077SOL     OW26692   4.352   1.142  10.266  0.6576  0.6646  0.4222
 5077SOL    HW126693   4.310   1.057  10.272 -1.2777  1.7486  2.0578
 5077SOL    HW226694   4.313   1.180  10.345  0.0401 -0.1307  0.4994
 5078SOL     OW26695   2.716   3.039   5.840 -0.4378 -0.0101 -0.6487
 5078SOL    HW126696   2.712   3.132   5.859  0.0729 -0.4385  1.5423
 5078SOL    HW226697   2.666   3.028   5.759 -2.2551  1.8784  0.2025
 5079SOL     OW26698   2.261   4.062   3.403 -0.4879 -0.5379 -0.0364
 5079SOL    HW126699   2.215   4.000   3.346 -1.0534 -1.8546  1.8161
 5079SOL    HW226700   2.235   4.145   3.364  0.5951 -0.9048 -1.5166
 5080SOL     OW26701   1.321   3.221   8.686  0.1918  0.1220  0.4949
 5080SOL    HW126702   1.345   3.312   8.702 -2.3395  1.0899 -1.1181
 5080SOL    HW226703   1.326   3.178   8.771 -0.4395 -0.3993  0.2708
 5081SOL     OW26704   3.154   1.488   7.192 -0.2980  0.0802  0.1439
 5081SOL    HW126705   3.156   1.581   7.214  1.0271  0.2050 -0.4603
 5081SOL    HW226706   3.149   1.444   7.277  0.1100 -3.7765 -1.8073
 5082SOL     OW26707   2.731   2.608  16.541  1.0373 -0.3959 -0.3336
 5082SOL    HW126708   2.822   2.621  16.515  1.0477 -1.8766 -1.0096
 5082SOL    HW226709   2.703   2.578  16.455 -0.6703  2.3832 -0.7601
 5083SOL     OW26710   4.419   0.583   4.159  0.1537 -0.3302 -0.4540
 5083SOL    HW126711   4.425   0.671   4.194  0.5068  0.1626 -1.7705
 5083SOL    HW226712   4.392   0.613   4.072  1.1829  1.6456 -0.0844
 5084SOL     OW26713   2.891   1.026   0.298  0.5320  0.1982 -0.2618
 5084SOL    HW126714   2.950   1.034   0.374  2.9780 -0.1372 -2.1165
 5084SOL    HW226715   2.823   0.965   0.325 -1.1715  2.5430  0.6974
 5085SOL     OW26716   0.933   2.817   6.589  0.0781 -0.1608  0.3351
 5085SOL    HW126717   0.979   2.895   6.620 -0.3246  0.3790 -0.4249
 5085SOL    HW226718   0.890   2.794   6.671  1.3029 -0.8001  0.8031
 5086SOL     OW26719   1.608   0.702  17.480 -0.4948 -0.1626  0.7383
 5086SOL    HW126720   1.657   0.656  17.548 -0.9178 -0.5926  0.7473
 5086SOL    HW226721   1.659   0.665  17.407 -2.0082  0.4560 -0.6309
 5087SOL     OW26722   0.786   1.635   7.752  0.5743 -0.1840  0.0059
 5087SOL    HW126723   0.747   1.623   7.666  0.5377  0.1886 -0.0301
 5087SOL    HW226724   0.738   1.710   7.788  0.2056 -2.3974  4.2212
 5088SOL     OW26725   4.399   1.259  11.777  0.4839  0.3135  0.4285
 5088SOL    HW126726   4.433   1.214  11.854 -2.1750 -0.8173  0.9334
 5088SOL    HW226727   4.465   1.323  11.749  1.7073 -0.5151  1.4239
 5089SOL     OW26728   4.221   3.732  14.680  0.2373 -0.6455  0.0778
 5089SOL    HW126729   4.146   3.789  14.661  1.0353  0.9959  1.7846
 5089SOL    HW226730   4.210   3.715  14.774  1.4716 -0.4423  0.2542
 5090SOL     OW26731   0.807   3.092   4.285 -0.2679  0.3456  0.0923
 5090SOL    HW126732   0.781   3.010   4.328 -1.6314 -0.6123 -2.5847
 5090SOL    HW226733   0.901   3.084   4.269 -0.2384 -0.7492  0.8336
 5091SOL     OW26734   3.180   3.705   7.892  0.1971  0.2905 -0.3212
 5091SOL    HW126735   3.136   3.773   7.942 -0.7016 -0.9886  0.6264
 5091SOL    HW226736   3.122   3.631   7.905  0.1932 -0.1086 -2.6125
 5092SOL     OW26737   3.879   1.196  17.301  0.1397 -0.2347  0.1080
 5092SOL    HW126738   3.853   1.265  17.362 -3.6278  0.4288 -2.2670
 5092SOL    HW226739   3.851   1.114  17.342  0.3802  1.1738  3.0948
 5093SOL     OW26740   2.140   1.038  11.797  0.3786  0.6850  0.0266
 5093SOL    HW126741   2.212   0.980  11.774  0.4777  1.3901 -1.4957
 5093SOL    HW226742   2.086   0.977  11.847  0.3500 -0.4627 -1.4181
 5094SOL     OW26743   3.617   4.200  14.428  0.5135  0.2411  0.0000
 5094SOL    HW126744   3.637   4.268  14.364  1.8277  0.5809  0.7759
 5094SOL    HW226745   3.527   4.188  14.396  0.0523 -0.3399  1.5177
 5095SOL     OW26746   2.540   0.661   4.590  0.1240  0.2905  0.0122
 5095SOL    HW126747   2.461   0.713   4.575  0.9544  1.6390  0.2339
 5095SOL    HW226748   2.605   0.728   4.570  1.7973 -2.2097 -2.8021
 5096SOL     OW26749   4.530   4.049  13.083 -0.3454  0.5679 -0.1516
 5096SOL    HW126750   4.544   4.141  13.107  2.8910  0.1944 -0.5037
 5096SOL    HW226751   4.605   4.009  13.128 -0.6456  0.6714  0.4377
 5097SOL     OW26752   3.315   2.835   0.132  0.0235  0.3444  0.2489
 5097SOL    HW126753   3.345   2.776   0.202  1.7763 -0.3548 -1.0931
 5097SOL    HW226754   3.258   2.891   0.184 -2.1644 -1.0465 -0.6598
 5098SOL     OW26755   2.451   1.226   3.650 -0.5827 -0.3852 -0.2953
 5098SOL    HW126756   2.521   1.263   3.597 -0.2617 -0.2435  0.2312
 5098SOL    HW226757   2.381   1.216   3.585  0.6175  1.6280 -1.8741
 5099SOL     OW26758   2.908   1.189  12.192  0.4834 -0.4299 -0.0526
 5099SOL    HW126759   2.884   1.180  12.285 -0.3057 -3.4194 -0.5393
 5099SOL    HW226760   2.976   1.122  12.179  2.5600  1.5078  0.7158
 5100SOL     OW26761   1.401   4.503   8.300  0.0968 -0.0601  0.2032
 5100SOL    HW126762   1.493   4.495   8.326  0.6679 -1.6447 -2.3348
 5100SOL    HW226763   1.361   4.456   8.373  0.4194  0.3138  0.6134
 5101SOL     OW26764   3.718   2.669   6.521 -0.0447 -0.7224  0.2550
 5101SOL    HW126765   3.701   2.582   6.484 -1.1559  0.3315 -1.6700
 5101SOL    HW226766   3.753   2.724   6.450  1.3377  0.8655  2.1519
 5102SOL     OW26767   0.852   3.575   7.882 -0.1338  0.2276 -0.2197
 5102SOL    HW126768   0.919   3.635   7.915 -0.1684  0.5868 -0.8055
 5102SOL    HW226769   0.816   3.625   7.809 -0.9964 -1.4371 -0.9355
 5103SOL     OW26770   1.901   1.886   2.613  0.1368  0.3304  0.1301
 5103SOL    HW126771   1.955   1.809   2.633 -0.7849 -0.7915 -1.6662
 5103SOL    HW226772   1.949   1.954   2.658  1.1501 -0.3221  0.0278
 5104SOL     OW26773   1.160   2.355   0.608 -0.6162  0.2794 -0.3698
 5104SOL    HW126774   1.145   2.305   0.528  0.0907 -1.3358  0.4898
 5104SOL    HW226775   1.122   2.301   0.678  0.1264  1.9051  1.2946
 5105SOL     OW26776   1.461   4.270   3.303 -0.5921 -0.3049  0.4010
 5105SOL    HW126777   1.485   4.205   3.238 -1.8868 -1.7372  1.3633
 5105SOL    HW226778   1.534   4.254   3.364  1.5137  1.8461 -1.5104
 5106SOL     OW26779   1.649   0.095   9.436 -0.2892 -0.2442 -0.0474
 5106SOL    HW126780   1.585   0.046   9.384 -0.3749  1.0501 -1.1618
 5106SOL    HW226781   1.724   0.036   9.426 -0.5889 -0.5771 -0.3237
 5107SOL     OW26782   2.348   1.381  13.452 -0.3781 -0.3691  0.2737
 5107SOL    HW126783   2.261   1.343  13.461 -0.5588  0.1987  0.9637
 5107SOL    HW226784   2.364   1.352  13.362  3.7467  2.4395  0.1030
 5108SOL     OW26785   1.300   0.224   3.403  0.4878  0.2014 -0.2928
 5108SOL    HW126786   1.317   0.158   3.471  0.5893 -0.1506 -0.6632
 5108SOL    HW226787   1.380   0.276   3.412  0.7330  0.2406 -2.9478
 5109SOL     OW26788   0.751   1.126   4.292  0.6724  0.5521  0.0336
 5109SOL    HW126789   0.756   1.047   4.239  2.0366  1.2665 -0.8785
 5109SOL    HW226790   0.718   1.192   4.231  3.7434  1.4619 -0.6301
 5110SOL     OW26791   1.656   1.042   4.556 -0.2304  0.0141 -0.6468
 5110SOL    HW126792   1.727   1.082   4.506 -0.1315 -0.8669 -1.1915
 5110SOL    HW226793   1.703   1.032   4.639 -0.8188  1.3444 -0.1420
 5111SOL     OW26794   4.665   0.003   5.347  0.1347 -0.1883  0.0797
 5111SOL    HW126795   0.024   4.715   5.297 -0.3040  2.4521 -1.1980
 5111SOL    HW226796   4.665   4.645   5.399 -1.6248 -1.5488 -2.0513
 5112SOL     OW26797   3.841   0.448   5.355  0.6899  0.0656 -0.4202
 5112SOL    HW126798   3.834   0.497   5.273  0.8787 -2.0057 -1.6505
 5112SOL    HW226799   3.795   0.515   5.406 -0.5821 -0.2244 -1.1884
 5113SOL     OW26800   1.485   3.513  13.589 -0.5996  0.0374 -0.2928
 5113SOL    HW126801   1.496   3.597  13.543  0.1260  0.4208  0.5643
 5113SOL    HW226802   1.572   3.476  13.602  0.0276  1.1482 -1.3026
 5114SOL     OW26803   1.984   3.211  11.705  0.4648 -0.1250 -0.5308
 5114SOL    HW126804   1.955   3.295  11.668 -0.4926  0.6456  1.9894
 5114SOL    HW226805   1.930   3.144  11.664 -1.3095  2.2596 -2.0776
 5115SOL     OW26806   3.774   3.504   8.601 -0.1249 -0.1722 -0.0348
 5115SOL    HW126807   3.771   3.591   8.560 -0.2775 -0.2438 -0.1756
 5115SOL    HW226808   3.735   3.449   8.533 -1.5500  2.1458 -1.0948
 5116SOL     OW26809   1.933   0.299   2.061  0.0893  0.1802  0.9495
 5116SOL    HW126810   1.958   0.298   1.968  1.8092 -0.0613  1.4090
 5116SOL    HW226811   1.874   0.373   2.076  0.5635  0.7049  0.2033
 5117SOL     OW26812   0.762   2.948   2.502 -0.4196 -0.0898  0.4360
 5117SOL    HW126813   0.820   2.871   2.502 -0.7927 -0.3633  1.7385
 5117SOL    HW226814   0.751   2.949   2.407  1.9513 -2.7264  0.1045
 5118SOL     OW26815   0.258   1.153   1.827  0.5730  0.3013 -0.1135
 5118SOL    HW126816   0.200   1.083   1.857 -1.3421  1.6429 -0.7060
 5118SOL    HW226817   0.305   1.165   1.910  4.0662 -0.5975 -1.9883
 5119SOL     OW26818   2.246   1.829  11.543 -0.8761  0.6024 -0.1763
 5119SOL    HW126819   2.174   1.801  11.486 -0.2270 -0.3567 -0.5145
 5119SOL    HW226820   2.227   1.923  11.552  0.9900  0.9034  0.5140
 5120SOL     OW26821   3.792   2.035  15.030  0.7471 -0.6719  0.0418
 5120SOL    HW126822   3.755   1.950  15.007 -0.2775 -0.1791 -0.1235
 5120SOL    HW226823   3.733   2.097  14.987 -1.4911 -2.5114  0.4599
 5121SOL     OW26824   2.877   0.201   5.855  0.1968  0.8402 -0.0709
 5121SOL    HW126825   2.793   0.208   5.811  0.0789 -0.2278 -0.0097
 5121SOL    HW226826   2.944   0.193   5.787  0.9164  1.8918  0.5012
 5122SOL     OW26827   4.409   3.716  15.048 -0.0421 -0.0723  0.5750
 5122SOL    HW126828   4.496   3.742  15.018 -0.1306  0.4311  0.7534
 5122SOL    HW226829   4.426   3.631  15.089  1.5438  0.5570  1.2303
 5123SOL     OW26830   1.354   0.546   4.833  0.1139 -0.0544  0.2723
 5123SOL    HW126831   1.414   0.511   4.900  0.9234 -0.1256 -0.4930
 5123SOL    HW226832   1.398   0.532   4.749  0.7043 -0.9861  0.7374
 5124SOL     OW26833   3.749   1.390  17.452  0.6399  0.0535  0.0545
 5124SOL    HW126834   3.792   1.419  17.533  2.2099  1.8861 -1.4601
 5124SOL    HW226835   3.661   1.427  17.462  0.5263 -0.4107  0.7456
 5125SOL     OW26836   3.971   2.223   1.096  0.0725  0.0165 -0.0856
 5125SOL    HW126837   3.968   2.312   1.061 -0.5928  0.8888  2.1655
 5125SOL    HW226838   3.955   2.238   1.189 -0.8881 -0.2385 -0.2141
 5126SOL     OW26839   4.525   2.653   9.989 -0.1068  0.0962 -0.3019
 5126SOL    HW126840   4.458   2.585   9.980  1.2474 -1.5224  1.6845
 5126SOL    HW226841   4.523   2.699   9.905  2.7207 -0.3600 -0.6150
 5127SOL     OW26842   2.588   2.687   0.636 -0.7208  0.1410 -0.6628
 5127SOL    HW126843   2.636   2.665   0.556 -1.7730  0.6577 -1.4359
 5127SOL    HW226844   2.510   2.632   0.629  0.0550 -1.0233 -0.0934
 5128SOL     OW26845   2.555   0.010   6.262  0.1287 -0.0466 -0.2223
 5128SOL    HW126846   2.595   0.051   6.339 -1.6346  0.2186  0.5605
 5128SOL    HW226847   2.537   0.080   6.200 -1.3892  0.5901  0.9404
 5129SOL     OW26848   3.153   1.274   9.650  0.3103  0.2804 -0.6765
 5129SOL    HW126849   3.076   1.217   9.649  1.2076 -0.9246 -1.7640
 5129SOL    HW226850   3.178   1.274   9.557  0.1901  0.7888 -0.7056
 5130SOL     OW26851   2.989   1.952  11.148 -0.6031 -0.0495  0.3569
 5130SOL    HW126852   3.056   1.994  11.201 -0.2700 -0.7129  0.4589
 5130SOL    HW226853   3.006   1.972  11.056 -0.8738 -1.8821 -0.1023
 5131SOL     OW26854   3.943   1.005   7.808  0.0996 -0.2467 -0.7603
 5131SOL    HW126855   3.955   0.962   7.892 -0.4779  1.2147  0.0547
 5131SOL    HW226856   4.016   0.964   7.759  1.1236  0.9583 -0.2299
 5132SOL     OW26857   4.688   0.368  17.153 -0.1533  0.5113 -0.0656
 5132SOL    HW126858   4.688   0.417  17.070  0.6741 -0.1535 -0.4533
 5132SOL    HW226859   4.684   0.280  17.115 -1.9846  0.1112  1.0533
 5133SOL     OW26860   0.241   3.474   3.760 -0.1733 -0.3058  0.0400
 5133SOL    HW126861   0.249   3.380   3.745  0.2855 -0.1976 -0.4143
 5133SOL    HW226862   0.161   3.503   3.717  0.6190 -0.9328 -1.8353
 5134SOL     OW26863   2.130   1.737   3.513  0.2294  1.1102 -1.3817
 5134SOL    HW126864   2.131   1.661   3.455  1.6948  1.2733 -1.5788
 5134SOL    HW226865   2.143   1.704   3.602 -0.9789 -2.9673 -2.7573
 5135SOL     OW26866   3.186   1.036   9.880  0.0697  0.4175 -0.5659
 5135SOL    HW126867   3.252   0.988   9.930 -1.3600 -1.5516 -0.5419
 5135SOL    HW226868   3.194   1.120   9.924 -0.1229 -0.1036  0.4740
 5136SOL     OW26869   0.010   3.953   5.788  0.3105  0.2018  0.0572
 5136SOL    HW126870   4.699   3.919   5.705  0.3495  1.5836 -0.5148
 5136SOL    HW226871   4.653   3.974   5.838 -0.1404  0.0453 -0.5872
 5137SOL     OW26872   4.065   2.712   8.044  0.7958  0.0492 -0.1871
 5137SOL    HW126873   3.993   2.771   8.026  0.0761 -0.6666  0.3376
 5137SOL    HW226874   4.138   2.753   7.998 -1.1098  4.7216  1.0445
 5138SOL     OW26875   2.872   2.552   0.177  0.1386  0.0062 -0.2277
 5138SOL    HW126876   2.963   2.554   0.207  1.0199  1.7361 -2.9893
 5138SOL    HW226877   2.861   2.457   0.179  0.5544  0.0031  1.9075
 5139SOL     OW26878   3.877   2.399   4.240 -0.4281 -0.8911 -0.1917
 5139SOL    HW126879   3.889   2.467   4.174 -3.0427 -1.1000 -0.8485
 5139SOL    HW226880   3.868   2.462   4.312 -1.8116  0.3687 -1.4892
 5140SOL     OW26881   1.266   0.010  13.894  0.0702  0.3470 -0.2703
 5140SOL    HW126882   1.229   0.089  13.853  1.2040  1.2085  0.3783
 5140SOL    HW226883   1.188   4.691  13.932  2.0549 -1.2740  2.0271
 5141SOL     OW26884   3.156   1.397   4.108 -0.1400 -0.5313 -0.3944
 5141SOL    HW126885   3.092   1.425   4.042 -0.6393 -1.2192 -0.1970
 5141SOL    HW226886   3.093   1.382   4.179 -1.9296  0.2530 -1.7891
 5142SOL     OW26887   2.704   1.946   4.199  0.2727 -0.2019 -0.5585
 5142SOL    HW126888   2.785   1.967   4.152  0.3809 -0.4625 -0.4889
 5142SOL    HW226889   2.647   2.015   4.164  1.8930  2.3451  1.7769
 5143SOL     OW26890   0.466   3.320   4.577 -0.3216 -0.2864  0.1327
 5143SOL    HW126891   0.508   3.327   4.663 -0.1584  0.4912 -0.0019
 5143SOL    HW226892   0.476   3.229   4.549 -0.8248 -0.7005  1.3082
 5144SOL     OW26893   2.307   1.632   8.285  0.2042  0.0635 -0.4228
 5144SOL    HW126894   2.382   1.671   8.330 -0.6172  0.9927  0.1698
 5144SOL    HW226895   2.276   1.571   8.352  2.0468  1.1212  1.3751
 5145SOL     OW26896   0.153   2.184   4.813  0.2492  0.3003  0.1627
 5145SOL    HW126897   0.139   2.278   4.806  1.7288  0.5537  0.7245
 5145SOL    HW226898   0.115   2.163   4.727 -1.1955 -1.2399  1.1692
 5146SOL     OW26899   1.477   3.854   7.476  0.4170  0.3808 -0.2893
 5146SOL    HW126900   1.494   3.763   7.496  0.1352  0.6189  1.0275
 5146SOL    HW226901   1.555   3.892   7.516  0.2438 -0.1690  0.5627
 5147SOL     OW26902   3.481   0.332   5.863  0.4217  0.9478 -0.8981
 5147SOL    HW126903   3.569   0.304   5.837  0.2207 -0.6419  0.1606
 5147SOL    HW226904   3.484   0.303   5.954  0.5647  1.4477 -0.7416
 5148SOL     OW26905   0.167   2.293   6.665 -0.3269  0.1546  0.1512
 5148SOL    HW126906   0.210   2.352   6.727 -0.9890  0.9471 -0.1406
 5148SOL    HW226907   0.075   2.302   6.692  0.2603  0.7204  1.8988
 5149SOL     OW26908   1.550   0.966  17.366 -0.0704 -0.5583  0.2033
 5149SOL    HW126909   1.583   0.948  17.278  1.4886  1.6490  0.3289
 5149SOL    HW226910   1.570   0.881  17.404 -0.3645 -1.8865 -2.6451
 5150SOL     OW26911   0.778   3.716   7.654 -0.1166  0.4224  0.2111
 5150SOL    HW126912   0.693   3.759   7.647 -0.1058  0.5536  0.9409
 5150SOL    HW226913   0.838   3.791   7.654 -0.7234  0.9158 -0.8841
 5151SOL     OW26914   4.175   0.829   8.864 -0.4776  0.1944 -0.0727
 5151SOL    HW126915   4.227   0.847   8.943 -0.8113 -1.4868  0.5327
 5151SOL    HW226916   4.238   0.774   8.817  0.0562  1.1090 -0.4348
 5152SOL     OW26917   4.697   0.575   1.386 -0.7083 -0.4887  0.6436
 5152SOL    HW126918   0.030   0.636   1.434 -1.1460  0.6707 -0.3169
 5152SOL    HW226919   4.669   0.637   1.318  1.1488 -0.3610  0.0011
 5153SOL     OW26920   3.205   3.370   4.870 -0.3350  0.1589 -0.8816
 5153SOL    HW126921   3.114   3.375   4.840 -0.0364 -0.4723 -1.9275
 5153SOL    HW226922   3.251   3.360   4.787 -0.6224  0.1011 -1.0363
 5154SOL     OW26923   1.398   3.797   4.159 -0.5935  0.5659  0.3533
 5154SOL    HW126924   1.348   3.743   4.098 -0.4706  2.6574 -1.5978
 5154SOL    HW226925   1.329   3.841   4.208 -0.2301  1.3732  0.1315
 5155SOL     OW26926   1.075   0.878   2.415  0.2270  0.7452 -0.0464
 5155SOL    HW126927   1.065   0.955   2.359  2.3488 -0.0058 -1.4579
 5155SOL    HW226928   1.106   0.917   2.497 -0.3557 -1.5072  1.2535
 5156SOL     OW26929   2.916   3.782   6.692  0.5507  0.2514  0.5909
 5156SOL    HW126930   2.843   3.841   6.708  1.1163  1.5468 -1.5131
 5156SOL    HW226931   2.941   3.771   6.784  1.8021  1.6770  0.4092
 5157SOL     OW26932   2.329   4.367   6.093 -0.4819 -0.2415 -0.3420
 5157SOL    HW126933   2.268   4.438   6.074  0.1956 -0.7519 -4.4748
 5157SOL    HW226934   2.293   4.317   6.166 -0.7581  0.7578  0.1877
 5158SOL     OW26935   3.918   1.062   4.954  0.0116  0.0424 -0.4863
 5158SOL    HW126936   3.894   1.024   5.038 -0.3255  1.1872 -0.0747
 5158SOL    HW226937   3.850   1.128   4.960  1.3064  1.2059  1.5210
 5159SOL     OW26938   0.285   1.524   4.822 -0.2490 -0.0112 -0.3658
 5159SOL    HW126939   0.221   1.494   4.757 -1.8448  0.2462  1.0718
 5159SOL    HW226940   0.363   1.469   4.817 -1.3394 -1.5685 -0.1654
 5160SOL     OW26941   2.520   0.892   1.596 -0.2834 -0.1812  0.3839
 5160SOL    HW126942   2.466   0.961   1.634 -0.4629 -0.4162  0.5586
 5160SOL    HW226943   2.468   0.812   1.604  1.1884 -1.0631  1.0278
 5161SOL     OW26944   1.702   3.307  12.558 -0.5600  0.1769 -0.6946
 5161SOL    HW126945   1.758   3.248  12.508  0.9825  1.2827 -0.2790
 5161SOL    HW226946   1.719   3.389  12.512 -2.1817  0.1145 -1.3842
 5162SOL     OW26947   2.340   3.011   5.766  0.9038  0.3043 -0.1488
 5162SOL    HW126948   2.252   2.991   5.735  1.6171 -0.6865 -1.5441
 5162SOL    HW226949   2.376   3.055   5.689 -1.0297 -0.2305 -1.3616
 5163SOL     OW26950   3.337   1.126   6.952 -0.3473  0.2058  0.2211
 5163SOL    HW126951   3.309   1.216   6.969 -0.0601  0.4370 -0.5240
 5163SOL    HW226952   3.309   1.121   6.861 -0.8250  0.8387  0.3296
 5164SOL     OW26953   0.891   1.437   3.562  0.0922 -0.3280  0.2735
 5164SOL    HW126954   0.968   1.487   3.532  1.3954 -1.2300  2.1128
 5164SOL    HW226955   0.890   1.366   3.498 -3.1811 -1.3347  1.4729
 5165SOL     OW26956   4.208   2.426   2.975 -0.2478 -0.3726 -0.1128
 5165SOL    HW126957   4.160   2.379   2.906  0.4077 -0.6366 -0.3867
 5165SOL    HW226958   4.259   2.353   3.010  0.6233 -0.1214 -0.8742
 5166SOL     OW26959   2.734   1.083   8.854 -0.4616  0.1094 -0.5200
 5166SOL    HW126960   2.687   1.042   8.927  2.2554 -4.0546 -1.1203
 5166SOL    HW226961   2.754   1.169   8.891  0.4092 -0.7725  1.0589
 5167SOL     OW26962   3.971   2.753   6.647  0.0521 -0.0355  0.1899
 5167SOL    HW126963   3.994   2.667   6.681  0.4041 -0.4320 -1.0806
 5167SOL    HW226964   3.883   2.737   6.611  0.4357  1.1916 -1.2754
 5168SOL     OW26965   3.682   0.395   3.402 -0.8909 -0.4407  0.0131
 5168SOL    HW126966   3.620   0.355   3.462 -0.8075  0.0280  0.4113
 5168SOL    HW226967   3.658   0.357   3.317  1.2537  0.3783 -0.9603
 5169SOL     OW26968   3.430   3.580   1.783  0.7334 -1.1826 -0.2075
 5169SOL    HW126969   3.485   3.587   1.861 -0.2340 -1.2748  0.4922
 5169SOL    HW226970   3.432   3.670   1.750  1.9237 -1.7301 -1.6444
 5170SOL     OW26971   4.442   1.414  11.103  0.1268  0.7324  0.0463
 5170SOL    HW126972   4.507   1.345  11.086 -0.1600 -0.3235  3.1535
 5170SOL    HW226973   4.417   1.446  11.016  0.4242 -2.8753 -1.4002
 5171SOL     OW26974   1.204   4.088  10.094  0.0538  0.4297  0.3422
 5171SOL    HW126975   1.178   4.180  10.082 -0.8508  0.1594  0.2218
 5171SOL    HW226976   1.222   4.070  10.001  0.8818  2.2715  0.1413
 5172SOL     OW26977   1.649   2.222   4.662  0.3683 -0.2046  0.9696
 5172SOL    HW126978   1.643   2.130   4.690  1.3370 -0.0188  1.7684
 5172SOL    HW226979   1.708   2.251   4.731  0.4451  0.6884  0.5189
 5173SOL     OW26980   2.524   0.718   2.748 -0.3972 -0.9540 -0.3192
 5173SOL    HW126981   2.606   0.674   2.726  0.7429  1.1251 -0.1995
 5173SOL    HW226982   2.518   0.701   2.842 -1.6842 -2.0452 -0.5876
 5174SOL     OW26983   4.061   1.585  10.013  0.2667  0.2684 -0.1305
 5174SOL    HW126984   3.992   1.549  10.068  0.1584 -0.2247 -0.5960
 5174SOL    HW226985   4.103   1.508   9.976  1.2136  0.0725  1.3732
 5175SOL     OW26986   1.734   0.027   3.159  0.0975 -0.1502 -0.2316
 5175SOL    HW126987   1.641   0.019   3.176 -0.1090 -1.7775 -2.0734
 5175SOL    HW226988   1.758   4.659   3.138  1.3171  0.5201 -1.7919
 5176SOL     OW26989   3.361   3.508   7.151 -0.2092  0.3487 -0.8531
 5176SOL    HW126990   3.430   3.459   7.194 -0.7149 -0.7174 -1.2700
 5176SOL    HW226991   3.387   3.498   7.060 -0.9211 -2.0222 -0.7866
 5177SOL     OW26992   0.695   2.833   5.070 -0.1166 -0.1107  0.1027
 5177SOL    HW126993   0.609   2.791   5.059 -0.1482  0.3245 -1.3457
 5177SOL    HW226994   0.692   2.868   5.159 -2.2490  0.6477 -0.2710
 5178SOL     OW26995   1.199   1.909   1.882  0.5331  0.5588 -0.0959
 5178SOL    HW126996   1.187   2.003   1.868 -0.5409  0.6522  1.4720
 5178SOL    HW226997   1.281   1.904   1.931  0.5703 -3.4804 -0.5493
 5179SOL     OW26998   2.277   0.469   0.377  0.2994 -0.6886 -0.1824
 5179SOL    HW126999   2.307   0.435   0.293  2.0213 -0.7115  0.4276
 5179SOL    HW227000   2.207   0.525   0.345 -0.3012 -1.6150 -0.4597
 5180SOL     OW27001   3.961   2.530   9.010  0.5306 -0.0198 -0.3513
 5180SOL    HW127002   4.026   2.599   9.002 -1.2304  1.5796 -0.9334
 5180SOL    HW227003   4.016   2.459   9.044 -0.1995 -0.4086  0.0225
 5181SOL     OW27004   1.424   0.733   4.424 -0.2025 -0.3766 -0.5056
 5181SOL    HW127005   1.469   0.811   4.391 -1.0455  0.5457  0.4984
 5181SOL    HW227006   1.393   0.693   4.343  0.1497  0.6378 -1.1373
 5182SOL     OW27007   4.488   0.239   5.900 -0.1473 -0.0853 -0.0219
 5182SOL    HW127008   4.426   0.274   5.836  0.9271  0.3237 -0.8399
 5182SOL    HW227009   4.556   0.198   5.846 -0.7984 -0.3153 -0.6805
 5183SOL     OW27010   3.912   2.967   4.920 -0.1657  0.7028 -0.4495
 5183SOL    HW127011   3.933   2.948   4.828 -1.3778 -3.5765  0.1376
 5183SOL    HW227012   3.890   3.060   4.915 -2.6237  0.1788  0.4805
 5184SOL     OW27013   4.042   3.973   7.397  0.0516  0.0663 -0.0307
 5184SOL    HW127014   3.969   3.915   7.417 -0.3993  1.3038  1.9634
 5184SOL    HW227015   4.052   3.954   7.304 -1.0321  1.5812 -0.4482
 5185SOL     OW27016   2.048   0.786   3.344 -0.3387  0.1804 -0.4288
 5185SOL    HW127017   2.061   0.691   3.344  1.0050  0.3760  3.5662
 5185SOL    HW227018   2.133   0.816   3.377 -0.0275 -1.3463  0.1708
 5186SOL     OW27019   0.868   3.311   0.177  0.1695 -0.7858 -0.2971
 5186SOL    HW127020   0.915   3.308   0.094  0.6758  1.7734 -0.0827
 5186SOL    HW227021   0.893   3.228   0.217 -0.9056 -1.3528 -0.7857
 5187SOL     OW27022   4.119   0.016   6.452 -0.7146  0.3488 -0.4346
 5187SOL    HW127023   4.061   4.702   6.385 -0.0506 -0.1391 -0.7559
 5187SOL    HW227024   4.139   0.105   6.420 -1.6584  1.1717  1.2978
 5188SOL     OW27025   3.358   4.335   8.282  0.1089 -0.2961 -0.4575
 5188SOL    HW127026   3.424   4.400   8.305 -0.1072 -0.8792  1.7899
 5188SOL    HW227027   3.367   4.285   8.363 -2.1336  0.2162  0.1114
 5189SOL     OW27028   2.676   2.464   5.008  0.1874 -0.9628 -0.1083
 5189SOL    HW127029   2.644   2.423   5.088 -1.0017 -0.4150 -0.2975
 5189SOL    HW227030   2.696   2.549   5.047  0.5478 -0.5431 -1.2048
 5190SOL     OW27031   0.752   4.191  13.274 -0.8284 -0.0262  0.5477
 5190SOL    HW127032   0.710   4.229  13.196 -1.3337 -1.1525  0.2759
 5190SOL    HW227033   0.681   4.138  13.309 -0.3428 -1.1792 -0.1968
 5191SOL     OW27034   4.653   2.829   0.860 -0.0506  0.7002  0.0323
 5191SOL    HW127035   4.586   2.801   0.798 -0.1562  0.9128  0.0521
 5191SOL    HW227036   0.002   2.771   0.831 -1.7462 -1.3695  0.0351
 5192SOL     OW27037   2.530   2.625   6.457  0.2150 -0.2318 -0.1970
 5192SOL    HW127038   2.536   2.533   6.433  1.7989 -0.3061  0.4266
 5192SOL    HW227039   2.466   2.650   6.391  0.2291 -1.1303 -0.5551
 5193SOL     OW27040   2.847   4.691   4.638 -0.4389 -0.4281 -0.3658
 5193SOL    HW127041   2.885   0.049   4.673 -0.9933 -0.0025 -0.7399
 5193SOL    HW227042   2.767   4.679   4.691  0.9157 -2.5843  1.1962
 5194SOL     OW27043   1.731   3.687   9.447  0.2631 -0.5411 -0.3228
 5194SOL    HW127044   1.684   3.692   9.363 -0.7388  1.2384  0.3469
 5194SOL    HW227045   1.651   3.688   9.500  0.7144 -0.0574  0.3395
 5195SOL     OW27046   0.192   3.992   3.601  0.0426  0.0646 -0.3755
 5195SOL    HW127047   0.218   4.060   3.538  0.7600  1.8508  1.8244
 5195SOL    HW227048   0.278   3.957   3.625 -0.1243 -0.8284 -1.1138
 5196SOL     OW27049   3.371   3.822   4.828 -0.8702  0.6460  0.9644
 5196SOL    HW127050   3.311   3.758   4.866  2.0931 -2.2311  0.8210
 5196SOL    HW227051   3.373   3.801   4.734  0.6534 -0.7114  1.2999
 5197SOL     OW27052   4.054   1.096  17.107  0.2011  0.1268 -0.1443
 5197SOL    HW127053   4.003   1.015  17.109  0.5725 -0.1588 -2.4574
 5197SOL    HW227054   4.013   1.149  17.175 -1.8031 -2.0406  0.3398
 5198SOL     OW27055   4.605   4.308   7.988  0.0822  0.4567 -0.2106
 5198SOL    HW127056   4.622   4.243   8.057  1.2819 -1.5860 -2.4594
 5198SOL    HW227057   4.515   4.295   7.959 -0.0001 -2.0559  1.1724
 5199SOL     OW27058   2.090   1.287  11.130  0.3614 -0.0676 -0.2755
 5199SOL    HW127059   2.159   1.254  11.073  1.6923  1.4201  0.4843
 5199SOL    HW227060   2.138   1.341  11.193 -1.4221  3.3925 -1.8680
 5200SOL     OW27061   1.177   2.691   6.774  0.5218 -0.6681  0.1483
 5200SOL    HW127062   1.195   2.654   6.860 -0.9417 -0.0880  0.7070
 5200SOL    HW227063   1.100   2.745   6.793  0.4637 -1.2409  1.5647
 5201SOL     OW27064   0.776   3.760   3.693  0.7409  0.2315 -0.0557
 5201SOL    HW127065   0.738   3.687   3.742  1.2770  0.1575  0.2501
 5201SOL    HW227066   0.769   3.824   3.764 -1.1356  0.0146 -0.0397
 5202SOL     OW27067   2.052   0.396  11.753 -0.3193 -0.3829  0.6071
 5202SOL    HW127068   2.082   0.313  11.790  1.5112 -0.1031 -0.2510
 5202SOL    HW227069   2.110   0.404  11.677 -2.0972  2.5925 -0.4338
 5203SOL     OW27070   2.741   2.160   8.712 -0.2293 -0.0966 -0.4879
 5203SOL    HW127071   2.682   2.201   8.649 -0.3251 -0.5738 -0.7115
 5203SOL    HW227072   2.685   2.126   8.782 -0.3216 -1.2743 -1.1302
 5204SOL     OW27073   1.982   2.002  13.934  0.2762 -0.2783 -0.1472
 5204SOL    HW127074   2.031   2.036  13.859 -0.0365 -0.2037 -0.3188
 5204SOL    HW227075   1.898   1.977  13.894 -0.0702  2.1978 -0.9546
 5205SOL     OW27076   1.681   3.983   3.956 -0.0762 -1.0431 -0.3333
 5205SOL    HW127077   1.681   3.929   4.035 -3.3521  0.7713  0.8530
 5205SOL    HW227078   1.638   4.065   3.980 -0.2558 -0.8881 -1.1968
 5206SOL     OW27079   3.933   1.912   9.063 -0.0121  0.2415 -0.2387
 5206SOL    HW127080   3.990   1.836   9.079  0.7542  1.3837  2.6023
 5206SOL    HW227081   3.992   1.976   9.103 -1.5622 -1.5004  4.9588
 5207SOL     OW27082   3.045   3.452  16.463  0.2652  0.5192 -0.2394
 5207SOL    HW127083   3.088   3.526  16.421 -0.3039  0.2884 -1.2251
 5207SOL    HW227084   2.971   3.450  16.402  0.5871 -2.9283 -0.5444
 5208SOL     OW27085   2.491   1.238  15.836  0.4889  0.3175  0.3043
 5208SOL    HW127086   2.491   1.311  15.774 -0.3135 -1.0969 -1.3801
 5208SOL    HW227087   2.549   1.174  15.795  0.4727 -0.1592  1.0256
 5209SOL     OW27088   1.843   1.912   7.362 -0.5266  0.0048  0.0854
 5209SOL    HW127089   1.809   1.825   7.345  1.0877 -0.2111 -2.0003
 5209SOL    HW227090   1.780   1.948   7.424 -0.1693 -0.7768  0.9060
 5210SOL     OW27091   4.405   3.621   5.325 -0.2319  0.2845  0.8888
 5210SOL    HW127092   4.405   3.699   5.380 -0.1392  0.9694 -0.0694
 5210SOL    HW227093   4.322   3.629   5.279 -1.0441  0.3122  2.3750
 5211SOL     OW27094   3.355   3.524   6.608 -0.2327 -0.1131 -0.8918
 5211SOL    HW127095   3.270   3.559   6.582 -0.1361 -1.4469 -3.0346
 5211SOL    HW227096   3.367   3.562   6.695 -1.7812 -0.1586 -0.6588
 5212SOL     OW27097   4.573   0.427  11.996  0.0675  0.4825  0.2014
 5212SOL    HW127098   4.528   0.504  12.032  0.2761  1.4713 -1.6480
 5212SOL    HW227099   4.498   0.370  11.982 -0.5376  0.8007  2.1389
 5213SOL     OW27100   1.109   0.567   8.327 -0.1110  0.2477  0.5611
 5213SOL    HW127101   1.061   0.606   8.254  0.6847  0.0071 -0.0793
 5213SOL    HW227102   1.056   0.487   8.334  0.5676 -0.2542 -0.1672
 5214SOL     OW27103   2.176   0.535   8.830 -0.0229  0.1993 -0.2973
 5214SOL    HW127104   2.207   0.624   8.849  0.5356  0.0841 -0.6703
 5214SOL    HW227105   2.134   0.514   8.913  1.6881  0.4696  0.6486
 5215SOL     OW27106   0.387   3.566   9.502  0.3326 -0.2729 -0.5686
 5215SOL    HW127107   0.392   3.487   9.556  0.1855  0.6586  0.8021
 5215SOL    HW227108   0.480   3.566   9.479  0.1383 -0.7878 -1.3446
 5216SOL     OW27109   4.493   2.397   4.810  0.1249  0.5409 -0.1809
 5216SOL    HW127110   4.561   2.369   4.749 -0.0624 -1.0206  0.3333
 5216SOL    HW227111   4.543   2.423   4.887  0.0191  1.6374 -0.4881
 5217SOL     OW27112   1.629   1.424   4.126  0.1099 -0.0587  0.0705
 5217SOL    HW127113   1.710   1.392   4.087  0.7749 -0.4523  1.7467
 5217SOL    HW227114   1.624   1.512   4.088  1.5394 -1.2102 -2.7667
 5218SOL     OW27115   1.068   0.628  13.217  0.4494  0.6584 -0.3314
 5218SOL    HW127116   1.130   0.648  13.147  1.8612 -1.1603  0.3765
 5218SOL    HW227117   1.074   0.532  13.216  0.0282  0.5865  2.3702
 5219SOL     OW27118   3.132   3.838   4.513  0.1053  0.2475  0.0353
 5219SOL    HW127119   3.206   3.784   4.542 -0.0281  0.9689  1.7241
 5219SOL    HW227120   3.093   3.863   4.597  0.1304 -0.8089  0.3687
 5220SOL     OW27121   3.797   2.553   9.268 -0.3783  0.5458  0.0512
 5220SOL    HW127122   3.839   2.520   9.347 -0.6972  1.6860  0.7004
 5220SOL    HW227123   3.828   2.488   9.204  0.2627  1.0568 -0.1549
 5221SOL     OW27124   2.422   1.165  14.894  0.1193  0.3338  0.0982
 5221SOL    HW127125   2.356   1.223  14.933 -0.4114 -0.0435 -0.2483
 5221SOL    HW227126   2.491   1.226  14.867  0.9423 -0.9658 -0.7311
 5222SOL     OW27127   2.293   3.739  14.855 -0.2559  0.0619 -0.5216
 5222SOL    HW127128   2.258   3.676  14.918 -0.5558 -0.2476 -1.0006
 5222SOL    HW227129   2.222   3.782  14.808  0.7767 -0.2443 -2.3529
 5223SOL     OW27130   2.906   0.113  16.007 -0.0090 -0.0744  0.4450
 5223SOL    HW127131   2.814   0.141  16.015  0.0451  0.8639 -1.9861
 5223SOL    HW227132   2.942   0.194  16.043  1.5522 -0.3833 -0.4470
 5224SOL     OW27133   0.129   1.263   5.399  0.3442 -0.3178  0.0553
 5224SOL    HW127134   0.042   1.284   5.367  1.2261 -0.2377 -2.2699
 5224SOL    HW227135   0.145   1.319   5.476  0.7953  0.4804 -0.6182
 5225SOL     OW27136   4.592   0.552   8.067 -0.1030 -0.5433 -0.3799
 5225SOL    HW127137   4.660   0.571   8.131 -0.4299  0.5100 -0.3450
 5225SOL    HW227138   4.580   0.463   8.100  2.0602 -0.4811  0.5763
 5226SOL     OW27139   2.224   1.662   1.324  0.7939  0.0922  0.5087
 5226SOL    HW127140   2.289   1.714   1.371 -0.8667  2.0098  0.6905
 5226SOL    HW227141   2.274   1.603   1.268 -0.3850 -0.4999  0.0731
 5227SOL     OW27142   1.902   1.464   6.678  0.0705  0.5313  0.2809
 5227SOL    HW127143   1.984   1.441   6.635  2.1209  1.5176  3.6735
 5227SOL    HW227144   1.927   1.432   6.765  0.4696 -1.5686 -0.6094
 5228SOL     OW27145   0.594   0.538   2.606  0.9570  0.4196 -0.0873
 5228SOL    HW127146   0.535   0.608   2.578  0.2668  0.3227  1.1445
 5228SOL    HW227147   0.665   0.551   2.543  1.6110 -3.9175 -0.2402
 5229SOL     OW27148   3.606   3.687   4.965  0.0625 -0.1820  0.2239
 5229SOL    HW127149   3.576   3.657   4.879 -2.1932 -0.6964  1.2007
 5229SOL    HW227150   3.647   3.772   4.946 -2.1651  0.7076 -0.5834
 5230SOL     OW27151   3.071   3.034  11.572  0.5865  0.1862  0.3567
 5230SOL    HW127152   3.073   2.958  11.630 -1.4291  0.2935  0.5759
 5230SOL    HW227153   3.162   3.033  11.544 -0.2605  1.7267 -2.3937
 5231SOL     OW27154   2.378   3.386   4.474  0.0964 -0.7916 -0.0603
 5231SOL    HW127155   2.445   3.443   4.436  0.9169 -1.3574  0.5433
 5231SOL    HW227156   2.368   3.327   4.399 -1.0666 -0.2204 -0.3563
 5232SOL     OW27157   2.620   3.652   4.710  0.1503  0.1393  0.0725
 5232SOL    HW127158   2.616   3.564   4.671 -0.4640 -0.1197  0.7162
 5232SOL    HW227159   2.533   3.680   4.684  0.0046 -2.3715 -2.2317
 5233SOL     OW27160   0.391   0.689   3.556  0.0220  0.0147  0.6539
 5233SOL    HW127161   0.413   0.617   3.615 -2.1740 -0.9987  0.2384
 5233SOL    HW227162   0.318   0.731   3.601 -1.6873  0.3818 -2.4411
 5234SOL     OW27163   2.240   4.154   8.358 -0.4043 -0.3708 -0.3000
 5234SOL    HW127164   2.176   4.083   8.360 -1.2554  0.3744 -1.6632
 5234SOL    HW227165   2.293   4.133   8.435  1.4573  3.6545 -0.4801
 5235SOL     OW27166   2.178   0.724   2.888 -0.6733 -0.3749  0.3049
 5235SOL    HW127167   2.235   0.704   2.962  0.0816  0.2380 -0.1059
 5235SOL    HW227168   2.134   0.791   2.940 -1.0015 -0.6603  0.3947
 5236SOL     OW27169   3.689   0.859   5.313  0.5417  0.2850  0.3296
 5236SOL    HW127170   3.600   0.887   5.336  0.8734 -0.3519  2.3826
 5236SOL    HW227171   3.687   0.776   5.362  2.1555 -1.5118 -2.6947
 5237SOL     OW27172   1.037   3.091   3.898 -0.2454 -0.2374  0.0252
 5237SOL    HW127173   0.950   3.068   3.931 -0.0054 -1.4288 -0.1724
 5237SOL    HW227174   1.009   3.155   3.832  0.1153 -0.5726 -0.4496
 5238SOL     OW27175   0.523   1.949   8.823 -0.1733  0.0529 -0.0370
 5238SOL    HW127176   0.531   2.030   8.874  0.7361 -1.1216  1.6832
 5238SOL    HW227177   0.502   1.887   8.893 -2.5863  0.0074 -0.8264
 5239SOL     OW27178   2.024   2.424  11.548 -0.4421  0.1028  0.0775
 5239SOL    HW127179   2.108   2.436  11.593  0.0649  1.6384 -1.2986
 5239SOL    HW227180   2.027   2.503  11.495 -0.7318  1.1173  1.5774
 5240SOL     OW27181   3.944   0.236  13.754 -0.3980 -0.2558  0.2311
 5240SOL    HW127182   3.973   0.287  13.679  0.4659 -0.3078  0.5236
 5240SOL    HW227183   3.955   0.149  13.717 -1.6955 -0.0358 -0.6537
 5241SOL     OW27184   0.079   0.328   9.467 -0.0790 -0.2271  0.2316
 5241SOL    HW127185   0.089   0.388   9.394  1.6320 -1.2959 -0.4036
 5241SOL    HW227186   4.714   0.357   9.496  0.6488 -0.1726  2.3727
 5242SOL     OW27187   2.035   3.651   3.111  0.2389  0.1898 -0.3494
 5242SOL    HW127188   2.041   3.588   3.183  1.3263  1.0069  0.2768
 5242SOL    HW227189   1.939   3.653   3.113  0.3676  2.7226  3.2953
 5243SOL     OW27190   2.683   0.159   6.478 -0.0859 -0.8965 -0.2700
 5243SOL    HW127191   2.774   0.139   6.497  0.0714  0.2455  0.1447
 5243SOL    HW227192   2.677   0.240   6.528  1.7604 -0.2076 -1.1779
 5244SOL     OW27193   1.812   2.377   7.344 -0.0303 -0.2178  0.3193
 5244SOL    HW127194   1.888   2.369   7.402  0.5296  2.8244  0.0111
 5244SOL    HW227195   1.809   2.286   7.313  0.0889  0.1133 -0.6675
 5245SOL     OW27196   1.772   2.717   7.503  0.0619 -0.1102  0.0927
 5245SOL    HW127197   1.790   2.804   7.469 -0.0460 -0.2040 -0.2062
 5245SOL    HW227198   1.720   2.689   7.427  0.0919 -0.9117  0.3707
 5246SOL     OW27199   1.565   0.684  16.314  0.7375 -0.1071 -0.0464
 5246SOL    HW127200   1.524   0.714  16.232  0.7712 -0.2356 -0.1100
 5246SOL    HW227201   1.625   0.618  16.281 -1.2620 -2.5685  1.1880
 5247SOL     OW27202   0.480   1.145   3.203  0.2143 -0.2855  0.1243
 5247SOL    HW127203   0.430   1.139   3.121  0.8613 -1.0005 -0.2180
 5247SOL    HW227204   0.433   1.096   3.270 -0.1618  0.2851  0.2788
 5248SOL     OW27205   2.790   0.648   9.329  0.2441  0.3249 -0.4251
 5248SOL    HW127206   2.735   0.574   9.304 -0.6141  0.3143  1.5370
 5248SOL    HW227207   2.729   0.698   9.383 -0.8791  0.2878 -1.6610
 5249SOL     OW27208   1.893   1.626   7.572 -0.4994  0.0196  0.5474
 5249SOL    HW127209   1.875   1.711   7.612 -1.9323  0.7452 -1.6403
 5249SOL    HW227210   1.847   1.629   7.488 -1.5690 -1.8197  1.0710
 5250SOL     OW27211   1.265   3.555  16.474 -0.8773 -0.0406  0.1267
 5250SOL    HW127212   1.223   3.594  16.397 -1.4236 -1.3782 -0.2671
 5250SOL    HW227213   1.236   3.463  16.473  1.4336 -0.7604 -0.7035
 5251SOL     OW27214   3.984   0.017  16.147 -0.0997  0.1469 -0.0640
 5251SOL    HW127215   3.984   0.112  16.134  3.0267 -0.1068 -1.9290
 5251SOL    HW227216   4.026   4.713  16.065  1.9620  1.3721  0.6028
 5252SOL     OW27217   0.289   3.910   6.688  0.3456 -0.4021  0.2312
 5252SOL    HW127218   0.254   3.842   6.630 -3.4433  1.6606  0.0471
 5252SOL    HW227219   0.384   3.911   6.679  0.1406 -0.8791 -2.0793
 5253SOL     OW27220   0.422   1.405   4.286 -0.0729 -0.5672 -0.7394
 5253SOL    HW127221   0.393   1.442   4.370 -1.3310 -2.1400 -0.4860
 5253SOL    HW227222   0.492   1.465   4.260 -1.1942  0.4699 -1.3151
 5254SOL     OW27223   0.711   2.735   7.129  0.2591 -0.2686  0.1966
 5254SOL    HW127224   0.622   2.734   7.165  0.7308  0.5926  1.3731
 5254SOL    HW227225   0.697   2.785   7.049  1.4528 -0.9905 -0.4727
 5255SOL     OW27226   1.092   2.592   7.662  0.5415 -0.3971  0.0792
 5255SOL    HW127227   1.092   2.669   7.719 -0.0859 -0.5318  0.2559
 5255SOL    HW227228   1.160   2.621   7.602  1.2202 -1.5911  0.2653
 5256SOL     OW27229   4.375   3.030   6.897  0.2289 -0.1289 -0.3700
 5256SOL    HW127230   4.404   3.048   6.987  0.3710 -1.3337 -0.1706
 5256SOL    HW227231   4.400   3.114   6.859 -1.3411  0.4996 -0.0048
 5257SOL     OW27232   3.280   0.630   7.843  0.5703 -0.1120 -0.1625
 5257SOL    HW127233   3.288   0.596   7.754  0.9524 -0.7773  0.1308
 5257SOL    HW227234   3.238   0.713   7.820 -1.4021 -1.1982 -0.5087
 5258SOL     OW27235   4.368   3.834   6.462 -0.2901 -0.3518 -0.6047
 5258SOL    HW127236   4.355   3.748   6.503  0.8594 -1.6330 -2.9284
 5258SOL    HW227237   4.292   3.837   6.404  0.5468 -0.1660 -1.6905
 5259SOL     OW27238   3.702   3.874   6.999 -0.0730  0.0748  0.3185
 5259SOL    HW127239   3.649   3.871   7.078  0.4668 -0.1386  0.6708
 5259SOL    HW227240   3.732   3.965   6.997  0.7272 -0.2137 -1.0917
 5260SOL     OW27241   3.460   3.942   8.458 -0.3841 -0.4862  0.2895
 5260SOL    HW127242   3.471   3.855   8.418 -1.2962 -0.7537  0.6218
 5260SOL    HW227243   3.536   3.932   8.515 -0.3284  0.8669  0.4455
 5261SOL     OW27244   4.150   1.459  12.939  0.2986  0.5189 -0.3869
 5261SOL    HW127245   4.102   1.541  12.927 -1.5128 -0.5044 -0.2070
 5261SOL    HW227246   4.201   1.467  12.859  0.4217 -2.1835 -0.5885
 5262SOL     OW27247   4.370   0.817   5.391  0.0565 -0.0896 -0.5917
 5262SOL    HW127248   4.361   0.827   5.296 -1.7079 -1.5125 -0.5677
 5262SOL    HW227249   4.366   0.723   5.403 -0.6557  0.2354  1.8326
 5263SOL     OW27250   0.312   4.070   5.834  0.2079  0.2722 -0.2550
 5263SOL    HW127251   0.321   4.098   5.925 -0.8290  0.1122 -0.1096
 5263SOL    HW227252   0.224   4.096   5.809  0.3899  1.8089  0.7054
 5264SOL     OW27253   0.338   0.339   9.638 -0.1575  0.1265  0.1868
 5264SOL    HW127254   0.409   0.403   9.631  0.4687 -0.7565 -1.5177
 5264SOL    HW227255   0.260   0.394   9.625  0.0896  0.6654  1.0020
 5265SOL     OW27256   2.431   3.450  16.561  0.1194 -0.1629 -0.2572
 5265SOL    HW127257   2.501   3.434  16.624 -0.4106  0.6061  0.5274
 5265SOL    HW227258   2.355   3.401  16.592 -0.0376  0.6092  0.5976
 5266SOL     OW27259   2.169   3.063   7.958 -0.3836  0.4710 -0.7007
 5266SOL    HW127260   2.215   3.050   8.041 -0.2376 -2.8246 -1.2954
 5266SOL    HW227261   2.215   3.131   7.909  0.9580  0.4093  0.4663
 5267SOL     OW27262   2.565   0.258   6.162  0.8862 -0.0136 -0.5084
 5267SOL    HW127263   2.528   0.291   6.080  0.5258  0.9694  0.0540
 5267SOL    HW227264   2.510   0.303   6.227 -1.1607 -2.8942 -0.2317
 5268SOL     OW27265   2.185   1.497   3.092  0.0702  0.7135  0.3272
 5268SOL    HW127266   2.168   1.443   3.014 -0.5564  0.1733  0.8338
 5268SOL    HW227267   2.097   1.533   3.107  0.7948  3.4035 -2.0048
 5269SOL     OW27268   4.183   1.014   5.051 -0.2813  0.5149 -0.1538
 5269SOL    HW127269   4.150   1.064   5.126  0.5312 -0.7020  1.0177
 5269SOL    HW227270   4.144   1.060   4.976 -0.7902 -1.4267 -1.0699
 5270SOL     OW27271   4.187   0.528   6.107  0.1956 -0.0748 -0.6437
 5270SOL    HW127272   4.252   0.596   6.088 -0.1416  0.3197 -0.3672
 5270SOL    HW227273   4.247   0.452   6.104 -0.8620 -0.9665  0.7105
 5271SOL     OW27274   4.630   3.882   5.487 -0.4863  0.1652  0.6309
 5271SOL    HW127275   4.682   3.849   5.414  1.2067  2.3166  0.8628
 5271SOL    HW227276   4.547   3.837   5.470  0.0423 -1.6674  2.8584
 5272SOL     OW27277   1.875   4.637   9.435 -0.0971  0.0931 -0.3985
 5272SOL    HW127278   1.885   0.008   9.417  0.4969  0.0454 -0.3155
 5272SOL    HW227279   1.918   4.633   9.520 -0.4935 -1.3453 -0.2585
 5273SOL     OW27280   2.251   0.410  14.612  0.1326 -0.2439  0.2474
 5273SOL    HW127281   2.250   0.449  14.524 -0.9719 -1.0755 -0.1124
 5273SOL    HW227282   2.261   0.490  14.662  0.4331 -0.8014  1.0809
 5274SOL     OW27283   0.191   1.715   6.268  0.1269 -0.2042  0.0512
 5274SOL    HW127284   0.176   1.625   6.296  1.3065 -0.7331 -1.0174
 5274SOL    HW227285   0.150   1.722   6.182 -2.4102  0.4855  1.3306
 5275SOL     OW27286   4.664   2.342  17.495  0.0787 -0.1271 -0.8655
 5275SOL    HW127287   4.575   2.374  17.509  0.7159  0.2096  2.3669
 5275SOL    HW227288   4.697   2.365  17.582  0.6363 -0.4459 -0.9905
 5276SOL     OW27289   0.433   2.725   5.056  0.0465  1.1093 -0.4860
 5276SOL    HW127290   0.385   2.705   5.136 -0.7159  1.2028 -0.9247
 5276SOL    HW227291   0.407   2.662   4.989  0.8494  0.6965 -0.4138
 5277SOL     OW27292   0.917   1.741  12.302  0.2712  0.4646  0.7149
 5277SOL    HW127293   1.005   1.762  12.334  0.3922  1.2504 -0.1330
 5277SOL    HW227294   0.859   1.771  12.372 -0.9910  1.0409 -0.5722
 5278SOL     OW27295   2.035   0.916  16.476  0.0232 -0.0798  0.0042
 5278SOL    HW127296   1.961   0.857  16.460 -1.6203  1.1592  3.0900
 5278SOL    HW227297   1.984   0.993  16.501 -0.7566 -0.7668  0.5060
 5279SOL     OW27298   4.181   1.635   5.014 -0.4705  0.1792 -0.1211
 5279SOL    HW127299   4.147   1.721   4.989  0.2563  0.5085  0.0184
 5279SOL    HW227300   4.103   1.581   5.002  0.2563 -1.3562  1.9510
 5280SOL     OW27301   4.309   1.509  13.495  0.3249  0.4839  0.1395
 5280SOL    HW127302   4.218   1.521  13.519  0.5719 -1.2514  1.9329
 5280SOL    HW227303   4.355   1.505  13.579 -0.4096 -1.0495  0.4712
 5281SOL     OW27304   0.642   1.349   0.201  0.6750 -0.1030  0.4038
 5281SOL    HW127305   0.680   1.281   0.258 -2.0873  0.0549  2.3908
 5281SOL    HW227306   0.604   1.406   0.268  2.4143 -1.3489  2.4651
 5282SOL     OW27307   2.344   3.835   7.298  0.0103 -0.1246 -0.9074
 5282SOL    HW127308   2.369   3.800   7.383 -0.8705 -1.0389 -1.0177
 5282SOL    HW227309   2.267   3.780   7.282  0.1495 -0.0719 -1.7362
 5283SOL     OW27310   1.638   4.370  10.548  0.0619  0.5099  0.0529
 5283SOL    HW127311   1.716   4.409  10.509 -0.3250 -0.0674 -1.2901
 5283SOL    HW227312   1.606   4.318  10.475 -2.8522  1.4362  0.6809
 5284SOL     OW27313   0.238   1.431  13.751 -0.1003  0.2555  0.0273
 5284SOL    HW127314   0.284   1.349  13.730 -0.4983  0.5485 -1.9895
 5284SOL    HW227315   0.310   1.492  13.763  0.1766  0.0116 -0.3649
 5285SOL     OW27316   0.494   2.165   7.587  0.1387 -0.0756  0.1272
 5285SOL    HW127317   0.423   2.192   7.528 -0.3150 -2.0012 -0.2218
 5285SOL    HW227318   0.479   2.071   7.599 -1.0615 -0.2096 -2.4015
 5286SOL     OW27319   4.090   0.507  11.335  0.3233 -0.2518  0.1201
 5286SOL    HW127320   4.055   0.529  11.249 -1.4208 -1.1713  0.5912
 5286SOL    HW227321   4.107   0.592  11.375 -1.4911  0.7061 -1.1990
 5287SOL     OW27322   1.068   2.824   7.832 -0.1520 -0.0856 -0.2381
 5287SOL    HW127323   1.052   2.916   7.812 -0.2530 -0.3014 -1.1874
 5287SOL    HW227324   1.125   2.841   7.906  0.0055 -0.5033 -0.2594
 5288SOL     OW27325   3.774   2.247  17.092 -0.0720 -0.5873 -0.4688
 5288SOL    HW127326   3.845   2.228  17.154  0.3205 -0.0398 -0.7411
 5288SOL    HW227327   3.697   2.271  17.143 -0.0637  3.1741 -2.1837
 5289SOL     OW27328   1.731   2.423  15.473  0.0785  0.2663  0.9312
 5289SOL    HW127329   1.804   2.458  15.423 -0.0066 -1.3487 -0.3145
 5289SOL    HW227330   1.717   2.336  15.436  2.7095 -0.8816  2.6276
 5290SOL     OW27331   3.729   2.437   1.193 -0.3003  0.0630  0.1600
 5290SOL    HW127332   3.805   2.477   1.151  1.6629 -2.6781  1.1134
 5290SOL    HW227333   3.685   2.516   1.227 -3.2780 -1.1055 -0.9317
 5291SOL     OW27334   1.956   1.728  16.009 -0.3053  0.0956 -0.0418
 5291SOL    HW127335   1.946   1.682  15.926  1.1577  0.6130 -0.5126
 5291SOL    HW227336   2.051   1.715  16.019 -0.2383  1.1689  0.7840
 5292SOL     OW27337   1.085   2.362  12.010  0.1594 -0.2583  0.1728
 5292SOL    HW127338   1.166   2.326  11.975 -1.2467 -1.0008 -2.3401
 5292SOL    HW227339   1.037   2.386  11.930  0.3806  1.6223  0.6135
 5293SOL     OW27340   4.390   4.640   3.892 -0.2394  0.3872 -0.3404
 5293SOL    HW127341   4.302   4.628   3.927 -0.2357 -2.7138 -1.3979
 5293SOL    HW227342   4.427   4.694   3.961 -0.4292  0.4862 -0.3151
 5294SOL     OW27343   0.268   4.112   7.768 -0.5058 -0.0633 -0.9845
 5294SOL    HW127344   0.276   4.051   7.841 -0.0775  2.3798  0.9965
 5294SOL    HW227345   0.358   4.132   7.745 -0.2461 -0.8767 -0.6581
 5295SOL     OW27346   3.458   4.215   7.346  0.3001 -0.1716  0.5889
 5295SOL    HW127347   3.413   4.195   7.265  0.8368  1.9132 -0.2384
 5295SOL    HW227348   3.394   4.166   7.397  1.9543 -0.8085  2.0681
 5296SOL     OW27349   4.252   3.982   6.824  0.3605  0.0117 -0.5678
 5296SOL    HW127350   4.185   3.953   6.763  1.1488 -0.5676 -1.1481
 5296SOL    HW227351   4.265   3.902   6.875 -2.6378 -0.3880 -0.4293
 5297SOL     OW27352   3.685   0.529  15.768 -1.0666  0.2538 -0.4028
 5297SOL    HW127353   3.677   0.465  15.839 -2.4777  1.6045  0.6609
 5297SOL    HW227354   3.707   0.470  15.697  3.2891  0.1832  1.0152
 5298SOL     OW27355   1.363   2.385   1.503 -0.2600 -0.0849  0.4534
 5298SOL    HW127356   1.304   2.448   1.462 -1.0572  0.2721  2.1484
 5298SOL    HW227357   1.320   2.304   1.474  0.9551  0.5492 -3.0760
 5299SOL     OW27358   1.654   4.317  14.280  0.3332 -0.1816 -0.1954
 5299SOL    HW127359   1.621   4.312  14.369 -1.1586  1.5377 -0.6425
 5299SOL    HW227360   1.570   4.347  14.246  0.2883 -0.4722 -0.3356
 5300SOL     OW27361   0.161   3.068  16.421 -0.0780 -0.3307 -0.2345
 5300SOL    HW127362   0.178   3.095  16.511 -0.1266 -0.2793 -0.2405
 5300SOL    HW227363   0.210   2.987  16.413 -1.9302 -1.6002  1.5310
 5301SOL     OW27364   4.297   4.243  15.399  0.0143 -0.6113 -0.4640
 5301SOL    HW127365   4.250   4.299  15.338 -2.2459 -1.1221  0.7913
 5301SOL    HW227366   4.315   4.307  15.469 -0.1539 -0.3253 -0.6827
 5302SOL     OW27367   1.446   1.579   9.128 -0.4179  0.1848 -0.6498
 5302SOL    HW127368   1.359   1.540   9.117  0.1156 -1.0650 -0.4875
 5302SOL    HW227369   1.448   1.581   9.224  0.8902 -2.1334 -0.6048
 5303SOL     OW27370   2.941   4.583   5.490 -0.2788  0.0777 -0.0837
 5303SOL    HW127371   3.036   4.574   5.482  0.0094  0.3412  2.8927
 5303SOL    HW227372   2.920   4.513   5.428 -0.4900 -0.4733  0.6044
 5304SOL     OW27373   0.453   3.518   7.091 -0.0852 -0.3112  0.6765
 5304SOL    HW127374   0.441   3.505   7.185  0.7498 -1.4200  0.6276
 5304SOL    HW227375   0.453   3.426   7.065  1.0718 -0.4977  1.3474
 5305SOL     OW27376   1.580   1.067  15.037 -0.3696 -0.5225  0.3564
 5305SOL    HW127377   1.631   1.041  15.113 -0.3232 -0.0449  0.4896
 5305SOL    HW227378   1.639   1.044  14.965 -1.5120  1.3089 -1.1935
 5306SOL     OW27379   0.842   0.142   8.568 -0.5668  0.3294 -1.0777
 5306SOL    HW127380   0.758   0.173   8.535 -2.1308 -1.4753  1.2121
 5306SOL    HW227381   0.818   0.147   8.661  0.1502 -0.4119 -0.8549
 5307SOL     OW27382   4.632   2.728   1.255 -0.3021 -0.0844 -0.2259
 5307SOL    HW127383   4.655   2.745   1.164  0.3295 -0.2791 -0.1061
 5307SOL    HW227384   4.702   2.781   1.295 -0.0603 -0.2490 -0.4338
 5308SOL     OW27385   2.410   0.623   0.547 -0.4628 -0.2516 -0.1235
 5308SOL    HW127386   2.352   0.642   0.621 -0.5771 -0.6238 -0.1177
 5308SOL    HW227387   2.355   0.559   0.502 -0.7069  0.0891 -0.3068
 5309SOL     OW27388   0.724   0.834   9.180 -0.0164  0.1032 -0.0785
 5309SOL    HW127389   0.799   0.797   9.134  0.3692  0.7121  0.0618
 5309SOL    HW227390   0.680   0.757   9.215  1.2627 -0.4168  0.3758
 5310SOL     OW27391   1.092   1.443   8.220 -0.2802 -0.5773 -0.0180
 5310SOL    HW127392   1.042   1.486   8.151 -0.7316 -0.1112  0.5936
 5310SOL    HW227393   1.143   1.375   8.175 -0.9550  0.1658 -1.8923
 5311SOL     OW27394   3.887   4.650   3.909 -0.3346  0.1738 -0.3356
 5311SOL    HW127395   3.838   4.595   3.848  0.0961 -1.7452  1.0467
 5311SOL    HW227396   3.863   0.017   3.883  1.2895  0.9054  0.6694
 5312SOL     OW27397   3.710   3.879   8.072 -0.3186  0.4921 -0.0976
 5312SOL    HW127398   3.632   3.827   8.052  0.8290 -1.7712  1.3854
 5312SOL    HW227399   3.739   3.896   7.982 -0.1455  2.1423  0.2587
 5313SOL     OW27400   2.633   1.297   5.278 -0.4508 -0.2389  0.1903
 5313SOL    HW127401   2.686   1.376   5.270  2.0226 -1.8897  0.0925
 5313SOL    HW227402   2.689   1.230   5.237  1.5764  0.3230  2.0359
 5314SOL     OW27403   3.141   3.160   6.278  0.1011  0.1331  0.8046
 5314SOL    HW127404   3.172   3.095   6.215  1.7476  1.6010  0.0994
 5314SOL    HW227405   3.070   3.200   6.228  0.7257  0.5819  0.2769
 5315SOL     OW27406   0.966   0.840   7.002 -0.8271 -0.9043 -0.1259
 5315SOL    HW127407   1.017   0.919   7.018 -1.6484 -0.7431  1.7241
 5315SOL    HW227408   1.032   0.771   7.013 -1.4652 -1.5208 -0.1680
 5316SOL     OW27409   0.917   3.485   5.290 -0.6675 -0.1259  0.0824
 5316SOL    HW127410   0.897   3.397   5.321  0.5619 -0.9368 -1.3612
 5316SOL    HW227411   0.868   3.540   5.350 -1.9414  0.2209 -1.2715
 5317SOL     OW27412   1.088   1.126  15.138  0.2100  0.3406  0.8317
 5317SOL    HW127413   1.042   1.202  15.101  0.3372 -0.0805 -0.2045
 5317SOL    HW227414   1.010   1.075  15.159  0.0596  0.3859  0.3828
 5318SOL     OW27415   1.874   3.371  17.497  0.0403 -0.1976  0.7206
 5318SOL    HW127416   1.854   3.278  17.495  1.0961 -0.4181  0.3004
 5318SOL    HW227417   1.834   3.408  17.419 -0.4085  1.5902  1.7938
 5319SOL     OW27418   1.779   2.467   5.705  0.1432  0.2830  0.3236
 5319SOL    HW127419   1.824   2.403   5.761  0.8352  0.4908  0.0066
 5319SOL    HW227420   1.848   2.522   5.669 -0.9969  0.6570 -1.2571
 5320SOL     OW27421   1.637   2.317   5.243 -0.1816 -0.2550 -0.5580
 5320SOL    HW127422   1.580   2.240   5.244 -3.2627  2.0521 -0.6159
 5320SOL    HW227423   1.642   2.330   5.338  2.0110 -0.2832 -0.6684
 5321SOL     OW27424   4.172   1.560   6.639 -0.1669 -0.3163 -0.3427
 5321SOL    HW127425   4.145   1.580   6.549  0.0572  1.1306 -0.0837
 5321SOL    HW227426   4.181   1.465   6.629  0.9804 -0.1953 -0.4230
 5322SOL     OW27427   4.286   3.066  14.443 -0.0636 -0.7969  0.1238
 5322SOL    HW127428   4.299   3.094  14.352 -2.1601 -1.8075 -0.4913
 5322SOL    HW227429   4.191   3.078  14.439 -0.0347 -0.5374  0.1766
 5323SOL     OW27430   1.590   3.149   6.061  0.2136 -0.7630  0.2946
 5323SOL    HW127431   1.500   3.178   6.077  0.4433 -0.6735  1.4365
 5323SOL    HW227432   1.639   3.211   6.115  0.2411 -1.0402  0.5867
 5324SOL     OW27433   1.014   3.195  17.220  0.1646 -0.1568 -0.0219
 5324SOL    HW127434   1.051   3.146  17.293  0.7787  0.7998  0.3134
 5324SOL    HW227435   1.093   3.242  17.192  0.3123 -1.4159 -1.7114
 5325SOL     OW27436   2.874   1.175   3.193 -0.3361 -0.1447  0.0847
 5325SOL    HW127437   2.916   1.101   3.150 -2.2550 -1.3152  0.2114
 5325SOL    HW227438   2.873   1.142   3.283 -0.5806 -0.9419 -0.2090
 5326SOL     OW27439   0.339   4.194   6.093  0.2907 -0.1432  0.2941
 5326SOL    HW127440   0.252   4.196   6.131  0.3305 -0.6973  0.4167
 5326SOL    HW227441   0.362   4.286   6.104  1.1018 -0.3314  0.1970
 5327SOL     OW27442   3.455   0.054   2.223  0.1494  0.0807 -0.3796
 5327SOL    HW127443   3.510   0.092   2.154  1.7151 -0.1405  0.7538
 5327SOL    HW227444   3.453   0.136   2.272  1.3845 -0.0299 -0.1278
 5328SOL     OW27445   3.283   2.548   6.648 -0.3977  0.0761  0.3005
 5328SOL    HW127446   3.363   2.601   6.642 -0.1680 -0.5471 -2.3738
 5328SOL    HW227447   3.232   2.593   6.581  0.6555  1.3001  0.3243
 5329SOL     OW27448   3.237   0.501  16.259 -0.1338  0.4153 -0.1556
 5329SOL    HW127449   3.283   0.496  16.175  0.1434 -0.0616  0.0320
 5329SOL    HW227450   3.233   0.409  16.284 -0.4203  0.5574  0.3203
 5330SOL     OW27451   0.831   0.940  15.239  0.0707 -0.0041 -0.3954
 5330SOL    HW127452   0.831   0.844  15.241  0.4916  0.0439  2.3848
 5330SOL    HW227453   0.787   0.967  15.320  1.9041 -1.6088  1.1213
 5331SOL     OW27454   1.260   3.794  17.024  0.2251 -0.0992  0.3014
 5331SOL    HW127455   1.214   3.717  17.059  2.2649  0.4859  4.2454
 5331SOL    HW227456   1.332   3.806  17.087  0.2159  1.1140  0.0757
 5332SOL     OW27457   0.504   2.015   8.260 -0.0731  0.1926  0.1417
 5332SOL    HW127458   0.570   1.947   8.276  1.2963  1.9012  1.7326
 5332SOL    HW227459   0.426   1.961   8.269  1.0475 -1.3504  0.5895
 5333SOL     OW27460   0.032   3.523  16.484  0.1999 -0.5137 -0.2658
 5333SOL    HW127461   4.704   3.464  16.540  1.7369  0.1985  1.8746
 5333SOL    HW227462   4.719   3.608  16.511 -0.7726 -0.6496 -1.1001
 5334SOL     OW27463   0.215   3.846   7.321 -0.7735  0.0558  0.7886
 5334SOL    HW127464   0.241   3.798   7.400 -0.9928  0.4302  1.0880
 5334SOL    HW227465   0.248   3.784   7.256 -2.4330  0.8845 -0.8549
 5335SOL     OW27466   2.485   4.450   2.864 -0.1829  0.1150 -0.3592
 5335SOL    HW127467   2.505   4.357   2.875 -0.7915  0.5795  4.5033
 5335SOL    HW227468   2.390   4.457   2.873 -0.1289 -0.0116  0.2457
 5336SOL     OW27469   0.837   1.020   6.816 -0.1072  0.2908  0.4397
 5336SOL    HW127470   0.875   0.948   6.865  2.8251  2.4890  1.4375
 5336SOL    HW227471   0.889   1.097   6.838 -0.6162  1.0029 -0.8253
 5337SOL     OW27472   2.791   0.848   5.731 -0.3123 -0.3726  0.0553
 5337SOL    HW127473   2.875   0.846   5.776  0.4024  1.2906 -1.2047
 5337SOL    HW227474   2.790   0.942   5.712 -2.9714 -0.5634 -0.7612
 5338SOL     OW27475   1.288   1.797   5.799 -0.3590  0.1877  0.1236
 5338SOL    HW127476   1.351   1.781   5.870 -2.7805 -1.4583  1.9124
 5338SOL    HW227477   1.242   1.713   5.795  0.1396 -0.0238 -1.0893
 5339SOL     OW27478   3.833   0.519  14.245 -0.7174  0.3146 -0.6338
 5339SOL    HW127479   3.837   0.613  14.262  2.1173 -0.0498  0.7377
 5339SOL    HW227480   3.742   0.507  14.273 -0.8357 -2.3598 -2.2361
 5340SOL     OW27481   4.172   3.287   9.637 -0.1236 -0.1218  0.1069
 5340SOL    HW127482   4.142   3.201   9.667  0.7706 -0.8157 -0.9602
 5340SOL    HW227483   4.253   3.249   9.601 -0.6170 -0.4619 -0.6430
 5341SOL     OW27484   0.529   1.102   7.821  0.2805  0.4615 -0.2000
 5341SOL    HW127485   0.487   1.145   7.895  0.6708 -1.8402  1.3655
 5341SOL    HW227486   0.487   1.140   7.745  2.4763  0.0142 -1.6361
 5342SOL     OW27487   3.289   2.955   4.259  0.2288 -0.0607 -0.1226
 5342SOL    HW127488   3.306   3.042   4.223 -3.9544  0.7222 -0.2111
 5342SOL    HW227489   3.354   2.906   4.208  1.2397 -0.3355  1.4312
 5343SOL     OW27490   1.155   3.155   1.665 -0.0764 -0.4346  0.2393
 5343SOL    HW127491   1.119   3.068   1.644 -1.7268  0.4329 -0.5577
 5343SOL    HW227492   1.162   3.187   1.575 -1.4424  1.4328  0.7994
 5344SOL     OW27493   3.879   3.162   1.743  0.0913  0.2259 -0.2436
 5344SOL    HW127494   3.841   3.082   1.780  1.6152 -0.1327  0.5384
 5344SOL    HW227495   3.832   3.227   1.795  1.5287  1.0305  0.0618
 5345SOL     OW27496   0.893   4.328  12.031  0.1129  0.0123 -0.3822
 5345SOL    HW127497   0.889   4.233  12.019 -0.8959 -0.0750  0.5947
 5345SOL    HW227498   0.802   4.339  12.057  0.3758  1.9336 -0.2869
 5346SOL     OW27499   2.636   2.281   5.921  0.3516 -0.3873 -0.7377
 5346SOL    HW127500   2.682   2.200   5.898 -1.6004 -1.8354  0.4655
 5346SOL    HW227501   2.545   2.251   5.919  0.8709 -2.1353  1.7436
 5347SOL     OW27502   0.497   1.339  13.725  0.2728 -0.3523  0.2298
 5347SOL    HW127503   0.520   1.384  13.806  4.1665 -0.2122 -0.9088
 5347SOL    HW227504   0.548   1.392  13.663  1.2614 -0.0933  1.2639
 5348SOL     OW27505   3.926   2.829   7.080 -0.1291  0.0663 -0.8050
 5348SOL    HW127506   3.961   2.875   7.004 -0.0464 -0.7437 -1.2602
 5348SOL    HW227507   3.891   2.748   7.043  0.2698  0.1110 -1.2811
 5349SOL     OW27508   1.082   4.248  13.734 -0.0783  0.2190  0.2418
 5349SOL    HW127509   1.069   4.162  13.774  0.8023 -0.8063 -1.7070
 5349SOL    HW227510   0.993   4.282  13.744 -0.3990 -0.0821 -1.7263
 5350SOL     OW27511   1.151   4.133   3.191  0.0779 -0.0469  1.0363
 5350SOL    HW127512   1.137   4.039   3.198  0.8416 -0.2348 -0.0034
 5350SOL    HW227513   1.117   4.156   3.105 -0.2082 -0.3882  1.0586
 5351SOL     OW27514   0.781   4.549  13.970  0.5201  0.0002  0.0373
 5351SOL    HW127515   0.729   4.521  14.046 -1.4679 -2.1727 -2.1575
 5351SOL    HW227516   0.712   4.572  13.909 -0.5521  0.4697  1.4166
 5352SOL     OW27517   2.940   1.760   4.878 -0.0186 -0.0079  0.2944
 5352SOL    HW127518   2.992   1.817   4.935  0.0102 -0.0559  0.3155
 5352SOL    HW227519   2.951   1.806   4.794  2.1159 -0.3447  0.3886
 5353SOL     OW27520   0.978   4.340   6.293  0.5858 -0.5261  0.1915
 5353SOL    HW127521   0.965   4.435   6.294 -3.2577 -1.0828 -0.0024
 5353SOL    HW227522   1.052   4.334   6.354  1.2155  0.5081 -0.4609
 5354SOL     OW27523   4.716   2.841  10.796 -0.5868 -0.4256  0.3551
 5354SOL    HW127524   4.695   2.784  10.722 -0.0216 -1.2668  0.8401
 5354SOL    HW227525   0.066   2.889  10.755 -0.2979  0.6862  2.1752
 5355SOL     OW27526   1.941   1.630  15.764  0.0386 -0.1532 -0.3116
 5355SOL    HW127527   1.859   1.646  15.718 -0.9218 -0.5551  1.2470
 5355SOL    HW227528   1.967   1.546  15.728 -0.8229 -0.4340 -0.2885
 5356SOL     OW27529   4.095   1.674   7.661 -0.0718  0.4415  0.4375
 5356SOL    HW127530   4.024   1.712   7.712 -1.0403  0.8656 -1.2161
 5356SOL    HW227531   4.052   1.596   7.625  2.1857 -1.1477  1.1857
 5357SOL     OW27532   1.281   0.033   8.324  0.2007  0.7048 -0.0308
 5357SOL    HW127533   1.278   0.020   8.418  1.1208 -0.2918 -0.1365
 5357SOL    HW227534   1.321   4.670   8.304  2.1109  1.4872  0.4964
 5358SOL     OW27535   3.034   2.853   4.685 -0.5677  0.0622 -0.7613
 5358SOL    HW127536   3.126   2.856   4.658 -0.1355  0.8127  0.8567
 5358SOL    HW227537   3.016   2.759   4.693 -0.1603  0.0044 -0.5332
 5359SOL     OW27538   3.369   2.165   7.991 -0.3737 -0.1561  0.4145
 5359SOL    HW127539   3.325   2.116   8.060  2.2016 -1.2362  1.3003
 5359SOL    HW227540   3.458   2.135   8.009 -0.5320 -0.2763  1.0196
 5360SOL     OW27541   2.134   4.070   9.208  0.5505  0.3583 -0.6036
 5360SOL    HW127542   2.211   4.100   9.255  0.2082  0.8582 -0.3669
 5360SOL    HW227543   2.161   3.982   9.181  4.5044  0.9568  1.4986
 5361SOL     OW27544   0.541   4.590  16.984 -0.2519 -0.6405 -0.2633
 5361SOL    HW127545   0.496   4.622  16.906  0.7878 -0.1509 -0.6543
 5361SOL    HW227546   0.479   4.624  17.049 -2.0693  0.3799 -2.5066
 5362SOL     OW27547   2.347   1.322  10.961 -0.0150  0.0749 -0.3211
 5362SOL    HW127548   2.378   1.232  10.954 -0.9996 -0.3182  0.3728
 5362SOL    HW227549   2.255   1.316  10.935  0.2280 -0.4734 -1.0450
 5363SOL     OW27550   4.245   2.516   6.279 -0.0927  0.2729 -0.1645
 5363SOL    HW127551   4.220   2.535   6.189  2.0086  2.2879 -0.3305
 5363SOL    HW227552   4.218   2.595   6.325  1.0149  0.2567  0.5223
 5364SOL     OW27553   0.231   4.504  16.029 -0.0406 -0.1548  0.0938
 5364SOL    HW127554   0.166   4.439  16.004 -1.5502  2.6504 -3.3150
 5364SOL    HW227555   0.261   4.473  16.114 -0.9406  1.5102  1.0078
 5365SOL     OW27556   1.209   0.509  10.135 -0.3055  0.0774  0.2703
 5365SOL    HW127557   1.239   0.421  10.111 -2.5095 -1.0981  1.8938
 5365SOL    HW227558   1.226   0.506  10.229 -2.1548 -0.9877  0.5716
 5366SOL     OW27559   4.029   0.221   6.948  0.4197  0.1594 -0.4136
 5366SOL    HW127560   4.079   0.233   6.867  2.4471 -2.3484  0.4686
 5366SOL    HW227561   4.063   0.137   6.980  0.2042  0.7135  1.2715
 5367SOL     OW27562   2.163   2.004   7.116  0.4018  0.0820 -0.2301
 5367SOL    HW127563   2.240   2.060   7.108  1.4244 -1.1353  1.1998
 5367SOL    HW227564   2.157   1.959   7.200  1.1681 -1.9192 -1.2617
 5368SOL     OW27565   4.078   2.819  14.435 -0.5504  0.2567 -0.3854
 5368SOL    HW127566   4.075   2.844  14.528  0.8344  1.4325 -0.6580
 5368SOL    HW227567   4.037   2.733  14.433 -0.1307  0.0263  0.5059
 5369SOL     OW27568   3.159   0.506   4.675 -0.0746  0.5527  1.0452
 5369SOL    HW127569   3.230   0.460   4.720 -0.1280 -2.1490 -1.6540
 5369SOL    HW227570   3.087   0.460   4.717 -0.5294  1.8333  1.6768
 5370SOL     OW27571   4.564   1.988   4.284  0.8189  0.4790 -0.2599
 5370SOL    HW127572   4.493   1.929   4.309 -1.3080  3.7351  1.3722
 5370SOL    HW227573   4.559   2.058   4.349  3.1787  0.8005 -0.4047
 5371SOL     OW27574   0.726   2.512   5.201  0.4401 -0.0749 -0.5466
 5371SOL    HW127575   0.803   2.539   5.251 -1.3944  1.3659  1.4959
 5371SOL    HW227576   0.658   2.573   5.231 -0.0363 -1.7772  1.8152
 5372SOL     OW27577   4.505   0.046   7.668  0.3945  0.0255  0.1167
 5372SOL    HW127578   4.588   0.073   7.627  0.4070 -0.8568 -0.4279
 5372SOL    HW227579   4.450   0.035   7.591  2.1574 -1.9790 -0.8813
 5373SOL     OW27580   4.101   2.325   2.727 -0.7223  0.2321  0.2689
 5373SOL    HW127581   4.132   2.295   2.642  1.8162  2.7135  0.3242
 5373SOL    HW227582   4.034   2.266   2.763 -1.3928  1.0956  0.4353
 5374SOL     OW27583   3.787   3.970   6.689  0.3834 -0.0601  0.4214
 5374SOL    HW127584   3.878   3.940   6.687  0.1206 -0.8207  0.0406
 5374SOL    HW227585   3.798   4.052   6.738 -0.9289 -1.2295  2.6682
 5375SOL     OW27586   3.940   0.332   3.111 -0.1383  0.0513  0.3260
 5375SOL    HW127587   3.967   0.242   3.089  0.1257  0.6472 -1.7207
 5375SOL    HW227588   3.848   0.317   3.134  0.3187  2.6035  3.7804
 5376SOL     OW27589   1.206   4.143   6.637  0.1097 -0.2398  0.5477
 5376SOL    HW127590   1.218   4.212   6.702  1.4404  0.5069 -0.5030
 5376SOL    HW227591   1.294   4.109   6.626 -0.6210 -1.8848 -0.3061
 5377SOL     OW27592   3.155   4.310   4.817 -0.5430 -0.2268 -1.0709
 5377SOL    HW127593   3.166   4.222   4.782  0.7409 -2.0983  4.0563
 5377SOL    HW227594   3.242   4.345   4.798 -0.5133  0.7106  0.7898
 5378SOL     OW27595   0.999   0.398  17.004 -0.4448  0.0544  0.0843
 5378SOL    HW127596   0.974   0.357  16.921 -1.9786  2.3805 -0.5853
 5378SOL    HW227597   0.919   0.411  17.055 -0.1903  0.1117  0.4673
 5379SOL     OW27598   0.778   4.243   4.279  0.3972 -0.0486 -0.3752
 5379SOL    HW127599   0.728   4.285   4.349 -0.3116 -1.4985  0.0045
 5379SOL    HW227600   0.779   4.315   4.216 -0.1820 -1.3020 -1.8147
 5380SOL     OW27601   2.725   0.499   9.044 -0.1903  0.0494 -0.1067
 5380SOL    HW127602   2.821   0.495   9.041 -0.1464  0.9434 -0.0224
 5380SOL    HW227603   2.705   0.460   9.129  1.3384 -0.1961  0.1335
 5381SOL     OW27604   3.053   2.721   9.837  0.0809 -0.3371  0.2302
 5381SOL    HW127605   2.961   2.702   9.821  0.5899 -1.8333 -0.9198
 5381SOL    HW227606   3.063   2.787   9.768 -2.2191 -2.5025 -2.1369
 5382SOL     OW27607   4.349   2.771   5.292 -0.1005  0.7409  0.5714
 5382SOL    HW127608   4.292   2.838   5.253 -2.5434 -0.5761  1.8884
 5382SOL    HW227609   4.428   2.826   5.293  0.9221 -0.7788  3.4468
 5383SOL     OW27610   1.686   3.461  17.317 -0.0104 -0.2697 -0.1254
 5383SOL    HW127611   1.689   3.441  17.223 -0.9879  1.8209 -0.6227
 5383SOL    HW227612   1.593   3.485  17.325 -0.6870 -2.8633 -0.1664
 5384SOL     OW27613   0.916   4.404   9.082 -0.0638 -0.0315 -0.0629
 5384SOL    HW127614   0.834   4.366   9.115 -0.8021  2.0963  0.5649
 5384SOL    HW227615   0.932   4.357   9.000  0.9789  2.8102 -1.4504
 5385SOL     OW27616   3.705   4.034   2.043 -0.0447  0.1481  0.1773
 5385SOL    HW127617   3.628   3.987   2.075  0.6218 -0.8697  0.3067
 5385SOL    HW227618   3.738   4.075   2.123 -2.7436  1.0466  0.8294
 5386SOL     OW27619   0.401   3.579   4.846  0.5620 -0.0483 -0.0135
 5386SOL    HW127620   0.487   3.549   4.817  0.8490  0.8535 -0.0912
 5386SOL    HW227621   0.385   3.638   4.773  0.8196 -0.7000 -0.6035
 5387SOL     OW27622   2.962   0.066  16.521  0.1307  0.6626  0.0278
 5387SOL    HW127623   2.905   4.712  16.523 -0.9935  1.4755 -1.4929
 5387SOL    HW227624   3.029   0.051  16.588 -0.4543 -0.4614  0.3602
 5388SOL     OW27625   2.207   2.770   6.913 -0.3281  0.3575 -0.5746
 5388SOL    HW127626   2.288   2.722   6.930 -1.2586 -0.8936  0.2951
 5388SOL    HW227627   2.247   2.836   6.855 -0.1020 -0.2546 -1.1134
 5389SOL     OW27628   1.995   0.857   7.264  0.1677  0.2978 -0.1714
 5389SOL    HW127629   2.065   0.904   7.219  1.9644 -1.8884  0.3927
 5389SOL    HW227630   1.919   0.877   7.210 -0.2105  2.1082  1.0257
 5390SOL     OW27631   4.542   3.829   1.450  0.6344 -0.0511  0.0518
 5390SOL    HW127632   4.531   3.847   1.357  1.2163 -1.9544 -0.3799
 5390SOL    HW227633   4.527   3.915   1.490 -0.2540 -0.5303  0.7405
 5391SOL     OW27634   2.985   4.133   4.643  0.2818 -0.3024  0.0385
 5391SOL    HW127635   2.895   4.112   4.618  0.2766 -0.7916  0.4613
 5391SOL    HW227636   3.005   4.057   4.698  0.0449 -0.7762 -0.5234
 5392SOL     OW27637   1.397   3.834   7.907 -0.5664  0.6821  0.4738
 5392SOL    HW127638   1.364   3.868   7.990 -0.6712 -3.7604  2.2706
 5392SOL    HW227639   1.349   3.874   7.834  0.2079  1.1297  0.2158
 5393SOL     OW27640   1.104   3.053   4.958 -0.3160  0.6859 -0.4717
 5393SOL    HW127641   1.036   3.113   4.926  0.3311  0.7240 -1.7788
 5393SOL    HW227642   1.175   3.116   4.945 -0.4430  0.7840 -0.6925
 5394SOL     OW27643   3.841   3.529   5.351 -0.6044  0.4666 -0.2721
 5394SOL    HW127644   3.801   3.473   5.285 -1.3428 -1.3645  1.7267
 5394SOL    HW227645   3.871   3.609   5.307  0.7779 -0.5442 -1.1671
 5395SOL     OW27646   3.913   3.821   4.091  0.4295  0.3758 -0.0810
 5395SOL    HW127647   3.917   3.882   4.017 -1.6941  2.7544  1.7728
 5395SOL    HW227648   3.992   3.835   4.143 -0.4229  1.4409  0.9389
 5396SOL     OW27649   0.081   3.729   2.660 -0.0592 -0.0322  0.5395
 5396SOL    HW127650   0.133   3.808   2.677  0.0981 -0.4618  2.1282
 5396SOL    HW227651   0.068   3.694   2.749 -0.0030  1.3147  1.0743
 5397SOL     OW27652   0.542   2.147   7.947  0.1336  0.0801  0.2395
 5397SOL    HW127653   0.632   2.173   7.929  0.7314 -0.9487  1.7969
 5397SOL    HW227654   0.554   2.116   8.037  0.1476  3.5897  1.4439
 5398SOL     OW27655   4.214   4.374  12.939  0.0770  0.3062  0.3797
 5398SOL    HW127656   4.219   4.311  13.011  0.9810 -0.5497 -0.4405
 5398SOL    HW227657   4.305   4.362  12.911 -0.2839  2.1514 -1.5313
 5399SOL     OW27658   4.486   3.797  16.646  0.0054 -0.5520  0.1109
 5399SOL    HW127659   4.511   3.817  16.736  3.5415  0.6384 -1.1410
 5399SOL    HW227660   4.559   3.839  16.599 -0.9709 -2.1452 -2.8785
 5400SOL     OW27661   2.065   3.435  11.988  0.0706 -0.0678 -0.1062
 5400SOL    HW127662   2.099   3.524  11.987  0.0462 -0.0454  1.3079
 5400SOL    HW227663   2.005   3.430  11.913 -1.4363 -2.5948  1.2680
 5401SOL     OW27664   0.905   0.133   0.460 -0.0326  0.1380  0.0282
 5401SOL    HW127665   0.917   0.040   0.474  1.0062  0.6177  2.3224
 5401SOL    HW227666   0.872   0.157   0.547 -0.4957 -1.7007  0.3577
 5402SOL     OW27667   2.222   1.434   1.673 -0.0875 -0.5253 -0.4515
 5402SOL    HW127668   2.240   1.343   1.695 -0.3476 -0.6633 -0.8194
 5402SOL    HW227669   2.247   1.485   1.751  2.6166 -1.0771 -0.9644
 5403SOL     OW27670   1.323   0.492   1.343 -0.6336  0.0741  0.6554
 5403SOL    HW127671   1.409   0.452   1.332 -0.7622 -0.0280  0.0157
 5403SOL    HW227672   1.342   0.570   1.292  0.1704 -0.6359 -0.1246
 5404SOL     OW27673   0.229   3.496   9.831  0.2382 -0.5223  0.3280
 5404SOL    HW127674   0.210   3.403   9.829 -0.9342 -0.3026  1.4326
 5404SOL    HW227675   0.142   3.534   9.840  0.2291  0.2627 -3.0130
 5405SOL     OW27676   1.202   0.118   1.196  0.1583  0.5101  0.2483
 5405SOL    HW127677   1.112   0.151   1.196  0.4425  1.2551 -0.9756
 5405SOL    HW227678   1.222   0.134   1.289  1.2473 -1.5026  0.3601
 5406SOL     OW27679   4.070   1.085  11.385 -0.2456 -0.0840  0.1667
 5406SOL    HW127680   3.985   1.099  11.426 -1.8269  0.6208 -3.3599
 5406SOL    HW227681   4.115   1.160  11.424  2.8369 -1.7990 -0.0721
 5407SOL     OW27682   0.018   1.751   3.592  0.2161  0.0523 -0.1782
 5407SOL    HW127683   4.703   1.833   3.624  0.6839  0.2891 -0.2478
 5407SOL    HW227684   4.700   1.748   3.505  2.0196  0.1698 -0.9981
 5408SOL     OW27685   0.448   2.181   1.476  0.1897  0.3442 -0.0773
 5408SOL    HW127686   0.520   2.165   1.537  1.2016 -1.0109 -1.6048
 5408SOL    HW227687   0.370   2.165   1.529  0.2507  3.0827  0.8226
 5409SOL     OW27688   1.589   4.036  11.873 -0.7693 -0.1812 -0.8607
 5409SOL    HW127689   1.516   3.999  11.824 -1.4371 -0.9503  0.7276
 5409SOL    HW227690   1.576   4.130  11.857 -0.0065 -0.5434 -3.6805
 5410SOL     OW27691   3.255   0.054  16.510  0.0633 -0.2213 -0.2362
 5410SOL    HW127692   3.185   4.717  16.481  0.2625 -1.2455  1.3565
 5410SOL    HW227693   3.332   4.719  16.503 -0.5537 -1.1092  0.2059
 5411SOL     OW27694   3.272   2.432   3.624  0.1140  0.4064  0.1939
 5411SOL    HW127695   3.354   2.470   3.653 -0.5504  0.9548  1.3857
 5411SOL    HW227696   3.272   2.449   3.530 -0.8399 -0.9642 -0.0664
 5412SOL     OW27697   4.227   2.863   7.837 -0.4948  0.7093 -0.3573
 5412SOL    HW127698   4.275   2.813   7.903  0.1253  2.4894  0.5512
 5412SOL    HW227699   4.230   2.808   7.759  1.4308  0.1817  0.0900
 5413SOL     OW27700   0.889   3.279   2.520  0.4564 -0.1771  0.7734
 5413SOL    HW127701   0.970   3.256   2.475  1.2800  1.7176  1.2809
 5413SOL    HW227702   0.829   3.303   2.449 -1.1258 -1.5476  1.6358
 5414SOL     OW27703   3.424   0.496   1.838 -0.3100 -0.3627 -0.1777
 5414SOL    HW127704   3.346   0.525   1.885  1.2980 -0.5555  2.5462
 5414SOL    HW227705   3.414   0.545   1.756 -0.6751  0.8066  0.5764
 5415SOL     OW27706   1.263   0.915   4.626  0.1990 -0.0404 -0.5791
 5415SOL    HW127707   1.327   0.866   4.574  0.4061  0.4542 -0.7892
 5415SOL    HW227708   1.244   0.857   4.699 -0.9325 -0.4806 -1.2138
 5416SOL     OW27709   4.503   1.608   3.827  0.1888 -0.0190  0.0763
 5416SOL    HW127710   4.507   1.526   3.877 -0.2523 -0.0654  0.0329
 5416SOL    HW227711   4.460   1.582   3.746  0.2184  1.5157 -0.4227
 5417SOL     OW27712   1.103   3.141   2.416  0.2217  0.1366  0.1813
 5417SOL    HW127713   1.133   3.176   2.332  2.4169  2.4982  1.9517
 5417SOL    HW227714   1.080   3.054   2.384  1.3914  0.4729 -1.5725
 5418SOL     OW27715   3.129   3.776   8.844  0.3732  0.3695  0.4013
 5418SOL    HW127716   3.043   3.793   8.883 -0.4641 -0.2554 -1.1877
 5418SOL    HW227717   3.153   3.712   8.911 -2.0579  0.5498  1.4554
 5419SOL     OW27718   3.977   0.082  12.327  0.4782 -0.3611 -0.3420
 5419SOL    HW127719   3.993   0.043  12.413  0.6875 -0.6282 -0.5063
 5419SOL    HW227720   3.946   0.016  12.265  0.1712 -1.3802  0.8873
 5420SOL     OW27721   0.268   1.468   1.105  0.1216 -0.3767 -0.3600
 5420SOL    HW127722   0.289   1.377   1.083  1.3281  0.1509 -1.3665
 5420SOL    HW227723   0.340   1.495   1.162  0.1274  0.7597 -0.8978
 5421SOL     OW27724   2.574   0.792  17.069  0.4859  0.2148  0.1271
 5421SOL    HW127725   2.661   0.795  17.030  0.0339  0.2795 -0.8647
 5421SOL    HW227726   2.569   0.863  17.133 -0.5212  0.7932 -0.5932
 5422SOL     OW27727   2.379   0.901   9.252  0.1195  0.2343  0.2177
 5422SOL    HW127728   2.341   0.821   9.289 -2.7643  0.8178 -1.5258
 5422SOL    HW227729   2.404   0.945   9.333 -0.0951  0.0657  0.3755
 5423SOL     OW27730   3.808   1.679  16.245  0.1821  0.0800 -0.3091
 5423SOL    HW127731   3.759   1.752  16.282  0.8580  0.6995 -0.6441
 5423SOL    HW227732   3.856   1.652  16.323  0.3173  3.4286  0.7488
 5424SOL     OW27733   3.352   4.427   1.910  0.6582 -0.3574 -0.3880
 5424SOL    HW127734   3.309   4.512   1.912  0.1230 -0.6016 -2.0595
 5424SOL    HW227735   3.444   4.447   1.928  0.3926 -1.9226  2.8249
 5425SOL     OW27736   3.742   3.529  10.434  0.1426 -0.2651  0.4725
 5425SOL    HW127737   3.832   3.554  10.413  0.6204 -1.2407  1.3803
 5425SOL    HW227738   3.745   3.557  10.526  0.5790  1.6983 -0.1495
 5426SOL     OW27739   4.331   1.451   9.371 -1.0253 -0.2604 -0.7600
 5426SOL    HW127740   4.340   1.408   9.286 -0.2002  0.2755 -0.9413
 5426SOL    HW227741   4.373   1.394   9.435  0.9530  0.2674 -1.5944
 5427SOL     OW27742   4.546   3.311   1.696  0.9265 -0.0450  0.3216
 5427SOL    HW127743   4.452   3.327   1.695  1.3570  2.1743 -2.0962
 5427SOL    HW227744   4.562   3.273   1.783  1.0286  0.2302  0.4230
 5428SOL     OW27745   0.684   4.403   2.100 -0.0609  0.0478 -0.4012
 5428SOL    HW127746   0.606   4.370   2.055 -2.0065  2.5723  1.1097
 5428SOL    HW227747   0.636   4.456   2.163 -1.8185 -0.5371 -1.2562
 5429SOL     OW27748   2.897   1.987  17.331  0.6551  0.2604  0.6927
 5429SOL    HW127749   2.814   1.979  17.378  0.4645 -1.3717  0.0893
 5429SOL    HW227750   2.897   1.904  17.283 -0.3094  1.5484 -1.5047
 5430SOL     OW27751   4.465   1.754  17.064 -0.3859  0.3122 -0.5582
 5430SOL    HW127752   4.490   1.821  17.128  1.4036  0.5330 -1.4620
 5430SOL    HW227753   4.440   1.807  16.988  0.5283 -1.3090 -1.9974
 5431SOL     OW27754   2.176   0.174  15.335 -0.1885 -0.2198 -0.0111
 5431SOL    HW127755   2.235   0.248  15.347  1.5627 -1.1347 -3.0214
 5431SOL    HW227756   2.203   0.111  15.402 -0.1940  0.0821  0.2734
 5432SOL     OW27757   2.946   1.797   2.818 -0.0197  0.3104  0.2043
 5432SOL    HW127758   2.996   1.737   2.764 -1.3795 -0.2776 -0.4176
 5432SOL    HW227759   2.987   1.884   2.816  0.1347  0.3120  3.0671
 5433SOL     OW27760   0.851   1.357  11.150 -0.0548 -0.1193  0.4122
 5433SOL    HW127761   0.897   1.429  11.106  1.7945 -0.6158  1.5302
 5433SOL    HW227762   0.764   1.352  11.111  0.3176 -2.4389 -0.0950
 5434SOL     OW27763   1.413   1.140   4.681 -0.3282 -0.3738 -0.1812
 5434SOL    HW127764   1.490   1.106   4.637  0.1178 -0.4459  0.6556
 5434SOL    HW227765   1.354   1.065   4.685 -0.5743 -0.0970  1.7525
 5435SOL     OW27766   0.820   2.642   2.881  0.3488 -0.3412  0.5307
 5435SOL    HW127767   0.822   2.548   2.899  1.8251 -0.3033  0.5351
 5435SOL    HW227768   0.733   2.672   2.908  0.9013  1.9890 -0.2935
 5436SOL     OW27769   3.468   1.746   0.077  0.6950 -0.0924 -0.7553
 5436SOL    HW127770   3.547   1.761   0.129  0.0673 -0.2262  0.2510
 5436SOL    HW227771   3.449   1.838   0.057  1.1660 -0.1733 -1.5651
 5437SOL     OW27772   2.663   4.657   5.654  0.4037  0.4673  0.3372
 5437SOL    HW127773   2.649   4.632   5.563 -1.3227  1.1130  0.4253
 5437SOL    HW227774   2.616   4.589   5.703  2.7860 -1.0821  0.4332
 5438SOL     OW27775   1.158   2.843   5.328  0.1118  0.2181  0.1401
 5438SOL    HW127776   1.159   2.937   5.307  2.5953  0.1687 -0.0247
 5438SOL    HW227777   1.223   2.839   5.398  1.1042 -1.6169 -0.8845
 5439SOL     OW27778   1.687   4.483   8.412 -0.3388 -0.3521  0.0060
 5439SOL    HW127779   1.743   4.432   8.353  0.0073 -0.0622  0.0851
 5439SOL    HW227780   1.732   4.501   8.494  2.3974  0.0928 -1.5819
 5440SOL     OW27781   2.745   2.595   7.164 -0.9157 -0.0438 -0.2203
 5440SOL    HW127782   2.759   2.667   7.102  0.2317 -1.2413 -1.3598
 5440SOL    HW227783   2.700   2.527   7.114  0.9902  0.8987 -3.2244
 5441SOL     OW27784   4.125   3.627  12.279 -0.0033  0.5255 -0.7079
 5441SOL    HW127785   4.173   3.684  12.219  0.4907  1.2907  0.4349
 5441SOL    HW227786   4.054   3.601  12.219 -1.7707 -0.8308  1.9833
 5442SOL     OW27787   3.134   0.550   3.326  0.2158 -0.4234 -0.1758
 5442SOL    HW127788   3.138   0.481   3.392  2.3813  1.3729  1.5604
 5442SOL    HW227789   3.042   0.534   3.307 -0.2282 -0.3821  1.9571
 5443SOL     OW27790   0.774   1.780   7.369 -0.3043  0.7228  0.0087
 5443SOL    HW127791   0.719   1.846   7.412  0.4552  0.4253  1.3994
 5443SOL    HW227792   0.866   1.804   7.369  1.0897 -4.7737 -1.7042
 5444SOL     OW27793   2.003   1.139   6.338  0.1803  0.2065  0.5479
 5444SOL    HW127794   1.972   1.091   6.415 -1.2755 -0.9594 -0.7700
 5444SOL    HW227795   1.938   1.112   6.274  1.0031  1.7254 -0.9202
 5445SOL     OW27796   1.221   2.325   5.793 -0.6835 -0.1997 -0.6677
 5445SOL    HW127797   1.241   2.397   5.852  2.9524  1.3199 -3.7250
 5445SOL    HW227798   1.269   2.255   5.839  1.7230  0.9017 -1.5024
 5446SOL     OW27799   4.459   3.587  16.496  0.5480 -0.1573 -0.5466
 5446SOL    HW127800   4.452   3.656  16.563 -0.8763 -0.1550 -0.7172
 5446SOL    HW227801   4.412   3.517  16.541  1.2066  0.9006  1.8264
 5447SOL     OW27802   2.412   1.688   5.781 -0.2437 -0.0977  0.0076
 5447SOL    HW127803   2.403   1.740   5.701  0.1900  1.5432  1.0186
 5447SOL    HW227804   2.325   1.694   5.820 -0.1589 -1.0057  0.3351
 5448SOL     OW27805   1.581   1.905   4.610 -0.1160  0.0884 -0.2585
 5448SOL    HW127806   1.653   1.861   4.655 -0.1554  0.8829  0.5871
 5448SOL    HW227807   1.616   1.907   4.521 -0.3855  0.7767 -0.3533
 5449SOL     OW27808   2.086   3.729   5.560  0.4126 -0.4703 -0.7410
 5449SOL    HW127809   2.086   3.824   5.547 -0.2901 -0.1290  1.7865
 5449SOL    HW227810   2.115   3.706   5.472 -2.8113  0.1617 -1.9685
 5450SOL     OW27811   1.261   0.614   9.126 -0.4398  0.1972 -0.2849
 5450SOL    HW127812   1.184   0.629   9.071  0.5361 -3.8234 -2.7379
 5450SOL    HW227813   1.241   0.530   9.166  0.0626 -0.2077 -0.8697
 5451SOL     OW27814   1.952   4.360   5.820 -0.9121 -0.0248  0.0722
 5451SOL    HW127815   1.874   4.374   5.766  0.4769 -0.7834 -2.1128
 5451SOL    HW227816   1.914   4.304   5.888 -0.1174  0.9283  1.2993
 5452SOL     OW27817   1.464   3.101   6.782 -0.1034 -0.1962  0.3052
 5452SOL    HW127818   1.420   3.173   6.737 -1.2813 -1.8354 -1.1563
 5452SOL    HW227819   1.556   3.099   6.756  0.0082 -1.5260  0.8073
 5453SOL     OW27820   0.926   2.961  16.138 -0.1676 -0.0387 -0.2894
 5453SOL    HW127821   0.858   2.919  16.085 -2.0083  0.0338  2.0234
 5453SOL    HW227822   0.889   2.940  16.224  2.9132  2.1912  1.5722
 5454SOL     OW27823   1.607   3.097   4.791 -0.0810 -0.3757 -0.0213
 5454SOL    HW127824   1.648   3.041   4.725  1.7520  0.2316  0.6108
 5454SOL    HW227825   1.586   3.174   4.739  0.4565 -0.1114  0.1572
 5455SOL     OW27826   3.168   3.752   3.685  1.0923 -0.4704  0.4785
 5455SOL    HW127827   3.139   3.744   3.594  0.0614  1.8458  0.6113
 5455SOL    HW227828   3.173   3.664   3.722 -2.8426 -0.4237  1.1697
 5456SOL     OW27829   0.280   3.234  16.623  0.2084  0.1130 -0.4422
 5456SOL    HW127830   0.295   3.252  16.530  3.5362 -0.6251 -0.0639
 5456SOL    HW227831   0.356   3.272  16.668 -0.2447 -0.6971  1.0054
 5457SOL     OW27832   2.726   3.162   8.929 -0.3348 -0.0603 -0.2232
 5457SOL    HW127833   2.752   3.089   8.873  2.5212  0.3997  0.4956
 5457SOL    HW227834   2.666   3.117   8.988 -1.2582 -0.8568 -1.7570
 5458SOL     OW27835   1.723   3.420  13.651  0.3122 -0.3439 -0.3135
 5458SOL    HW127836   1.776   3.449  13.725 -2.1461  3.3705  0.0119
 5458SOL    HW227837   1.787   3.417  13.580  0.2673  1.4403 -0.4455
 5459SOL     OW27838   0.356   2.218   0.382  0.6343 -0.0037  0.3386
 5459SOL    HW127839   0.405   2.173   0.314  0.5440 -2.6947  2.0482
 5459SOL    HW227840   0.267   2.219   0.347  1.6508  1.9937 -2.1314
 5460SOL     OW27841   0.561   3.552   1.516  0.5455  0.2458  0.3125
 5460SOL    HW127842   0.487   3.610   1.535  0.6658  0.5036 -0.0094
 5460SOL    HW227843   0.627   3.593   1.572  0.2284  2.0035 -0.6067
 5461SOL     OW27844   1.676   2.480   3.124 -0.0040 -0.5978 -0.0547
 5461SOL    HW127845   1.602   2.465   3.065 -0.3108 -0.8951  0.4016
 5461SOL    HW227846   1.738   2.412   3.097  1.2590  0.2794  0.6367
 5462SOL     OW27847   4.634   1.607   6.464 -0.1736  0.0688  0.1222
 5462SOL    HW127848   0.004   1.584   6.449 -0.4593 -0.2508 -1.0618
 5462SOL    HW227849   4.622   1.537   6.528 -0.1497 -2.0730 -2.2487
 5463SOL     OW27850   4.215   0.124   0.374 -0.0675 -0.7073 -0.0324
 5463SOL    HW127851   4.180   0.049   0.421 -1.8461 -0.4977 -1.0117
 5463SOL    HW227852   4.163   0.195   0.411 -1.9535 -0.3940 -3.2768
 5464SOL     OW27853   4.325   4.383   0.148  0.3875 -0.3953  0.4353
 5464SOL    HW127854   4.301   4.443   0.219  0.1070  2.5757 -2.1965
 5464SOL    HW227855   4.247   4.327   0.144  0.3466 -0.2536 -0.7472
 5465SOL     OW27856   2.960   0.184   6.423 -0.3248  0.2701 -0.2853
 5465SOL    HW127857   3.026   0.234   6.376  1.0026 -0.1688  1.1307
 5465SOL    HW227858   3.005   0.168   6.506  0.8219 -0.3428 -1.0196
 5466SOL     OW27859   4.396   4.610  17.031  0.0887  0.3008  0.0505
 5466SOL    HW127860   4.316   4.572  17.067 -0.5581 -1.0521 -2.8900
 5466SOL    HW227861   4.414   4.554  16.956 -3.1067  0.0539 -0.5147
 5467SOL     OW27862   1.370   3.755  15.222  0.4343  0.6076 -0.0252
 5467SOL    HW127863   1.319   3.674  15.220  2.3597 -0.6267  0.5075
 5467SOL    HW227864   1.386   3.758  15.317 -0.0338  1.4952  0.0289
 5468SOL     OW27865   2.415   0.687   7.429  0.5065 -0.5589 -0.3812
 5468SOL    HW127866   2.322   0.711   7.417  0.5390 -0.3578 -0.2400
 5468SOL    HW227867   2.414   0.598   7.463 -0.4775 -1.3059 -2.3713
 5469SOL     OW27868   4.318   0.300   0.131  0.2957  0.3792  0.0339
 5469SOL    HW127869   4.385   0.368   0.137  0.8522 -0.3349  1.8132
 5469SOL    HW227870   4.350   0.239   0.197  1.6174  0.2445 -0.7380
 5470SOL     OW27871   0.957   2.094  11.721 -0.0782 -0.3561 -0.3873
 5470SOL    HW127872   0.877   2.120  11.767  0.3847  0.1485  0.1339
 5470SOL    HW227873   0.964   1.999  11.708  0.9039 -0.1198 -1.5735
 5471SOL     OW27874   3.704   1.055  12.522 -0.4658  0.0457 -0.1983
 5471SOL    HW127875   3.671   0.997  12.454  0.4292  0.1688 -0.7381
 5471SOL    HW227876   3.711   1.136  12.471  1.4687 -0.2302 -0.3792
 5472SOL     OW27877   1.897   4.557   5.203 -0.0515  0.2183  0.0282
 5472SOL    HW127878   1.944   4.616   5.262  1.2562  1.3752 -2.1786
 5472SOL    HW227879   1.901   4.598   5.117  0.9512  0.0034 -0.0352
 5473SOL     OW27880   2.504   3.556   5.253  0.2928  0.1999  0.0627
 5473SOL    HW127881   2.507   3.557   5.157 -2.3598  1.1664 -0.0006
 5473SOL    HW227882   2.553   3.477   5.274  0.1628  0.5352  1.6659
 5474SOL     OW27883   0.363   2.819   4.162  0.3308  0.0578 -0.3552
 5474SOL    HW127884   0.411   2.896   4.192 -1.2208  0.6535  0.5809
 5474SOL    HW227885   0.388   2.751   4.224  0.1712 -0.2918 -0.6718
 5475SOL     OW27886   1.629   4.550   6.177  0.0409  0.2731 -0.1896
 5475SOL    HW127887   1.655   4.597   6.098  1.6113 -0.1234  0.0913
 5475SOL    HW227888   1.668   4.592   6.254  0.9143 -0.0228 -0.4663
 5476SOL     OW27889   2.677   0.083  11.172  0.0005 -0.8017  0.3140
 5476SOL    HW127890   2.715   0.131  11.245 -0.6923 -0.8167  0.6856
 5476SOL    HW227891   2.700   4.716  11.197  0.5157 -1.1118 -1.2759
 5477SOL     OW27892   0.653   4.352   9.068  0.4709  0.3009 -0.1458
 5477SOL    HW127893   0.609   4.436   9.077  2.8697  1.4185  1.2834
 5477SOL    HW227894   0.599   4.302   9.007 -0.2031 -0.7179  1.2743
 5478SOL     OW27895   1.486   0.932   7.985  1.1497 -0.4800  0.1382
 5478SOL    HW127896   1.434   0.977   8.051  2.2447  0.4456  0.3734
 5478SOL    HW227897   1.424   0.949   7.914 -0.2938 -0.3617  1.4389
 5479SOL     OW27898   4.152   2.788  13.716 -0.3475 -0.0128 -0.1409
 5479SOL    HW127899   4.166   2.878  13.746 -0.1713 -0.4819  1.1776
 5479SOL    HW227900   4.119   2.797  13.626 -4.2121  1.9216  1.4748
 5480SOL     OW27901   2.088   0.044   5.006 -0.1267  0.5776 -0.2123
 5480SOL    HW127902   2.028   4.702   4.967 -0.6658  1.4572 -0.8327
 5480SOL    HW227903   2.134   0.071   4.927  0.2001  1.8374  0.4193
 5481SOL     OW27904   3.008   3.055  17.484  0.1860 -0.6049 -0.4051
 5481SOL    HW127905   3.006   3.101  17.400  0.7385  0.8593  0.3693
 5481SOL    HW227906   2.982   2.966  17.463  1.1126 -1.1716  0.8334
 5482SOL     OW27907   3.715   3.368   2.423 -0.0973 -0.6077 -0.3399
 5482SOL    HW127908   3.752   3.336   2.341 -1.0830 -0.9585 -0.6454
 5482SOL    HW227909   3.705   3.284   2.468  0.0713 -0.9098 -0.8672
 5483SOL     OW27910   4.344   1.840   0.760 -0.3717 -0.8241  0.0398
 5483SOL    HW127911   4.376   1.762   0.716  1.1252 -0.9443  1.3716
 5483SOL    HW227912   4.248   1.837   0.765 -0.3685 -1.6843 -0.5080
 5484SOL     OW27913   1.196   0.997   7.956 -0.1506 -0.1405  0.1013
 5484SOL    HW127914   1.128   0.986   8.022 -1.1657  1.2013 -0.7285
 5484SOL    HW227915   1.150   1.012   7.873 -0.0214  1.9051  0.4165
 5485SOL     OW27916   1.089   3.197  16.190 -0.2085  0.2565  0.1614
 5485SOL    HW127917   1.106   3.244  16.109  0.8189 -2.2608 -1.0768
 5485SOL    HW227918   1.013   3.142  16.171  0.7023 -0.9085 -0.1068
 5486SOL     OW27919   3.217   0.685  15.595  0.3792 -0.0999 -0.8780
 5486SOL    HW127920   3.293   0.730  15.633  0.7832 -0.5649 -1.1382
 5486SOL    HW227921   3.167   0.671  15.675  2.2145  1.2097  0.5028
 5487SOL     OW27922   0.807   1.197   7.269  1.0566  0.9133  0.2735
 5487SOL    HW127923   0.794   1.119   7.322 -0.4632  0.9517 -0.0324
 5487SOL    HW227924   0.793   1.263   7.338  0.7777  1.3341 -0.1884
 5488SOL     OW27925   3.493   4.433  11.682  0.4707  0.6581  0.0095
 5488SOL    HW127926   3.448   4.391  11.609 -0.7996  1.1482  0.5202
 5488SOL    HW227927   3.428   4.431  11.752 -0.6741  2.6078 -0.9760
 5489SOL     OW27928   3.374   0.198  11.400 -0.1978  0.0499 -0.0954
 5489SOL    HW127929   3.421   0.260  11.457  0.4882  1.1770 -1.8797
 5489SOL    HW227930   3.292   0.246  11.408 -1.8734 -2.5899 -1.7390
 5490SOL     OW27931   1.533   4.175   6.779 -0.2559  0.1920 -0.0456
 5490SOL    HW127932   1.576   4.258   6.800  1.2218 -0.6391  0.1824
 5490SOL    HW227933   1.559   4.135   6.862  4.0922  0.6971 -1.1956
 5491SOL     OW27934   1.191   4.235   9.303  0.0406  0.0989 -0.4555
 5491SOL    HW127935   1.273   4.187   9.317  0.4729  0.7282 -0.8499
 5491SOL    HW227936   1.122   4.176   9.335  0.2426 -0.9619 -1.9932
 5492SOL     OW27937   0.018   3.687   4.202 -0.4238 -0.6704 -0.1384
 5492SOL    HW127938   0.047   3.695   4.111 -1.4225  1.0442 -0.3116
 5492SOL    HW227939   0.013   3.592   4.204  2.2357 -0.8291 -0.1761
 5493SOL     OW27940   0.943   1.496   0.822  0.3365 -0.1847 -0.4463
 5493SOL    HW127941   0.906   1.584   0.813 -0.1122 -0.2968  0.2838
 5493SOL    HW227942   1.025   1.498   0.773  0.6284  0.2292  0.0571
 5494SOL     OW27943   3.322   3.855   5.430 -0.2883  0.2875  0.2162
 5494SOL    HW127944   3.382   3.786   5.458 -1.9904 -0.8560  1.0427
 5494SOL    HW227945   3.278   3.814   5.356  1.0563 -1.4128  0.3460
 5495SOL     OW27946   0.609   2.967  16.583 -0.3607 -0.5515 -0.2486
 5495SOL    HW127947   0.583   3.004  16.667  2.8691  1.6678 -0.2403
 5495SOL    HW227948   0.623   2.876  16.608  2.0471 -0.3427 -0.8943
 5496SOL     OW27949   4.721   3.548   2.949  0.6377 -0.2352  0.2451
 5496SOL    HW127950   0.048   3.608   3.004 -0.6420  1.4753 -0.4904
 5496SOL    HW227951   0.067   3.485   2.923 -0.8930 -1.8065  0.0821
 5497SOL     OW27952   2.207   3.876   4.495 -0.4369 -0.4188  0.9767
 5497SOL    HW127953   2.267   3.857   4.567  0.8554  2.4321  0.6209
 5497SOL    HW227954   2.126   3.832   4.523  0.6511 -0.8124  3.4975
 5498SOL     OW27955   3.610   3.537   7.726 -0.3627  0.5442 -0.0345
 5498SOL    HW127956   3.669   3.556   7.799  1.0567  0.6161 -1.1854
 5498SOL    HW227957   3.548   3.476   7.765  0.4589  0.3044  0.8958
 5499SOL     OW27958   1.337   4.450   6.287  0.1261 -0.4103 -0.2213
 5499SOL    HW127959   1.348   4.424   6.379 -0.6033  2.4030  0.6650
 5499SOL    HW227960   1.430   4.452   6.263 -0.3256 -1.0134 -1.9890
 5500SOL     OW27961   3.954   3.751   9.506 -0.1117 -0.2580 -0.0006
 5500SOL    HW127962   3.938   3.770   9.414 -1.7930  1.8650  0.7266
 5500SOL    HW227963   3.949   3.655   9.504 -1.0395 -0.2279  0.6044
 5501SOL     OW27964   2.312   1.146   8.219  0.1058 -0.0811  0.0225
 5501SOL    HW127965   2.388   1.096   8.251  1.2967  0.8726 -1.3306
 5501SOL    HW227966   2.263   1.084   8.165 -0.6789 -0.7714  1.4984
 5502SOL     OW27967   0.878   3.138  13.458  0.1282  0.3337 -0.2860
 5502SOL    HW127968   0.921   3.080  13.396 -0.7889  0.3685 -0.9579
 5502SOL    HW227969   0.941   3.176  13.519  0.1013 -0.3657  0.1752
 5503SOL     OW27970   3.062   3.474  15.766  0.1529 -0.3565  0.1932
 5503SOL    HW127971   3.154   3.489  15.743  0.0503  1.4551  0.9599
 5503SOL    HW227972   3.013   3.460  15.685 -0.7981  1.3319  0.4704
 5504SOL     OW27973   3.741   1.289   6.681 -0.0265  1.1221 -0.1442
 5504SOL    HW127974   3.781   1.290   6.768 -0.2776  0.9382 -0.0216
 5504SOL    HW227975   3.715   1.196   6.682  1.8378  0.5981 -1.7928
 5505SOL     OW27976   0.341   0.667   1.428  0.4983 -0.0416  0.0070
 5505SOL    HW127977   0.285   0.731   1.472 -0.6646 -1.2879  0.3496
 5505SOL    HW227978   0.282   0.634   1.360 -1.1339  0.9737  0.9234
 5506SOL     OW27979   0.066   0.846   3.440 -0.3104 -0.2364  0.4888
 5506SOL    HW127980   4.719   0.875   3.499 -1.6589 -0.8074 -0.7842
 5506SOL    HW227981   0.057   0.921   3.381  0.8791 -1.4409 -1.2460
 5507SOL     OW27982   0.697   4.606  11.966  0.1306  0.5184 -0.3477
 5507SOL    HW127983   0.688   4.536  12.030  2.3150  0.2500 -0.3247
 5507SOL    HW227984   0.749   4.662  12.024  1.2361 -1.3172  0.4322
 5508SOL     OW27985   0.213   3.107   2.377  0.1373 -0.1046  0.0235
 5508SOL    HW127986   0.133   3.113   2.325 -1.8163 -0.3691  2.9776
 5508SOL    HW227987   0.189   3.048   2.449  2.4779 -3.6403 -2.0872
 5509SOL     OW27988   0.526   4.395  10.366 -0.0514 -0.2371 -0.2615
 5509SOL    HW127989   0.575   4.335  10.422 -1.4327  0.0617  1.2603
 5509SOL    HW227990   0.478   4.445  10.432 -2.2226 -1.9225 -0.5603
 5510SOL     OW27991   3.425   0.820  13.661 -0.3957  0.3282  0.2823
 5510SOL    HW127992   3.419   0.792  13.752  2.8556  0.2253  0.4701
 5510SOL    HW227993   3.468   0.745  13.619  0.0484 -0.2538  1.8045
 5511SOL     OW27994   2.296   3.932  15.828  0.6650 -0.7138  0.0459
 5511SOL    HW127995   2.261   4.017  15.802 -1.5511 -1.4484  0.6212
 5511SOL    HW227996   2.230   3.879  15.784  0.8856  1.2123 -2.6387
 5512SOL     OW27997   2.850   4.708   2.556  0.1290 -0.5503  0.4925
 5512SOL    HW127998   2.857   0.022   2.468  0.8951  1.1660  1.2608
 5512SOL    HW227999   2.828   4.615   2.543 -0.1811 -0.5164  0.7567
 5513SOL     OW28000   3.680   4.440   4.859 -0.4362 -0.0389  0.6952
 5513SOL    HW128001   3.726   4.470   4.780 -0.6199 -1.4167  0.0648
 5513SOL    HW228002   3.720   4.489   4.931 -2.0300  0.2972  1.3618
 5514SOL     OW28003   0.691   3.278   8.447  0.4663 -0.4154  0.6919
 5514SOL    HW128004   0.728   3.217   8.383 -1.1239 -0.5724 -0.0936
 5514SOL    HW228005   0.600   3.263   8.420  0.0623  1.6682  0.8755
 5515SOL     OW28006   1.756   1.821   2.384 -0.6445 -0.0757  0.0150
 5515SOL    HW128007   1.682   1.882   2.375 -0.6319 -0.0322  0.2029
 5515SOL    HW228008   1.803   1.856   2.460 -0.0856  1.6322 -1.1146
 5516SOL     OW28009   2.433   2.631   3.682  0.0265 -0.1219  0.1336
 5516SOL    HW128010   2.476   2.640   3.767  1.6624  0.9355 -0.8250
 5516SOL    HW228011   2.495   2.674   3.624  1.7622 -4.3761 -1.1945
 5517SOL     OW28012   1.977   0.043  14.571  0.0050  0.1840  0.0252
 5517SOL    HW128013   2.037   0.037  14.497  1.9106  3.6893  1.2758
 5517SOL    HW228014   2.007   4.684  14.613  0.8198  0.3929 -0.1519
 5518SOL     OW28015   1.701   0.831   6.421 -0.3777  0.4537  0.4187
 5518SOL    HW128016   1.678   0.819   6.513  2.7312  0.5571  1.2355
 5518SOL    HW228017   1.616   0.831   6.379 -0.1794  0.9133  0.0073
 5519SOL     OW28018   2.971   2.926   3.365 -0.5259  0.1214 -0.4040
 5519SOL    HW128019   3.021   2.898   3.442 -0.5309  1.0047 -0.0827
 5519SOL    HW228020   3.017   3.006   3.341  0.8601 -0.1525  1.3215
 5520SOL     OW28021   2.325   1.117  13.913 -0.0930 -0.3250 -0.0353
 5520SOL    HW128022   2.336   1.089  13.822  1.2700 -1.0519  0.3640
 5520SOL    HW228023   2.293   1.205  13.894 -0.8735 -0.5163  0.3969
 5521SOL     OW28024   3.136   4.228   0.736 -0.1595 -0.1287  0.2248
 5521SOL    HW128025   3.048   4.266   0.736  0.4198  1.2565 -0.8112
 5521SOL    HW228026   3.144   4.202   0.827 -0.7304  0.6468  0.4921
 5522SOL     OW28027   1.777   0.561  16.172 -0.1210  0.4166  0.1387
 5522SOL    HW128028   1.776   0.479  16.221 -0.4244  0.3741  0.0620
 5522SOL    HW228029   1.849   0.541  16.112 -0.0956  1.1035 -0.0654
 5523SOL     OW28030   1.949   3.341  17.070  0.5264 -0.0811 -0.5094
 5523SOL    HW128031   1.989   3.337  16.982 -0.0173  1.6532 -0.8396
 5523SOL    HW228032   1.924   3.434  17.073 -0.7177 -0.3439 -2.6744
 5524SOL     OW28033   3.326   4.168   1.916  0.0532 -0.3567 -0.6566
 5524SOL    HW128034   3.419   4.178   1.896 -0.2602  1.9417 -0.9727
 5524SOL    HW228035   3.314   4.262   1.924 -0.2725 -0.5504  1.2967
 5525SOL     OW28036   4.087   3.041   8.408 -0.0237  0.4520  0.9812
 5525SOL    HW128037   4.096   3.076   8.497  0.2989  1.2761  0.6197
 5525SOL    HW228038   4.122   3.115   8.358  1.8789 -0.9383  0.2707
 5526SOL     OW28039   2.511   0.791  11.054 -0.1924  0.4883  0.6213
 5526SOL    HW128040   2.500   0.704  11.014  0.3941  0.2922  0.8776
 5526SOL    HW228041   2.439   0.806  11.115  0.3319 -0.1331  1.3950
 5527SOL     OW28042   0.077   0.631  10.304 -0.9801 -0.1201 -0.3171
 5527SOL    HW128043   4.713   0.606  10.269 -1.8573  0.2096  1.5931
 5527SOL    HW228044   0.076   0.645  10.399 -3.0152 -0.5119 -0.2758
 5528SOL     OW28045   3.123   2.865   2.227 -0.2869 -1.0508 -0.1806
 5528SOL    HW128046   3.034   2.897   2.242 -0.3299 -1.0661 -0.3964
 5528SOL    HW228047   3.137   2.831   2.315 -0.9879 -1.9563 -0.4107
 5529SOL     OW28048   1.147   0.904   5.515 -0.9344  0.3014 -0.0246
 5529SOL    HW128049   1.183   0.860   5.592  1.5452  1.2582 -0.6491
 5529SOL    HW228050   1.089   0.966   5.560  0.7061  0.7455  1.4821
 5530SOL     OW28051   3.406   4.377  16.839  0.5937  0.0865 -0.3488
 5530SOL    HW128052   3.331   4.322  16.817  0.7808  0.4030 -1.8350
 5530SOL    HW228053   3.454   4.315  16.894 -0.6831  0.5904  1.3082
 5531SOL     OW28054   4.177   3.697   5.225 -0.2116  0.8195  0.5603
 5531SOL    HW128055   4.136   3.746   5.297 -1.8447  0.7559 -0.3170
 5531SOL    HW228056   4.095   3.660   5.191  0.8890  0.5076 -1.7091
 5532SOL     OW28057   1.507   2.594  14.527  0.0838  0.4943 -0.3251
 5532SOL    HW128058   1.532   2.685  14.518 -0.3490  0.3024 -3.6657
 5532SOL    HW228059   1.581   2.562  14.579  0.4237  0.8614 -0.5857
 5533SOL     OW28060   3.361   0.598   8.109 -0.2218 -0.3620 -0.0961
 5533SOL    HW128061   3.362   0.617   8.016 -0.5233 -3.0924 -0.6580
 5533SOL    HW228062   3.455   0.604   8.126  0.0303 -0.6852 -1.3592
 5534SOL     OW28063   2.284   3.328   5.499 -0.1393  0.2485  0.1347
 5534SOL    HW128064   2.288   3.234   5.515 -2.2602  0.2137  0.4455
 5534SOL    HW228065   2.368   3.355   5.535  0.8624 -0.8938 -1.3783
 5535SOL     OW28066   0.565   3.893   6.568  0.3716 -0.0917 -0.2396
 5535SOL    HW128067   0.522   3.809   6.553  1.2295 -1.0608  2.6480
 5535SOL    HW228068   0.613   3.899   6.485 -0.2469  2.3686 -0.4171
 5536SOL     OW28069   3.739   4.244   4.538 -0.7515  0.2112 -0.1510
 5536SOL    HW128070   3.644   4.253   4.529 -0.7142  0.2607 -0.5192
 5536SOL    HW228071   3.756   4.324   4.587  0.5134 -1.9395  2.9488
 5537SOL     OW28072   3.422   1.735  13.268 -0.2482  0.0289 -0.1167
 5537SOL    HW128073   3.486   1.674  13.230 -1.4368 -1.0453 -0.3868
 5537SOL    HW228074   3.455   1.823  13.250 -4.6878  1.3278 -1.8400
 5538SOL     OW28075   3.315   0.093   2.629  0.0313  0.3586  0.1788
 5538SOL    HW128076   3.357   0.066   2.547  0.8192  0.1144  0.6627
 5538SOL    HW228077   3.371   0.159   2.669  0.7723  0.8346 -1.5981
 5539SOL     OW28078   4.093   4.649  10.246 -0.1765 -0.0517  0.1396
 5539SOL    HW128079   4.032   4.718  10.220  1.0037  0.4120 -1.4491
 5539SOL    HW228080   4.074   4.661  10.339 -0.6970  1.7462 -0.1922
 5540SOL     OW28081   0.183   0.741   6.002  0.6827  0.1239  0.0582
 5540SOL    HW128082   0.225   0.656   5.994  0.5235  0.3908 -3.7725
 5540SOL    HW228083   0.209   0.782   6.085 -0.0711 -0.6245  0.6587
 5541SOL     OW28084   0.469   0.071   6.776 -0.2638  0.2139 -0.1798
 5541SOL    HW128085   0.458   0.025   6.693 -1.2749  2.6333 -1.3952
 5541SOL    HW228086   0.471   0.003   6.842 -0.8892 -0.8849 -1.2915
 5542SOL     OW28087   3.285   1.337   2.823  0.1468  0.2675 -0.9453
 5542SOL    HW128088   3.339   1.300   2.753 -0.2042  1.8022 -2.0199
 5542SOL    HW228089   3.201   1.314   2.783 -0.5199 -0.0091  0.6332
 5543SOL     OW28090   1.798   0.443  14.712 -0.1448 -0.1044  0.1286
 5543SOL    HW128091   1.764   0.451  14.801  1.4354 -0.4620  0.7619
 5543SOL    HW228092   1.720   0.452  14.657 -0.5357  1.3432  0.9175
 5544SOL     OW28093   1.774   2.179   3.752  0.5457  0.0061  0.1043
 5544SOL    HW128094   1.810   2.215   3.671  1.0137  1.0230  0.7713
 5544SOL    HW228095   1.755   2.086   3.734  0.6792  0.0929 -0.4928
 5545SOL     OW28096   0.041   1.470   2.864  0.6688  0.5575 -0.1824
 5545SOL    HW128097   0.068   1.495   2.775 -0.0884 -1.2971 -0.9163
 5545SOL    HW228098   4.686   1.417   2.844  1.3972 -0.4945 -0.1806
 5546SOL     OW28099   0.173   0.589   1.197 -0.3255 -0.2461  0.5393
 5546SOL    HW128100   0.192   0.562   1.108 -0.4547  1.2922  0.0472
 5546SOL    HW228101   0.135   0.512   1.240 -1.0117  0.6136  1.4933
 5547SOL     OW28102   3.126   0.904   0.956 -0.6413  0.0170 -0.2326
 5547SOL    HW128103   3.189   0.908   1.027 -1.3226  3.0248  0.2137
 5547SOL    HW228104   3.128   0.815   0.921  0.6302  0.0775 -0.2926
 5548SOL     OW28105   1.972   0.457   9.029  0.8054 -0.3648  0.1170
 5548SOL    HW128106   1.973   0.374   9.077 -1.6273  0.5765  1.7772
 5548SOL    HW228107   1.877   0.472   9.022  0.8911  0.0736 -0.0886
 5549SOL     OW28108   1.270   4.020  13.026  0.0208  0.1764 -0.3196
 5549SOL    HW128109   1.257   4.100  13.076  1.8502 -0.1150  0.6426
 5549SOL    HW228110   1.361   4.005  13.053 -0.0081 -0.2419 -0.4489
 5550SOL     OW28111   1.290   2.464   2.264 -0.2300  0.6221  0.1028
 5550SOL    HW128112   1.276   2.379   2.222 -1.1176 -0.0008  1.6684
 5550SOL    HW228113   1.210   2.508   2.238  0.3014  0.3391 -2.0052
 5551SOL     OW28114   4.137   0.854   6.050  0.6333 -0.3539  0.0372
 5551SOL    HW128115   4.130   0.936   6.000  1.4870 -0.1979  0.1659
 5551SOL    HW228116   4.224   0.818   6.036  0.8398  0.7119 -1.4164
 5552SOL     OW28117   1.423   2.480   6.576  0.3211 -0.1724 -0.1995
 5552SOL    HW128118   1.402   2.388   6.561  1.5976 -0.0682 -2.6550
 5552SOL    HW228119   1.339   2.525   6.574  0.5141  0.1989 -0.0134
 5553SOL     OW28120   2.523   1.396   8.188 -0.0114 -0.2614  0.0682
 5553SOL    HW128121   2.542   1.424   8.098  0.5593 -1.3114 -0.1386
 5553SOL    HW228122   2.430   1.378   8.182  0.1885 -1.7126  1.2913
 5554SOL     OW28123   3.933   2.319  16.881  0.3644 -0.3404  0.2374
 5554SOL    HW128124   3.892   2.297  16.965  1.4596 -1.2227  0.5538
 5554SOL    HW228125   3.923   2.414  16.877  3.4799 -0.0032  0.4544
 5555SOL     OW28126   0.573   2.323   6.407 -0.8146 -0.6338  0.6403
 5555SOL    HW128127   0.613   2.298   6.490 -1.4842  0.7500  1.3777
 5555SOL    HW228128   0.615   2.267   6.341 -0.5588  1.1594 -0.6989
 5556SOL     OW28129   2.952   1.663  15.899  0.4496 -0.0866  0.2731
 5556SOL    HW128130   2.950   1.577  15.858  2.7845  0.4472 -0.9489
 5556SOL    HW228131   2.902   1.640  15.977 -0.0921 -1.8107 -0.5970
 5557SOL     OW28132   3.435   1.162  14.649  0.0605 -0.1995  0.0704
 5557SOL    HW128133   3.471   1.154  14.738  0.2915  0.2227  0.0130
 5557SOL    HW228134   3.481   1.097  14.596  1.4505  1.1654 -0.3509
 5558SOL     OW28135   0.766   1.746  10.993  0.1027 -0.3865 -0.3026
 5558SOL    HW128136   0.676   1.737  10.964  0.4821 -1.3560 -1.1938
 5558SOL    HW228137   0.772   1.822  11.051  0.5948  0.1585 -1.0622
 5559SOL     OW28138   3.990   4.373   5.054 -0.6682 -0.7714 -0.0236
 5559SOL    HW128139   4.020   4.291   5.015 -0.2377  0.2713 -1.9119
 5559SOL    HW228140   3.988   4.364   5.149  0.8938  2.5034  0.3065
 5560SOL     OW28141   2.354   2.784  13.191  0.3027 -0.0291  0.4424
 5560SOL    HW128142   2.271   2.801  13.147 -0.9998 -1.8644  2.2243
 5560SOL    HW228143   2.403   2.729  13.130 -1.0044 -0.5915 -0.0951
 5561SOL     OW28144   3.644   2.399  16.068 -0.0891 -0.1435  0.2349
 5561SOL    HW128145   3.607   2.485  16.087 -0.5779  0.5614 -3.9901
 5561SOL    HW228146   3.731   2.404  16.109 -0.3294  0.4987  0.6699
 5562SOL     OW28147   2.118   4.382   6.798  0.1699 -0.1431 -0.6051
 5562SOL    HW128148   2.185   4.446   6.824 -1.1402  1.6281 -1.5651
 5562SOL    HW228149   2.063   4.392   6.876  0.7311 -0.1158 -0.2086
 5563SOL     OW28150   3.902   2.482   3.989  0.1353  0.0051 -0.3199
 5563SOL    HW128151   3.900   2.387   3.984 -3.7884  0.1483 -1.2626
 5563SOL    HW228152   3.824   2.507   3.939  0.2228 -0.1446 -0.5313
 5564SOL     OW28153   3.618   2.823  16.905 -0.2230  0.4063 -0.2089
 5564SOL    HW128154   3.606   2.728  16.896 -1.4334  0.7366 -2.1948
 5564SOL    HW228155   3.695   2.827  16.848 -0.5730  1.4563 -0.6046
 5565SOL     OW28156   0.020   2.333   3.499 -0.4048 -0.2521 -0.1446
 5565SOL    HW128157   4.648   2.318   3.494 -0.1137 -2.3839  0.6188
 5565SOL    HW228158   0.028   2.391   3.575  2.3024 -1.2061  0.3098
 5566SOL     OW28159   4.307   3.876  10.335 -0.4836 -0.6191  0.8021
 5566SOL    HW128160   4.351   3.796  10.363  0.1083 -1.1569 -1.6796
 5566SOL    HW228161   4.280   3.840  10.251 -1.2331  0.1414  0.7135
 5567SOL     OW28162   1.815   3.900   6.223 -0.7635  0.2280  0.3735
 5567SOL    HW128163   1.743   3.958   6.199  0.2857  1.3546 -0.0369
 5567SOL    HW228164   1.856   3.949   6.294  1.1155 -1.2681  0.3463
 5568SOL     OW28165   4.502   4.187  14.571 -0.3808 -0.2854  0.3172
 5568SOL    HW128166   4.441   4.125  14.611 -0.8511  0.9436  1.4814
 5568SOL    HW228167   4.553   4.129  14.513  0.1542 -0.5505  1.0467
 5569SOL     OW28168   1.121   1.550   2.814  0.4920  0.4462 -0.0420
 5569SOL    HW128169   1.191   1.485   2.819  1.4615  1.5696  1.0273
 5569SOL    HW228170   1.054   1.486   2.792  1.2556 -0.4882  0.3086
 5570SOL     OW28171   1.187   1.319   0.146  0.1616 -0.4983 -0.2533
 5570SOL    HW128172   1.117   1.260   0.119  0.5624 -1.1665  0.1819
 5570SOL    HW228173   1.211   1.279   0.229 -1.5231 -1.8967 -0.4454
 5571SOL     OW28174   4.675   3.705   9.568 -0.5202  0.8776 -0.5335
 5571SOL    HW128175   4.687   3.661   9.652 -1.6708 -1.4576 -1.5906
 5571SOL    HW228176   4.606   3.654   9.526  1.0639 -0.2516 -1.7440
 5572SOL     OW28177   0.380   4.158   1.556 -0.4849 -0.0656 -0.4886
 5572SOL    HW128178   0.356   4.249   1.569  1.2266  0.5349 -1.5461
 5572SOL    HW228179   0.322   4.097   1.602 -0.3242  0.4873  0.4499
 5573SOL     OW28180   3.930   1.529   4.986 -0.2462  0.3069 -0.4852
 5573SOL    HW128181   3.903   1.525   4.894 -1.6923 -0.7300 -0.0244
 5573SOL    HW228182   3.861   1.581   5.026  0.4230  1.5830 -0.9991
 5574SOL     OW28183   3.461   1.488  14.700 -0.8467 -0.4687 -0.6446
 5574SOL    HW128184   3.453   1.472  14.606 -1.7400  0.9867 -0.8174
 5574SOL    HW228185   3.485   1.398  14.725 -1.2476  0.2471  2.3235
 5575SOL     OW28186   0.198   2.665   5.947 -0.5188 -0.2412  0.0470
 5575SOL    HW128187   0.174   2.756   5.966 -0.5039 -0.3974  0.8176
 5575SOL    HW228188   0.118   2.634   5.904 -1.7614  0.6576  1.6972
 5576SOL     OW28189   3.342   2.904   7.330  0.6140 -0.0493 -0.0049
 5576SOL    HW128190   3.359   2.945   7.245 -1.3391 -0.2258 -0.4674
 5576SOL    HW228191   3.419   2.846   7.334  1.1688  0.7019  0.2091
 5577SOL     OW28192   1.669   3.825   4.166  0.0090 -0.4467  0.1897
 5577SOL    HW128193   1.574   3.813   4.175  0.0868 -1.7382 -0.7421
 5577SOL    HW228194   1.705   3.738   4.150 -1.0005 -0.4969 -1.8702
 5578SOL     OW28195   3.694   2.492   3.795 -0.3639  0.3027 -0.0123
 5578SOL    HW128196   3.600   2.508   3.802 -0.4407 -0.4469  0.6921
 5578SOL    HW228197   3.710   2.500   3.701  2.3337 -0.8247  0.3323
 5579SOL     OW28198   3.696   1.210   8.881 -0.6624  0.6709  0.4231
 5579SOL    HW128199   3.666   1.212   8.790  0.1198  2.6624  0.2206
 5579SOL    HW228200   3.738   1.123   8.884 -0.6321  0.6440 -0.8784
 5580SOL     OW28201   1.121   2.904   7.315  0.3040 -0.0841 -0.0481
 5580SOL    HW128202   1.096   2.908   7.407 -0.3462  0.0141 -0.2283
 5580SOL    HW228203   1.167   2.988   7.310 -2.9512  1.6695 -0.7765
 5581SOL     OW28204   3.431   0.749  15.771 -0.1781  0.3681 -0.1176
 5581SOL    HW128205   3.472   0.687  15.710 -1.3043  0.3843 -0.8877
 5581SOL    HW228206   3.492   0.772  15.841  0.5129  0.6906 -0.8321
 5582SOL     OW28207   4.284   1.701   7.875 -0.2563  0.1238 -0.0151
 5582SOL    HW128208   4.233   1.772   7.914 -2.0852 -1.1780 -0.0429
 5582SOL    HW228209   4.222   1.662   7.813 -0.5307 -0.0313  0.3497
 5583SOL     OW28210   3.201   4.182  16.806 -0.0629 -1.1966  0.0990
 5583SOL    HW128211   3.167   4.215  16.888 -0.4295  1.5213 -1.1633
 5583SOL    HW228212   3.169   4.093  16.821  0.2574 -0.9543  2.1724
 5584SOL     OW28213   3.435   2.097   5.724 -0.0205 -0.0347  0.1630
 5584SOL    HW128214   3.415   2.188   5.742 -1.4961 -0.9636  3.2628
 5584SOL    HW228215   3.344   2.069   5.709  0.4379 -1.1391 -0.5616
 5585SOL     OW28216   3.760   2.314   6.123 -0.7399  0.0049  0.3956
 5585SOL    HW128217   3.789   2.225   6.146  2.3784  1.3161  1.5283
 5585SOL    HW228218   3.837   2.346   6.075 -1.6422 -0.7248 -1.5711
 5586SOL     OW28219   4.477   2.434   1.693  0.2493  0.2167 -0.1845
 5586SOL    HW128220   4.423   2.393   1.625  0.7031  0.7235 -0.8415
 5586SOL    HW228221   4.565   2.401   1.673 -0.3423 -0.8862 -1.0128
 5587SOL     OW28222   1.467   4.688   6.904 -0.7417  0.4962 -0.4229
 5587SOL    HW128223   1.425   4.602   6.909  1.6096 -0.6054  0.1459
 5587SOL    HW228224   1.527   4.675   6.832  0.6867 -0.6980  0.9791
 5588SOL     OW28225   2.021   2.329  17.282 -0.2334 -0.0223 -0.6862
 5588SOL    HW128226   2.071   2.265  17.232  1.1550  2.4245 -2.4231
 5588SOL    HW228227   1.961   2.361  17.214  1.5604  3.0098 -0.8365
 5589SOL     OW28228   4.687   0.713   6.963  0.4989 -0.3057  0.2075
 5589SOL    HW128229   4.593   0.701   6.970  0.6623 -2.2147 -1.0276
 5589SOL    HW228230   4.707   0.652   7.034  1.6219  1.4326  1.3972
 5590SOL     OW28231   3.994   3.397   2.934 -0.1361  0.4892 -0.2037
 5590SOL    HW128232   4.018   3.450   2.858  2.2717 -0.2698  0.0176
 5590SOL    HW228233   4.079   3.396   2.980  0.1612 -3.6352 -0.8778
 5591SOL     OW28234   1.533   3.712   5.027 -0.4053 -0.0846  0.5607
 5591SOL    HW128235   1.502   3.796   5.059 -2.7621 -1.3088  1.5060
 5591SOL    HW228236   1.499   3.656   5.097  1.3284  0.2252  1.6752
 5592SOL     OW28237   1.167   2.915   5.974 -0.0711 -0.7012 -0.1783
 5592SOL    HW128238   1.171   3.010   5.978  0.9545 -0.8160  1.7541
 5592SOL    HW228239   1.207   2.894   6.059 -0.3583 -0.4164  0.0264
 5593SOL     OW28240   2.307   2.550   6.688  0.3578  0.1814  0.1986
 5593SOL    HW128241   2.373   2.619   6.699  0.4547 -0.2776  2.4223
 5593SOL    HW228242   2.314   2.537   6.593 -4.1203  0.7170 -0.2094
 5594SOL     OW28243   1.375   1.744   8.243  0.2125  0.2017 -0.4771
 5594SOL    HW128244   1.329   1.822   8.272 -0.2219 -0.0706 -0.4358
 5594SOL    HW228245   1.316   1.677   8.277 -2.6043  1.6741 -2.5103
 5595SOL     OW28246   4.148   2.068   4.459 -0.3844  0.4843  0.1320
 5595SOL    HW128247   4.076   2.099   4.515 -1.2796  0.1152 -0.8182
 5595SOL    HW228248   4.087   2.048   4.388  2.0172 -0.8183 -1.5869
 5596SOL     OW28249   2.838   0.449   8.727 -0.5545 -0.8501  0.3168
 5596SOL    HW128250   2.841   0.403   8.643 -2.9757 -0.5086  0.0620
 5596SOL    HW228251   2.931   0.453   8.752 -0.5334 -0.2460  0.1600
 5597SOL     OW28252   3.882   0.181   7.597  0.0672 -0.2128  0.0621
 5597SOL    HW128253   3.968   0.142   7.582  1.3022  2.6618 -0.3534
 5597SOL    HW228254   3.908   0.270   7.620 -0.4714 -0.0953  0.2222
 5598SOL     OW28255   0.014   2.551   9.096  0.3847 -0.2376 -0.2047
 5598SOL    HW128256   0.038   2.607   9.022 -2.5320 -1.4533 -2.0779
 5598SOL    HW228257   0.096   2.558   9.145  0.1360 -1.3528  0.3853
 5599SOL     OW28258   3.133   3.054  10.498  0.3424  0.2240  0.0747
 5599SOL    HW128259   3.199   3.112  10.460 -1.6598  2.2407 -0.3543
 5599SOL    HW228260   3.186   2.977  10.518  0.9683  1.0524  1.6488
 5600SOL     OW28261   1.060   3.129   1.970 -0.1088  0.0930  0.2379
 5600SOL    HW128262   1.099   3.153   1.886 -1.2036 -2.4181 -0.9786
 5600SOL    HW228263   1.087   3.038   1.976  1.8952  0.6333 -0.4614
 5601SOL     OW28264   1.268   2.749  14.665 -0.5459  0.3603  0.4185
 5601SOL    HW128265   1.317   2.703  14.597 -1.7001 -0.5277  0.1684
 5601SOL    HW228266   1.246   2.670  14.715 -1.4951  1.4616  1.7421
 5602SOL     OW28267   1.545   0.766   9.374 -0.0207  0.1068  0.1419
 5602SOL    HW128268   1.616   0.812   9.418 -0.5421  0.5266  0.5456
 5602SOL    HW228269   1.524   0.711   9.449 -0.1989  1.4538  1.0783
 5603SOL     OW28270   2.884   1.629  13.424  0.1175 -0.2491  0.4498
 5603SOL    HW128271   2.818   1.685  13.383 -0.6066 -1.5892 -0.2239
 5603SOL    HW228272   2.840   1.553  13.387 -2.5229  1.7463 -0.5211
 5604SOL     OW28273   2.448   0.615   6.846  0.6069  0.4175 -0.1389
 5604SOL    HW128274   2.499   0.604   6.926 -0.4681  2.0373  0.7833
 5604SOL    HW228275   2.382   0.546   6.853  2.6536 -1.4067  1.0732
 5605SOL     OW28276   1.280   2.458   3.444  0.4371  0.0762  0.0977
 5605SOL    HW128277   1.213   2.457   3.375  0.5985  0.6240 -0.0604
 5605SOL    HW228278   1.356   2.496   3.400  0.4478  0.6937  0.6550
 5606SOL     OW28279   3.387   0.649   4.894 -0.8341 -0.2719 -0.4565
 5606SOL    HW128280   3.413   0.735   4.927 -0.5909 -1.0653  1.4194
 5606SOL    HW228281   3.428   0.629   4.810 -1.1528 -0.6916 -0.5170
 5607SOL     OW28282   3.599   2.423   7.266 -0.3695  0.5866 -0.9379
 5607SOL    HW128283   3.541   2.432   7.190 -2.0879  0.9681  0.4146
 5607SOL    HW228284   3.658   2.356   7.232 -1.5296 -0.6710 -0.4685
 5608SOL     OW28285   4.024   0.113   2.966  0.0139 -0.1596 -0.5379
 5608SOL    HW128286   3.984   0.095   2.881  0.8911 -0.8227 -0.8096
 5608SOL    HW228287   4.109   0.136   2.928  0.8629 -0.8142  0.9736
 5609SOL     OW28288   4.329   4.326   2.164  0.5612 -0.1374 -1.0781
 5609SOL    HW128289   4.381   4.387   2.217  0.3702 -1.5711  0.7563
 5609SOL    HW228290   4.398   4.265   2.139  0.2665 -0.5594 -0.8706
 5610SOL     OW28291   1.707   0.672   1.601  0.1906  0.1927  0.1353
 5610SOL    HW128292   1.649   0.748   1.606  1.1619  0.9356  0.1792
 5610SOL    HW228293   1.740   0.689   1.513 -2.0805  0.8688 -0.5801
 5611SOL     OW28294   3.204   0.236  16.269 -0.3945  0.4214  0.4293
 5611SOL    HW128295   3.268   0.192  16.214 -2.3024  0.2579 -1.6524
 5611SOL    HW228296   3.213   0.188  16.352 -2.7455 -1.7251 -0.5787
 5612SOL     OW28297   1.427   4.323   1.968 -0.4057  0.2789  0.1516
 5612SOL    HW128298   1.431   4.228   1.979 -0.6381  0.2148 -0.3223
 5612SOL    HW228299   1.355   4.320   1.906 -1.8779  2.3361  1.7735
 5613SOL     OW28300   3.099   3.275   5.347  0.3202 -0.2140 -0.0655
 5613SOL    HW128301   3.012   3.278   5.385  0.2498 -0.1951 -0.2299
 5613SOL    HW228302   3.114   3.361   5.307 -0.6035  0.1523  0.3714
 5614SOL     OW28303   3.804   0.352  16.188 -1.0680  0.2557 -0.3966
 5614SOL    HW128304   3.885   0.334  16.140 -0.4518  0.7219  0.4837
 5614SOL    HW228305   3.833   0.401  16.264 -0.6620  1.1850 -1.1471
 5615SOL     OW28306   4.569   3.445  16.019 -0.0587  0.0878 -0.5901
 5615SOL    HW128307   4.591   3.476  16.106  3.2343 -0.8831 -1.1034
 5615SOL    HW228308   4.566   3.350  16.026  0.3799  0.2860  2.3786
 5616SOL     OW28309   4.517   2.822   3.838  0.7499 -0.7235 -0.0833
 5616SOL    HW128310   4.569   2.756   3.883  0.7894 -0.9923 -0.5214
 5616SOL    HW228311   4.431   2.783   3.854 -1.0435  1.2906 -4.8306
 5617SOL     OW28312   2.072   1.146   4.325 -0.0912 -0.3297 -0.7172
 5617SOL    HW128313   2.106   1.235   4.321  1.2359 -0.8396 -0.9309
 5617SOL    HW228314   2.097   1.112   4.239  0.1378 -1.8901 -0.0464
 5618SOL     OW28315   1.178   4.291   1.498  0.3449  0.0861 -0.2274
 5618SOL    HW128316   1.217   4.211   1.536 -1.8398 -0.8255  0.1088
 5618SOL    HW228317   1.258   4.341   1.484  2.0809 -2.6160 -0.0487
 5619SOL     OW28318   0.377   4.555  14.319  0.1016  0.0394 -0.0845
 5619SOL    HW128319   0.401   4.594  14.234 -0.4813  1.1674  0.2571
 5619SOL    HW228320   0.451   4.575  14.375  0.1038  1.6207 -0.6313
 5620SOL     OW28321   1.709   0.710   7.181  0.4059 -0.1538  0.7481
 5620SOL    HW128322   1.753   0.654   7.244 -0.8967 -0.8494  1.0514
 5620SOL    HW228323   1.747   0.693   7.095  0.1411 -1.0081  0.7973
 5621SOL     OW28324   3.933   2.841   7.541 -0.4584 -0.3377 -0.0812
 5621SOL    HW128325   3.905   2.817   7.629 -0.3569 -0.2854 -0.0352
 5621SOL    HW228326   3.872   2.793   7.484 -1.4120  0.6790  0.0823
 5622SOL     OW28327   0.706   1.679   5.280  0.6745 -0.1937 -0.2604
 5622SOL    HW128328   0.716   1.773   5.269  1.5196 -0.3638 -0.9562
 5622SOL    HW228329   0.772   1.640   5.222  0.5424 -1.0378  0.1607
 5623SOL     OW28330   0.977   1.551   1.617  0.4859 -0.2707  0.1979
 5623SOL    HW128331   0.968   1.561   1.523 -0.5786  2.0592  0.5726
 5623SOL    HW228332   1.013   1.463   1.631 -0.3930 -0.3005  2.2806
 5624SOL     OW28333   3.604   4.542   2.313 -0.4248  0.1752 -0.3687
 5624SOL    HW128334   3.528   4.599   2.299 -0.1842  0.6796  0.3743
 5624SOL    HW228335   3.685   4.585   2.288 -0.8801 -0.0622 -2.2553
 5625SOL     OW28336   0.333   1.739  11.161  0.2478  0.3925 -0.0928
 5625SOL    HW128337   0.427   1.743  11.178  0.5727 -0.1607 -1.7441
 5625SOL    HW228338   0.312   1.798  11.233 -0.0368  0.9538 -0.6361
 5626SOL     OW28339   0.800   3.742   5.783 -0.7159 -0.1770  0.4468
 5626SOL    HW128340   0.797   3.825   5.736  0.0810  0.3757  1.3872
 5626SOL    HW228341   0.707   3.732   5.804 -0.6775 -0.1213  0.6378
 5627SOL     OW28342   2.189   4.391   5.162 -0.3562 -0.0102 -0.6015
 5627SOL    HW128343   2.211   4.430   5.077 -0.3916 -0.6318 -0.8946
 5627SOL    HW228344   2.104   4.350   5.148 -0.0086 -1.0889  0.4804
 5628SOL     OW28345   1.286   0.864  11.167 -0.0903  0.6450 -0.3017
 5628SOL    HW128346   1.302   0.871  11.073  3.2915 -0.6116  0.1919
 5628SOL    HW228347   1.376   0.880  11.195 -0.6706 -0.8334  2.3766
 5629SOL     OW28348   1.208   3.126  17.482  0.3308  0.1570 -0.6157
 5629SOL    HW128349   1.163   3.199  17.524  0.7739 -0.4087  0.8391
 5629SOL    HW228350   1.182   3.068  17.553 -0.1022 -1.5991 -2.2078
 5630SOL     OW28351   1.594   2.997   8.638 -0.1077 -0.3833 -0.2140
 5630SOL    HW128352   1.630   2.958   8.558  0.7394 -1.3267  0.6284
 5630SOL    HW228353   1.503   2.997   8.608  0.1175 -1.5489 -0.9264
 5631SOL     OW28354   0.785   3.599   0.969 -0.4091  0.3999 -0.1831
 5631SOL    HW128355   0.876   3.579   0.946 -0.8419  0.0265 -1.5416
 5631SOL    HW228356   0.763   3.669   0.909 -1.2474 -0.0233 -0.3667
 5632SOL     OW28357   1.437   3.482   0.575 -0.0235  0.0882  0.6152
 5632SOL    HW128358   1.447   3.536   0.654  1.3474  1.0429 -0.2022
 5632SOL    HW228359   1.427   3.557   0.515  5.1173  0.9432  0.8325
 5633SOL     OW28360   1.220   2.587   7.040  0.0541 -0.1320  0.2174
 5633SOL    HW128361   1.131   2.615   7.060 -0.5396 -2.1619  0.4515
 5633SOL    HW228362   1.261   2.636   7.111  1.7215 -1.2775  0.0496
 5634SOL     OW28363   1.484   1.568  11.111  0.0190  0.3295 -0.3869
 5634SOL    HW128364   1.528   1.648  11.080 -0.4517  0.9566  0.5533
 5634SOL    HW228365   1.400   1.571  11.065  0.3980 -3.2523 -1.2854
 5635SOL     OW28366   4.533   1.097   9.760 -0.3167  0.2539 -0.3694
 5635SOL    HW128367   4.604   1.141   9.807 -0.9204 -0.6473  1.3936
 5635SOL    HW228368   4.501   1.035   9.825  1.1221 -0.3522 -0.2444
 5636SOL     OW28369   0.476   3.099   5.930  0.6450  0.1110  0.3410
 5636SOL    HW128370   0.393   3.132   5.895  0.9043 -0.4734 -0.8006
 5636SOL    HW228371   0.456   3.006   5.923 -0.8703  0.4891 -0.3114
 5637SOL     OW28372   0.078   1.178   4.723  0.0012 -0.3368 -0.1020
 5637SOL    HW128373   0.089   1.269   4.696 -0.4795 -0.2941 -0.1498
 5637SOL    HW228374   0.073   1.133   4.639 -2.2696  0.9312 -0.6160
 5638SOL     OW28375   3.992   3.763  13.021 -0.0287 -0.3764  0.0844
 5638SOL    HW128376   4.023   3.841  13.067  1.1623  0.6937 -2.5635
 5638SOL    HW228377   3.976   3.702  13.093 -0.2217 -1.0060 -0.4860
 5639SOL     OW28378   4.637   2.172   1.353  0.5677  0.4600  0.0576
 5639SOL    HW128379   4.559   2.128   1.319  0.0441  1.6326 -0.2493
 5639SOL    HW228380   4.596   2.258   1.366 -1.7077 -0.7467  0.8194
 5640SOL     OW28381   1.903   3.464  11.672  0.7161  0.4522 -0.0627
 5640SOL    HW128382   1.932   3.529  11.736 -1.9534  0.6487  0.9394
 5640SOL    HW228383   1.963   3.492  11.602  2.1232 -3.7181 -0.5465
 5641SOL     OW28384   2.856   3.839   1.882 -0.7427 -0.2341  0.0287
 5641SOL    HW128385   2.912   3.786   1.826 -1.3041  2.8817 -3.4600
 5641SOL    HW228386   2.773   3.791   1.889  0.5913 -2.2610  2.0587
 5642SOL     OW28387   3.829   4.316   5.376  0.1009  0.0324  0.2526
 5642SOL    HW128388   3.910   4.353   5.341  0.7061 -0.1278  1.4958
 5642SOL    HW228389   3.824   4.353   5.464  2.2313 -1.0883  0.8454
 5643SOL     OW28390   4.081   1.408   3.481 -0.3412 -0.2003 -0.5911
 5643SOL    HW128391   4.157   1.416   3.423 -1.7963 -1.3582 -2.6415
 5643SOL    HW228392   4.068   1.315   3.462  1.4095 -0.2256 -1.6721
 5644SOL     OW28393   0.862   0.666   6.619  0.0467  0.3770  0.6014
 5644SOL    HW128394   0.773   0.637   6.636 -0.2525  1.9870  1.7911
 5644SOL    HW228395   0.857   0.760   6.602 -2.0290  0.4219  1.4671
 5645SOL     OW28396   1.855   2.157   8.163 -0.1113 -0.3900  0.3336
 5645SOL    HW128397   1.765   2.187   8.183 -0.5432 -0.9367 -0.8301
 5645SOL    HW228398   1.837   2.067   8.192  0.6507 -0.6390  0.0132
 5646SOL     OW28399   0.985   0.671   4.961 -0.7904  0.2996  0.0480
 5646SOL    HW128400   0.916   0.732   4.987 -0.7479 -0.3855  1.7384
 5646SOL    HW228401   0.944   0.586   4.979 -0.4040  0.6208  2.4225
 5647SOL     OW28402   2.385   2.611   3.154  0.3536 -0.3005 -0.1653
 5647SOL    HW128403   2.323   2.613   3.081  1.6026  2.9536 -1.1043
 5647SOL    HW228404   2.420   2.522   3.149 -1.8503 -1.0723 -1.8892
 5648SOL     OW28405   3.027   1.518   5.453 -0.4158  0.0026 -0.3172
 5648SOL    HW128406   3.004   1.609   5.469  1.2497  0.4452 -0.5002
 5648SOL    HW228407   2.997   1.478   5.534 -0.3795  1.0698  0.2187
 5649SOL     OW28408   3.512   0.788   9.419  0.3721  0.0567 -0.2023
 5649SOL    HW128409   3.441   0.742   9.464  1.0097 -0.9512 -0.2311
 5649SOL    HW228410   3.582   0.775   9.483 -1.2108 -0.4670  1.4329
 5650SOL     OW28411   0.176   4.496   8.367  0.3442 -0.4940 -0.0752
 5650SOL    HW128412   0.182   4.401   8.356 -1.3951 -0.3401 -2.2617
 5650SOL    HW228413   0.130   4.513   8.285 -1.1339 -2.8220  0.2758
 5651SOL     OW28414   0.205   3.435  16.858  0.0219  0.2953 -0.2580
 5651SOL    HW128415   0.119   3.476  16.858  0.5802  1.4890  0.0129
 5651SOL    HW228416   0.182   3.352  16.816  0.2005  0.4212 -0.6128
 5652SOL     OW28417   0.714   1.216  14.278 -0.6841  0.1926 -0.0430
 5652SOL    HW128418   0.619   1.209  14.284 -0.6879 -0.5251 -0.9477
 5652SOL    HW228419   0.727   1.230  14.372 -1.2552 -1.2517  0.2382
 5653SOL     OW28420   2.415   1.303   2.688 -0.0228  0.5699 -0.7090
 5653SOL    HW128421   2.373   1.217   2.691  0.0885  0.5481  0.2288
 5653SOL    HW228422   2.339   1.360   2.703 -0.3618 -0.1828  0.3885
 5654SOL     OW28423   3.512   3.912   2.206  0.5644  0.1805 -0.7332
 5654SOL    HW128424   3.482   4.002   2.216  2.7514  0.7599  0.5360
 5654SOL    HW228425   3.436   3.853   2.199  1.9454 -1.4626 -1.7933
 5655SOL     OW28426   4.624   0.763   6.155  0.3191  0.4632 -0.1716
 5655SOL    HW128427   4.642   0.687   6.210  0.1600  1.0393  0.6671
 5655SOL    HW228428   4.702   0.783   6.103  0.3256  0.2419 -0.2483
 5656SOL     OW28429   2.197   1.566   7.891  0.2091 -0.3469 -0.3570
 5656SOL    HW128430   2.115   1.531   7.858  0.0099  0.7042 -0.9654
 5656SOL    HW228431   2.210   1.497   7.957  2.6086 -0.5638 -1.0616
 5657SOL     OW28432   0.141   3.209   5.795 -0.5063 -0.0355 -0.1521
 5657SOL    HW128433   0.072   3.142   5.798 -0.0515 -0.4658  0.4779
 5657SOL    HW228434   0.088   3.288   5.786 -1.9272 -1.2440 -2.5303
 5658SOL     OW28435   2.897   0.337   1.249 -0.1977  0.1909 -0.5207
 5658SOL    HW128436   2.945   0.361   1.170  0.1990 -0.4228 -0.4690
 5658SOL    HW228437   2.810   0.335   1.210 -0.5104  0.7806  0.1348
 5659SOL     OW28438   2.630   1.978  16.278  0.2917  0.1791  0.2160
 5659SOL    HW128439   2.604   1.934  16.359  0.3290 -1.9799 -0.9493
 5659SOL    HW228440   2.557   1.961  16.219 -0.3129 -1.7631  1.5227
 5660SOL     OW28441   0.694   3.100   7.094  0.5463 -0.2098 -0.4434
 5660SOL    HW128442   0.767   3.059   7.141  0.2861  1.6152  1.5974
 5660SOL    HW228443   0.664   3.034   7.033 -0.5323 -0.0469 -0.0917
 5661SOL     OW28444   2.650   2.142   7.435 -0.5568  0.1801  0.0294
 5661SOL    HW128445   2.660   2.061   7.486 -1.9015  0.4322  0.6976
 5661SOL    HW228446   2.676   2.110   7.349 -1.1658  0.0000 -0.0891
 5662SOL     OW28447   3.276   0.191   7.716  0.4564  0.0457 -0.0706
 5662SOL    HW128448   3.241   0.125   7.656  0.8657  1.3255 -1.7231
 5662SOL    HW228449   3.280   0.267   7.659  2.2501 -0.2378 -0.3233
 5663SOL     OW28450   4.098   4.465   2.093  0.2606 -0.5759 -0.0195
 5663SOL    HW128451   4.184   4.439   2.126 -0.6630 -0.8083  2.1895
 5663SOL    HW228452   4.075   4.384   2.048  1.1794 -0.6595 -0.3374
 5664SOL     OW28453   4.591   2.059   6.249 -0.1942  0.0731  0.2835
 5664SOL    HW128454   4.567   1.966   6.241 -3.1072  0.9709 -1.6300
 5664SOL    HW228455   4.670   2.070   6.301  0.6158 -0.2939 -0.8657
 5665SOL     OW28456   0.488   0.931  14.047 -0.3621 -0.5960  0.6070
 5665SOL    HW128457   0.412   0.883  14.013 -1.2036  1.0619  0.0985
 5665SOL    HW228458   0.570   0.902  14.007 -0.3788  0.4508 -0.2173
 5666SOL     OW28459   4.330   3.498   7.423  0.0246 -0.2042 -0.3996
 5666SOL    HW128460   4.297   3.570   7.476  0.4482 -0.5804  0.3701
 5666SOL    HW228461   4.287   3.424   7.466 -0.7856 -1.0570 -2.6598
 5667SOL     OW28462   0.223   4.558  11.544  0.2476  0.2693  0.1259
 5667SOL    HW128463   0.136   4.527  11.571 -0.1488 -0.2813 -1.7672
 5667SOL    HW228464   0.199   4.618  11.474  1.0837  2.9094  2.1170
 5668SOL     OW28465   1.809   2.979   6.867 -0.2125  0.2144  0.2758
 5668SOL    HW128466   1.877   2.954   6.930  1.1872 -2.4677 -2.2915
 5668SOL    HW228467   1.745   2.910   6.880 -1.5613  1.4886  0.3376
 5669SOL     OW28468   1.615   1.377  10.890  0.8631 -0.2028 -0.2090
 5669SOL    HW128469   1.654   1.347  10.972 -2.9327  0.3488  1.7874
 5669SOL    HW228470   1.658   1.461  10.877  3.2869 -1.3896  0.0915
 5670SOL     OW28471   3.141   0.062  13.004 -0.4429  0.2936  0.0467
 5670SOL    HW128472   3.082   0.006  13.055 -0.5359  0.0025 -0.3858
 5670SOL    HW228473   3.087   0.140  12.988 -2.2036 -0.6021  1.5558
 5671SOL     OW28474   0.656   2.197   4.001  0.2177 -0.0844  0.5382
 5671SOL    HW128475   0.650   2.117   3.949  1.6888 -1.1700  2.0212
 5671SOL    HW228476   0.746   2.179   4.028  1.1338  1.1733 -1.7521
 5672SOL     OW28477   0.297   1.798  16.224 -0.2027 -0.1307  0.6264
 5672SOL    HW128478   0.291   1.703  16.232  3.9209 -0.6404 -1.9615
 5672SOL    HW228479   0.281   1.816  16.131  0.4856 -1.5377  0.2381
 5673SOL     OW28480   0.647   0.736  15.870 -0.9265 -0.2094 -0.2357
 5673SOL    HW128481   0.698   0.661  15.840 -0.7431 -0.4359  0.6389
 5673SOL    HW228482   0.619   0.769  15.785 -0.7854 -1.1843 -0.6508
 5674SOL     OW28483   2.015   4.496   8.034  0.7099 -0.4729  0.0261
 5674SOL    HW128484   1.956   4.449   8.093 -0.1077 -0.7627 -1.0158
 5674SOL    HW228485   1.961   4.543   7.971 -0.1336 -1.8296 -0.2586
 5675SOL     OW28486   2.007   2.628   5.824 -0.0347  0.0782  1.0291
 5675SOL    HW128487   2.018   2.534   5.815 -3.8508 -0.6340  3.4507
 5675SOL    HW228488   1.920   2.626   5.866 -0.6024  1.6968 -0.0551
 5676SOL     OW28489   1.494   3.468   1.336  0.0116  0.2254 -0.3001
 5676SOL    HW128490   1.522   3.507   1.419 -1.3947  1.4338 -0.4050
 5676SOL    HW228491   1.513   3.541   1.277 -1.5367  0.4571 -0.5031
 5677SOL     OW28492   0.684   3.881   2.757  0.2672 -0.0602 -0.2221
 5677SOL    HW128493   0.753   3.816   2.741  0.7441  0.3531  0.1852
 5677SOL    HW228494   0.613   3.817   2.761 -0.0054  0.3555  1.4285
 5678SOL     OW28495   0.421   3.241   6.539  0.7235 -0.0816 -0.6189
 5678SOL    HW128496   0.469   3.306   6.488  0.1770 -0.4637 -1.6181
 5678SOL    HW228497   0.336   3.286   6.540 -0.0322 -1.5351  0.1289
 5679SOL     OW28498   2.131   1.318   7.489 -0.2266  0.2684 -0.1438
 5679SOL    HW128499   2.109   1.361   7.406  1.4985 -1.6337 -1.5902
 5679SOL    HW228500   2.046   1.321   7.533 -0.2075  0.6759 -0.1301
 5680SOL     OW28501   1.214   0.709   9.574 -0.3971 -0.7302 -0.5339
 5680SOL    HW128502   1.185   0.715   9.665  3.5202 -1.5907  0.7687
 5680SOL    HW228503   1.218   0.613   9.570  1.4017 -0.7719  2.1564
 5681SOL     OW28504   0.749   4.523   5.961 -0.0033 -0.1775 -0.4728
 5681SOL    HW128505   0.767   4.566   6.045 -2.7627  0.7106 -0.3370
 5681SOL    HW228506   0.664   4.491   5.991  0.1330 -0.9860 -0.9503
 5682SOL     OW28507   2.391   4.456  10.182  0.4436 -0.4180 -0.9345
 5682SOL    HW128508   2.348   4.524  10.131  0.3815  1.8759  2.1437
 5682SOL    HW228509   2.443   4.510  10.242 -0.7606  1.1678 -1.3282
 5683SOL     OW28510   2.835   1.331  14.478 -0.1631  0.3124  0.3978
 5683SOL    HW128511   2.762   1.273  14.499 -1.2877  2.4175  2.3927
 5683SOL    HW228512   2.905   1.268  14.462 -1.2364 -1.1039  1.3660
 5684SOL     OW28513   3.995   4.706  13.675  0.0050 -0.6182 -0.1531
 5684SOL    HW128514   4.017   4.680  13.764  1.9781  0.7319 -0.2631
 5684SOL    HW228515   3.997   4.623  13.626  1.4753 -1.0122  0.5692
 5685SOL     OW28516   1.878   2.537   8.211 -0.0299 -0.2820 -0.2876
 5685SOL    HW128517   1.833   2.460   8.247  0.2139 -0.2900 -0.0019
 5685SOL    HW228518   1.911   2.581   8.289 -0.8076  0.1620 -0.2111
 5686SOL     OW28519   0.736   1.400   8.080  0.0818 -0.5444  0.2855
 5686SOL    HW128520   0.820   1.409   8.036 -0.6258 -0.1978 -0.9838
 5686SOL    HW228521   0.686   1.460   8.025  1.6236  0.4173 -0.0825
 5687SOL     OW28522   3.180   3.056   7.478 -0.0845 -0.4227  0.3672
 5687SOL    HW128523   3.223   2.984   7.431  0.3805  1.0257 -1.4327
 5687SOL    HW228524   3.093   3.036   7.441  0.5429  0.0884 -1.4031
 5688SOL     OW28525   0.601   4.704   7.647  0.2226  0.1717  0.2836
 5688SOL    HW128526   0.551   4.646   7.705  0.8809 -0.7754 -0.1038
 5688SOL    HW228527   0.574   0.073   7.662 -4.7764 -1.5454  1.9396
 5689SOL     OW28528   0.913   0.524   1.550 -0.8078 -0.3340 -0.0817
 5689SOL    HW128529   0.896   0.568   1.633  0.6351  1.3424 -0.6731
 5689SOL    HW228530   0.982   0.576   1.510 -0.9328 -0.0646  0.0560
 5690SOL     OW28531   4.595   1.939   0.029 -0.1042 -0.1074  0.2972
 5690SOL    HW128532   4.610   2.032   0.013  1.2843 -0.3904 -0.0020
 5690SOL    HW228533   4.536   1.938   0.104 -1.5102 -1.0235 -0.8147
 5691SOL     OW28534   1.801   3.056  16.866 -0.2267 -0.3079 -0.0013
 5691SOL    HW128535   1.826   3.060  16.774  2.6136 -0.9985  0.7487
 5691SOL    HW228536   1.771   3.147  16.868  0.7698 -0.0375  2.3077
 5692SOL     OW28537   0.867   2.499   8.064  0.0762  0.0463  0.6039
 5692SOL    HW128538   0.959   2.489   8.091  0.4920 -1.9289 -1.5405
 5692SOL    HW228539   0.828   2.536   8.143 -0.4451 -1.4516  1.0562
 5693SOL     OW28540   3.392   2.085   7.359 -0.4662 -0.3531  0.1862
 5693SOL    HW128541   3.393   2.178   7.383  1.0165 -0.2106 -0.4253
 5693SOL    HW228542   3.409   2.045   7.445 -2.3446 -0.7133  0.3996
 5694SOL     OW28543   0.619   3.389   5.478 -0.0996 -0.1264  0.2797
 5694SOL    HW128544   0.652   3.310   5.521  3.5123  1.2152 -0.0047
 5694SOL    HW228545   0.544   3.414   5.531  0.6039 -0.4682  1.4255
 5695SOL     OW28546   0.125   1.601  15.302  0.4942  0.4572  0.4126
 5695SOL    HW128547   0.220   1.593  15.315 -0.0174 -2.9291  1.9477
 5695SOL    HW228548   0.126   1.670  15.236 -0.0264 -1.9986 -2.1884
 5696SOL     OW28549   1.509   0.693  14.386 -0.3749 -0.0915 -0.0245
 5696SOL    HW128550   1.434   0.644  14.419 -0.2843  1.1478  2.0632
 5696SOL    HW228551   1.486   0.779  14.351 -0.7966 -0.2501 -0.1362
 5697SOL     OW28552   1.318   4.700   3.549  0.2770  0.0473  0.5101
 5697SOL    HW128553   1.410   4.695   3.574 -0.3521 -1.0696  2.5840
 5697SOL    HW228554   1.310   4.631   3.483  0.8877  0.9839 -0.5392
 5698SOL     OW28555   0.482   4.557   0.109  0.5823 -0.3312 -0.1941
 5698SOL    HW128556   0.408   4.508   0.145  0.2110  0.3755  0.0076
 5698SOL    HW228557   0.522   4.592   0.189  1.4779  0.1041 -0.8278
 5699SOL     OW28558   4.406   0.562   7.294 -0.2313  0.4042 -0.4186
 5699SOL    HW128559   4.396   0.657   7.291 -1.1958  0.3455  1.0194
 5699SOL    HW228560   4.339   0.543   7.228  0.1722 -1.9805 -0.1619
 5700SOL     OW28561   0.755   4.630  17.145 -0.0589 -0.1043  0.1448
 5700SOL    HW128562   0.696   4.640  17.071  0.3456 -0.3449 -0.2056
 5700SOL    HW228563   0.768   4.536  17.160 -1.2074  0.0723  2.3041
 5701SOL     OW28564   1.278   0.872   9.020 -0.6444 -0.0961  0.4893
 5701SOL    HW128565   1.292   0.922   9.101 -1.6117  1.8305 -0.5527
 5701SOL    HW228566   1.289   0.781   9.049  1.6272 -0.1601 -0.5386
 5702SOL     OW28567   2.040   1.192   3.330 -0.2980  0.5485  0.2177
 5702SOL    HW128568   2.014   1.117   3.275  2.0619 -2.4134  3.1013
 5702SOL    HW228569   1.953   1.231   3.339 -1.8688 -3.1783  1.5968
 5703SOL     OW28570   2.466   3.075   9.492  0.3876 -0.6860  0.1797
 5703SOL    HW128571   2.371   3.088   9.491  0.4806 -0.1677 -3.0463
 5703SOL    HW228572   2.473   2.993   9.442 -0.9917 -1.3368  1.0412
 5704SOL     OW28573   2.400   2.133   7.181  0.3057 -0.6971  0.1444
 5704SOL    HW128574   2.376   2.214   7.226  1.4282  0.2123 -0.9075
 5704SOL    HW228575   2.491   2.114   7.204  0.6057 -1.0834 -1.3250
 5705SOL     OW28576   3.064   3.428   6.003 -0.4732  0.6627 -0.6001
 5705SOL    HW128577   3.005   3.379   6.060 -0.2733  0.4706 -0.5604
 5705SOL    HW228578   3.114   3.483   6.063  1.4030 -0.3245 -1.2859
 5706SOL     OW28579   4.077   4.401   5.327  0.2689  0.0495  0.1188
 5706SOL    HW128580   4.062   4.490   5.358 -0.2728  0.5677 -1.6164
 5706SOL    HW228581   4.154   4.383   5.380  1.1386  0.7734 -0.8902
 5707SOL     OW28582   2.788   3.062   2.576  0.4276  0.1410 -0.2954
 5707SOL    HW128583   2.876   3.027   2.564  0.8886  1.8588 -2.0297
 5707SOL    HW228584   2.742   2.983   2.603  1.4957 -0.4078 -0.1036
 5708SOL     OW28585   0.550   3.328   3.545 -0.1357  0.0092  0.0225
 5708SOL    HW128586   0.600   3.289   3.473  0.4892  1.8299 -0.5328
 5708SOL    HW228587   0.466   3.343   3.502  0.3427  1.2357 -0.4843
 5709SOL     OW28588   3.867   2.880   7.910 -0.3380 -1.0109 -0.2823
 5709SOL    HW128589   3.867   2.804   7.852 -1.3288 -1.2133 -0.0025
 5709SOL    HW228590   3.934   2.935   7.869 -0.2701  0.2041  1.4777
 5710SOL     OW28591   0.066   2.426   3.963  0.3605  0.1946 -0.0527
 5710SOL    HW128592   0.011   2.436   4.042 -0.8203  2.5767 -1.1780
 5710SOL    HW228593   0.133   2.362   3.985 -0.7971 -0.7325  0.7856
 5711SOL     OW28594   1.736   0.807  14.436 -0.0613 -0.0054  0.1466
 5711SOL    HW128595   1.651   0.785  14.398 -0.9970  1.8147  1.1907
 5711SOL    HW228596   1.776   0.720  14.440  0.9095  0.1661 -5.1729
 5712SOL     OW28597   0.419   0.126   7.433  0.5769  0.3778  0.8355
 5712SOL    HW128598   0.342   0.182   7.430  1.0048  1.0025  1.3854
 5712SOL    HW228599   0.466   0.153   7.512 -0.0304  1.2967  0.8813
 5713SOL     OW28600   1.546   3.755   5.569  0.1648 -0.0684 -0.0853
 5713SOL    HW128601   1.587   3.681   5.524 -0.2413  0.1024 -0.7453
 5713SOL    HW228602   1.588   3.754   5.655  1.1404 -1.9873 -0.5916
 5714SOL     OW28603   0.874   3.201   5.361  1.3881  0.5325  0.1321
 5714SOL    HW128604   0.892   3.137   5.430 -0.8993  0.4763  0.6736
 5714SOL    HW228605   0.782   3.176   5.349  1.3815  0.9248 -0.6308
 5715SOL     OW28606   1.698   4.007   4.500 -0.0866  0.4510  0.0183
 5715SOL    HW128607   1.715   4.030   4.591  0.0630 -2.8217  0.8354
 5715SOL    HW228608   1.725   3.915   4.503 -3.2859 -0.4804 -0.3561
 5716SOL     OW28609   2.410   3.997  16.044 -0.4909  0.3337  0.5331
 5716SOL    HW128610   2.348   3.961  15.981  3.6081 -1.0766 -2.7248
 5716SOL    HW228611   2.489   3.993  15.990 -1.4122  0.6409 -0.8311
 5717SOL     OW28612   0.306   3.155   7.751 -0.0888 -0.6237 -1.0049
 5717SOL    HW128613   0.345   3.094   7.814  0.9516 -0.9040 -1.9213
 5717SOL    HW228614   0.333   3.234   7.796  2.3009 -1.1463 -1.5318
 5718SOL     OW28615   4.428   0.178   0.613  0.0169 -0.1917  0.3288
 5718SOL    HW128616   4.480   0.111   0.568 -0.4367  1.0955 -2.1054
 5718SOL    HW228617   4.363   0.120   0.652  0.6171 -1.2342 -0.2086
 5719SOL     OW28618   2.756   3.269   2.388  0.1596 -0.1273 -0.1361
 5719SOL    HW128619   2.757   3.214   2.466 -0.4217  0.9074  0.5940
 5719SOL    HW228620   2.809   3.210   2.334  0.8336  0.2447  0.1208
 5720SOL     OW28621   3.781   2.207   8.226 -0.0174  0.6291  0.0843
 5720SOL    HW128622   3.718   2.279   8.225 -2.2447 -1.2842  1.7635
 5720SOL    HW228623   3.752   2.173   8.311  1.7272  0.1308  0.4769
 5721SOL     OW28624   3.984   2.242   3.289 -0.0383 -0.2433 -0.2227
 5721SOL    HW128625   3.897   2.209   3.313 -0.0416  0.3678  0.6175
 5721SOL    HW228626   3.989   2.326   3.335  0.5682  0.3137 -1.3190
 5722SOL     OW28627   2.263   1.720   7.577  0.4365 -0.2973 -0.1934
 5722SOL    HW128628   2.316   1.643   7.597  2.3446  0.9183 -0.6805
 5722SOL    HW228629   2.266   1.787   7.646  1.6948 -2.3131  1.6990
 5723SOL     OW28630   1.801   2.500   6.071  1.0712 -0.1291  0.0233
 5723SOL    HW128631   1.719   2.474   6.029  0.3414  2.0520  0.1093
 5723SOL    HW228632   1.763   2.570   6.123  0.7109 -1.2890  1.3185
 5724SOL     OW28633   2.512   4.016   3.251  0.0209 -0.3014 -0.4591
 5724SOL    HW128634   2.453   4.007   3.325 -0.4893  0.8848 -0.7147
 5724SOL    HW228635   2.528   3.923   3.233  0.1972 -0.6288  1.4544
 5725SOL     OW28636   2.453   1.877  13.114  0.0943 -0.0346 -0.1678
 5725SOL    HW128637   2.459   1.970  13.094  0.3926 -0.1032 -0.3974
 5725SOL    HW228638   2.376   1.861  13.059  1.0542 -1.2272 -1.1593
 5726SOL     OW28639   1.208   0.422  14.951 -0.0930 -0.3018  1.0272
 5726SOL    HW128640   1.290   0.374  14.937  2.0880  3.4869  0.8162
 5726SOL    HW228641   1.159   0.349  14.989  2.1356 -1.2650  2.0710
 5727SOL     OW28642   4.059   1.348   7.896 -0.5945  0.4359 -0.1233
 5727SOL    HW128643   4.011   1.331   7.815 -1.5633  3.1927 -0.1234
 5727SOL    HW228644   4.126   1.280   7.886  0.1025  1.2680 -1.1546
 5728SOL     OW28645   1.607   0.386   7.694 -0.1137  0.2467  0.2878
 5728SOL    HW128646   1.519   0.403   7.661 -1.1030 -0.1023  2.6970
 5728SOL    HW228647   1.622   0.470   7.737  1.9947 -0.2579  0.5525
 5729SOL     OW28648   0.375   2.277   2.740 -0.3446 -0.4767  0.0898
 5729SOL    HW128649   0.285   2.276   2.708 -0.6276 -0.5153  0.8931
 5729SOL    HW228650   0.424   2.226   2.675 -0.2508  2.4611 -2.1352
 5730SOL     OW28651   2.483   2.991   3.088 -0.3749  0.4262 -0.2945
 5730SOL    HW128652   2.392   3.016   3.074 -1.2860 -2.4479  0.4854
 5730SOL    HW228653   2.499   2.950   3.003  0.2261  0.1754 -0.0587
 5731SOL     OW28654   4.329   3.464  13.012 -0.0303  0.5728  0.1770
 5731SOL    HW128655   4.355   3.554  13.030 -1.2100  1.2013 -1.2870
 5731SOL    HW228656   4.256   3.487  12.955 -1.4323 -2.3562  0.7881
 5732SOL     OW28657   4.510   3.954   8.048 -0.1102  0.1204 -0.0446
 5732SOL    HW128658   4.443   3.905   8.096  0.8389 -0.6810  0.4605
 5732SOL    HW228659   4.470   4.000   7.974 -2.9087 -2.3009 -0.0501
 5733SOL     OW28660   3.113   3.408   4.390 -0.4363  0.3627  0.1721
 5733SOL    HW128661   3.070   3.330   4.355 -1.8398  0.6794  1.1483
 5733SOL    HW228662   3.206   3.390   4.376 -0.3504 -0.7349  2.1138
 5734SOL     OW28663   3.390   0.999   4.431 -0.1602 -0.2061 -0.1653
 5734SOL    HW128664   3.294   0.994   4.424 -0.1462  1.0899 -1.2539
 5734SOL    HW228665   3.410   0.919   4.382  0.9771 -0.2593  0.3860
 5735SOL     OW28666   3.098   1.619   3.496  0.4533 -0.1066  0.3486
 5735SOL    HW128667   3.121   1.547   3.437  1.6956  0.8225 -0.3009
 5735SOL    HW228668   3.127   1.694   3.445  0.2673  1.3815  2.4437
 5736SOL     OW28669   0.580   2.556   7.840  0.0712 -0.4057 -0.4039
 5736SOL    HW128670   0.525   2.613   7.894  1.1391 -0.2432  0.5034
 5736SOL    HW228671   0.522   2.483   7.818  0.0383 -0.1610 -1.1243
 5737SOL     OW28672   2.701   0.912   0.088  0.1927 -0.2732 -0.5561
 5737SOL    HW128673   2.684   0.859   0.165  2.0763  0.0126  0.0591
 5737SOL    HW228674   2.717   1.002   0.117  0.4901 -0.3840 -0.3806
 5738SOL     OW28675   0.982   2.288   3.689 -0.0785 -0.3868 -0.2667
 5738SOL    HW128676   1.077   2.294   3.678 -0.1305 -0.9225 -1.0163
 5738SOL    HW228677   0.982   2.235   3.769 -1.0821  1.3767  0.8887
 5739SOL     OW28678   0.334   0.395   7.751  0.6860 -0.7143 -0.2099
 5739SOL    HW128679   0.335   0.402   7.846 -0.0397  0.1851 -0.2700
 5739SOL    HW228680   0.248   0.432   7.730  0.1846  0.5715  4.0984
 5740SOL     OW28681   2.260   2.720   5.312  0.2260 -0.0598  0.2930
 5740SOL    HW128682   2.179   2.681   5.278 -0.5136 -0.1043  2.1142
 5740SOL    HW228683   2.250   2.730   5.407 -2.5154  1.4012 -0.1470
 5741SOL     OW28684   1.513   2.419   7.052  0.0095 -0.5937 -0.3645
 5741SOL    HW128685   1.535   2.415   7.145 -0.6711  1.0808 -0.1152
 5741SOL    HW228686   1.429   2.465   7.047  0.7565  0.8043 -0.0268
 5742SOL     OW28687   1.795   1.336   3.410  0.3213  0.1367 -0.0079
 5742SOL    HW128688   1.755   1.334   3.497  1.3444 -1.2812  0.4247
 5742SOL    HW228689   1.741   1.409   3.379 -0.1635  0.5042  1.7059
 5743SOL     OW28690   2.102   3.909   7.549  0.1084  0.2784  0.2141
 5743SOL    HW128691   2.056   3.871   7.474 -2.6097 -1.7012  2.9120
 5743SOL    HW228692   2.073   3.856   7.623 -0.4844  0.4125  0.0796
 5744SOL     OW28693   4.005   2.956  10.941 -0.6367  0.0463 -0.3837
 5744SOL    HW128694   3.992   3.042  10.901  1.8777  0.9901  0.8866
 5744SOL    HW228695   4.011   2.906  10.859  1.3605  0.7479 -0.6594
 5745SOL     OW28696   1.749   4.647   3.702 -0.4567 -0.3029 -0.1661
 5745SOL    HW128697   1.808   4.615   3.634 -1.8897 -0.5786 -1.2868
 5745SOL    HW228698   1.686   4.692   3.646  0.0763  0.1016 -0.4477
 5746SOL     OW28699   3.970   3.617  13.281  0.0991  0.3339  0.3731
 5746SOL    HW128700   4.046   3.596  13.334  0.1673 -0.3831 -0.0157
 5746SOL    HW228701   3.906   3.631  13.351  0.3283 -0.4264  0.7278
 5747SOL     OW28702   3.239   4.688  11.504  0.4997  0.2629 -0.2141
 5747SOL    HW128703   3.274   0.033  11.446  0.4512  1.1812  0.8232
 5747SOL    HW228704   3.279   4.721  11.584  0.1444  1.1809 -0.4093
 5748SOL     OW28705   2.577   3.394   8.810 -0.2720  0.4945  0.0654
 5748SOL    HW128706   2.628   3.322   8.771 -1.9667 -1.9729  2.4006
 5748SOL    HW228707   2.576   3.375   8.904  1.8909  0.7477  0.1440
 5749SOL     OW28708   2.232   0.376   7.879 -0.3400  0.5954 -0.1260
 5749SOL    HW128709   2.200   0.438   7.945 -1.2769 -2.0675  1.9535
 5749SOL    HW228710   2.231   0.294   7.928 -1.0401 -0.2579 -1.5872
 5750SOL     OW28711   2.000   2.410   4.830 -0.3170  0.4444  0.4142
 5750SOL    HW128712   2.079   2.402   4.777 -0.3747 -0.0082  0.3907
 5750SOL    HW228713   2.034   2.467   4.898 -1.1826  0.7738  0.5803
 5751SOL     OW28714   3.739   1.742   5.967  0.1499  0.3018 -0.6813
 5751SOL    HW128715   3.666   1.795   5.999 -1.4172 -1.4837 -1.2529
 5751SOL    HW228716   3.769   1.787   5.888 -0.4749  0.2625 -0.9452
 5752SOL     OW28717   2.503   4.553  11.082 -0.1049 -0.0097  0.0736
 5752SOL    HW128718   2.566   4.626  11.087 -0.7770  0.5736  0.0951
 5752SOL    HW228719   2.556   4.489  11.129  0.5264  1.9438  2.0819
 5753SOL     OW28720   0.751   0.670   4.294 -0.3253 -0.2664  0.3766
 5753SOL    HW128721   0.740   0.647   4.386 -1.4206  1.5134  0.6933
 5753SOL    HW228722   0.801   0.751   4.300  0.8884 -0.8625 -1.8723
 5754SOL     OW28723   1.756   0.291  16.234 -0.2552 -0.1805  0.2702
 5754SOL    HW128724   1.666   0.260  16.235 -0.6758  1.0059 -1.5752
 5754SOL    HW228725   1.780   0.276  16.326  2.4235 -1.7134 -0.6690
 5755SOL     OW28726   2.755   3.167  13.438  0.4574  0.1569  0.0403
 5755SOL    HW128727   2.762   3.083  13.393 -0.6943 -0.0338  0.2181
 5755SOL    HW228728   2.755   3.220  13.359  1.7588  0.0435 -0.0438
 5756SOL     OW28729   3.197   1.691   9.110  0.0061  0.4180  0.2474
 5756SOL    HW128730   3.178   1.777   9.072 -0.9567  0.5139  0.9518
 5756SOL    HW228731   3.293   1.687   9.106  0.0352  0.6613  0.6510
 5757SOL     OW28732   2.337   0.696   1.612 -0.1322  0.0370  0.0249
 5757SOL    HW128733   2.348   0.602   1.597  0.0244  0.2160 -0.9782
 5757SOL    HW228734   2.244   0.704   1.633 -0.3976  1.6944 -1.8794
 5758SOL     OW28735   0.941   3.578   2.429  0.0952  0.6766  0.0132
 5758SOL    HW128736   0.977   3.655   2.385  1.9556 -1.3014 -1.8771
 5758SOL    HW228737   0.921   3.610   2.517  1.1288 -1.4671  1.0334
 5759SOL     OW28738   3.221   1.007   2.900 -0.6611  0.0622 -0.1568
 5759SOL    HW128739   3.278   1.024   2.975 -1.0909  2.3755 -0.3551
 5759SOL    HW228740   3.188   1.092   2.872  4.4164  1.8904 -0.5644
 5760SOL     OW28741   3.386   4.445   0.309  0.3311 -0.2076  0.2471
 5760SOL    HW128742   3.352   4.508   0.245  0.0395 -0.6429 -0.0243
 5760SOL    HW228743   3.306   4.426   0.359  1.5786 -2.2275  1.4500
 5761SOL     OW28744   4.390   3.804   7.263  0.4233 -0.0301 -0.5537
 5761SOL    HW128745   4.333   3.788   7.338 -0.5806  0.9008 -1.1250
 5761SOL    HW228746   4.458   3.864   7.295  0.1492  0.5544 -1.0684
 5762SOL     OW28747   4.175   1.907   8.009 -0.3909  0.3904 -0.0692
 5762SOL    HW128748   4.262   1.936   8.035 -1.5421  0.7816  3.3584
 5762SOL    HW228749   4.128   1.896   8.091  0.0940 -1.3843 -0.0238
 5763SOL     OW28750   4.080   2.299   9.089 -0.0589 -0.2319  0.3129
 5763SOL    HW128751   4.139   2.323   9.017  0.4734  1.6093  1.3654
 5763SOL    HW228752   4.095   2.206   9.104 -1.6209 -0.3415  1.1495
 5764SOL     OW28753   1.423   1.333   1.616  1.2552 -0.4688  0.3079
 5764SOL    HW128754   1.454   1.335   1.707 -0.0639  0.9601  0.7280
 5764SOL    HW228755   1.504   1.303   1.575  0.5384  0.0047 -1.4352
 5765SOL     OW28756   3.995   3.560   7.174  0.2033 -0.6874  0.1241
 5765SOL    HW128757   3.929   3.559   7.244 -0.2909  0.7674 -0.3217
 5765SOL    HW228758   4.066   3.502   7.202  2.4684  2.2303  0.3707
 5766SOL     OW28759   0.443   2.530   5.804  0.4037  0.0548 -0.1840
 5766SOL    HW128760   0.424   2.438   5.784 -0.0669  0.7135 -2.7853
 5766SOL    HW228761   0.372   2.540   5.867  1.2735  1.3190  0.5958
 5767SOL     OW28762   2.398   2.039   2.917 -0.6215  0.3994  0.1740
 5767SOL    HW128763   2.314   2.041   2.961 -1.6428 -1.0041 -1.7247
 5767SOL    HW228764   2.439   2.111   2.966  0.5105 -1.1196  1.4505
 5768SOL     OW28765   1.519   3.587   7.533  0.0636 -0.0607 -0.2120
 5768SOL    HW128766   1.569   3.517   7.574 -1.0006  0.1175  1.3930
 5768SOL    HW228767   1.441   3.555   7.578  0.5685  1.7704  1.9521
 5769SOL     OW28768   4.292   3.463   4.377 -0.0516 -0.3237  0.4148
 5769SOL    HW128769   4.385   3.485   4.382 -0.3511  0.9654  0.3348
 5769SOL    HW228770   4.288   3.487   4.284  0.2391  0.4889  0.6136
 5770SOL     OW28771   2.359   1.409  17.214  0.9641 -0.0530 -0.0012
 5770SOL    HW128772   2.393   1.398  17.303  0.2612 -1.9078  0.0362
 5770SOL    HW228773   2.435   1.382  17.163  1.0604  2.1662 -1.0325
 5771SOL     OW28774   3.032   4.184   6.858 -0.3568  0.0899  0.0291
 5771SOL    HW128775   2.954   4.176   6.803 -0.5012  3.1729 -0.2178
 5771SOL    HW228776   3.006   4.131   6.933 -2.7924  1.8144  0.3906
 5772SOL     OW28777   2.888   0.107   8.088  0.4097 -0.4325  0.0593
 5772SOL    HW128778   2.956   0.042   8.108  0.9161 -0.4075 -1.5911
 5772SOL    HW228779   2.934   0.169   8.032  0.1750  0.4754  0.8642
 5773SOL     OW28780   2.005   1.337  14.753  0.1280 -0.3300 -0.2958
 5773SOL    HW128781   2.086   1.371  14.791 -0.6151  2.3602 -1.0558
 5773SOL    HW228782   1.963   1.308  14.834  1.9624 -1.7245  0.1576
 5774SOL     OW28783   1.264   2.750   1.225  0.3400  0.0115 -0.3505
 5774SOL    HW128784   1.190   2.806   1.249  1.1081  1.6916 -1.8333
 5774SOL    HW228785   1.234   2.670   1.267  0.0706  0.4303  0.2371
 5775SOL     OW28786   4.332   1.690   0.505  0.3925 -0.0214 -0.1921
 5775SOL    HW128787   4.308   1.599   0.518  2.7205 -0.5659  0.1750
 5775SOL    HW228788   4.425   1.691   0.526  0.4774  1.4824 -0.6108
 5776SOL     OW28789   1.004   4.008   9.371 -0.3251 -0.0577 -0.5636
 5776SOL    HW128790   0.989   4.078   9.435 -0.2317  1.5043 -2.2518
 5776SOL    HW228791   0.915   3.974   9.370 -0.3203 -0.1598  1.2060
 5777SOL     OW28792   4.174   2.058   6.640 -0.7322 -0.0516 -0.1761
 5777SOL    HW128793   4.260   2.066   6.600 -0.2363  1.9659  1.2628
 5777SOL    HW228794   4.117   2.073   6.565 -1.6012  3.4152  1.1703
 5778SOL     OW28795   3.927   4.619  16.617  0.0273  0.1229 -0.2827
 5778SOL    HW128796   3.961   4.590  16.532  1.9995  2.0031 -0.1273
 5778SOL    HW228797   3.981   4.697  16.631 -2.0557  0.9584  2.8927
 5779SOL     OW28798   3.269   2.570   4.819 -0.0268 -0.2363  0.4545
 5779SOL    HW128799   3.360   2.598   4.819  0.6127 -2.3740  0.8189
 5779SOL    HW228800   3.229   2.591   4.735 -0.9032  1.0834  1.1868
 5780SOL     OW28801   1.313   1.651  16.458  0.1235 -0.6543  0.1955
 5780SOL    HW128802   1.275   1.569  16.427  0.3442  0.0189 -1.8687
 5780SOL    HW228803   1.310   1.699  16.374  1.9529 -0.6656  0.1258
 5781SOL     OW28804   4.221   0.708  13.890  0.6103  0.2977 -0.4389
 5781SOL    HW128805   4.211   0.618  13.859 -0.2037  0.5709 -0.9917
 5781SOL    HW228806   4.193   0.746  13.807  0.5148  1.7106  0.2356
 5782SOL     OW28807   4.714   4.228   4.318 -0.1011  0.1710  0.7306
 5782SOL    HW128808   0.041   4.169   4.262 -1.1986  2.0387 -2.1991
 5782SOL    HW228809   4.712   4.302   4.257 -0.2753 -0.6414 -0.2488
 5783SOL     OW28810   2.787   2.228   7.744  0.2298 -0.2916 -1.2380
 5783SOL    HW128811   2.835   2.146   7.735 -1.1537 -1.2409  0.1661
 5783SOL    HW228812   2.827   2.275   7.816 -0.5752 -0.6998 -0.5189
 5784SOL     OW28813   2.867   0.267   2.099 -0.0974 -0.1740  0.1833
 5784SOL    HW128814   2.815   0.258   2.180  0.7624  2.1327  0.9934
 5784SOL    HW228815   2.959   0.266   2.123  0.4169 -0.5221 -1.8954
 5785SOL     OW28816   4.567   2.921   6.638 -0.2586  0.6040 -0.2677
 5785SOL    HW128817   4.547   2.865   6.563  2.2874 -2.2912  1.1906
 5785SOL    HW228818   4.572   2.856   6.709  0.9595 -0.7091 -1.5586
 5786SOL     OW28819   3.924   1.012   9.162  0.5692 -0.2820 -0.0250
 5786SOL    HW128820   3.925   0.921   9.132  0.1432 -0.6185  0.9647
 5786SOL    HW228821   3.984   1.051   9.099  0.9545  0.6926  0.9459
 5787SOL     OW28822   0.523   2.242  15.810  0.2676 -0.3007  0.2250
 5787SOL    HW128823   0.484   2.322  15.774 -1.4751 -0.3897  1.8795
 5787SOL    HW228824   0.568   2.270  15.890 -3.1668 -3.0418  3.0929
 5788SOL     OW28825   3.655   1.152   7.843  0.1505  0.1834  0.3500
 5788SOL    HW128826   3.717   1.189   7.905  0.9893 -1.5173  0.5065
 5788SOL    HW228827   3.692   1.064   7.842  0.2295  0.2392 -1.3015
 5789SOL     OW28828   2.345   2.567  16.321  0.0065  0.1874  0.2390
 5789SOL    HW128829   2.416   2.546  16.261  0.4538 -0.3304  0.9539
 5789SOL    HW228830   2.280   2.521  16.268  0.2020  1.7706 -1.3760
 5790SOL     OW28831   3.383   3.137   1.326  0.5997 -0.3010 -0.4063
 5790SOL    HW128832   3.391   3.115   1.233  2.2491 -0.1261 -0.3068
 5790SOL    HW228833   3.318   3.207   1.316 -2.0355 -2.7433 -0.2557
 5791SOL     OW28834   0.752   1.429   4.689  0.4184  0.0713 -0.3539
 5791SOL    HW128835   0.801   1.474   4.759 -1.3697  2.0452 -0.3653
 5791SOL    HW228836   0.814   1.436   4.616 -0.6605 -0.9246 -1.3634
 5792SOL     OW28837   3.863   2.583   4.431  0.1815 -0.6685  0.0138
 5792SOL    HW128838   3.813   2.602   4.510  0.0477  0.6039 -0.3806
 5792SOL    HW228839   3.889   2.670   4.401  0.9720 -1.2637 -1.0262
 5793SOL     OW28840   0.682   1.497  15.293  0.1124 -0.0534 -0.1681
 5793SOL    HW128841   0.727   1.581  15.297  3.2792 -1.7228 -0.6229
 5793SOL    HW228842   0.685   1.492  15.198  3.4314 -2.3580  0.0484
 5794SOL     OW28843   0.412   3.098  13.247 -0.1266 -0.1637 -0.1777
 5794SOL    HW128844   0.472   3.138  13.309 -1.0206 -1.1254  1.3415
 5794SOL    HW228845   0.402   3.012  13.288  0.8171  0.3210  1.0515
 5795SOL     OW28846   2.705   0.027   5.117 -0.0369 -0.4690  0.3573
 5795SOL    HW128847   2.676   0.007   5.028 -2.2480 -0.4675  1.0904
 5795SOL    HW228848   2.724   4.663   5.156  1.2323 -0.4549 -0.2145
 5796SOL     OW28849   1.507   2.873   7.810  0.1301 -0.1512  0.1354
 5796SOL    HW128850   1.575   2.883   7.877 -0.6054  1.3843  0.6727
 5796SOL    HW228851   1.469   2.792   7.845 -1.6924  1.2003  1.3093
 5797SOL     OW28852   1.947   1.572   3.197 -0.0222 -0.5526  0.2662
 5797SOL    HW128853   1.869   1.531   3.159  0.6480 -2.7029  1.2114
 5797SOL    HW228854   1.930   1.657   3.157 -1.1795 -0.4179  1.0189
 5798SOL     OW28855   4.404   1.417  10.338  0.4488 -0.4490 -0.1548
 5798SOL    HW128856   4.353   1.360  10.395 -1.9999  0.1956 -1.7420
 5798SOL    HW228857   4.383   1.379  10.253  0.0773 -1.9418  0.6046
 5799SOL     OW28858   2.892   3.254   6.136 -0.1865  0.5681  0.0345
 5799SOL    HW128859   2.879   3.162   6.159  1.2745  0.0800 -1.1146
 5799SOL    HW228860   2.820   3.282   6.193 -0.5082  0.4602 -0.3215
 5800SOL     OW28861   2.931   0.470  12.667 -0.0221 -0.7713 -0.0626
 5800SOL    HW128862   2.941   0.453  12.574 -0.5321 -0.2372 -0.2182
 5800SOL    HW228863   2.917   0.565  12.673 -1.8576 -0.9953 -1.1390
 5801SOL     OW28864   1.347   4.548  10.192  0.1125  0.5854  0.3124
 5801SOL    HW128865   1.324   4.467  10.146  0.9927  0.6219 -0.1814
 5801SOL    HW228866   1.257   4.560  10.224 -0.2464  0.0311 -0.4656
 5802SOL     OW28867   3.611   0.294   1.019 -0.4543 -0.0190 -0.0774
 5802SOL    HW128868   3.569   0.325   0.938 -1.1295  1.9099  1.0193
 5802SOL    HW228869   3.642   0.208   0.990 -1.2985 -0.1663 -0.5368
 5803SOL     OW28870   1.111   2.276   0.113 -0.5282  0.1379  0.0052
 5803SOL    HW128871   1.178   2.228   0.065 -3.1613 -5.2261  1.6469
 5803SOL    HW228872   1.039   2.260   0.051 -1.3662  0.5998  0.8449
 5804SOL     OW28873   2.569   0.822   5.995 -0.1178  0.3459  0.5882
 5804SOL    HW128874   2.662   0.840   5.985 -0.1403 -0.1605 -0.5715
 5804SOL    HW228875   2.576   0.778   6.080  0.0309  1.5557  1.2022
 5805SOL     OW28876   4.186   2.651   2.814 -0.7598 -0.3799 -0.2686
 5805SOL    HW128877   4.240   2.626   2.739  1.1289  0.1959  0.9206
 5805SOL    HW228878   4.199   2.575   2.870 -0.0998  0.0930  0.2162
 5806SOL     OW28879   0.104   4.388   8.644 -0.1276  0.3573 -0.3671
 5806SOL    HW128880   0.193   4.360   8.621 -0.5090 -0.3145 -1.0234
 5806SOL    HW228881   0.111   4.481   8.621  0.0670  0.3024 -0.5295
 5807SOL     OW28882   3.632   3.084   7.603  0.0981  0.2415  1.5106
 5807SOL    HW128883   3.653   3.131   7.684  0.7489  1.9254  0.3651
 5807SOL    HW228884   3.551   3.042   7.630 -0.6446  0.9577  0.4122
 5808SOL     OW28885   4.640   2.504   5.382  0.4964 -0.2957  0.1755
 5808SOL    HW128886   4.610   2.542   5.464 -0.7051 -0.6947 -0.0741
 5808SOL    HW228887   4.681   2.572   5.328 -1.4775  1.0163  0.3451
 5809SOL     OW28888   2.033   2.435  10.431 -0.0766  0.1547  0.3301
 5809SOL    HW128889   1.957   2.381  10.411 -1.5586  1.7445  1.7192
 5809SOL    HW228890   2.001   2.517  10.468  1.5111  2.1043 -2.6046
 5810SOL     OW28891   4.265   2.276  15.573 -0.0763 -0.4653  0.6133
 5810SOL    HW128892   4.186   2.298  15.524  0.4064 -2.5996 -1.1168
 5810SOL    HW228893   4.279   2.363  15.612 -0.2341 -0.4401  0.6156
 5811SOL     OW28894   2.009   3.161   3.244  0.1484  0.2425  0.2157
 5811SOL    HW128895   2.097   3.129   3.267  0.8476  0.0656 -2.7649
 5811SOL    HW228896   1.985   3.108   3.169  0.6935  1.2828 -0.6935
 5812SOL     OW28897   1.735   0.365   3.158 -0.3944 -0.6092  0.5099
 5812SOL    HW128898   1.765   0.300   3.095  0.1635  0.7811 -0.6621
 5812SOL    HW228899   1.691   0.433   3.106  0.9461  0.0559  0.2329
 5813SOL     OW28900   2.967   1.904   4.654 -0.5344  0.1553 -0.2065
 5813SOL    HW128901   2.888   1.920   4.602  1.4899 -0.2440 -3.4056
 5813SOL    HW228902   2.991   1.993   4.680 -1.7445  0.9559 -1.8406
 5814SOL     OW28903   3.057   1.791   8.360  0.6225 -0.0326 -0.5664
 5814SOL    HW128904   3.022   1.867   8.406  1.2160  1.1364 -2.0262
 5814SOL    HW228905   3.004   1.719   8.394 -0.2501  0.3153 -1.1919
 5815SOL     OW28906   1.767   0.334   9.283  0.4127 -0.0200  0.2241
 5815SOL    HW128907   1.701   0.267   9.303  0.3233  0.3061  1.0172
 5815SOL    HW228908   1.740   0.376   9.201  0.5479  0.0721  0.2264
 5816SOL     OW28909   0.050   1.099  17.598  0.8224 -0.2485  0.1386
 5816SOL    HW128910   0.046   1.191  17.573 -2.0337  0.4292  3.1033
 5816SOL    HW228911   4.685   1.064  17.584  0.8623 -0.7689  1.1947
 5817SOL     OW28912   1.444   1.721   6.994 -0.3821  0.4604 -0.7476
 5817SOL    HW128913   1.475   1.735   6.904  1.2763  0.2966 -0.1893
 5817SOL    HW228914   1.443   1.626   7.004  0.5923  0.8441  3.0175
 5818SOL     OW28915   4.298   3.771   6.999 -0.5214  0.1596  0.2693
 5818SOL    HW128916   4.299   3.676   7.008  0.1787  0.2235  0.9112
 5818SOL    HW228917   4.346   3.796   7.079 -0.1668 -0.4034  0.2341
 5819SOL     OW28918   2.928   3.606   4.322 -0.5899 -0.3529 -0.1171
 5819SOL    HW128919   3.017   3.642   4.316 -0.3916 -0.8105  0.0912
 5819SOL    HW228920   2.938   3.512   4.312  2.5031 -0.2698  1.9079
 5820SOL     OW28921   1.357   4.178  11.556  0.3697 -0.2228  1.2375
 5820SOL    HW128922   1.332   4.257  11.602 -0.2862  1.6203 -2.2464
 5820SOL    HW228923   1.355   4.108  11.621 -0.2410  2.0016  3.6041
 5821SOL     OW28924   4.393   3.545   2.400 -0.6440  0.1883  0.2190
 5821SOL    HW128925   4.478   3.577   2.430  0.1157 -1.7721  0.1796
 5821SOL    HW228926   4.353   3.623   2.361  1.5058  0.8916 -0.5734
 5822SOL     OW28927   1.664   2.444  16.559  0.4321 -0.2620  0.0611
 5822SOL    HW128928   1.619   2.521  16.596 -0.9931 -0.2816 -1.6536
 5822SOL    HW228929   1.755   2.465  16.577  0.7132  0.4510 -2.2589
 5823SOL     OW28930   4.700   4.548   1.829  0.0673 -0.5105  0.0009
 5823SOL    HW128931   4.638   4.550   1.903 -0.1079  1.9466 -0.2220
 5823SOL    HW228932   4.643   4.595   1.768 -0.2362 -0.1264  0.5777
 5824SOL     OW28933   1.809   3.689   9.959  0.4096 -0.4213  0.2537
 5824SOL    HW128934   1.856   3.700  10.041 -0.4811  1.4239  0.5302
 5824SOL    HW228935   1.802   3.594   9.960 -1.1205 -0.3123 -0.5863
 5825SOL     OW28936   3.694   0.798   1.065  0.5154 -0.2312 -0.1636
 5825SOL    HW128937   3.708   0.707   1.037  0.4076  0.5152 -2.6607
 5825SOL    HW228938   3.608   0.779   1.103 -0.1784  1.3832 -0.9392
 5826SOL     OW28939   0.623   1.284  15.471 -0.3430 -0.1502 -0.4259
 5826SOL    HW128940   0.663   1.352  15.417 -1.7496 -0.0711 -1.3846
 5826SOL    HW228941   0.565   1.342  15.520 -0.4938 -0.5018 -0.1883
 5827SOL     OW28942   3.593   3.253   1.123 -0.4468 -0.6102  0.1357
 5827SOL    HW128943   3.561   3.163   1.112  0.0984 -1.1802  3.4170
 5827SOL    HW228944   3.641   3.256   1.040  0.2529 -0.4219  0.5547
 5828SOL     OW28945   0.002   4.174   7.718 -0.2566  0.2692  0.0569
 5828SOL    HW128946   0.085   4.135   7.744 -0.4771  0.7284  1.4451
 5828SOL    HW228947   4.699   4.215   7.800 -2.2773 -2.6943  0.9250
 5829SOL     OW28948   3.026   3.106   6.576  0.0664  0.0753 -0.4044
 5829SOL    HW128949   3.029   3.057   6.494  1.9412  0.5394 -0.6269
 5829SOL    HW228950   3.119   3.122   6.594 -0.4756  1.1288  1.4874
 5830SOL     OW28951   0.829   3.127   4.679 -0.1505 -0.1273 -0.1979
 5830SOL    HW128952   0.880   3.183   4.738 -0.0212 -3.3188  2.7240
 5830SOL    HW228953   0.772   3.092   4.748  1.5543 -0.3069  1.1220
 5831SOL     OW28954   3.676   3.502   6.146 -0.3353 -0.3865 -0.3926
 5831SOL    HW128955   3.594   3.455   6.164  0.4516 -0.8371  2.0696
 5831SOL    HW228956   3.717   3.440   6.086 -0.1136 -2.4224  1.8317
 5832SOL     OW28957   0.240   4.117   1.871 -0.5000 -0.0961  0.4084
 5832SOL    HW128958   0.192   4.193   1.839 -3.0874 -0.8957  2.4027
 5832SOL    HW228959   0.191   4.089   1.948  1.3950 -2.3664  0.7860
 5833SOL     OW28960   3.231   2.412   6.871  0.0976  0.7623 -0.0963
 5833SOL    HW128961   3.247   2.462   6.791  1.8693  1.9543  1.0067
 5833SOL    HW228962   3.141   2.441   6.886 -0.3660 -0.7972  0.1703
 5834SOL     OW28963   1.003   4.088   8.370 -0.5689  0.7602 -0.2352
 5834SOL    HW128964   1.044   4.144   8.305  0.7609  1.4304  1.1761
 5834SOL    HW228965   1.065   4.076   8.442  0.4137 -2.4368 -1.5841
 5835SOL     OW28966   2.379   0.003  11.635  0.3602 -0.2294 -0.2094
 5835SOL    HW128967   2.305   4.666  11.625  2.1429 -2.5447  0.2261
 5835SOL    HW228968   2.452   4.664  11.650  0.2791 -0.4488 -0.6950
 5836SOL     OW28969   2.673   4.485   6.181  0.0732  0.5718 -0.8153
 5836SOL    HW128970   2.632   4.570   6.196 -0.6307  0.2471 -0.9398
 5836SOL    HW228971   2.612   4.429   6.133  0.3086  1.8807 -2.6762
 5837SOL     OW28972   2.463   3.701   3.923  0.0123  0.8875 -0.4088
 5837SOL    HW128973   2.518   3.642   3.975  1.7101  2.5207 -0.3601
 5837SOL    HW228974   2.394   3.728   3.984  0.3563  1.1483 -0.1341
 5838SOL     OW28975   3.873   2.993  12.432 -0.0719 -0.0601  0.1636
 5838SOL    HW128976   3.836   3.012  12.518  2.7284  0.2878  1.3015
 5838SOL    HW228977   3.947   3.052  12.419  0.5847 -0.5359  1.7188
 5839SOL     OW28978   1.442   4.602   5.350  0.1427 -0.0632 -0.3590
 5839SOL    HW128979   1.362   4.646   5.379 -2.1616 -2.6722 -2.6687
 5839SOL    HW228980   1.516   4.647   5.391  2.4624 -2.7068 -1.6226
 5840SOL     OW28981   3.143   2.754  17.353  0.1756 -0.0920 -0.0107
 5840SOL    HW128982   3.055   2.773  17.385  0.0622  1.4680 -1.2617
 5840SOL    HW228983   3.174   2.700  17.425 -1.0297  1.1567  1.4552
 5841SOL     OW28984   1.653   2.683  14.206  0.1176 -0.6236  0.1424
 5841SOL    HW128985   1.664   2.759  14.262 -0.0820 -0.8184  0.4428
 5841SOL    HW228986   1.723   2.633  14.248  2.3396  2.5189  0.1616
 5842SOL     OW28987   1.075   1.964  17.070  0.0813  0.4969  0.3325
 5842SOL    HW128988   1.156   1.915  17.076  0.4715  0.9970 -0.8029
 5842SOL    HW228989   1.011   1.900  17.102  1.5891 -1.0317  0.2792
 5843SOL     OW28990   0.713   0.977  15.977  0.4213 -0.4890 -0.1372
 5843SOL    HW128991   0.768   0.951  16.051 -0.1580  2.8148  1.4586
 5843SOL    HW228992   0.703   0.896  15.928  1.6627 -0.0717 -1.1078
 5844SOL     OW28993   4.573   3.488   5.984 -0.2051 -0.6952  0.7350
 5844SOL    HW128994   4.513   3.419   6.013 -1.0129 -0.9238 -1.5313
 5844SOL    HW228995   4.618   3.447   5.911 -1.4480 -2.5856  1.0220
 5845SOL     OW28996   0.999   2.736   7.130  0.2900  0.5241  0.3360
 5845SOL    HW128997   1.019   2.799   7.199  2.9402 -1.8175  1.7057
 5845SOL    HW228998   0.904   2.723   7.132  0.2784  0.7821  1.1898
 5846SOL     OW28999   4.646   4.395  14.261 -0.1431 -0.2137  1.0831
 5846SOL    HW129000   4.713   4.436  14.317  1.5793  0.7365 -1.7029
 5846SOL    HW229001   4.707   4.374  14.190 -1.8304  4.2731 -1.6097
 5847SOL     OW29002   1.649   3.464   8.210  0.1423 -0.0219  0.2350
 5847SOL    HW129003   1.660   3.371   8.188 -1.4120  0.4074 -2.2274
 5847SOL    HW229004   1.592   3.493   8.140  1.4117  0.6130 -0.5390
 5848SOL     OW29005   4.368   1.687   7.081  0.4820  0.0987 -0.1306
 5848SOL    HW129006   4.298   1.751   7.072 -1.0917 -1.4142  1.5460
 5848SOL    HW229007   4.438   1.752   7.091 -1.5948  2.3060 -0.0635
 5849SOL     OW29008   3.583   3.309   3.319 -0.8030 -0.1204  0.5215
 5849SOL    HW129009   3.640   3.274   3.250  1.8563 -0.2546  2.7986
 5849SOL    HW229010   3.613   3.254   3.391  0.5538  1.0573  0.8609
 5850SOL     OW29011   1.977   4.383   3.567  0.8289  0.0882  0.2373
 5850SOL    HW129012   1.961   4.394   3.660  1.2510  2.2087  0.0545
 5850SOL    HW229013   2.033   4.305   3.567  1.2486  0.3745 -1.1781
 5851SOL     OW29014   2.865   3.423  16.243  0.1422 -0.1335 -0.0109
 5851SOL    HW129015   2.777   3.420  16.281  1.5871 -3.0063  3.0728
 5851SOL    HW229016   2.863   3.510  16.202  3.5470 -0.9457 -1.8698
 5852SOL     OW29017   0.813   1.275   3.085  0.2472  0.0823 -0.3602
 5852SOL    HW129018   0.845   1.238   3.003  1.8938 -0.4405  0.5282
 5852SOL    HW229019   0.814   1.368   3.061  1.4464 -0.1129 -1.0695
 5853SOL     OW29020   3.915   2.465  17.550  0.1837  0.6710 -0.1898
 5853SOL    HW129021   3.866   2.505  17.621  1.8556 -1.7822  2.3915
 5853SOL    HW229022   3.843   2.414  17.513  0.8475 -0.6257  0.3024
 5854SOL     OW29023   4.345   0.120   8.723 -0.1030  0.2150  0.0285
 5854SOL    HW129024   4.436   0.128   8.753 -0.4441 -0.0205  1.1141
 5854SOL    HW229025   4.312   0.209   8.724 -0.3407  0.1614 -2.6804
 5855SOL     OW29026   4.325   2.355  10.769  0.4340 -0.0563 -0.1570
 5855SOL    HW129027   4.420   2.362  10.774  0.4754 -0.3189 -0.5922
 5855SOL    HW229028   4.290   2.350  10.858  0.8435 -0.8813 -0.0462
 5856SOL     OW29029   2.266   1.353   8.041  0.2146  0.2101 -0.5158
 5856SOL    HW129030   2.255   1.301   8.121 -0.5249 -0.2809 -0.9363
 5856SOL    HW229031   2.203   1.311   7.982  1.0192  0.3288 -1.4619
 5857SOL     OW29032   1.835   4.629   0.568  0.0806 -0.2567 -0.4406
 5857SOL    HW129033   1.810   4.546   0.610  0.2768 -1.1596 -2.1052
 5857SOL    HW229034   1.860   4.606   0.479 -1.2765  0.1730 -0.9383
 5858SOL     OW29035   0.915   0.772   1.266  0.2132  0.0443  0.3667
 5858SOL    HW129036   0.942   0.810   1.182 -3.0111  1.7490  0.1040
 5858SOL    HW229037   0.941   0.680   1.259  1.4514  0.3919  0.3415
 5859SOL     OW29038   1.882   3.265  12.924  0.1365 -0.4951 -0.4576
 5859SOL    HW129039   1.936   3.344  12.937  0.1811 -0.8513  1.5940
 5859SOL    HW229040   1.952   3.200  12.934  1.7973  1.1249 -1.4020
 5860SOL     OW29041   4.207   1.932   7.065 -0.1601  0.1452 -0.2761
 5860SOL    HW129042   4.165   1.893   6.988 -0.4244  1.3398 -0.7406
 5860SOL    HW229043   4.131   1.981   7.095  1.4184  2.2694  0.2035
 5861SOL     OW29044   1.912   1.832   3.744  0.4871  0.9863 -0.3077
 5861SOL    HW129045   1.938   1.755   3.793 -1.0239  1.2607  0.9311
 5861SOL    HW229046   1.991   1.885   3.753  0.5579  0.5024  1.9731
 5862SOL     OW29047   0.981   2.821   3.574  0.2568  0.6141 -0.1716
 5862SOL    HW129048   0.897   2.824   3.619 -0.3849 -3.4507 -1.0657
 5862SOL    HW229049   0.966   2.789   3.485 -0.0277  1.5524 -0.4592
 5863SOL     OW29050   2.366   4.512   2.503 -0.4910  0.3770  0.2905
 5863SOL    HW129051   2.410   4.428   2.519 -1.0303  0.1643  0.6687
 5863SOL    HW229052   2.360   4.514   2.408  0.5727 -0.4574  0.2008
 5864SOL     OW29053   1.707   0.604  17.243 -1.1136  0.2835 -0.1264
 5864SOL    HW129054   1.737   0.642  17.160 -1.3971  0.6566 -0.0564
 5864SOL    HW229055   1.622   0.568  17.220 -1.0792 -0.1656  0.4659
 5865SOL     OW29056   4.134   2.914   6.883  0.0914 -0.1799  0.0087
 5865SOL    HW129057   4.222   2.950   6.876  0.0430  0.0718  0.6522
 5865SOL    HW229058   4.135   2.832   6.834  0.3570 -0.8057  1.0522
 5866SOL     OW29059   1.258   4.706   6.477  0.0732 -0.1706 -0.2057
 5866SOL    HW129060   1.295   0.005   6.391 -0.5092  1.6084 -0.0426
 5866SOL    HW229061   1.279   4.613   6.485  0.7222 -0.0414 -0.4583
 5867SOL     OW29062   1.728   1.888  10.044  0.3608 -0.0924  0.0977
 5867SOL    HW129063   1.634   1.874  10.043  0.2149  0.6905  2.2994
 5867SOL    HW229064   1.762   1.801  10.023  2.3654  0.8447 -0.5413
 5868SOL     OW29065   1.147   1.160  16.178  0.2192  1.0204 -0.1207
 5868SOL    HW129066   1.166   1.126  16.091 -0.0875  0.0554  0.1874
 5868SOL    HW229067   1.218   1.110  16.219  0.0089  0.7841 -0.0452
 5869SOL     OW29068   3.862   3.718   5.135 -0.9083 -0.2185 -0.4729
 5869SOL    HW129069   3.792   3.719   5.069  0.3940  2.5673 -1.8047
 5869SOL    HW229070   3.896   3.808   5.136 -2.3858  0.3339  1.4397
 5870SOL     OW29071   2.016   0.645  13.891 -0.0285  0.4922 -0.2291
 5870SOL    HW129072   1.947   0.624  13.828 -0.1140 -1.3321  0.4850
 5870SOL    HW229073   2.057   0.723  13.853 -0.9750  0.0899 -2.0926
 5871SOL     OW29074   1.875   2.423  17.077 -0.0848  0.0868  0.2351
 5871SOL    HW129075   1.861   2.517  17.064 -1.8100 -0.2348 -0.3151
 5871SOL    HW229076   1.886   2.390  16.987  1.1399  2.3066 -0.4268
 5872SOL     OW29077   2.909   1.873  13.183 -0.2843  0.3223  0.6047
 5872SOL    HW129078   2.830   1.840  13.225  0.5128  1.8155  3.2577
 5872SOL    HW229079   2.950   1.908  13.262  0.7484 -1.5494  0.8772
 5873SOL     OW29080   1.637   4.413   5.822 -0.2654 -0.0589  0.1681
 5873SOL    HW129081   1.572   4.381   5.885  0.8205 -0.2624  1.1740
 5873SOL    HW229082   1.621   4.353   5.749 -1.8349 -0.3445  0.7309
 5874SOL     OW29083   3.424   1.937   1.537  0.3493  0.3359  0.6591
 5874SOL    HW129084   3.479   1.876   1.488 -2.0413 -1.5899  0.3911
 5874SOL    HW229085   3.391   1.875   1.601 -1.9274  0.0220 -0.8156
 5875SOL     OW29086   0.028   3.683  10.438  0.2840 -0.5536 -0.4056
 5875SOL    HW129087   0.059   3.595  10.416  1.8454 -0.1553  0.2040
 5875SOL    HW229088   4.670   3.690  10.386  0.7329 -0.2424 -1.0627
 5876SOL     OW29089   1.159   0.155   7.772 -0.3666 -0.5381 -0.0609
 5876SOL    HW129090   1.092   0.158   7.704  0.2598 -1.1964 -0.7064
 5876SOL    HW229091   1.171   0.059   7.772 -2.6584 -0.8235  1.2330
 5877SOL     OW29092   1.219   2.605  14.404 -0.1901  0.0858 -0.2903
 5877SOL    HW129093   1.127   2.582  14.415  0.2666 -0.7352  1.7683
 5877SOL    HW229094   1.210   2.681  14.346 -1.6935 -1.5531 -2.2414
 5878SOL     OW29095   3.944   2.972  13.980  0.2195  0.1686 -0.3727
 5878SOL    HW129096   4.003   2.937  14.047 -1.5207 -1.6524  0.2271
 5878SOL    HW229097   3.894   3.044  14.019  0.2604 -1.2580  2.3183
 5879SOL     OW29098   0.728   2.838  16.966  0.1665 -0.2433 -0.1349
 5879SOL    HW129099   0.706   2.930  16.956  0.3608 -0.0573  1.2288
 5879SOL    HW229100   0.799   2.840  17.029 -0.2203  0.2349  0.2885
 5880SOL     OW29101   0.141   1.327   4.207 -0.1367  0.7067 -0.6032
 5880SOL    HW129102   0.212   1.386   4.231  0.7945 -1.0474  1.0079
 5880SOL    HW229103   0.061   1.380   4.208 -1.2779 -1.0162  0.3745
 5881SOL     OW29104   1.159   2.971  12.634  0.0995  0.4010  0.7022
 5881SOL    HW129105   1.142   3.032  12.706 -2.5443 -2.7120  2.6922
 5881SOL    HW229106   1.242   3.006  12.601  0.0324  0.6693  0.8160
 5882SOL     OW29107   3.317   1.634   7.696 -0.0640  0.1213 -0.2988
 5882SOL    HW129108   3.230   1.657   7.730  0.7881 -0.2411  2.1688
 5882SOL    HW229109   3.371   1.681   7.760 -0.5156  2.6105 -1.7460
 5883SOL     OW29110   2.067   0.623   6.730  0.1954 -0.2357 -0.0096
 5883SOL    HW129111   2.116   0.680   6.672 -1.3417  2.5594  1.4351
 5883SOL    HW229112   2.050   0.691   6.795 -3.6030 -0.6713 -0.5217
 5884SOL     OW29113   0.798   0.082   3.368  0.0777 -0.2484  0.5804
 5884SOL    HW129114   0.878   0.038   3.396  1.8264  0.7828 -2.8030
 5884SOL    HW229115   0.826   0.135   3.293  0.6794 -1.6145 -0.1487
 5885SOL     OW29116   3.154   2.867   8.635  0.0669 -0.7153  0.0958
 5885SOL    HW129117   3.143   2.859   8.540  1.0481  0.1608 -0.0837
 5885SOL    HW229118   3.231   2.922   8.643  0.7261 -1.5483 -0.5193
 5886SOL     OW29119   2.652   3.726   6.420 -0.3226 -0.2184  0.1481
 5886SOL    HW129120   2.665   3.785   6.495 -1.6073  1.9826 -1.3572
 5886SOL    HW229121   2.731   3.672   6.423  0.3340  0.6498 -1.7882
 5887SOL     OW29122   3.747   1.767   2.012  1.0365  0.1109 -0.9126
 5887SOL    HW129123   3.706   1.727   1.935 -1.2228  0.7649 -0.0330
 5887SOL    HW229124   3.819   1.705   2.023  0.6515 -0.2042 -0.1385
 5888SOL     OW29125   1.047   2.249   8.313  0.3707  0.2323  0.0876
 5888SOL    HW129126   1.082   2.303   8.242  0.5385  1.6435  1.2411
 5888SOL    HW229127   1.047   2.305   8.391 -0.6610  2.6123 -1.6293
 5889SOL     OW29128   1.269   4.362   5.773 -0.1011 -0.0185 -0.2361
 5889SOL    HW129129   1.205   4.428   5.745 -1.7576 -1.6429 -0.2604
 5889SOL    HW229130   1.218   4.321   5.843  1.8712  0.6332  1.5657
 5890SOL     OW29131   1.583   2.823   3.120  0.4281  0.1223 -0.0087
 5890SOL    HW129132   1.582   2.765   3.043 -0.6454 -1.3175  1.0844
 5890SOL    HW229133   1.495   2.860   3.124 -0.2487 -1.3475 -1.1123
 5891SOL     OW29134   2.916   1.300  10.073  0.2901 -1.0003  0.1449
 5891SOL    HW129135   2.857   1.369  10.102  0.8039 -0.6135  0.2781
 5891SOL    HW229136   2.967   1.277  10.151  0.9496 -0.8944 -0.2515
 5892SOL     OW29137   0.234   0.427   0.942  0.2542 -0.1747  0.4725
 5892SOL    HW129138   0.143   0.441   0.915 -0.9944 -3.0590  3.1213
 5892SOL    HW229139   0.276   0.396   0.862 -1.0293  2.6351 -1.2865
 5893SOL     OW29140   0.434   3.215  13.505  0.2657 -0.0795 -0.1263
 5893SOL    HW129141   0.371   3.287  13.506 -0.5969 -0.8272 -0.7452
 5893SOL    HW229142   0.390   3.138  13.543 -0.9940 -0.2567 -1.9355
 5894SOL     OW29143   2.111   3.955  12.542  0.0308  0.4160  0.1126
 5894SOL    HW129144   2.195   3.915  12.518  1.3493  3.1115  0.2226
 5894SOL    HW229145   2.133   4.046  12.523 -0.4600  0.1515 -1.7262
 5895SOL     OW29146   4.266   0.274   7.900  0.1871  0.0379 -0.1106
 5895SOL    HW129147   4.351   0.296   7.863 -0.0490  0.4101 -0.4341
 5895SOL    HW229148   4.209   0.329   7.846 -1.6235 -2.3434 -0.6476
 5896SOL     OW29149   1.759   0.874   5.917  0.2013 -0.0448  0.3525
 5896SOL    HW129150   1.669   0.903   5.932  1.3280  3.9007 -0.3651
 5896SOL    HW229151   1.747   0.790   5.874  1.9733  0.3172 -0.8467
 5897SOL     OW29152   2.378   2.399   2.552 -0.1032 -0.0010  0.7025
 5897SOL    HW129153   2.458   2.376   2.505  0.6658  1.0286  1.5126
 5897SOL    HW229154   2.313   2.391   2.482  0.3127 -3.0549  0.6640
 5898SOL     OW29155   1.788   2.320   2.903 -0.0053  0.6307  0.2541
 5898SOL    HW129156   1.712   2.266   2.883  0.8619 -0.4009 -0.2845
 5898SOL    HW229157   1.789   2.372   2.823 -0.0603  3.2965  1.9817
 5899SOL     OW29158   4.336   3.774   2.244 -0.5749  0.0661  0.5513
 5899SOL    HW129159   4.314   3.832   2.317  0.0256  0.2311  0.6024
 5899SOL    HW229160   4.387   3.840   2.198  0.3472 -1.6212 -0.8219
 5900SOL     OW29161   2.592   3.319   5.400  0.0481  0.1855  0.2741
 5900SOL    HW129162   2.629   3.365   5.475  1.2261 -1.3906  0.6670
 5900SOL    HW229163   2.664   3.294   5.343 -0.1337 -0.2048  0.2170
 5901SOL     OW29164   3.872   4.037   5.182 -0.2894  0.6651 -0.2854
 5901SOL    HW129165   3.804   4.014   5.118 -0.9592  0.3990  0.5309
 5901SOL    HW229166   3.910   4.109   5.132  1.5253  0.4215  0.7411
 5902SOL     OW29167   1.382   1.250   2.056 -0.4984 -0.0141 -0.5425
 5902SOL    HW129168   1.307   1.202   2.022  0.1815 -1.0283 -0.6386
 5902SOL    HW229169   1.428   1.277   1.977  1.3738 -2.0263 -0.1487
 5903SOL     OW29170   0.219   3.184   4.934 -0.1434 -0.1633 -0.4031
 5903SOL    HW129171   0.194   3.095   4.958  0.2067 -0.3999 -0.9221
 5903SOL    HW229172   0.221   3.173   4.839  1.2721 -3.1328 -0.0051
 5904SOL     OW29173   2.305   2.456   4.293 -0.6062  0.2471  0.1943
 5904SOL    HW129174   2.271   2.501   4.370  1.2079 -0.7617  1.5904
 5904SOL    HW229175   2.222   2.451   4.246 -0.2478  1.1545 -0.5417
 5905SOL     OW29176   0.080   2.846  13.568  1.0780  0.7316 -0.3606
 5905SOL    HW129177   0.122   2.777  13.620  1.4694  1.3846  0.1856
 5905SOL    HW229178   0.053   2.788  13.497  1.2516  1.0683 -0.6987
 5906SOL     OW29179   1.849   3.303  12.125 -0.1089 -0.6525  0.7284
 5906SOL    HW129180   1.940   3.331  12.136 -0.9799  1.9083  1.3881
 5906SOL    HW229181   1.805   3.353  12.194 -0.8919  0.8297 -0.8551
 5907SOL     OW29182   3.713   1.962   0.430  0.0271 -0.3320 -0.1955
 5907SOL    HW129183   3.807   1.980   0.442  0.0839 -0.7929  0.0278
 5907SOL    HW229184   3.692   1.909   0.507  1.2459 -0.6230 -0.0585
 5908SOL     OW29185   1.666   4.364   6.885  0.3418  0.1146  0.2434
 5908SOL    HW129186   1.661   4.458   6.866  0.9683  0.4159  1.6174
 5908SOL    HW229187   1.743   4.354   6.940 -0.4296  2.2200  1.7205
 5909SOL     OW29188   1.436   4.523  16.145 -0.5546 -0.6453 -0.4636
 5909SOL    HW129189   1.447   4.589  16.077 -1.3496  0.4376  0.4534
 5909SOL    HW229190   1.508   4.465  16.121 -0.2692 -0.5418  0.1356
 5910SOL     OW29191   1.517   0.330  16.451  0.1080  0.3047 -0.9024
 5910SOL    HW129192   1.439   0.300  16.497 -1.2791  0.7060 -2.9944
 5910SOL    HW229193   1.504   0.277  16.372 -2.5212 -0.4069  0.0122
 5911SOL     OW29194   1.751   1.906   4.007 -0.0145  0.2749 -0.0782
 5911SOL    HW129195   1.845   1.912   3.993  0.5581 -0.1606  3.5625
 5911SOL    HW229196   1.725   1.996   3.990  1.9078  0.8447  0.1021
 5912SOL     OW29197   2.335   0.513   5.670 -0.9028  0.0633  0.1027
 5912SOL    HW129198   2.286   0.559   5.602 -0.0049  1.6390  0.5294
 5912SOL    HW229199   2.365   0.590   5.719 -1.3782  0.2306  0.1356
 5913SOL     OW29200   3.273   1.987   5.352  0.1625 -0.0677  0.2264
 5913SOL    HW129201   3.286   1.936   5.272  0.4461  2.2884 -1.2485
 5913SOL    HW229202   3.237   1.924   5.414 -0.8609 -0.2180 -0.5244
 5914SOL     OW29203   1.779   0.456  15.619 -0.0620 -0.4174  0.2511
 5914SOL    HW129204   1.701   0.441  15.567 -0.9085 -0.4497  1.5476
 5914SOL    HW229205   1.846   0.436  15.553 -0.2529 -3.2639  0.9541
 5915SOL     OW29206   0.224   4.249  10.309  0.2363  0.1807 -0.2987
 5915SOL    HW129207   0.218   4.266  10.403 -0.3179  0.8865 -0.4595
 5915SOL    HW229208   0.269   4.165  10.312 -1.1424 -0.5022  0.8789
 5916SOL     OW29209   3.570   3.858   7.225 -0.3712  0.4577 -0.6868
 5916SOL    HW129210   3.490   3.814   7.253 -0.9564  2.1456  0.3259
 5916SOL    HW229211   3.629   3.783   7.226 -1.3519 -0.2998  0.7310
 5917SOL     OW29212   1.558   2.550   3.731  0.2278 -0.8120 -0.2675
 5917SOL    HW129213   1.552   2.455   3.724  0.1516 -0.9949  2.1737
 5917SOL    HW229214   1.513   2.591   3.657 -0.5222  1.7109  1.5786
 5918SOL     OW29215   1.457   3.664   6.388  0.6608  0.4045  0.5880
 5918SOL    HW129216   1.549   3.638   6.395  1.2737  2.4290 -0.1005
 5918SOL    HW229217   1.437   3.688   6.478  0.3096  0.2011  0.5616
 5919SOL     OW29218   1.293   2.199   2.199 -0.1010 -0.3335  0.0459
 5919SOL    HW129219   1.355   2.197   2.126  0.2091 -0.2338  0.3073
 5919SOL    HW229220   1.215   2.147   2.178 -0.0361 -0.9580  1.3518
 5920SOL     OW29221   4.346   0.041   5.620 -0.3044 -0.3873  0.8004
 5920SOL    HW129222   4.369   0.072   5.533  2.1502  1.3433  2.0780
 5920SOL    HW229223   4.253   0.061   5.631 -0.7087 -3.6581  3.4762
 5921SOL     OW29224   0.376   0.907   3.851  0.5093  0.4461  0.2345
 5921SOL    HW129225   0.344   0.955   3.927  1.3829  0.7193  0.4316
 5921SOL    HW229226   0.456   0.958   3.840 -0.7130  2.1656 -0.5509
 5922SOL     OW29227   0.169   3.576   3.179  0.1916 -1.0730 -0.2104
 5922SOL    HW129228   0.246   3.591   3.125  0.5615  0.3507  0.6963
 5922SOL    HW229229   0.170   3.481   3.188  1.4393 -0.9908  0.5818
 5923SOL     OW29230   4.440   1.994   6.886 -0.4478 -0.2475  0.4799
 5923SOL    HW129231   4.365   1.993   6.945  0.5239  0.9738  1.7338
 5923SOL    HW229232   4.506   1.960   6.946  0.3233  1.1205  0.3879
 5924SOL     OW29233   2.019   2.380   3.021  0.0437  0.4630  0.2272
 5924SOL    HW129234   1.944   2.377   2.961  0.6192 -1.1080 -0.4075
 5924SOL    HW229235   2.088   2.356   2.959 -0.6753 -1.6122  0.2250
 5925SOL     OW29236   1.761   1.267   0.398  0.0027 -0.1127  0.6252
 5925SOL    HW129237   1.682   1.215   0.382 -1.2859  1.9118  0.3306
 5925SOL    HW229238   1.747   1.335   0.463  0.4712 -0.7147  1.3528
 5926SOL     OW29239   4.064   0.403   5.494 -0.1152 -0.5777  0.3392
 5926SOL    HW129240   4.125   0.460   5.447 -0.8463  0.6800  0.9118
 5926SOL    HW229241   3.992   0.410   5.431  2.1099 -4.4220 -2.6539
 5927SOL     OW29242   4.177   0.476   2.702 -0.5332 -0.2369 -0.0598
 5927SOL    HW129243   4.222   0.558   2.680  0.1154 -0.3001  1.0158
 5927SOL    HW229244   4.247   0.417   2.675 -1.3753 -1.7474  1.0953
 5928SOL     OW29245   0.206   0.562   2.556 -0.7461 -0.3235 -0.4489
 5928SOL    HW129246   0.153   0.571   2.477 -0.2321  1.9993 -0.5120
 5928SOL    HW229247   0.248   0.476   2.545  0.4427  0.3069 -0.8575
 5929SOL     OW29248   0.299   2.514   3.292 -0.4904  0.3320  0.7698
 5929SOL    HW129249   0.368   2.498   3.227 -0.1405  1.9339  0.7485
 5929SOL    HW229250   0.242   2.441   3.266 -0.3656  0.3869  0.3459
 5930SOL     OW29251   1.846   3.459   5.225 -0.0934  0.2185  0.2392
 5930SOL    HW129252   1.810   3.534   5.272 -0.6953 -0.3665  0.7095
 5930SOL    HW229253   1.925   3.445   5.277  0.2895  1.2184 -0.0703
 5931SOL     OW29254   0.980   1.913  15.811  0.2368  0.1100 -0.1827
 5931SOL    HW129255   0.976   2.008  15.798 -2.0401 -0.1211 -1.0717
 5931SOL    HW229256   0.965   1.879  15.723  2.3977 -1.2965 -0.0008
 5932SOL     OW29257   4.698   1.177   2.305  0.5976  0.1315  0.2126
 5932SOL    HW129258   4.663   1.251   2.354 -0.0357  0.2272 -0.3884
 5932SOL    HW229259   4.702   1.108   2.371  0.4153 -0.9682 -0.9186
 5933SOL     OW29260   4.532   3.900   3.811  0.3247  0.4504  0.1306
 5933SOL    HW129261   4.586   3.847   3.870  0.3363  0.2766 -0.0357
 5933SOL    HW229262   4.585   3.979   3.795  0.6006  0.4852  1.1740
 5934SOL     OW29263   1.328   4.128   4.816  0.4646  0.3504  0.4031
 5934SOL    HW129264   1.236   4.126   4.788  0.6980  1.8145 -0.5153
 5934SOL    HW229265   1.333   4.041   4.855  1.9272 -0.1312 -0.8950
 5935SOL     OW29266   2.329   0.215   2.002 -0.0223  0.3510 -0.0681
 5935SOL    HW129267   2.372   0.267   1.935 -0.1850 -0.0578 -0.4938
 5935SOL    HW229268   2.317   0.132   1.956 -0.2595  0.9743 -1.1286
 5936SOL     OW29269   4.695   3.655   9.842 -0.1628  0.1092 -0.1629
 5936SOL    HW129270   0.032   3.730   9.845 -0.0537  0.0147  0.0451
 5936SOL    HW229271   4.620   3.710   9.868  0.0171  0.4726 -0.4087
 5937SOL     OW29272   0.596   3.148   5.616 -0.5873 -0.1817  0.2437
 5937SOL    HW129273   0.543   3.106   5.548  0.3279 -1.7904  0.5384
 5937SOL    HW229274   0.563   3.091   5.685 -1.8530  1.4544  0.9856
 5938SOL     OW29275   1.393   0.190  17.473 -0.4165  0.8004 -0.1401
 5938SOL    HW129276   1.304   0.206  17.440  0.4812  1.7953 -2.0922
 5938SOL    HW229277   1.409   0.272  17.520 -3.5376  0.8899  0.8115
 5939SOL     OW29278   2.873   4.606  17.507 -0.0068 -0.2363 -0.5182
 5939SOL    HW129279   2.871   4.558  17.590  0.9038 -1.3852 -1.1669
 5939SOL    HW229280   2.934   4.675  17.531 -0.8207  0.7019 -1.0980
 5940SOL     OW29281   3.140   2.763   3.526 -0.0651 -0.5086  0.6666
 5940SOL    HW129282   3.138   2.735   3.434 -1.6838  0.6283  0.3750
 5940SOL    HW229283   3.224   2.809   3.534 -1.5120  2.2530 -0.1347
 5941SOL     OW29284   3.551   1.119   5.602 -0.4827  0.2410  0.2412
 5941SOL    HW129285   3.567   1.036   5.647 -0.6763 -0.4692 -0.9746
 5941SOL    HW229286   3.500   1.071   5.536  0.6505 -3.0452  1.7361
 5942SOL     OW29287   2.685   3.338  11.047 -0.0958 -0.6104  0.0272
 5942SOL    HW129288   2.693   3.270  11.114  0.0351  0.1067  0.7361
 5942SOL    HW229289   2.778   3.347  11.030  0.0931 -1.7303  0.5164
 5943SOL     OW29290   0.506   0.841  12.298 -0.0887  0.7041  0.2128
 5943SOL    HW129291   0.482   0.878  12.383 -1.0421  0.3743  0.0849
 5943SOL    HW229292   0.500   0.746  12.309  1.3083  0.4125 -1.4624
 5944SOL     OW29293   0.686   1.636   1.494 -0.3827  0.5636 -0.0663
 5944SOL    HW129294   0.755   1.571   1.478  0.9102  2.0054 -0.3514
 5944SOL    HW229295   0.717   1.705   1.435  1.6498 -2.2958 -2.3571
 5945SOL     OW29296   0.870   3.263   1.550  1.1469  0.0010 -0.3403
 5945SOL    HW129297   0.817   3.313   1.488  1.9191 -0.5010 -1.4132
 5945SOL    HW229298   0.946   3.256   1.492  1.2741  0.4694 -0.2249
 5946SOL     OW29299   1.436   1.965   9.149  0.4625 -0.1849  0.2654
 5946SOL    HW129300   1.407   1.900   9.213 -1.3462 -0.4495 -0.8175
 5946SOL    HW229301   1.531   1.949   9.153  0.6876  0.6856 -1.4166
 5947SOL     OW29302   0.894   0.807   9.619  0.2050 -0.2487 -0.2685
 5947SOL    HW129303   0.915   0.897   9.597  2.8154 -0.4924  1.2791
 5947SOL    HW229304   0.802   0.811   9.595  0.2705 -1.8316 -0.8210
 5948SOL     OW29305   2.110   2.804   6.129  0.0634  0.0286 -0.0731
 5948SOL    HW129306   2.130   2.891   6.164  0.2602 -1.2397  2.9243
 5948SOL    HW229307   2.015   2.810   6.118 -0.1622 -1.3983  1.0492
 5949SOL     OW29308   3.460   4.112   9.556 -0.0072  0.1564 -0.2766
 5949SOL    HW129309   3.524   4.041   9.548  1.6332  1.7338 -1.2124
 5949SOL    HW229310   3.497   4.162   9.483 -1.0210  3.2515  1.3468
 5950SOL     OW29311   1.751   1.084   4.069  0.1839 -0.2186  0.4704
 5950SOL    HW129312   1.796   1.013   4.116 -1.7714 -0.9942  1.1440
 5950SOL    HW229313   1.665   1.043   4.059  0.4071 -0.8767  1.2907
 5951SOL     OW29314   1.299   3.305   5.197  0.0450 -0.0819 -0.1092
 5951SOL    HW129315   1.335   3.266   5.118 -0.1207  0.3730 -0.4099
 5951SOL    HW229316   1.233   3.243   5.228  0.6690  0.5320  2.4630
 5952SOL     OW29317   3.421   1.063  13.799  0.4131  0.4053 -0.0910
 5952SOL    HW129318   3.430   1.151  13.763 -0.1319  0.8545  0.8483
 5952SOL    HW229319   3.398   1.015  13.720  0.1198 -1.2220  0.9911
 5953SOL     OW29320   0.698   3.844   1.341 -0.3945  0.2042  0.3332
 5953SOL    HW129321   0.638   3.915   1.364 -1.7867 -0.5678 -0.9769
 5953SOL    HW229322   0.755   3.845   1.418 -0.8034 -1.8294  0.6649
 5954SOL     OW29323   2.515   0.662   3.032 -0.1225 -0.0663 -0.4103
 5954SOL    HW129324   2.593   0.644   3.084 -0.6114  2.0412  1.0328
 5954SOL    HW229325   2.451   0.698   3.093  1.1057 -1.8248  1.9230
 5955SOL     OW29326   2.761   3.217  13.696  0.1854 -0.1981 -0.2005
 5955SOL    HW129327   2.752   3.125  13.717 -2.0267  0.4819  1.8392
 5955SOL    HW229328   2.742   3.216  13.602  1.9977  0.6453 -0.5800
 5956SOL     OW29329   2.453   2.852   5.036 -0.4266 -0.0191 -1.2054
 5956SOL    HW129330   2.457   2.931   5.091 -0.7675 -0.7169 -0.1745
 5956SOL    HW229331   2.434   2.790   5.106 -0.6725  1.7017  0.2524
 5957SOL     OW29332   2.388   0.535  10.871  0.2025  0.8357 -0.0950
 5957SOL    HW129333   2.295   0.533  10.851  0.7037  0.2753 -2.3483
 5957SOL    HW229334   2.423   0.485  10.798  1.5789  1.8625 -0.1491
 5958SOL     OW29335   2.740   2.825   5.357 -0.3965 -0.8644 -0.7563
 5958SOL    HW129336   2.719   2.906   5.311  1.6791 -0.4218 -0.8998
 5958SOL    HW229337   2.778   2.765   5.293 -1.0698 -0.4548 -1.5424
 5959SOL     OW29338   2.501   3.652  15.926 -0.4485 -0.0936 -0.5260
 5959SOL    HW129339   2.535   3.588  15.862  1.4462  2.3052 -1.9071
 5959SOL    HW229340   2.418   3.672  15.882 -1.0689 -0.7842  0.3417
 5960SOL     OW29341   2.096   4.519   4.776 -0.7607  0.5344 -0.0723
 5960SOL    HW129342   2.122   4.450   4.715  0.1151 -0.3833  1.3351
 5960SOL    HW229343   2.100   4.605   4.733  1.3474 -1.2872 -3.5518
 5961SOL     OW29344   1.642   4.094   2.155  0.2894  0.3062  0.1806
 5961SOL    HW129345   1.692   4.165   2.114  2.4126  0.3044  2.7567
 5961SOL    HW229346   1.698   4.066   2.227  1.4438  0.7351 -0.5334
 5962SOL     OW29347   4.324   1.326  10.065  0.3245  0.2366  0.3997
 5962SOL    HW129348   4.330   1.233  10.090 -1.5119 -0.2995 -1.1961
 5962SOL    HW229349   4.232   1.326  10.039  0.4028  1.6347  0.1447
 5963SOL     OW29350   0.073   2.207   0.275 -0.7434 -0.1404  0.2447
 5963SOL    HW129351   4.718   2.261   0.295 -0.1142  1.6283 -2.1261
 5963SOL    HW229352   0.075   2.230   0.182  0.6123  1.3179  0.6422
 5964SOL     OW29353   4.249   1.058   8.104  0.7351  0.1250 -0.4040
 5964SOL    HW129354   4.178   1.105   8.148 -0.9828  0.0595 -3.1270
 5964SOL    HW229355   4.233   1.074   8.011  0.6410 -0.7855 -0.5462
 5965SOL     OW29356   0.907   3.593  15.543  0.9425  0.0204 -0.3834
 5965SOL    HW129357   0.956   3.633  15.471 -1.3495  0.8524 -1.4874
 5965SOL    HW229358   0.854   3.664  15.580 -0.1170 -0.8706 -0.1851
 5966SOL     OW29359   1.100   0.139  16.812  0.4435  0.2501 -0.4992
 5966SOL    HW129360   1.101   0.051  16.775 -1.2243  0.3761 -0.8393
 5966SOL    HW229361   1.006   0.138  16.834  0.5180  1.0271 -0.1386
 5967SOL     OW29362   2.422   4.325   5.521 -0.1086  0.0670 -0.8137
 5967SOL    HW129363   2.399   4.414   5.495 -1.2753  0.6478  2.2074
 5967SOL    HW229364   2.346   4.304   5.575 -0.8510  0.5060 -1.6857
 5968SOL     OW29365   0.740   2.453  12.466  0.4110 -1.0124  0.5644
 5968SOL    HW129366   0.754   2.494  12.381 -3.2651  1.4724  1.1233
 5968SOL    HW229367   0.823   2.408  12.480  1.8013  1.6226  0.8609
 5969SOL     OW29368   0.778   0.157   4.897 -0.1441 -0.2999 -0.5373
 5969SOL    HW129369   0.786   0.062   4.898  1.5123 -0.1516 -0.6577
 5969SOL    HW229370   0.775   0.174   4.803  0.5981 -1.2569 -0.7336
 5970SOL     OW29371   4.396   3.700   7.796 -0.4617 -0.3573 -0.1127
 5970SOL    HW129372   4.335   3.725   7.865  1.1866 -1.2632  1.6604
 5970SOL    HW229373   4.376   3.606   7.791 -0.4858 -0.2672 -1.7856
 5971SOL     OW29374   4.446   2.667   2.353  0.7000 -0.7509  0.1871
 5971SOL    HW129375   4.439   2.630   2.441  0.2421  2.0896  1.3245
 5971SOL    HW229376   4.539   2.688   2.343  1.3847 -4.0091 -0.5126
 5972SOL     OW29377   2.370   1.050   3.323  0.3917  0.5993 -0.1989
 5972SOL    HW129378   2.426   1.127   3.310  1.4769 -0.2471 -0.5432
 5972SOL    HW229379   2.392   1.015   3.236  2.0990 -0.8010  0.7969
 5973SOL     OW29380   1.137   2.771   5.060 -0.2831  0.0953  0.0410
 5973SOL    HW129381   1.143   2.783   5.155 -1.5225  0.1354  0.1033
 5973SOL    HW229382   1.121   2.858   5.025  0.4156  0.2171  0.0205
 5974SOL     OW29383   4.044   0.337  13.533  0.3625 -0.0682 -0.1190
 5974SOL    HW129384   4.113   0.405  13.533  0.7373 -0.4479  0.2064
 5974SOL    HW229385   4.079   0.284  13.462 -0.1979 -0.6030  0.0138
 5975SOL     OW29386   4.249   4.424   5.527  0.2961 -0.0798 -0.2241
 5975SOL    HW129387   4.323   4.477   5.557  0.9187 -0.9250 -0.2897
 5975SOL    HW229388   4.221   4.407   5.617 -0.7042 -0.6639 -0.6533
 5976SOL     OW29389   3.905   4.063   7.068  0.3943  0.3245  0.2494
 5976SOL    HW129390   3.941   3.975   7.079  0.6205  0.5227  1.0921
 5976SOL    HW229391   3.968   4.115   7.118  0.5420 -0.5918  1.0095
 5977SOL     OW29392   3.172   1.674   3.919  0.3383  0.5330  0.1108
 5977SOL    HW129393   3.228   1.605   3.885 -0.0746  0.7047 -0.9108
 5977SOL    HW229394   3.147   1.732   3.847 -0.8213 -0.9213 -0.6551
 5978SOL     OW29395   4.277   0.547   8.843  0.2283  0.0603 -0.0996
 5978SOL    HW129396   4.268   0.508   8.930  0.3700  1.0537  0.3593
 5978SOL    HW229397   4.371   0.562   8.845  0.0973  0.7185  1.4233
 5979SOL     OW29398   2.711   1.214   0.236  0.4240 -0.1673  0.3012
 5979SOL    HW129399   2.772   1.148   0.271 -0.8074 -0.8647  1.1590
 5979SOL    HW229400   2.663   1.248   0.311  3.0875 -0.5831  2.2147
 5980SOL     OW29401   2.859   2.766   6.442 -0.1786  0.0985  0.1105
 5980SOL    HW129402   2.774   2.791   6.405 -0.4407  0.1161  0.7139
 5980SOL    HW229403   2.869   2.678   6.407 -1.4186 -0.5496  1.3863
 5981SOL     OW29404   3.863   1.348  10.605 -1.1117  0.1472  0.1862
 5981SOL    HW129405   3.913   1.266  10.608 -1.2552  0.1248  1.8751
 5981SOL    HW229406   3.929   1.401  10.560 -0.4036 -0.5731  0.3500
 5982SOL     OW29407   3.583   0.280  14.280 -0.1922 -0.3619 -0.0418
 5982SOL    HW129408   3.587   0.358  14.334  0.2327 -0.0542 -0.5215
 5982SOL    HW229409   3.539   0.314  14.202 -0.4759  1.5425  0.9634
 5983SOL     OW29410   2.703   1.658  12.462  0.2200  0.2537  0.1380
 5983SOL    HW129411   2.612   1.631  12.474  0.6096 -0.8519  0.5945
 5983SOL    HW229412   2.740   1.592  12.521  0.9336 -2.4412 -3.3381
 5984SOL     OW29413   4.457   0.784   0.105  0.1621  0.4136 -0.6227
 5984SOL    HW129414   4.422   0.873   0.100  0.8200  0.6775 -0.5152
 5984SOL    HW229415   4.487   0.776   0.015  1.0296 -0.6012 -0.2411
 5985SOL     OW29416   3.082   0.340   5.675 -0.1907 -0.0662 -0.4206
 5985SOL    HW129417   2.996   0.322   5.636 -0.7845  3.0769 -0.6207
 5985SOL    HW229418   3.141   0.320   5.603 -0.3790  0.4128 -0.7095
 5986SOL     OW29419   2.650   0.683   3.643  0.0082  0.4719  0.4096
 5986SOL    HW129420   2.594   0.754   3.609  0.2357  0.2418 -0.4364
 5986SOL    HW229421   2.667   0.649   3.556 -1.6043  0.4999  0.0750
 5987SOL     OW29422   4.512   3.248   2.890  0.4723 -0.4533 -0.2948
 5987SOL    HW129423   4.493   3.191   2.965  1.7676 -0.5720 -0.0552
 5987SOL    HW229424   4.459   3.209   2.821  1.5601  2.3272 -2.6828
 5988SOL     OW29425   1.083   3.690  12.591  0.3776  0.0292  0.5574
 5988SOL    HW129426   1.144   3.682  12.518 -0.4034  0.8376 -0.1814
 5988SOL    HW229427   1.004   3.679  12.539 -0.8852 -0.0992  2.4947
 5989SOL     OW29428   1.923   0.933   2.322  0.7987  0.7273  0.0115
 5989SOL    HW129429   2.003   0.902   2.280  0.2418  0.7802 -1.1090
 5989SOL    HW229430   1.877   0.849   2.313  0.3338  0.6749  2.7880
 5990SOL     OW29431   2.719   2.130   2.866 -0.0989  0.0011  0.5889
 5990SOL    HW129432   2.716   2.079   2.785 -1.7186  0.4238  0.3852
 5990SOL    HW229433   2.642   2.187   2.863 -0.4483 -0.6735 -3.2736
 5991SOL     OW29434   2.383   3.379   3.532 -0.3128  0.1167  0.6464
 5991SOL    HW129435   2.406   3.309   3.594 -1.1427 -0.5189  0.2250
 5991SOL    HW229436   2.410   3.460   3.575 -0.2011  0.3555  0.1166
 5992SOL     OW29437   1.449   1.880   5.619  0.2976  0.2861 -0.3856
 5992SOL    HW129438   1.435   1.838   5.535 -2.7050  0.6351 -0.0772
 5992SOL    HW229439   1.374   1.865   5.676  0.8314  1.6533  0.6952
 5993SOL     OW29440   0.359   4.196   9.453 -0.3172  0.1147 -0.1241
 5993SOL    HW129441   0.281   4.233   9.493  0.5518  0.2808  1.4329
 5993SOL    HW229442   0.412   4.273   9.432 -0.0269  0.1516  0.7395
 5994SOL     OW29443   2.194   1.840   2.733  0.5189  0.2706 -0.2068
 5994SOL    HW129444   2.208   1.933   2.752  0.5360  0.5669 -1.6366
 5994SOL    HW229445   2.284   1.807   2.727  0.5462  0.1647  0.8504
 5995SOL     OW29446   1.123   3.807   4.320 -0.5935 -0.0615  0.0931
 5995SOL    HW129447   1.156   3.808   4.410  0.8487  1.2575 -0.4408
 5995SOL    HW229448   1.155   3.891   4.288 -0.3293 -0.3565 -0.4207
 5996SOL     OW29449   3.919   0.628   7.877  0.6437 -0.0166 -0.3393
 5996SOL    HW129450   3.878   0.541   7.871  1.5370 -0.4087 -0.8997
 5996SOL    HW229451   3.857   0.681   7.826  1.2793 -0.9482 -2.1049
 5997SOL     OW29452   1.753   3.072   5.810 -0.8013 -0.1511 -0.2146
 5997SOL    HW129453   1.718   3.050   5.724 -0.5862 -2.6020  0.3233
 5997SOL    HW229454   1.681   3.121   5.849 -1.1032 -1.8615  1.3667
 5998SOL     OW29455   1.293   0.069  13.590 -0.0475 -0.3835  0.0373
 5998SOL    HW129456   1.236   0.143  13.573 -1.4544 -1.1687  1.3479
 5998SOL    HW229457   1.343   0.102  13.664 -0.0356 -1.4655  0.5183
 5999SOL     OW29458   1.177   0.839  16.846  0.1559 -0.1605 -0.1401
 5999SOL    HW129459   1.183   0.766  16.908 -0.2270  0.9436  1.1924
 5999SOL    HW229460   1.181   0.915  16.905 -1.0019 -1.6868  1.9417
 6000SOL     OW29461   2.109   1.989  12.385 -0.6808  0.1577  0.2798
 6000SOL    HW129462   2.116   1.993  12.480 -1.8290 -1.3690  0.4329
 6000SOL    HW229463   2.178   1.928  12.358  1.4872  1.9109  1.8971
 6001SOL     OW29464   1.396   0.855  17.139  0.1567 -0.2106  0.1130
 6001SOL    HW129465   1.403   0.767  17.176 -0.2802 -0.3633 -0.1671
 6001SOL    HW229466   1.457   0.842  17.067 -0.7079 -0.5273 -0.5704
 6002SOL     OW29467   0.407   0.807   3.115  0.3474  0.5439  0.4640
 6002SOL    HW129468   0.360   0.743   3.167  0.2443 -0.2112 -0.5462
 6002SOL    HW229469   0.437   0.868   3.182  0.3981  0.5693  0.4182
 6003SOL     OW29470   2.141   0.316  15.049 -0.0179  0.0439 -0.1818
 6003SOL    HW129471   2.073   0.365  15.095  1.5730  1.9633  0.1336
 6003SOL    HW229472   2.193   0.294  15.126 -1.3024  2.6465  1.4576
 6004SOL     OW29473   3.262   3.298   2.722  0.5890 -0.2245 -0.6711
 6004SOL    HW129474   3.301   3.324   2.806  0.5896  1.2213 -1.1198
 6004SOL    HW229475   3.179   3.261   2.752  1.1095 -1.4281 -0.6982
 6005SOL     OW29476   1.039   3.519   1.722  0.4860  1.0179 -0.3834
 6005SOL    HW129477   0.950   3.542   1.749  0.4576  1.2986 -0.7034
 6005SOL    HW229478   1.034   3.499   1.628  1.1541 -0.0693 -0.1842
 6006SOL     OW29479   3.267   1.487  12.658  0.1943  0.1760  0.0218
 6006SOL    HW129480   3.255   1.455  12.747 -0.1733  0.3192  0.0219
 6006SOL    HW229481   3.267   1.582  12.668 -0.8614 -0.0125  1.7722
 6007SOL     OW29482   4.580   3.383  16.918  0.3029  0.4188  0.3492
 6007SOL    HW129483   4.636   3.380  16.996 -2.3559 -0.3328  2.2218
 6007SOL    HW229484   4.638   3.436  16.863 -0.2316 -0.0832 -0.6815
 6008SOL     OW29485   3.597   3.389  12.038 -0.3858 -0.3665  0.1322
 6008SOL    HW129486   3.533   3.460  12.042  1.5556  1.4388 -0.7933
 6008SOL    HW229487   3.567   3.341  12.114 -0.0434 -0.1510  0.4062
 6009SOL     OW29488   1.740   3.245  11.870 -0.8929 -0.0539 -0.4479
 6009SOL    HW129489   1.780   3.257  11.956 -0.6581  1.5821 -0.7898
 6009SOL    HW229490   1.811   3.263  11.810 -1.7495  0.8572 -1.1854
 6010SOL     OW29491   1.685   0.527  14.959 -0.2449  0.4062  0.1715
 6010SOL    HW129492   1.755   0.579  14.999  0.0108  2.1359 -2.5050
 6010SOL    HW229493   1.615   0.579  14.997 -1.0342 -1.9212  1.9586
 6011SOL     OW29494   4.549   4.439   2.921 -0.5477  0.4670  0.4115
 6011SOL    HW129495   4.550   4.364   2.979 -0.8013 -0.9967 -1.4793
 6011SOL    HW229496   4.535   4.401   2.834  2.1855  1.2656 -0.3886
 6012SOL     OW29497   2.027   4.015  11.772  0.6707 -0.3370 -0.3733
 6012SOL    HW129498   2.050   4.087  11.713 -0.0677  0.3891  0.2313
 6012SOL    HW229499   1.975   3.954  11.719 -2.0213  1.7511 -0.0988
 6013SOL     OW29500   4.499   2.984   9.219 -0.3807  0.3141 -0.1623
 6013SOL    HW129501   4.517   2.893   9.241  0.3766  0.3346 -0.6862
 6013SOL    HW229502   4.407   2.987   9.245 -0.5294  0.9079 -0.7467
 6014SOL     OW29503   2.074   1.487   3.412  0.1160 -0.5457  0.2109
 6014SOL    HW129504   2.049   1.398   3.385  1.2963 -1.0301  0.7681
 6014SOL    HW229505   2.021   1.527   3.342  0.3037  0.7042  0.7804
 6015SOL     OW29506   1.035   2.177   3.937  0.2168  0.3224 -0.6434
 6015SOL    HW129507   1.079   2.092   3.936 -2.5543 -1.1164 -0.4403
 6015SOL    HW229508   1.072   2.212   4.018 -0.9036 -1.4697  0.6584
 6016SOL     OW29509   3.675   1.705   8.786 -0.2346  0.2654 -0.1092
 6016SOL    HW129510   3.606   1.642   8.764  0.8560 -1.4681  1.5339
 6016SOL    HW229511   3.744   1.650   8.822  0.3833  0.4641 -0.9841
 6017SOL     OW29512   1.930   3.889   0.871  0.0855 -0.2756  0.2123
 6017SOL    HW129513   1.979   3.816   0.909  1.1259 -0.6374 -1.7914
 6017SOL    HW229514   1.961   3.965   0.920 -1.5355 -0.8903  2.1672
 6018SOL     OW29515   0.609   0.774   1.703  0.1008 -0.5224 -0.4204
 6018SOL    HW129516   0.643   0.786   1.615  0.3480 -0.8863 -0.3728
 6018SOL    HW229517   0.516   0.757   1.686  0.0091  0.6676 -1.0601
 6019SOL     OW29518   2.381   1.807   6.702  0.5293 -0.0829  0.9828
 6019SOL    HW129519   2.456   1.860   6.729  0.0770 -0.3325  2.7554
 6019SOL    HW229520   2.314   1.811   6.771  0.7560 -0.6414  1.2400
 6020SOL     OW29521   1.938   4.520  15.526 -0.3014  0.0214 -0.7877
 6020SOL    HW129522   1.978   4.604  15.552  3.6653 -2.6955  1.8740
 6020SOL    HW229523   1.875   4.500  15.594 -0.4492  0.3823 -0.8199
 6021SOL     OW29524   3.912   4.314   2.378  0.0283  0.8787  0.3947
 6021SOL    HW129525   3.878   4.394   2.336  0.8220 -0.5028 -2.9286
 6021SOL    HW229526   3.847   4.313   2.448 -0.5875 -0.7821 -0.2124
 6022SOL     OW29527   2.176   3.411   6.797  0.0606 -0.1528 -0.1643
 6022SOL    HW129528   2.137   3.460   6.870 -0.1765 -0.3837 -0.1357
 6022SOL    HW229529   2.168   3.469   6.722 -0.4765 -0.4498 -0.3340
 6023SOL     OW29530   0.474   3.855   7.511 -0.0481  0.6426  0.2560
 6023SOL    HW129531   0.446   3.942   7.480 -0.1948  0.0899 -1.1682
 6023SOL    HW229532   0.408   3.841   7.579 -0.7795 -2.0217 -0.9871
 6024SOL     OW29533   2.763   3.486  12.997  0.3239 -0.1234  0.1682
 6024SOL    HW129534   2.855   3.508  13.010  0.0712  1.9227 -1.4506
 6024SOL    HW229535   2.779   3.433  12.919  0.6964  2.6782 -1.6584
 6025SOL     OW29536   3.945   0.077   6.003  0.0945 -0.2469  1.0458
 6025SOL    HW129537   4.038   0.053   6.003  0.0128 -0.5662  0.3492
 6025SOL    HW229538   3.949   0.172   6.015 -1.2628 -0.1203  0.5024
 6026SOL     OW29539   4.512   1.924   7.627  0.1785  0.1513  0.2256
 6026SOL    HW129540   4.442   1.860   7.643  0.6001 -0.6733 -1.1920
 6026SOL    HW229541   4.588   1.872   7.603 -1.5279 -2.6666  0.9610
 6027SOL     OW29542   0.847   0.307   3.565 -0.7569 -0.4945  0.5938
 6027SOL    HW129543   0.787   0.236   3.541 -1.9831  1.1073 -1.0923
 6027SOL    HW229544   0.930   0.276   3.527 -0.1524  1.3373  0.4141
 6028SOL     OW29545   3.046   1.329   6.308  0.5353 -0.6440 -0.1231
 6028SOL    HW129546   3.059   1.305   6.217  0.6259 -0.3171 -0.1990
 6028SOL    HW229547   2.980   1.399   6.299 -1.0031 -2.2813 -1.4407
 6029SOL     OW29548   3.337   1.423   3.913  0.2077 -0.0020 -0.1399
 6029SOL    HW129549   3.324   1.421   4.007  0.3576 -5.0263 -0.2571
 6029SOL    HW229550   3.429   1.397   3.909  0.3597  0.3044  1.4763
 6030SOL     OW29551   1.191   3.894   9.597 -0.0444 -0.6983 -0.7835
 6030SOL    HW129552   1.175   3.848   9.514  0.3339  0.2161 -1.3637
 6030SOL    HW229553   1.286   3.900   9.587  0.1326  0.3338  1.4643
 6031SOL     OW29554   2.379   0.969  16.470  0.5350 -0.2648  0.6120
 6031SOL    HW129555   2.308   0.950  16.531 -1.1459  0.9721 -0.9563
 6031SOL    HW229556   2.457   0.977  16.525  0.3405  2.1882  0.5132
 6032SOL     OW29557   1.164   3.616   6.710 -0.2768 -0.1896  0.2142
 6032SOL    HW129558   1.244   3.667   6.697 -1.0136  0.6572 -1.0210
 6032SOL    HW229559   1.092   3.678   6.726  0.8849  1.7658 -2.1507
 6033SOL     OW29560   2.870   3.524   5.086  0.5011  0.0089 -0.3555
 6033SOL    HW129561   2.819   3.605   5.082  1.0426  0.5006  2.2266
 6033SOL    HW229562   2.932   3.552   5.154  1.0419 -3.1667  0.4724
 6034SOL     OW29563   0.336   3.110   3.321 -0.2241  0.4319 -0.3054
 6034SOL    HW129564   0.251   3.065   3.314  1.3107 -2.4915 -0.2913
 6034SOL    HW229565   0.394   3.038   3.344 -2.2029 -0.9935  0.2612
 6035SOL     OW29566   2.881   0.138  12.706  0.1315 -0.1408 -0.1314
 6035SOL    HW129567   2.907   0.205  12.769  0.0747 -0.1238 -0.1257
 6035SOL    HW229568   2.803   0.171  12.662  0.0178  0.6596  0.6779
 6036SOL     OW29569   3.752   0.152   5.375 -0.0613  0.0533  0.2874
 6036SOL    HW129570   3.776   0.239   5.409  0.4714 -0.9578  2.5118
 6036SOL    HW229571   3.811   0.148   5.300 -1.6045 -0.7140 -0.8615
 6037SOL     OW29572   3.431   3.475   8.209 -0.0185  0.6336 -0.0211
 6037SOL    HW129573   3.340   3.462   8.235 -0.2440  1.4440 -0.3870
 6037SOL    HW229574   3.456   3.554   8.259 -2.1788  1.4180 -0.1626
 6038SOL     OW29575   2.815   3.506   8.387 -0.4615  0.3942 -0.6222
 6038SOL    HW129576   2.766   3.588   8.378 -0.8190 -0.0196 -2.3849
 6038SOL    HW229577   2.893   3.535   8.434 -0.2734  0.0247 -0.7114
 6039SOL     OW29578   3.902   1.577   4.143  0.4097 -0.0453  0.1608
 6039SOL    HW129579   3.956   1.582   4.065 -1.8918  2.5802 -1.2883
 6039SOL    HW229580   3.833   1.515   4.121 -0.1133  0.6879 -0.2726
 6040SOL     OW29581   1.234   2.106   5.554 -0.0002 -0.1763  0.5782
 6040SOL    HW129582   1.309   2.084   5.608 -0.0230 -3.6839 -0.8080
 6040SOL    HW229583   1.174   2.038   5.584  0.4136 -0.9911 -0.4169
 6041SOL     OW29584   1.710   0.153   5.126  0.1864  0.0975  0.5166
 6041SOL    HW129585   1.787   0.198   5.091  0.1631 -0.3842 -0.1513
 6041SOL    HW229586   1.662   0.119   5.051 -0.7665 -2.4039  2.2462
 6042SOL     OW29587   2.323   4.055   3.059  0.2429 -0.0233 -0.0132
 6042SOL    HW129588   2.400   4.044   3.114  0.5744  2.7579  0.0951
 6042SOL    HW229589   2.265   3.990   3.099  2.0155 -2.6164 -1.6469
 6043SOL     OW29590   3.111   2.770   4.413 -0.2221  0.1419 -0.0062
 6043SOL    HW129591   3.093   2.708   4.342  0.4600  0.5572 -0.5489
 6043SOL    HW229592   3.148   2.844   4.365 -2.7832  1.9668  0.8403
 6044SOL     OW29593   0.915   4.026   3.538  0.0665  0.3272 -0.3635
 6044SOL    HW129594   0.884   3.940   3.507  0.3065  0.0725  0.0995
 6044SOL    HW229595   0.836   4.079   3.545 -0.3360 -0.1979 -0.9404
 6045SOL     OW29596   0.578   1.860  11.293  0.0528 -0.1131 -0.7351
 6045SOL    HW129597   0.633   1.895  11.223  1.6119  1.5894  1.3340
 6045SOL    HW229598   0.648   1.854  11.359  0.5989  1.6221 -1.1630
 6046SOL     OW29599   4.271   0.445   4.353  0.4234 -0.1305 -0.1519
 6046SOL    HW129600   4.316   0.494   4.284  0.6980  1.6452  1.2594
 6046SOL    HW229601   4.210   0.511   4.387 -0.2790  0.1622 -1.9399
 6047SOL     OW29602   1.809   2.275  10.370 -0.3532 -0.1864  0.3546
 6047SOL    HW129603   1.810   2.193  10.419  1.5926  0.8409  1.9991
 6047SOL    HW229604   1.735   2.260  10.311  1.9614 -1.2083 -2.2918
 6048SOL     OW29605   0.908   2.713   5.655  0.2050 -0.0111 -0.0409
 6048SOL    HW129606   0.856   2.746   5.729 -1.9357  0.2116 -1.6377
 6048SOL    HW229607   0.933   2.628   5.693  0.3080 -0.5402 -1.2865
 6049SOL     OW29608   0.095   0.568  16.231  0.2501  0.0279  0.1635
 6049SOL    HW129609   0.091   0.663  16.222 -0.9577 -0.0640 -0.3389
 6049SOL    HW229610   0.117   0.531  16.145 -1.4596  4.5604 -2.2142
 6050SOL     OW29611   0.856   1.853   4.387 -0.1820 -0.2303 -0.0471
 6050SOL    HW129612   0.926   1.797   4.352 -2.9610 -3.0059 -1.1644
 6050SOL    HW229613   0.781   1.795   4.401 -0.9688  1.1250  1.3277
 6051SOL     OW29614   2.379   1.090   6.062  0.5249  0.5411  0.0102
 6051SOL    HW129615   2.287   1.066   6.051  0.9180 -0.8448 -0.2115
 6051SOL    HW229616   2.407   0.999   6.064 -0.2912  0.2247 -2.7143
 6052SOL     OW29617   1.882   1.314   3.988 -0.3041 -0.0815  0.5767
 6052SOL    HW129618   1.833   1.234   4.008 -1.8814 -0.1287 -3.3194
 6052SOL    HW229619   1.907   1.294   3.898 -2.8403  1.0561 -0.4009
 6053SOL     OW29620   4.561   1.023   6.289  0.0523  0.1536 -0.2442
 6053SOL    HW129621   4.467   1.022   6.309 -0.1383  3.6656 -0.8973
 6053SOL    HW229622   4.568   0.933   6.256 -2.9543 -0.7302  1.5962
 6054SOL     OW29623   1.089   2.180  10.940 -0.4957 -0.4616  0.3329
 6054SOL    HW129624   1.009   2.195  10.991 -0.5367 -1.1507  0.4714
 6054SOL    HW229625   1.144   2.122  10.992  0.6793  3.3440  3.3369
 6055SOL     OW29626   0.840   1.257   4.044 -0.4249 -0.2448 -0.0473
 6055SOL    HW129627   0.872   1.180   3.997  0.8994 -0.0794  0.5736
 6055SOL    HW229628   0.894   1.328   4.010 -1.5677  0.7213  0.1392
 6056SOL     OW29629   1.155   3.094  11.131  0.0326 -0.0722 -0.6776
 6056SOL    HW129630   1.240   3.085  11.174 -0.5285  0.7211  0.5809
 6056SOL    HW229631   1.116   3.150  11.198  1.0433  0.3504 -0.4342
 6057SOL     OW29632   1.241   1.235   2.998 -0.1077  0.2127  1.0182
 6057SOL    HW129633   1.309   1.260   3.061  0.9231  0.0848 -0.0573
 6057SOL    HW229634   1.282   1.273   2.921  0.7616  1.5379  2.1359
 6058SOL     OW29635   4.468   3.934   1.824  0.3288 -0.0365 -0.5988
 6058SOL    HW129636   4.378   3.948   1.794 -0.1695 -1.6514  0.1361
 6058SOL    HW229637   4.523   4.002   1.786 -0.1906  0.5060 -0.3852
 6059SOL     OW29638   2.854   2.007   5.346  0.2641 -0.2556  0.1272
 6059SOL    HW129639   2.885   2.074   5.285 -0.7523  0.3227  0.2509
 6059SOL    HW229640   2.761   2.019   5.327 -0.1469 -1.1435  1.5401
 6060SOL     OW29641   4.610   0.783   9.553  1.0561 -0.1709 -0.1355
 6060SOL    HW129642   4.624   0.691   9.529 -2.6002 -0.8912  0.5824
 6060SOL    HW229643   4.587   0.774   9.646  0.8299  0.9920 -0.0890
 6061SOL     OW29644   4.519   1.193   4.922 -0.0395 -0.4398 -0.4322
 6061SOL    HW129645   4.459   1.158   4.988  0.8181 -1.8849 -0.4121
 6061SOL    HW229646   4.581   1.120   4.924  1.5401  0.9265 -0.0729
 6062SOL     OW29647   2.734   3.390   4.506 -0.1130  0.3074  0.0399
 6062SOL    HW129648   2.723   3.323   4.438  2.5691 -0.3488  0.2609
 6062SOL    HW229649   2.683   3.459   4.464 -0.1600 -0.2639 -0.8435
 6063SOL     OW29650   3.084   2.167   9.739  0.1834 -0.1278  0.2413
 6063SOL    HW129651   2.994   2.183   9.766  0.6008  0.2898  1.3812
 6063SOL    HW229652   3.089   2.074   9.761  3.1161 -0.1651 -0.4937
 6064SOL     OW29653   2.232   0.646  14.717  0.2505  0.0897 -0.3284
 6064SOL    HW129654   2.214   0.695  14.637  0.3012 -1.7237 -1.4443
 6064SOL    HW229655   2.149   0.651  14.765 -0.3424 -4.0081 -0.9169
 6065SOL     OW29656   4.065   3.914  12.654  0.1832  0.0308 -0.2670
 6065SOL    HW129657   4.030   3.968  12.725 -1.8220 -1.1987 -0.3200
 6065SOL    HW229658   4.119   3.971  12.600  0.9078  0.2946  0.7467
 6066SOL     OW29659   1.628   4.354  15.534 -0.3297  0.0563 -0.1997
 6066SOL    HW129660   1.640   4.280  15.475 -0.8659 -1.1434  1.1848
 6066SOL    HW229661   1.692   4.330  15.601 -1.7280 -0.5033  0.9351
 6067SOL     OW29662   3.526   0.140   7.802  0.2364  0.1645  0.3538
 6067SOL    HW129663   3.568   0.125   7.718  0.0075  2.0539 -0.0980
 6067SOL    HW229664   3.434   0.147   7.776  0.5870  0.9540 -0.6595
 6068SOL     OW29665   0.982   3.023   2.666 -0.1167 -0.3687  0.0126
 6068SOL    HW129666   0.991   2.939   2.620  3.1221 -0.3670  0.6439
 6068SOL    HW229667   0.940   3.076   2.598  0.0165 -1.1443 -0.6856
 6069SOL     OW29668   0.333   2.392   8.859 -0.0684 -0.0081 -0.6127
 6069SOL    HW129669   0.379   2.475   8.857  3.1563 -1.7615  1.8136
 6069SOL    HW229670   0.391   2.344   8.799 -0.7934  1.1727 -2.2811
 6070SOL     OW29671   3.895   2.403   7.836  0.5017  0.0500 -0.2707
 6070SOL    HW129672   3.837   2.340   7.794 -0.4234  1.3129 -0.8920
 6070SOL    HW229673   3.885   2.387   7.929  1.2199  1.1614  0.0018
 6071SOL     OW29674   3.676   2.380  15.414 -0.5269 -0.7152  0.2372
 6071SOL    HW129675   3.720   2.304  15.378  0.1105 -0.4284  0.4108
 6071SOL    HW229676   3.712   2.373  15.503  0.6327 -1.0658 -0.2668
 6072SOL     OW29677   0.697   2.092   5.319 -0.3737 -0.0012  0.0471
 6072SOL    HW129678   0.762   2.038   5.365 -0.8261  1.6839  2.6648
 6072SOL    HW229679   0.750   2.166   5.288 -1.6023  0.2366 -1.4593
 6073SOL     OW29680   0.579   0.252   7.629 -0.4663  0.0048  0.1563
 6073SOL    HW129681   0.535   0.298   7.701 -0.3719  0.3572 -0.0135
 6073SOL    HW229682   0.593   0.320   7.563 -0.0891 -0.7201 -0.4998
 6074SOL     OW29683   2.706   2.053   8.030 -0.7587  0.0375  0.3746
 6074SOL    HW129684   2.760   2.101   8.092  1.8936 -1.4375 -0.8028
 6074SOL    HW229685   2.706   2.111   7.954 -0.0453  1.1399  1.2160
 6075SOL     OW29686   2.081   1.484   1.458  0.5161 -0.2242 -0.2294
 6075SOL    HW129687   2.138   1.471   1.533 -1.1650 -2.2730  0.7014
 6075SOL    HW229688   2.114   1.559   1.409 -3.4300  1.9804  0.4734
 6076SOL     OW29689   3.606   2.823   2.818 -0.6561  0.8088  0.1189
 6076SOL    HW129690   3.697   2.839   2.792 -1.2685  0.4773 -2.2617
 6076SOL    HW229691   3.616   2.768   2.896  2.5433  0.1058 -0.7918
 6077SOL     OW29692   3.306   2.552  10.328  0.2738  0.9094  0.5546
 6077SOL    HW129693   3.362   2.517  10.259  0.2629 -0.7237  1.3598
 6077SOL    HW229694   3.221   2.545  10.284  0.9290  4.6750 -1.2601
 6078SOL     OW29695   4.094   2.130   4.950 -0.4068  0.4347 -0.0069
 6078SOL    HW129696   4.053   2.163   4.871 -2.8124 -0.2737  0.9592
 6078SOL    HW229697   4.069   2.202   5.008 -1.1350  0.0607  0.1383
 6079SOL     OW29698   0.863   2.124   3.486 -0.1795  0.1550  0.2446
 6079SOL    HW129699   0.894   2.187   3.551  1.9898 -1.7644  1.0604
 6079SOL    HW229700   0.916   2.050   3.514 -0.9440 -0.7543 -0.7092
 6080SOL     OW29701   0.084   2.867   3.699 -0.2376 -0.1563  0.3735
 6080SOL    HW129702   0.089   2.944   3.755  0.9172  0.2392 -0.2763
 6080SOL    HW229703   0.116   2.794   3.752  0.8996  0.2450  0.2264
 6081SOL     OW29704   0.167   0.842   8.993 -0.3158  0.1541 -1.0101
 6081SOL    HW129705   0.155   0.909   8.926  0.8152  1.1287 -0.2364
 6081SOL    HW229706   0.262   0.841   9.001 -0.3030 -0.6731 -1.2285
 6082SOL     OW29707   1.295   3.150  14.872 -0.0207 -0.4290 -0.0338
 6082SOL    HW129708   1.207   3.115  14.861 -0.2493 -0.5670  2.2212
 6082SOL    HW229709   1.273   3.233  14.914  1.2346 -1.2239  2.1902
 6083SOL     OW29710   0.095   3.444   5.514 -0.0564 -0.2550  0.1627
 6083SOL    HW129711   0.082   3.468   5.423  3.1820  1.2588  0.1014
 6083SOL    HW229712   0.054   3.357   5.517 -0.9799  0.1787  0.1723
 6084SOL     OW29713   0.589   2.817   4.377 -0.1942  0.3751  0.1867
 6084SOL    HW129714   0.641   2.851   4.449 -0.5239  1.4575 -0.0936
 6084SOL    HW229715   0.558   2.731   4.407  0.1854  0.5969  1.2241
 6085SOL     OW29716   4.506   1.310   7.492  0.1350 -0.1765 -0.2206
 6085SOL    HW129717   4.547   1.377   7.546 -2.1742 -0.3960  1.8306
 6085SOL    HW229718   4.556   1.325   7.412 -0.8271  0.3822 -0.7230
 6086SOL     OW29719   0.877   3.613   9.256  0.1131  0.7332  0.1587
 6086SOL    HW129720   0.893   3.519   9.266 -0.1474  0.6992  0.2701
 6086SOL    HW229721   0.853   3.628   9.165  1.0092  2.1007  0.1355
 6087SOL     OW29722   2.510   2.145  13.087 -0.6913 -0.4358  0.3425
 6087SOL    HW129723   2.454   2.216  13.119 -0.8643 -0.5306  0.2571
 6087SOL    HW229724   2.551   2.113  13.167 -0.1074 -1.1329 -0.2396
 6088SOL     OW29725   1.498   0.646  13.878 -0.9164 -0.1686  0.0912
 6088SOL    HW129726   1.578   0.694  13.860 -0.9927 -0.2960 -0.5850
 6088SOL    HW229727   1.512   0.643  13.973 -0.1545 -2.7589 -0.1136
 6089SOL     OW29728   4.580   3.221   3.169  0.2849  0.2990 -0.0739
 6089SOL    HW129729   4.644   3.168   3.123  1.1682  1.0377  0.2984
 6089SOL    HW229730   4.511   3.157   3.185  1.1684 -1.5466 -3.7139
 6090SOL     OW29731   1.815   4.285   2.033  0.2593  0.0605 -0.3143
 6090SOL    HW129732   1.890   4.327   2.074 -1.0016  1.2464  0.7536
 6090SOL    HW229733   1.853   4.273   1.946  0.0186  0.4186 -0.4652
 6091SOL     OW29734   3.384   0.987  16.440  0.1808 -0.0158 -0.2760
 6091SOL    HW129735   3.463   0.944  16.407  0.2752 -0.8302  1.0134
 6091SOL    HW229736   3.346   0.908  16.478 -1.3156 -0.0791 -1.8878
 6092SOL     OW29737   2.250   2.983   4.420 -0.2265  0.0808 -0.2628
 6092SOL    HW129738   2.332   2.962   4.375  0.0663  1.4540 -0.3699
 6092SOL    HW229739   2.236   2.910   4.481 -0.5293  1.4488  1.3104
 6093SOL     OW29740   0.377   4.416  11.341  0.8049  0.4216  0.8356
 6093SOL    HW129741   0.388   4.497  11.290 -0.4613 -0.0285 -0.1511
 6093SOL    HW229742   0.344   4.450  11.424  0.6792  1.9272  0.1705
 6094SOL     OW29743   1.170   2.065   5.275 -0.0535 -0.5540 -0.0089
 6094SOL    HW129744   1.155   2.145   5.224 -0.0728 -0.4770  0.1178
 6094SOL    HW229745   1.174   2.092   5.367  0.6414  0.0995 -0.2288
 6095SOL     OW29746   3.513   4.715   4.765  0.3093 -0.4518  0.1869
 6095SOL    HW129747   3.600   4.703   4.728 -0.8836 -1.6354 -2.2446
 6095SOL    HW229748   3.523   0.078   4.807  0.1846 -0.3461  0.0080
 6096SOL     OW29749   4.491   2.454   7.997 -0.0732 -0.0319  0.1154
 6096SOL    HW129750   4.473   2.374   7.948  1.3057  0.1618 -0.6736
 6096SOL    HW229751   4.483   2.408   8.081 -0.6995 -2.0063 -1.0317
 6097SOL     OW29752   3.549   4.370   1.237  0.3362  0.3864 -0.0431
 6097SOL    HW129753   3.467   4.348   1.193 -0.8153  1.2962  1.6504
 6097SOL    HW229754   3.517   4.373   1.327  0.2102 -0.3715 -0.0686
 6098SOL     OW29755   4.387   0.492   6.652  0.2204  0.6046  0.6089
 6098SOL    HW129756   4.327   0.469   6.581  0.2937  1.2378  0.3377
 6098SOL    HW229757   4.383   0.588   6.656  4.0169  0.7911  0.0886
 6099SOL     OW29758   1.968   4.260   1.804 -0.6536 -0.8773  0.0650
 6099SOL    HW129759   2.015   4.192   1.755 -0.4363 -0.4991 -0.2504
 6099SOL    HW229760   1.922   4.288   1.725 -0.6506 -1.5053 -0.1569
 6100SOL     OW29761   2.315   3.876   4.909  0.6548 -0.0710  0.0139
 6100SOL    HW129762   2.249   3.945   4.910  0.6722 -0.0812  1.4881
 6100SOL    HW229763   2.392   3.932   4.899  0.4556  0.5984  2.4019
 6101SOL     OW29764   1.561   4.387   0.987  0.2839 -0.4308  0.3193
 6101SOL    HW129765   1.642   4.343   0.965  1.6133  1.0519  2.2732
 6101SOL    HW229766   1.506   4.313   0.962 -1.1757  1.3381 -1.7650
 6102SOL     OW29767   0.759   0.966   4.652  0.0889 -0.3574  0.0116
 6102SOL    HW129768   0.800   0.880   4.643 -0.9810 -1.0054  1.4850
 6102SOL    HW229769   0.829   1.031   4.647  0.4795 -0.7980 -0.2841
 6103SOL     OW29770   0.850   3.242   7.437  0.3014  0.5849  0.4020
 6103SOL    HW129771   0.768   3.193   7.444 -0.9511  2.4923 -0.9190
 6103SOL    HW229772   0.879   3.208   7.352 -0.5624  0.8723 -0.0035
 6104SOL     OW29773   4.675   0.153   5.734 -0.0325 -0.5718 -0.2787
 6104SOL    HW129774   4.696   0.064   5.705 -1.5262 -0.7027 -0.9454
 6104SOL    HW229775   0.030   0.186   5.688  1.6008 -2.0387  1.3854
 6105SOL     OW29776   1.723   3.749  14.501 -0.2769 -0.0221  0.1730
 6105SOL    HW129777   1.654   3.706  14.551 -0.7618  0.1638 -0.3423
 6105SOL    HW229778   1.781   3.675  14.486 -0.6572 -0.1013 -0.8806
 6106SOL     OW29779   3.300   1.683   9.646 -0.7522  0.3724  0.7468
 6106SOL    HW129780   3.333   1.686   9.556  2.4615  0.2195  1.9374
 6106SOL    HW229781   3.325   1.595   9.672  0.4499  0.2992 -0.6300
 6107SOL     OW29782   3.484   4.561   8.871  0.2108  1.0586  0.2476
 6107SOL    HW129783   3.494   4.656   8.876 -1.5947  1.2499  0.2691
 6107SOL    HW229784   3.434   4.556   8.789  1.0036  1.3215 -0.2549
 6108SOL     OW29785   2.505   1.441   1.577 -0.2549 -0.7860  0.0962
 6108SOL    HW129786   2.585   1.481   1.542 -0.1797 -0.0391  1.1182
 6108SOL    HW229787   2.442   1.514   1.583 -1.2288 -1.4519 -2.0493
 6109SOL     OW29788   2.758   3.529  15.837  0.2015 -0.8635 -0.1134
 6109SOL    HW129789   2.808   3.464  15.788  0.5205 -0.0480 -0.8550
 6109SOL    HW229790   2.693   3.551  15.771  0.9672  0.3013 -0.4629
 6110SOL     OW29791   2.904   1.809   8.728 -0.2022  0.3644 -0.4814
 6110SOL    HW129792   2.893   1.778   8.638 -1.7821 -1.5254  0.3699
 6110SOL    HW229793   2.846   1.756   8.781 -0.8512  3.5872  2.0265
 6111SOL     OW29794   0.425   2.812  13.325 -0.3597  0.5781  0.0890
 6111SOL    HW129795   0.496   2.757  13.358  1.9582  2.1116 -2.3915
 6111SOL    HW229796   0.380   2.754  13.263  1.6181 -1.8497  0.9223
 6112SOL     OW29797   3.627   1.389  15.569 -0.6232 -0.3887  0.6652
 6112SOL    HW129798   3.601   1.475  15.603  1.3955  1.3113 -2.1222
 6112SOL    HW229799   3.710   1.413  15.530 -0.5963 -0.6664  0.5517
 6113SOL     OW29800   4.132   2.627   5.700  0.1662  0.1979 -0.0269
 6113SOL    HW129801   4.077   2.685   5.647 -1.4331 -0.7204  0.6418
 6113SOL    HW229802   4.186   2.587   5.631  0.0956 -2.0276  1.2247
 6114SOL     OW29803   0.803   3.962   1.571 -0.6785  0.3343  0.6803
 6114SOL    HW129804   0.765   4.049   1.556  1.8911  1.1950 -0.8014
 6114SOL    HW229805   0.873   3.952   1.506 -0.8489 -0.7681  0.6699
 6115SOL     OW29806   1.359   2.720   8.013 -0.0767 -0.1481  0.4437
 6115SOL    HW129807   1.403   2.690   8.092  0.4383  0.1162  0.2536
 6115SOL    HW229808   1.284   2.760   8.056  1.0678  1.2143  1.1410
 6116SOL     OW29809   0.688   3.194   2.685  0.4652 -1.0952  0.1524
 6116SOL    HW129810   0.759   3.242   2.642  1.5712 -1.7169  1.3015
 6116SOL    HW229811   0.701   3.112   2.638  1.8924 -1.1369  0.6236
 6117SOL     OW29812   3.518   1.609   2.173  0.0140 -0.1159  0.2819
 6117SOL    HW129813   3.497   1.697   2.141 -1.1409 -1.3161 -2.2469
 6117SOL    HW229814   3.613   1.613   2.186  0.0605 -0.3264  0.0095
 6118SOL     OW29815   3.727   0.602   3.160 -0.2627  0.0418 -0.6110
 6118SOL    HW129816   3.785   0.656   3.105 -0.7744  0.3154 -0.8780
 6118SOL    HW229817   3.695   0.535   3.100 -4.8935  1.6801  0.0193
 6119SOL     OW29818   1.897   1.151   5.593 -0.1124 -0.2416 -0.3876
 6119SOL    HW129819   1.950   1.086   5.639 -0.0065  0.1745  0.0801
 6119SOL    HW229820   1.814   1.104   5.587 -0.0109 -0.3035 -1.3495
 6120SOL     OW29821   0.962   1.519  10.970 -0.5806  0.3919  0.0633
 6120SOL    HW129822   0.901   1.592  10.977 -1.6485 -0.5080  0.0149
 6120SOL    HW229823   0.935   1.464  10.897  2.0697 -0.7059 -0.0934
 6121SOL     OW29824   1.389   3.135   2.314 -0.0399 -0.3136 -0.0572
 6121SOL    HW129825   1.322   3.166   2.253  0.4602 -0.1427 -0.5127
 6121SOL    HW229826   1.440   3.216   2.308 -1.8613  0.7846 -1.0579
 6122SOL     OW29827   1.056   3.502   3.635  1.0152  0.1514 -0.3821
 6122SOL    HW129828   0.999   3.563   3.683  2.6043  1.9988 -0.8170
 6122SOL    HW229829   1.133   3.557   3.649  0.6644  0.8542 -1.1715
 6123SOL     OW29830   2.802   4.236   7.796  1.2350  0.4984 -0.0268
 6123SOL    HW129831   2.879   4.270   7.843  2.1475  0.8558 -1.7689
 6123SOL    HW229832   2.792   4.300   7.725 -0.1338 -1.4002 -1.5522
 6124SOL     OW29833   1.548   3.420   3.547  0.4014  0.1615  0.4186
 6124SOL    HW129834   1.609   3.365   3.498 -1.2804 -0.0473 -1.4200
 6124SOL    HW229835   1.470   3.420   3.492  1.4627  0.0345 -1.0902
 6125SOL     OW29836   4.529   3.584  14.665 -0.1180 -0.2868 -0.0162
 6125SOL    HW129837   4.493   3.497  14.682  1.4498 -1.2690 -1.7098
 6125SOL    HW229838   4.461   3.609  14.602 -0.7662 -0.3365  0.6600
 6126SOL     OW29839   3.794   0.325   2.767  0.4768  0.4136 -0.3434
 6126SOL    HW129840   3.826   0.235   2.778  1.1050  0.6605 -0.1530
 6126SOL    HW229841   3.785   0.336   2.673  0.6085  0.8342 -0.3068
 6127SOL     OW29842   1.135   4.539   7.301 -0.4561 -0.3355  0.1321
 6127SOL    HW129843   1.099   4.578   7.221 -0.0760  2.7636  1.4397
 6127SOL    HW229844   1.214   4.591   7.315 -1.8566  1.3883  1.8473
 6128SOL     OW29845   0.704   3.514   2.309 -0.3712 -0.1346 -0.7041
 6128SOL    HW129846   0.789   3.548   2.337 -0.9157  0.0434  0.7731
 6128SOL    HW229847   0.726   3.426   2.279  0.7745 -0.5916  1.4654
 6129SOL     OW29848   2.944   1.782   5.488 -0.5803 -0.2151  0.0746
 6129SOL    HW129849   2.864   1.764   5.537 -0.7747 -0.3278 -0.2866
 6129SOL    HW229850   2.917   1.858   5.436  0.1902 -0.0482 -0.0907
 6130SOL     OW29851   0.280   0.097   7.742  0.3491  0.6357  0.1173
 6130SOL    HW129852   0.292   0.090   7.837 -2.0246  2.2667  0.5444
 6130SOL    HW229853   0.322   0.180   7.718 -0.8269  1.7385  1.7890
 6131SOL     OW29854   3.178   3.663  16.357  0.2622  0.0178 -0.1218
 6131SOL    HW129855   3.248   3.684  16.419  0.6694 -1.2557 -0.1489
 6131SOL    HW229856   3.130   3.744  16.341 -0.1952 -0.5082 -1.4421
 6132SOL     OW29857   1.090   3.631  10.990 -0.3150  0.3844 -0.2560
 6132SOL    HW129858   1.136   3.714  10.975  0.1515  0.3460  0.9586
 6132SOL    HW229859   0.997   3.652  10.978 -0.2813 -0.1452 -1.4571
 6133SOL     OW29860   2.957   0.976  15.962  0.6416 -0.5524 -0.0254
 6133SOL    HW129861   2.938   0.949  15.873 -1.4215 -1.2563  0.6301
 6133SOL    HW229862   3.052   0.967  15.952  0.7948  1.9195 -0.7681
 6134SOL     OW29863   1.520   3.662   1.574  0.1319 -0.3276  0.5026
 6134SOL    HW129864   1.493   3.749   1.546 -2.0855 -1.4734 -0.8829
 6134SOL    HW229865   1.531   3.678   1.668 -1.7362  1.0637  0.4904
 6135SOL     OW29866   0.470   3.099   4.226  0.2371  0.2341  0.1465
 6135SOL    HW129867   0.501   3.160   4.159  0.3735  1.4589  1.3355
 6135SOL    HW229868   0.413   3.156   4.278  1.3566  1.5292 -0.0584
 6136SOL     OW29869   0.476   4.012   1.346  0.2882 -0.0728  0.3776
 6136SOL    HW129870   0.426   4.060   1.411  1.0350  1.9527 -0.5452
 6136SOL    HW229871   0.538   4.081   1.321 -2.4683  1.9043 -0.8948
 6137SOL     OW29872   2.126   4.473  17.138  0.2527  0.1426 -0.1873
 6137SOL    HW129873   2.045   4.498  17.092 -1.5788 -0.8429  2.4905
 6137SOL    HW229874   2.183   4.550  17.140  0.0457  0.2168  2.7193
 6138SOL     OW29875   0.745   1.149  13.962 -0.3318 -0.3909 -0.7944
 6138SOL    HW129876   0.730   1.055  13.965 -1.0500 -0.2849 -1.1156
 6138SOL    HW229877   0.668   1.175  14.013  0.1486  0.7483 -0.6489
 6139SOL     OW29878   1.331   3.213  10.896  0.3645  0.1313 -0.2328
 6139SOL    HW129879   1.330   3.130  10.943 -0.8973 -0.2749 -0.9813
 6139SOL    HW229880   1.261   3.259  10.942  0.5296  2.5004 -2.3034
 6140SOL     OW29881   4.148   1.430   0.231 -0.4052  0.7012  0.3599
 6140SOL    HW129882   4.219   1.485   0.263  1.6986 -1.3798 -0.7415
 6140SOL    HW229883   4.072   1.462   0.280 -1.6799  1.0480 -1.8426
 6141SOL     OW29884   0.254   2.387   8.249 -0.5309  0.0162  0.1505
 6141SOL    HW129885   0.341   2.350   8.256  0.8123  2.9014 -0.9809
 6141SOL    HW229886   0.285   2.476   8.266 -1.0735  0.0303  1.0658
 6142SOL     OW29887   1.432   4.629   9.929  0.1317 -0.2064 -0.1237
 6142SOL    HW129888   1.429   4.569  10.003 -1.0995  0.8007  0.6374
 6142SOL    HW229889   1.341   4.659   9.931 -0.2444 -1.2397 -1.9608
 6143SOL     OW29890   1.327   2.791   0.447  0.5196  0.1371  0.1474
 6143SOL    HW129891   1.392   2.741   0.397 -0.8312 -0.3849 -1.0841
 6143SOL    HW229892   1.387   2.842   0.501 -0.6009  2.3566 -0.7179
 6144SOL     OW29893   1.507   3.963   8.967  0.7081  0.2871 -0.7770
 6144SOL    HW129894   1.483   3.890   8.909 -1.5927  0.3042  0.1794
 6144SOL    HW229895   1.501   3.925   9.054 -0.5581  1.4181 -0.3872
 6145SOL     OW29896   4.260   2.107   7.663  0.4465  0.1388 -0.2294
 6145SOL    HW129897   4.255   2.200   7.644  0.4702  0.2049  0.0871
 6145SOL    HW229898   4.352   2.088   7.680 -0.2962 -3.3430 -0.0557
 6146SOL     OW29899   3.810   3.369   5.124 -0.0502 -0.6783  0.1190
 6146SOL    HW129900   3.847   3.449   5.088 -2.2470  0.7799  1.1321
 6146SOL    HW229901   3.867   3.302   5.086  2.9281  0.9682  1.6799
 6147SOL     OW29902   1.422   1.639  17.514 -0.3246 -0.2306 -0.9539
 6147SOL    HW129903   1.404   1.712  17.455  2.0008 -0.1819 -1.5706
 6147SOL    HW229904   1.516   1.647  17.525  0.0414 -2.9765 -2.2334
 6148SOL     OW29905   0.980   2.625   4.451 -0.0058  0.0631 -0.2325
 6148SOL    HW129906   0.966   2.537   4.484  1.1499  0.0618  0.2687
 6148SOL    HW229907   0.982   2.690   4.521  3.2350  1.1081 -1.2541
 6149SOL     OW29908   1.096   0.403   1.206  0.3279  0.2604 -0.2705
 6149SOL    HW129909   1.159   0.461   1.249  0.7301 -0.1735 -0.2856
 6149SOL    HW229910   1.114   0.435   1.117  0.8265 -1.0822 -0.6441
 6150SOL     OW29911   1.942   1.585   3.945 -0.1458 -0.2797 -0.3540
 6150SOL    HW129912   1.998   1.541   3.882 -0.4837 -1.3969  0.1341
 6150SOL    HW229913   1.922   1.513   4.005 -0.2876 -1.1281 -1.4248
 6151SOL     OW29914   2.012   3.674   7.706  0.2899  0.4109 -0.0371
 6151SOL    HW129915   1.974   3.619   7.638  0.9524  1.3471 -1.1715
 6151SOL    HW229916   2.040   3.606   7.769  0.5560  1.0009  0.4802
 6152SOL     OW29917   2.625   0.498   6.617  0.3448  0.0318  0.0003
 6152SOL    HW129918   2.677   0.422   6.643  0.5107  0.0924 -0.1527
 6152SOL    HW229919   2.575   0.517   6.696 -0.9481  0.3731 -0.8921
 6153SOL     OW29920   4.602   0.166   4.836  0.1302  0.1349 -0.2151
 6153SOL    HW129921   4.685   0.117   4.845  0.1751  0.0130 -1.2774
 6153SOL    HW229922   4.590   0.130   4.748  0.1098 -0.6035  0.0859
 6154SOL     OW29923   2.490   4.053  10.497  0.6197  0.2109 -0.5957
 6154SOL    HW129924   2.505   4.068  10.590 -1.3134  0.4220 -0.3167
 6154SOL    HW229925   2.564   4.099  10.457 -0.3370  2.8253  0.6411
 6155SOL     OW29926   1.426   2.820   4.977 -0.1002 -0.1925 -0.1928
 6155SOL    HW129927   1.433   2.798   5.070 -0.4612 -0.6290 -0.2687
 6155SOL    HW229928   1.482   2.897   4.965 -0.2616 -0.3230 -1.7560
 6156SOL     OW29929   3.666   0.818  17.511  0.7630  1.2898  0.5221
 6156SOL    HW129930   3.704   0.792  17.595  1.9961  1.0456 -0.1157
 6156SOL    HW229931   3.678   0.736  17.463 -2.0381  0.9931  0.3406
 6157SOL     OW29932   3.919   0.681   8.437 -0.3237  0.3807 -0.2232
 6157SOL    HW129933   3.942   0.769   8.407  3.5796 -0.0188  1.6651
 6157SOL    HW229934   3.975   0.623   8.386  0.0606 -0.6235  1.3563
 6158SOL     OW29935   4.357   1.411   3.435  0.3677 -0.1044 -0.0105
 6158SOL    HW129936   4.413   1.334   3.441  1.1602  0.5030  0.3730
 6158SOL    HW229937   4.421   1.463   3.388  0.9548  0.2902  1.2303
 6159SOL     OW29938   1.076   4.556  13.989 -0.3073  0.2747  0.5373
 6159SOL    HW129939   1.115   4.504  14.058 -0.2390 -0.5675 -0.1343
 6159SOL    HW229940   0.985   4.527  13.987  0.1581 -0.9963 -3.8982
 6160SOL     OW29941   1.355   0.279   7.623  0.1379  0.1982  0.1249
 6160SOL    HW129942   1.289   0.238   7.567 -1.5432  0.3704  1.9452
 6160SOL    HW229943   1.298   0.271   7.700  0.8641  1.6104  0.8024
 6161SOL     OW29944   1.285   0.166   6.729 -0.4309  0.5582 -0.1989
 6161SOL    HW129945   1.301   0.105   6.657  0.2664  1.5829 -0.8940
 6161SOL    HW229946   1.250   0.105   6.794  0.3254 -1.4817 -1.7058
 6162SOL     OW29947   3.323   2.690  13.211  0.5654 -0.0753  0.1753
 6162SOL    HW129948   3.386   2.677  13.283 -1.9401 -1.0369  2.2261
 6162SOL    HW229949   3.371   2.643  13.143  0.6968 -3.0474  2.3020
 6163SOL     OW29950   1.972   2.177   3.238 -0.4502  0.4591  0.1781
 6163SOL    HW129951   1.990   2.249   3.177  0.9759  0.1576  0.2433
 6163SOL    HW229952   2.002   2.205   3.325  0.2550  2.4098 -0.6968
 6164SOL     OW29953   3.187   1.798  13.115  0.2041 -0.2299  0.0458
 6164SOL    HW129954   3.205   1.769  13.205  0.0093 -1.5069 -0.3340
 6164SOL    HW229955   3.092   1.802  13.127  0.1914 -3.2646  0.8982
 6165SOL     OW29956   1.732   0.896   1.401 -0.2305 -0.1410  0.6200
 6165SOL    HW129957   1.792   0.922   1.331  0.5473  1.0139  1.6978
 6165SOL    HW229958   1.698   0.983   1.421  0.2727 -0.4740  2.9684
 6166SOL     OW29959   1.584   3.286   9.705 -1.0796 -0.5828 -0.4663
 6166SOL    HW129960   1.672   3.323   9.714 -2.0145  1.0050  2.1758
 6166SOL    HW229961   1.555   3.330   9.625 -1.8979 -2.2259 -1.0737
 6167SOL     OW29962   3.559   4.087   1.423 -0.2146 -0.0870 -0.3538
 6167SOL    HW129963   3.547   4.179   1.448  0.0082  0.3977 -2.0135
 6167SOL    HW229964   3.577   4.062   1.514  0.1752 -0.1230 -0.4413
 6168SOL     OW29965   3.446   3.260  17.193 -0.0556  0.2718 -0.1981
 6168SOL    HW129966   3.473   3.204  17.121  1.4241  1.2073 -0.3572
 6168SOL    HW229967   3.460   3.204  17.270 -1.4680 -0.3834 -0.4169
 6169SOL     OW29968   3.518   4.112  11.291  0.9498  0.2419 -0.2666
 6169SOL    HW129969   3.583   4.046  11.268  1.4824  0.8700 -0.5742
 6169SOL    HW229970   3.569   4.193  11.286 -0.3149  1.1529  1.8333
 6170SOL     OW29971   3.536   3.358  10.450  0.0235 -0.0783  0.0945
 6170SOL    HW129972   3.579   3.434  10.410  1.8753 -1.0002  0.2948
 6170SOL    HW229973   3.610   3.298  10.459  0.5368  0.6573  0.8019
 6171SOL     OW29974   4.089   3.314  10.020 -0.2934  0.7300  0.9476
 6171SOL    HW129975   4.021   3.253   9.991  2.1730 -1.5642 -0.0895
 6171SOL    HW229976   4.116   3.280  10.105 -0.4167  0.9210  1.0625
 6172SOL     OW29977   0.159   4.155   6.790  0.0482  0.1594  0.1656
 6172SOL    HW129978   0.099   4.176   6.861 -1.7182 -2.4321 -0.5581
 6172SOL    HW229979   0.173   4.061   6.801  1.6949  0.5692  1.5093
 6173SOL     OW29980   2.564   3.618   4.410 -0.0354 -0.0863 -0.7955
 6173SOL    HW129981   2.504   3.691   4.394  0.4525  1.0131  2.3984
 6173SOL    HW229982   2.633   3.636   4.345 -0.8367  1.6774 -1.1615
 6174SOL     OW29983   0.893   0.476   9.628 -0.0464  0.5101 -0.1454
 6174SOL    HW129984   0.986   0.458   9.641 -0.5063 -0.0685  2.3022
 6174SOL    HW229985   0.896   0.570   9.611  0.7844  0.3567 -0.8762
 6175SOL     OW29986   0.762   2.662   2.579  0.3992  0.3473  0.2240
 6175SOL    HW129987   0.789   2.657   2.671 -0.6232 -2.1297  0.3956
 6175SOL    HW229988   0.842   2.704   2.547 -0.9191  1.7769 -1.1977
 6176SOL     OW29989   3.120   1.072  17.619 -0.0581 -0.1519  0.4470
 6176SOL    HW129990   3.103   0.996  17.564 -0.7547  0.9402 -0.8288
 6176SOL    HW229991   3.106   1.152  17.569 -0.3018 -2.3308 -2.9296
 6177SOL     OW29992   1.072   1.249  14.872 -0.5132  0.2307 -0.0672
 6177SOL    HW129993   1.122   1.171  14.897 -0.3460  0.1923 -0.5207
 6177SOL    HW229994   1.116   1.285  14.795  1.1606 -1.8200 -0.0693
 6178SOL     OW29995   2.911   0.754  12.629  0.2986  0.1572 -0.2661
 6178SOL    HW129996   2.954   0.822  12.681 -1.8480 -0.7226  2.6989
 6178SOL    HW229997   2.823   0.771  12.664  0.7247 -1.3210  1.5325
 6179SOL     OW29998   0.682   3.443   8.023 -0.2321  0.0098  0.1248
 6179SOL    HW129999   0.762   3.435   8.075  1.4378 -0.0107 -2.4652
 6179SOL    HW230000   0.723   3.492   7.952  1.6911  2.8164  3.1403
 6180SOL     OW30001   1.914   3.858   9.289  0.0508  0.5028  0.5613
 6180SOL    HW130002   1.877   3.843   9.202 -0.3196 -0.4341  0.8794
 6180SOL    HW230003   2.004   3.862   9.255  0.1871 -1.0647  0.7380
 6181SOL     OW30004   4.200   2.137   3.418  0.2425 -0.7970 -0.4788
 6181SOL    HW130005   4.121   2.178   3.382  2.7819  1.2589 -3.7789
 6181SOL    HW230006   4.228   2.096   3.336  1.0583  0.3313 -0.7547
 6182SOL     OW30007   4.016   0.405   8.092  0.3455  0.0734 -0.1289
 6182SOL    HW130008   3.921   0.400   8.083  0.3160  0.4928 -0.0548
 6182SOL    HW230009   4.058   0.355   8.021 -0.4473 -2.9129  1.5198
 6183SOL     OW30010   2.857   4.375   5.750  0.1000  0.0014  0.3053
 6183SOL    HW130011   2.765   4.379   5.778 -0.2934  0.8130 -1.0964
 6183SOL    HW230012   2.851   4.346   5.659  2.1055 -0.2645  0.2613
 6184SOL     OW30013   0.025   0.083   7.516  0.2146  0.1024 -0.5116
 6184SOL    HW130014   0.073   0.005   7.544 -2.4944 -1.3657  0.0132
 6184SOL    HW230015   0.024   0.076   7.420  0.3463  1.9381 -0.6327
 6185SOL     OW30016   0.143   0.391   3.555 -0.3917 -0.0136  0.1535
 6185SOL    HW130017   0.087   0.468   3.547  0.3923  0.4929 -0.4557
 6185SOL    HW230018   0.196   0.420   3.630 -1.5650 -0.8217  1.2956
 6186SOL     OW30019   0.716   3.350   0.823  0.3349  0.0204 -0.0527
 6186SOL    HW130020   0.698   3.431   0.872  3.9510  1.0138 -0.4179
 6186SOL    HW230021   0.627   3.315   0.831  0.5540  0.1116  3.0181
 6187SOL     OW30022   0.364   0.213   9.364 -0.1110 -0.2916  0.1213
 6187SOL    HW130023   0.284   0.209   9.310 -0.6138  2.6871  0.6137
 6187SOL    HW230024   0.332   0.258   9.442  0.3345 -1.8455  1.1956
 6188SOL     OW30025   1.588   2.018   2.413  0.1772  0.0856 -0.3450
 6188SOL    HW130026   1.618   2.073   2.485  1.6285 -0.8952 -0.1896
 6188SOL    HW230027   1.580   2.088   2.348 -2.1972  0.1064 -0.0287
 6189SOL     OW30028   1.316   0.967   7.102 -0.0959 -0.3091 -0.5751
 6189SOL    HW130029   1.340   0.922   7.183 -2.7992 -1.6119 -0.5253
 6189SOL    HW230030   1.385   0.941   7.041 -0.1013  1.2215 -1.2388
 6190SOL     OW30031   0.174   2.582   1.807  0.1125 -0.6137 -0.0418
 6190SOL    HW130032   0.221   2.656   1.846  1.0543 -0.3786 -1.6485
 6190SOL    HW230033   0.137   2.528   1.877 -2.2244  2.7903  1.3329
 6191SOL     OW30034   0.140   4.343   9.526  0.5192  0.1523 -0.6173
 6191SOL    HW130035   0.123   4.435   9.541 -0.6800 -0.3051  0.8136
 6191SOL    HW230036   0.089   4.292   9.589 -1.2328  0.8013 -1.5134
 6192SOL     OW30037   4.234   1.123   7.860  0.5881 -0.6415  0.3324
 6192SOL    HW130038   4.221   1.078   7.777  2.1498  0.8057 -0.6815
 6192SOL    HW230039   4.296   1.192   7.835  0.1793 -0.9422 -1.5052
 6193SOL     OW30040   1.519   0.315   8.597 -0.1547 -0.1280 -0.8036
 6193SOL    HW130041   1.535   0.222   8.577 -1.5288 -0.3000 -1.1491
 6193SOL    HW230042   1.431   0.332   8.563 -0.6557 -0.1543  0.4998
 6194SOL     OW30043   2.062   2.340   3.752  0.0632  0.2988  0.3383
 6194SOL    HW130044   2.136   2.321   3.808  1.7721 -0.3217 -2.1422
 6194SOL    HW230045   2.023   2.253   3.764  1.6006 -0.4871 -0.4256
 6195SOL     OW30046   0.892   2.892  15.495 -0.5412  0.7856  0.0473
 6195SOL    HW130047   0.836   2.952  15.445  0.2342  2.2215  0.9023
 6195SOL    HW230048   0.833   2.817  15.506 -1.2033  1.6264  2.2809
 6196SOL     OW30049   3.133   2.780  15.241 -0.1633  0.4235  0.4620
 6196SOL    HW130050   3.078   2.789  15.163  1.7982  0.5443 -0.9025
 6196SOL    HW230051   3.180   2.863  15.229 -0.2671  0.3022 -0.8035
 6197SOL     OW30052   1.396   1.441  11.450  0.2915 -0.7494  1.0066
 6197SOL    HW130053   1.397   1.380  11.523 -0.5582 -1.3025  0.5608
 6197SOL    HW230054   1.370   1.524  11.489 -0.4279 -0.1579 -0.7538
 6198SOL     OW30055   4.496   2.998   3.338 -0.1247  0.1465  0.3320
 6198SOL    HW130056   4.458   2.911   3.329  1.1376 -0.5850  1.9366
 6198SOL    HW230057   4.586   2.969   3.354  0.2530  0.9915 -0.2637
 6199SOL     OW30058   3.839   3.265   9.043  0.6041  0.9419 -0.4774
 6199SOL    HW130059   3.769   3.200   9.044  0.5172  1.0343 -0.5042
 6199SOL    HW230060   3.860   3.258   8.950  0.1141 -1.1937 -0.4186
 6200SOL     OW30061   4.586   4.571   5.987  0.4753 -0.3249  0.2867
 6200SOL    HW130062   4.565   4.485   6.024  0.6105 -0.8792 -0.9103
 6200SOL    HW230063   4.550   4.555   5.899  0.0116 -1.0448  0.6048
 6201SOL     OW30064   4.671   2.177   7.397  0.3135  0.0233 -0.4195
 6201SOL    HW130065   4.704   2.267   7.385 -2.5211  1.1300  0.2388
 6201SOL    HW230066   0.002   2.142   7.468 -0.4962  0.8778  0.6044
 6202SOL     OW30067   1.137   3.881   2.681 -0.2153  0.5491 -0.0232
 6202SOL    HW130068   1.221   3.902   2.639 -0.4792 -1.2274 -1.4834
 6202SOL    HW230069   1.121   3.948   2.747 -1.3316 -0.2060  0.4750
 6203SOL     OW30070   1.604   0.215   5.772  0.3036  0.2631  0.8437
 6203SOL    HW130071   1.644   0.131   5.749  0.6499  0.7149 -0.1976
 6203SOL    HW230072   1.535   0.220   5.705 -0.8892 -0.0145  2.0497
 6204SOL     OW30073   2.307   0.717  13.686  0.1528 -0.7046  0.1478
 6204SOL    HW130074   2.356   0.701  13.767 -0.1732 -0.1098  0.4602
 6204SOL    HW230075   2.235   0.775  13.709  0.2373 -0.5589  0.0416
 6205SOL     OW30076   0.070   2.535  10.662 -0.2016 -0.3652 -0.2178
 6205SOL    HW130077   0.021   2.513  10.583 -0.6676 -1.3969  0.3593
 6205SOL    HW230078   0.160   2.510  10.646  0.4604  1.8315  0.0440
 6206SOL     OW30079   2.587   1.328  10.042  0.3696  0.0052  0.1858
 6206SOL    HW130080   2.624   1.279   9.969 -0.7775  1.7469 -1.5892
 6206SOL    HW230081   2.621   1.414  10.017  2.7736 -0.7633  0.8617
 6207SOL     OW30082   2.238   0.455   6.877 -0.1021  0.1635 -0.1531
 6207SOL    HW130083   2.207   0.460   6.967 -0.2723  0.8674 -0.2467
 6207SOL    HW230084   2.177   0.519   6.839 -0.6742 -0.5122 -0.3679
 6208SOL     OW30085   1.287   3.175   7.018  0.1309  0.3954  0.1252
 6208SOL    HW130086   1.339   3.140   6.945 -1.2203  0.5341 -0.9104
 6208SOL    HW230087   1.251   3.256   6.982 -0.3133  0.9199  1.7827
 6209SOL     OW30088   2.010   1.225   8.662  0.8302 -0.2137  0.0149
 6209SOL    HW130089   2.094   1.181   8.673  0.7693 -0.2639  0.2740
 6209SOL    HW230090   1.990   1.248   8.753  3.3193 -1.3559  0.8659
 6210SOL     OW30091   3.151   1.179   2.618 -0.0831  0.5020  0.8017
 6210SOL    HW130092   3.096   1.221   2.553  0.1430 -1.6773 -0.7590
 6210SOL    HW230093   3.143   1.084   2.609 -1.1291  0.8146 -1.3179
 6211SOL     OW30094   4.202   3.521   2.178 -0.2652 -0.5430  0.7162
 6211SOL    HW130095   4.273   3.502   2.239 -0.4368 -0.2118  1.0210
 6211SOL    HW230096   4.237   3.597   2.131 -0.9699 -0.2694  0.6260
 6212SOL     OW30097   3.505   3.919   6.279 -0.4303  0.2482  0.0428
 6212SOL    HW130098   3.581   3.875   6.242 -0.5174  0.4813 -0.4034
 6212SOL    HW230099   3.493   3.872   6.362 -0.7801  0.3773  0.0647
 6213SOL     OW30100   1.980   3.959   1.759  0.2478 -0.3077  0.2126
 6213SOL    HW130101   1.917   3.946   1.688 -0.1612 -1.8011  0.8519
 6213SOL    HW230102   1.974   3.882   1.816 -1.6472  0.3162  0.8736
 6214SOL     OW30103   4.339   3.432   7.837 -0.1859 -0.2433 -0.3680
 6214SOL    HW130104   4.418   3.410   7.886 -0.5993  0.5103  0.6506
 6214SOL    HW230105   4.277   3.415   7.908 -0.0403 -0.2378 -0.2407
 6215SOL     OW30106   0.502   0.108   1.755  0.3836 -0.0406 -0.0903
 6215SOL    HW130107   0.570   0.120   1.688  1.7283  0.5585  1.3915
 6215SOL    HW230108   0.419   0.119   1.708 -1.3057 -0.8278  2.7108
 6216SOL     OW30109   1.307   2.859   0.955 -0.0084  0.3418 -0.5171
 6216SOL    HW130110   1.370   2.928   0.978 -0.5564  0.0586  1.8061
 6216SOL    HW230111   1.295   2.834   1.046  2.0034 -0.9279 -0.5812
 6217SOL     OW30112   3.302   1.381   7.627  0.3288  0.0195 -0.0443
 6217SOL    HW130113   3.339   1.333   7.701  2.5064 -0.6663 -1.5851
 6217SOL    HW230114   3.315   1.473   7.649  0.8009  0.7764 -3.5704
 6218SOL     OW30115   1.729   0.533   2.092  0.1056 -0.2801  0.7405
 6218SOL    HW130116   1.740   0.496   2.004  2.3919 -2.2285  1.8623
 6218SOL    HW230117   1.654   0.485   2.126 -1.3320  0.5181 -1.2640
 6219SOL     OW30118   4.550   3.587   3.905  0.3792  0.3074  0.2713
 6219SOL    HW130119   4.636   3.627   3.894  0.1575  0.6340 -0.2279
 6219SOL    HW230120   4.525   3.567   3.815  0.4477  1.2599  0.0423
 6220SOL     OW30121   2.076   4.637  16.742 -0.1040 -0.2245 -0.2301
 6220SOL    HW130122   2.057   4.647  16.835  0.1615  0.1227 -0.2136
 6220SOL    HW230123   2.077   0.004  16.706  1.9935 -0.9025 -1.8698
 6221SOL     OW30124   2.927   0.559   6.417  0.7524  0.2938 -0.1918
 6221SOL    HW130125   2.858   0.626   6.419  1.7842  1.3228  1.2006
 6221SOL    HW230126   2.964   0.572   6.505 -1.3246 -0.5399  0.7990
 6222SOL     OW30127   0.991   3.318  15.406 -0.1857 -0.0961  0.4509
 6222SOL    HW130128   0.980   3.412  15.418 -3.7197 -0.7359  2.3251
 6222SOL    HW230129   1.065   3.284  15.457 -0.5461 -0.4665  0.7300
 6223SOL     OW30130   1.521   0.770  15.000 -0.6615 -0.4880 -0.2442
 6223SOL    HW130131   1.474   0.797  14.921  0.9242 -0.1267 -1.0533
 6223SOL    HW230132   1.607   0.808  14.984 -0.6219  0.4071  2.0069
 6224SOL     OW30133   0.435   1.775  12.321  0.2065  0.5566 -0.4918
 6224SOL    HW130134   0.465   1.856  12.279  0.6617  0.4954 -0.2759
 6224SOL    HW230135   0.436   1.806  12.412 -1.8791  0.6321 -0.4936
 6225SOL     OW30136   4.357   2.185   4.963  0.6195  0.6495  0.3055
 6225SOL    HW130137   4.376   2.264   4.912  0.3329  1.2502  1.1352
 6225SOL    HW230138   4.263   2.186   4.975  0.8243  0.4608  1.9470
 6226SOL     OW30139   3.515   1.415   7.946  0.2738  0.0567 -0.0910
 6226SOL    HW130140   3.595   1.413   7.893  1.1252 -1.3156  1.2039
 6226SOL    HW230141   3.457   1.355   7.899  1.3013 -1.4683  0.5600
 6227SOL     OW30142   3.864   1.277  11.425 -0.7760  0.3646 -0.7378
 6227SOL    HW130143   3.809   1.198  11.425  2.0729 -1.5800  1.4192
 6227SOL    HW230144   3.844   1.329  11.347  0.8648 -0.1442 -1.4814
 6228SOL     OW30145   2.162   3.701   1.924 -0.4357  0.1860  0.1408
 6228SOL    HW130146   2.108   3.654   1.988 -0.0304 -1.1389 -0.4848
 6228SOL    HW230147   2.242   3.703   1.977 -0.0772  0.2226 -0.4104
 6229SOL     OW30148   3.998   3.628   5.777 -0.2928  0.5070  0.3163
 6229SOL    HW130149   4.078   3.584   5.806 -0.9255 -1.4430 -0.8754
 6229SOL    HW230150   3.953   3.569   5.716  0.8208 -0.0280  0.0161
 6230SOL     OW30151   2.114   0.144   8.706  0.4029  0.1830  0.4479
 6230SOL    HW130152   2.084   0.077   8.645  0.0461  0.0954  0.7168
 6230SOL    HW230153   2.038   0.203   8.706  0.1306 -0.1856 -1.6292
 6231SOL     OW30154   1.964   1.833   4.750  0.0184  0.4062 -0.4740
 6231SOL    HW130155   2.038   1.846   4.691  0.4529 -3.3561 -0.7927
 6231SOL    HW230156   1.916   1.757   4.716 -3.2024  1.6102  1.3426
 6232SOL     OW30157   2.190   3.105   1.986 -0.7658 -0.0267  0.1706
 6232SOL    HW130158   2.227   3.048   2.054  2.2354  0.0928 -1.3540
 6232SOL    HW230159   2.101   3.110   2.021 -0.4309 -0.6513  1.1041
 6233SOL     OW30160   0.103   2.124   6.069 -0.0277  0.1802 -0.2439
 6233SOL    HW130161   0.154   2.069   6.010  1.2980  1.0201  0.1139
 6233SOL    HW230162   0.040   2.063   6.106  1.4627 -1.9613 -1.2302
 6234SOL     OW30163   4.041   1.100   8.558  0.5532 -0.6423  0.0364
 6234SOL    HW130164   4.114   1.046   8.589 -1.0094 -2.8801 -0.1880
 6234SOL    HW230165   4.052   1.183   8.604  4.2566 -0.6784 -0.8324
 6235SOL     OW30166   0.076   2.172   6.405  0.3903  0.5224  0.1400
 6235SOL    HW130167   0.073   2.239   6.473  0.3517  1.0622 -0.3972
 6235SOL    HW230168   0.100   2.095   6.457 -0.6213  0.0538 -0.0854
 6236SOL     OW30169   2.153   1.394   6.006  0.1440 -0.4989  0.1331
 6236SOL    HW130170   2.167   1.305   5.975  3.9419 -0.1223  0.6980
 6236SOL    HW230171   2.061   1.387   6.032  0.7313  0.0176  2.3928
 6237SOL     OW30172   0.478   4.414  14.037 -0.6849  0.2736 -0.2663
 6237SOL    HW130173   0.465   4.503  14.070 -1.4977  0.6403 -1.5841
 6237SOL    HW230174   0.534   4.392  14.112 -1.2347 -2.2919 -0.6201
 6238SOL     OW30175   2.271   3.218   4.253  0.4494  0.1060 -0.1834
 6238SOL    HW130176   2.193   3.204   4.199  2.1049 -1.3229 -2.1954
 6238SOL    HW230177   2.267   3.133   4.297  0.5358  0.3984  0.3870
 6239SOL     OW30178   3.816   1.494  16.037 -0.6542  0.7017  0.3218
 6239SOL    HW130179   3.814   1.570  16.095 -0.4319  1.0009 -0.0564
 6239SOL    HW230180   3.778   1.425  16.092 -0.0666 -0.9253 -1.3134
 6240SOL     OW30181   0.112   2.172   8.158  0.9174  0.2193 -0.2586
 6240SOL    HW130182   0.164   2.248   8.185  1.0981  0.8146 -2.2378
 6240SOL    HW230183   0.118   2.122   8.239 -0.2845  1.1510  0.4094
 6241SOL     OW30184   2.023   1.317   0.419 -0.4801 -0.4694 -0.2993
 6241SOL    HW130185   1.935   1.286   0.400 -0.9830  1.2373 -0.6958
 6241SOL    HW230186   2.030   1.278   0.506  1.4608  2.4954  0.9011
 6242SOL     OW30187   2.659   4.545   9.552  0.2375  0.1705 -0.3714
 6242SOL    HW130188   2.752   4.557   9.569  0.6593  0.0699 -2.6731
 6242SOL    HW230189   2.624   4.634   9.539 -2.2244 -0.6519  0.4718
 6243SOL     OW30190   3.998   3.940   4.896  0.5591  0.3197  0.5369
 6243SOL    HW130191   3.999   3.952   4.801  1.6486  1.4460  0.6935
 6243SOL    HW230192   4.022   3.847   4.897 -1.1512 -0.1250 -0.3984
 6244SOL     OW30193   4.504   3.205   6.704  0.4210  0.4743 -0.5653
 6244SOL    HW130194   4.452   3.218   6.624 -1.1275 -1.6677  0.0905
 6244SOL    HW230195   4.536   3.116   6.692 -2.2036 -0.8550  2.4134
 6245SOL     OW30196   3.132   3.010  10.827 -1.0847  0.3324  0.0921
 6245SOL    HW130197   3.042   3.019  10.796 -1.5414 -0.1481  1.2800
 6245SOL    HW230198   3.110   3.005  10.920 -0.9207 -1.5070  0.0437
 6246SOL     OW30199   1.506   2.041   6.751  0.8368 -0.0237 -0.4307
 6246SOL    HW130200   1.523   2.101   6.678  0.0740  0.4117 -0.2538
 6246SOL    HW230201   1.415   2.065   6.772  1.6658  1.4849  1.4922
 6247SOL     OW30202   3.156   0.460   8.187  0.0131  0.2799  0.1726
 6247SOL    HW130203   3.115   0.545   8.176 -0.3333  0.0580 -0.2515
 6247SOL    HW230204   3.243   0.498   8.170  0.5382 -1.4652 -1.1788
 6248SOL     OW30205   0.767   4.217  10.465 -0.3767 -0.4499 -0.5658
 6248SOL    HW130206   0.728   4.214  10.553 -0.4277 -1.9735 -0.6465
 6248SOL    HW230207   0.718   4.143  10.428  0.7292 -1.1278 -0.6815
 6249SOL     OW30208   1.439   4.252   6.045  0.4757  0.0014  0.4414
 6249SOL    HW130209   1.400   4.305   6.115 -2.3818 -0.2721 -0.9465
 6249SOL    HW230210   1.357   4.213   6.014 -0.0336  0.8627  0.6928
 6250SOL     OW30211   1.329   0.814   3.088  0.5303  0.1858  0.5792
 6250SOL    HW130212   1.296   0.875   3.022  1.1543  0.4968  0.5524
 6250SOL    HW230213   1.422   0.838   3.083  0.7341 -0.7887 -0.1286
 6251SOL     OW30214   2.518   1.405   8.781 -0.0828  0.0156 -0.0476
 6251SOL    HW130215   2.545   1.327   8.732 -3.0153 -0.6182 -0.6386
 6251SOL    HW230216   2.528   1.468   8.709 -0.4670  1.2900  1.0066
 6252SOL     OW30217   0.389   0.902   8.150  0.3278 -0.5308 -0.2827
 6252SOL    HW130218   0.399   0.972   8.086 -1.1290  0.7790  0.9315
 6252SOL    HW230219   0.324   0.842   8.113 -1.4468  2.2250 -1.6065
 6253SOL     OW30220   4.218   1.144   7.180 -0.5061 -0.3251 -0.5099
 6253SOL    HW130221   4.243   1.223   7.133 -0.9856 -1.3638 -2.5407
 6253SOL    HW230222   4.212   1.182   7.267 -1.6147 -0.8623 -0.3446
 6254SOL     OW30223   2.926   1.725  12.911 -0.5705  0.1219 -0.0813
 6254SOL    HW130224   2.862   1.721  12.982  2.7628 -1.6280  2.8158
 6254SOL    HW230225   2.895   1.647  12.865  0.5943  0.1131 -0.8406
 6255SOL     OW30226   0.599   4.541   8.463 -0.4881  0.0184  0.1046
 6255SOL    HW130227   0.553   4.623   8.483 -0.8047 -0.1011 -0.1300
 6255SOL    HW230228   0.554   4.484   8.524 -1.5737 -0.4496 -1.1298
 6256SOL     OW30229   1.370   3.333   6.653  0.4564  0.0635 -0.1292
 6256SOL    HW130230   1.423   3.411   6.666 -0.6836  0.8638 -0.2955
 6256SOL    HW230231   1.369   3.331   6.558  3.0354 -2.8930 -0.1048
 6257SOL     OW30232   3.724   2.068   4.473 -0.3516 -0.1267 -0.3466
 6257SOL    HW130233   3.784   2.057   4.399  1.0868  0.3703  0.7544
 6257SOL    HW230234   3.788   2.104   4.534  0.5021 -1.4012 -0.5082
 6258SOL     OW30235   4.131   1.842   3.816  0.3138 -0.2721 -0.3589
 6258SOL    HW130236   4.219   1.878   3.801  0.2557  1.3275  3.0440
 6258SOL    HW230237   4.092   1.897   3.748  0.5789  0.2849 -0.0591
 6259SOL     OW30238   4.071   1.471  10.503  0.3767 -0.4399 -0.0812
 6259SOL    HW130239   4.140   1.405  10.507  1.4202  0.6744  0.3417
 6259SOL    HW230240   4.116   1.555  10.495  1.0790 -0.7065  1.0462
 6260SOL     OW30241   3.411   2.869   3.887  0.5691  0.6099  0.1734
 6260SOL    HW130242   3.327   2.898   3.923  0.3243  0.5875 -0.3904
 6260SOL    HW230243   3.467   2.935   3.928  2.1449  0.3769 -1.6118
 6261SOL     OW30244   4.118   3.595  15.915  0.0035 -0.8498 -0.4348
 6261SOL    HW130245   4.149   3.506  15.933  0.0278 -1.2557 -2.4666
 6261SOL    HW230246   4.087   3.582  15.826  0.4628  0.3875 -0.7729
 6262SOL     OW30247   3.980   0.270   0.823 -0.1035  0.1437  0.4648
 6262SOL    HW130248   4.029   0.308   0.749  0.6761  2.4740  2.1523
 6262SOL    HW230249   3.890   0.271   0.790 -0.0502  1.1256  0.3265
 6263SOL     OW30250   0.586   2.068   0.547  0.2576  0.1027 -0.0775
 6263SOL    HW130251   0.556   2.157   0.562 -0.9792 -0.6433  1.8591
 6263SOL    HW230252   0.503   2.020   0.548  1.0185 -1.1621  2.8252
 6264SOL     OW30253   3.539   3.982   5.275  0.5215 -0.0257 -0.4256
 6264SOL    HW130254   3.490   3.978   5.193  0.2612  0.7683 -0.3089
 6264SOL    HW230255   3.475   3.945   5.336 -1.5111  0.0064 -2.5451
 6265SOL     OW30256   1.691   1.291   1.338  0.0464 -0.5320 -0.0881
 6265SOL    HW130257   1.695   1.281   1.433  1.1320 -0.2972 -0.1083
 6265SOL    HW230258   1.717   1.383   1.333  0.3394 -0.6551 -0.8625
 6266SOL     OW30259   4.711   4.019   7.414  0.5679 -0.0883  0.0642
 6266SOL    HW130260   0.068   3.965   7.418  0.6274 -0.3401 -4.6603
 6266SOL    HW230261   4.686   4.015   7.322  0.4047  2.4350  0.0035
 6267SOL     OW30262   0.201   3.476   7.760 -0.4860 -0.1286  0.3674
 6267SOL    HW130263   0.141   3.530   7.710 -1.1059 -0.3823  0.8444
 6267SOL    HW230264   0.154   3.395   7.775 -2.2188  0.8137 -0.0529
 6268SOL     OW30265   0.443   0.581  12.286  0.0721  0.3093  0.4235
 6268SOL    HW130266   0.400   0.507  12.243 -0.3912  0.0301  1.3675
 6268SOL    HW230267   0.518   0.530  12.319  0.9008  1.0951 -0.2631
 6269SOL     OW30268   4.359   2.389   9.382 -0.0528  0.3452  0.4854
 6269SOL    HW130269   4.442   2.346   9.363  0.0979  1.1340 -0.5688
 6269SOL    HW230270   4.351   2.454   9.313  1.8565  1.1947  1.0967
 6270SOL     OW30271   2.153   3.550   7.043 -0.3544 -0.2386 -0.6963
 6270SOL    HW130272   2.155   3.621   7.108 -1.2252 -2.0728  1.3234
 6270SOL    HW230273   2.066   3.514   7.058 -0.1145 -0.0663  1.1675
 6271SOL     OW30274   4.443   3.180   4.746 -0.1019  0.7130  0.2544
 6271SOL    HW130275   4.366   3.160   4.693  0.1509  0.0044  0.1557
 6271SOL    HW230276   4.503   3.210   4.678 -0.3136 -1.9205 -1.0872
 6272SOL     OW30277   0.210   1.576   8.697 -0.1800 -0.6077  0.1566
 6272SOL    HW130278   0.125   1.616   8.677 -0.0743 -0.6866 -0.4580
 6272SOL    HW230279   0.203   1.599   8.790 -0.1317 -0.1507  0.0477
 6273SOL     OW30280   1.558   0.281   4.806 -0.3755  0.3441  0.3060
 6273SOL    HW130281   1.532   0.229   4.729  1.1619 -1.6105  1.1102
 6273SOL    HW230282   1.646   0.305   4.777  0.4640 -1.5436  1.2912
 6274SOL     OW30283   1.357   1.772   9.344  0.4784  0.1819  0.0530
 6274SOL    HW130284   1.432   1.718   9.370 -0.0414 -1.2094 -1.3092
 6274SOL    HW230285   1.279   1.717   9.339  1.6447 -1.4616 -0.4469
 6275SOL     OW30286   3.734   2.888   5.438  0.0726 -0.4208  0.1502
 6275SOL    HW130287   3.726   2.952   5.367 -2.7496  1.3278  2.0620
 6275SOL    HW230288   3.659   2.902   5.496 -1.8520 -0.6348 -2.3054
 6276SOL     OW30289   3.378   0.254   3.208 -0.0698 -0.4351  0.3634
 6276SOL    HW130290   3.300   0.201   3.193  1.0608 -2.2674  0.9730
 6276SOL    HW230291   3.409   0.230   3.295  1.3454  2.2588  0.5949
 6277SOL     OW30292   3.240   2.520   3.341  0.6088  0.1753 -0.5064
 6277SOL    HW130293   3.161   2.473   3.314  1.2323  0.3092 -2.6008
 6277SOL    HW230294   3.227   2.604   3.297  1.2426  0.6869  0.2878
 6278SOL     OW30295   0.787   1.487  11.387  0.3601 -0.0126 -0.0138
 6278SOL    HW130296   0.844   1.478  11.463  1.2679 -1.0111 -0.8058
 6278SOL    HW230297   0.815   1.423  11.322 -1.1314  0.8905 -1.5639
 6279SOL     OW30298   1.934   2.007  10.201  0.6166 -0.0147 -0.2810
 6279SOL    HW130299   1.880   1.961  10.138  0.5113 -2.4535  1.5940
 6279SOL    HW230300   1.889   2.000  10.285  3.4213  0.2533  1.2527
 6280SOL     OW30301   4.003   2.760   3.377 -0.2391  0.0420 -0.0645
 6280SOL    HW130302   3.962   2.807   3.304 -2.4340  1.1083  1.8834
 6280SOL    HW230303   4.025   2.680   3.329 -0.1957  2.1341 -3.5752
 6281SOL     OW30304   0.709   3.567  13.603  0.5077 -0.0674 -0.4491
 6281SOL    HW130305   0.710   3.477  13.571  2.1249 -0.2705  0.1487
 6281SOL    HW230306   0.729   3.607  13.519 -0.1718 -2.1907 -1.6021
 6282SOL     OW30307   0.496   2.418   1.787  0.0348 -0.1298 -0.3100
 6282SOL    HW130308   0.457   2.331   1.772  0.9052 -1.1351  3.2419
 6282SOL    HW230309   0.439   2.473   1.734  2.4190  1.5162 -1.1714
 6283SOL     OW30310   2.708   3.428   3.543 -1.0839  0.0246 -0.2687
 6283SOL    HW130311   2.640   3.389   3.597  0.9121  0.1375  2.3454
 6283SOL    HW230312   2.732   3.354   3.487  0.8043  1.0845 -0.8851
 6284SOL     OW30313   3.265   0.950   4.003 -0.5455  0.2204 -0.4928
 6284SOL    HW130314   3.291   1.023   4.058 -2.2971 -1.9927  3.2539
 6284SOL    HW230315   3.305   0.966   3.917  1.4707  0.3145  0.4722
 6285SOL     OW30316   0.905   2.776   4.898  0.1333 -0.1740 -0.4383
 6285SOL    HW130317   0.975   2.744   4.956  1.2652  3.0394 -0.0351
 6285SOL    HW230318   0.850   2.813   4.967 -0.6820 -1.3603 -0.4617
 6286SOL     OW30319   3.630   0.152   2.062  0.3544  0.2777 -0.0448
 6286SOL    HW130320   3.714   0.122   2.029  0.6761  0.2698  0.7729
 6286SOL    HW230321   3.634   0.226   2.002  2.2177 -1.6479 -2.2715
 6287SOL     OW30322   2.061   4.112  14.561 -0.1918  0.1202  0.5867
 6287SOL    HW130323   1.990   4.048  14.571  1.9974 -2.2378  0.9983
 6287SOL    HW230324   2.138   4.071  14.600 -0.7054 -1.4760 -0.0844
 6288SOL     OW30325   2.313   2.512  13.341 -0.0694  0.8750 -0.1865
 6288SOL    HW130326   2.219   2.497  13.325  0.1659 -2.0605  1.2255
 6288SOL    HW230327   2.348   2.424  13.329 -1.2886  0.1116  1.9012
 6289SOL     OW30328   1.871   0.133   4.140 -0.2315  1.0754  0.1812
 6289SOL    HW130329   1.879   0.212   4.086  2.1615  0.6761 -0.0498
 6289SOL    HW230330   1.846   0.067   4.075  1.1521  1.6706 -0.9738
 6290SOL     OW30331   0.424   2.305   5.172 -0.1980 -0.4182  0.1068
 6290SOL    HW130332   0.472   2.366   5.115 -0.0657  0.0517  0.7228
 6290SOL    HW230333   0.490   2.311   5.241 -0.6969 -1.0703  0.6285
 6291SOL     OW30334   0.577   2.361   5.404 -0.1767 -0.3792  0.2714
 6291SOL    HW130335   0.653   2.302   5.401  0.1353  0.0797 -0.7587
 6291SOL    HW230336   0.550   2.341   5.494 -0.1368 -2.3514 -0.1510
 6292SOL     OW30337   3.862   1.244   6.921  0.4405 -0.0717 -0.2482
 6292SOL    HW130338   3.844   1.265   7.012 -1.3339 -1.7286 -0.2157
 6292SOL    HW230339   3.899   1.156   6.926  0.8018 -0.1013 -3.4401
 6293SOL     OW30340   3.436   0.932   5.397 -0.5834  0.1357 -0.3379
 6293SOL    HW130341   3.359   0.932   5.340 -0.6169  1.9609 -0.3064
 6293SOL    HW230342   3.400   0.887   5.472  0.1798  1.8382  1.0563
 6294SOL     OW30343   4.279   3.137   3.443 -0.5001 -0.2499  0.4322
 6294SOL    HW130344   4.339   3.077   3.399  0.7403  0.8818  0.5722
 6294SOL    HW230345   4.312   3.148   3.533 -0.4157  0.4959  0.3125
 6295SOL     OW30346   4.582   3.256  12.341  0.6202 -0.1935  0.1715
 6295SOL    HW130347   4.557   3.345  12.316  3.4224  0.3926 -0.4835
 6295SOL    HW230348   4.653   3.277  12.401 -0.2167  0.4371  0.9570
 6296SOL     OW30349   1.313   1.996  10.645  0.3323  0.1838  0.0304
 6296SOL    HW130350   1.347   1.971  10.559 -1.0264  0.0170 -0.4470
 6296SOL    HW230351   1.270   2.077  10.619 -0.3413 -0.7871 -1.9025
 6297SOL     OW30352   0.109   3.867  10.979  0.0577  1.0149  0.9177
 6297SOL    HW130353   0.130   3.781  11.016  0.0633  0.4679 -0.3806
 6297SOL    HW230354   0.023   3.851  10.940  1.4300  0.4642 -1.8705
 6298SOL     OW30355   3.299   3.980   7.412 -0.1876  0.1763 -2.0323
 6298SOL    HW130356   3.307   3.904   7.354  4.9538  0.1186 -1.2722
 6298SOL    HW230357   3.302   3.936   7.497  1.1258  3.7459 -0.2211
 6299SOL     OW30358   4.678   4.574  11.185  0.2571 -0.3082  0.1240
 6299SOL    HW130359   4.637   4.605  11.266 -2.0778 -0.1780 -1.1180
 6299SOL    HW230360   4.709   4.654  11.141  0.9290  0.1422  1.4157
 6300SOL     OW30361   4.041   4.694   3.578 -0.5771 -0.8750 -0.0416
 6300SOL    HW130362   4.036   4.652   3.493 -0.2535 -0.1931 -0.4031
 6300SOL    HW230363   4.012   0.061   3.557 -1.7121 -0.6253  2.5255
 6301SOL     OW30364   3.467   2.495   7.028  0.2758  0.4625 -0.2471
 6301SOL    HW130365   3.380   2.480   6.992 -0.0637  0.0879  0.7155
 6301SOL    HW230366   3.467   2.585   6.995  1.4861  0.1893 -1.0013
 6302SOL     OW30367   0.178   2.700   3.900 -0.3043  0.1819 -0.4297
 6302SOL    HW130368   0.127   2.626   3.933 -0.2499 -0.4563 -1.7677
 6302SOL    HW230369   0.271   2.678   3.912 -0.6068 -0.4661  0.7132
 6303SOL     OW30370   2.112   0.209   7.000 -0.6767 -0.0695  0.2229
 6303SOL    HW130371   2.070   0.129   6.966  0.3011 -0.1377 -0.8255
 6303SOL    HW230372   2.110   0.259   6.919  2.9183 -1.4427 -0.7173
 6304SOL     OW30373   1.989   1.404   2.484 -0.0561  0.4086  0.0413
 6304SOL    HW130374   2.076   1.369   2.470  0.9798  2.6684  0.7723
 6304SOL    HW230375   1.950   1.346   2.419 -2.4055  0.9798  0.9111
 6305SOL     OW30376   2.854   3.961   6.408 -0.2590 -0.2211  0.1190
 6305SOL    HW130377   2.869   3.882   6.460 -0.2111 -0.4398 -0.2269
 6305SOL    HW230378   2.854   4.029   6.476  0.7403  0.4317 -0.5408
 6306SOL     OW30379   0.044   4.037   0.395 -0.1696  0.2588  0.0650
 6306SOL    HW130380   0.128   4.016   0.438 -0.7867 -1.4841  0.4020
 6306SOL    HW230381   0.065   4.114   0.343  1.0858  0.4132  0.7744
 6307SOL     OW30382   0.683   4.253   3.911 -0.3250 -0.2459 -0.0461
 6307SOL    HW130383   0.774   4.240   3.882 -0.4559 -0.8097 -0.2021
 6307SOL    HW230384   0.700   4.290   3.998  1.2946  1.1296 -0.9490
 6308SOL     OW30385   2.913   0.864  17.379 -0.7131 -0.1477  0.0406
 6308SOL    HW130386   2.914   0.923  17.303 -0.0634  1.8866  1.6375
 6308SOL    HW230387   2.830   0.883  17.424  0.2528 -1.2838  2.2899
 6309SOL     OW30388   1.755   0.517   7.385  0.5064 -0.2186  0.1520
 6309SOL    HW130389   1.743   0.586   7.449  1.1931  3.1629 -3.3416
 6309SOL    HW230390   1.823   0.467   7.428  0.0820  0.7961  1.9934
 6310SOL     OW30391   2.039   1.096  14.607  0.0701  0.2220  0.3220
 6310SOL    HW130392   2.044   1.177  14.658 -2.0566  0.8308 -0.4628
 6310SOL    HW230393   2.118   1.064  14.650 -0.0755 -1.4262 -0.6054
 6311SOL     OW30394   0.084   4.235   7.043  0.1028  0.3141 -0.4712
 6311SOL    HW130395   0.167   4.197   7.071  0.3362  0.0541 -1.5144
 6311SOL    HW230396   0.046   4.261   7.127 -2.0616 -1.8129 -0.7800
 6312SOL     OW30397   2.439   0.158  11.431  0.1623 -0.0951  0.0775
 6312SOL    HW130398   2.366   0.148  11.369  0.3682 -0.7056 -0.0629
 6312SOL    HW230399   2.404   0.105  11.502 -0.7756  0.1016 -0.2259
 6313SOL     OW30400   1.112   3.640  15.057 -0.0284 -0.8385  0.4376
 6313SOL    HW130401   1.130   3.561  15.006  2.0635 -1.1863  1.6888
 6313SOL    HW230402   1.061   3.692  14.995  0.9427  0.9317  1.1312
 6314SOL     OW30403   2.110   4.577   5.587  0.1352 -0.2641 -0.3619
 6314SOL    HW130404   2.179   4.637   5.613 -0.3836 -0.7039  2.0352
 6314SOL    HW230405   2.147   4.498   5.625  2.0139 -0.4941 -2.6920
 6315SOL     OW30406   2.525   1.267   7.245  0.4120  0.1673 -0.2645
 6315SOL    HW130407   2.448   1.257   7.189  1.8660 -2.9509 -1.6750
 6315SOL    HW230408   2.486   1.300   7.326 -2.1936 -0.4916 -1.2465
 6316SOL     OW30409   0.755   2.217   4.914 -0.1204  0.0794  0.6519
 6316SOL    HW130410   0.662   2.224   4.892  0.1886  0.5165 -0.5673
 6316SOL    HW230411   0.776   2.124   4.907 -1.1539 -0.0531 -0.7498
 6317SOL     OW30412   3.517   3.022   5.113  0.2054  0.3455  0.4073
 6317SOL    HW130413   3.444   2.987   5.164 -1.9153  4.3984  0.1467
 6317SOL    HW230414   3.464   3.044   5.037  1.0726 -0.8958 -0.5518
 6318SOL     OW30415   0.658   1.980  10.819  0.0781  0.1670 -0.0347
 6318SOL    HW130416   0.563   1.970  10.825  0.2786 -1.7538  0.0644
 6318SOL    HW230417   0.671   1.979  10.913 -0.3114 -0.3459  0.0154
 6319SOL     OW30418   1.701   1.540   8.419  0.8591 -0.5525 -0.2436
 6319SOL    HW130419   1.781   1.581   8.453  1.3124 -2.2286  0.7522
 6319SOL    HW230420   1.716   1.565   8.328  0.4204  1.1917  0.1714
 6320SOL     OW30421   1.705   3.190  13.507 -0.0612 -0.2684  0.1796
 6320SOL    HW130422   1.735   3.239  13.431 -2.2763  0.8298 -0.0125
 6320SOL    HW230423   1.699   3.261  13.571 -0.2425 -1.1756  1.1605
 6321SOL     OW30424   1.484   0.680   8.085 -0.0798 -0.4455 -0.6196
 6321SOL    HW130425   1.396   0.675   8.123  0.1470 -0.4852 -0.1069
 6321SOL    HW230426   1.479   0.770   8.053  1.6470 -0.4094 -0.7989
 6322SOL     OW30427   0.938   4.437  16.841  0.1957  0.0078 -0.0278
 6322SOL    HW130428   0.972   4.405  16.924 -0.0196  2.1707  0.9073
 6322SOL    HW230429   0.846   4.412  16.847  0.0644 -0.1793 -2.6103
 6323SOL     OW30430   1.154   1.532  11.319 -0.1787 -0.0398 -0.0919
 6323SOL    HW130431   1.247   1.520  11.342 -0.0696  2.9216  1.0442
 6323SOL    HW230432   1.146   1.606  11.379 -0.1940  0.7219 -1.0252
 6324SOL     OW30433   4.165   2.732   6.451 -0.5369  0.1208  0.2006
 6324SOL    HW130434   4.088   2.746   6.506  2.1847  0.2071  4.0138
 6324SOL    HW230435   4.166   2.823   6.421 -1.6250 -0.0470 -0.3287
 6325SOL     OW30436   3.900   0.335   5.761  0.3428  0.0698  0.2583
 6325SOL    HW130437   3.919   0.425   5.732  0.1981  0.9379  2.8303
 6325SOL    HW230438   3.932   0.344   5.851 -1.3970  2.2267  0.6821
 6326SOL     OW30439   1.288   3.557   8.220 -0.0677 -0.2780  0.2731
 6326SOL    HW130440   1.356   3.569   8.154  1.1544 -0.1043  1.5607
 6326SOL    HW230441   1.313   3.627   8.281  0.3595 -0.4527  0.2989
 6327SOL     OW30442   3.237   4.530   5.474  0.7037  0.3533 -0.1995
 6327SOL    HW130443   3.265   4.568   5.391  0.0221 -0.2232 -0.6877
 6327SOL    HW230444   3.321   4.547   5.518  1.2207 -1.2240 -0.5851
 6328SOL     OW30445   3.344   0.018   3.555  0.1521  0.0196 -0.5490
 6328SOL    HW130446   3.254   0.016   3.587  0.3618 -0.2240  0.0332
 6328SOL    HW230447   3.337   4.659   3.505 -0.1216 -0.6843  0.6177
 6329SOL     OW30448   4.218   3.620   6.251  0.3229  1.0711  0.3465
 6329SOL    HW130449   4.219   3.525   6.251 -2.1831  1.0612 -0.9190
 6329SOL    HW230450   4.288   3.644   6.190  1.4729 -0.0309  1.2357
 6330SOL     OW30451   0.899   3.757   3.400 -0.5147 -0.5651  0.3396
 6330SOL    HW130452   0.873   3.728   3.488 -2.0194 -0.8408 -0.2000
 6330SOL    HW230453   0.867   3.678   3.357  0.6473  0.7512 -2.9488
 6331SOL     OW30454   0.859   0.533   2.492  0.0700  0.5612  0.1845
 6331SOL    HW130455   0.938   0.521   2.440 -1.0726  0.6933 -1.5992
 6331SOL    HW230456   0.894   0.548   2.579 -0.2208  1.5827  0.1222
 6332SOL     OW30457   2.489   1.260   3.958  0.0849 -0.0062  0.1815
 6332SOL    HW130458   2.524   1.257   3.869 -1.4819  1.0207 -0.4740
 6332SOL    HW230459   2.549   1.322   3.999 -0.5334 -0.5596  1.9439
 6333SOL     OW30460   0.853   3.392  14.198 -0.0664  0.0655 -0.8212
 6333SOL    HW130461   0.913   3.325  14.167  0.5549  0.1620  0.1539
 6333SOL    HW230462   0.799   3.408  14.121 -0.7892 -0.8554 -0.4978
 6334SOL     OW30463   3.156   1.738   7.274 -0.1209  0.1370 -0.0198
 6334SOL    HW130464   3.119   1.750   7.362  0.0869 -0.9629  0.2255
 6334SOL    HW230465   3.243   1.713   7.304  0.5286  1.8666 -0.4605
 6335SOL     OW30466   0.014   0.821   4.790 -0.3785  0.7519  0.0491
 6335SOL    HW130467   4.697   0.741   4.825  0.1834 -0.1468 -1.3752
 6335SOL    HW230468   0.107   0.805   4.804 -0.2913  1.8095  0.6287
 6336SOL     OW30469   3.620   1.114   7.468 -0.0533  0.3167  0.0950
 6336SOL    HW130470   3.687   1.058   7.429 -0.0868  1.1429 -1.1693
 6336SOL    HW230471   3.678   1.174   7.515 -2.0923  1.6963  0.8505
 6337SOL     OW30472   4.213   1.470   5.451 -0.2737 -0.3006  0.0141
 6337SOL    HW130473   4.151   1.450   5.381  0.4330 -0.8927 -0.4536
 6337SOL    HW230474   4.250   1.547   5.409  1.5876 -2.4795 -2.4161
 6338SOL     OW30475   2.854   2.820  17.468  0.4074 -0.0078  0.7630
 6338SOL    HW130476   2.773   2.848  17.425  0.5895 -0.8220 -0.1173
 6338SOL    HW230477   2.830   2.733  17.501 -2.1391  0.6969  0.8170
 6339SOL     OW30478   4.544   1.504  16.995  0.1940  0.5381  0.3677
 6339SOL    HW130479   4.497   1.477  16.916  0.5877  2.0415 -0.3743
 6339SOL    HW230480   4.509   1.590  17.016  2.9579  1.5356  0.8502
 6340SOL     OW30481   4.044   1.991   2.865  0.2805  0.0413  0.4662
 6340SOL    HW130482   3.990   2.054   2.817  0.0547 -0.3877  0.1562
 6340SOL    HW230483   4.120   1.985   2.808 -1.1660  3.6526 -1.8412
 6341SOL     OW30484   4.383   1.463   2.942  0.2107 -0.0322 -0.0869
 6341SOL    HW130485   4.381   1.554   2.971 -4.4838 -0.5029  1.0079
 6341SOL    HW230486   4.387   1.481   2.848  0.7631 -1.2575 -0.2973
 6342SOL     OW30487   1.318   0.042   8.006  0.9392  0.3403  0.1093
 6342SOL    HW130488   1.260   0.115   7.988  2.2327  1.0620 -1.0678
 6342SOL    HW230489   1.404   0.082   7.998  0.6344  0.5271 -2.1290
 6343SOL     OW30490   2.638   3.901   3.845 -0.4493  0.2664  0.2276
 6343SOL    HW130491   2.558   3.848   3.837 -0.3932 -0.1453  2.3283
 6343SOL    HW230492   2.665   3.895   3.937 -3.0764 -2.7476  0.8087
 6344SOL     OW30493   4.055   3.679  15.279 -0.6632  0.1953  0.0799
 6344SOL    HW130494   4.037   3.721  15.195 -0.9798  1.0236  0.5547
 6344SOL    HW230495   4.146   3.706  15.295 -0.6758  1.3632 -1.7713
 6345SOL     OW30496   1.422   0.993  15.294  0.1056 -0.0567  0.0941
 6345SOL    HW130497   1.383   0.922  15.346 -0.9209  1.5260  1.4842
 6345SOL    HW230498   1.510   0.976  15.328 -0.0375  1.1559  1.0875
 6346SOL     OW30499   2.758   0.304   6.735 -0.0171 -0.1429 -0.5399
 6346SOL    HW130500   2.758   0.249   6.813 -0.8387 -0.2474 -0.6145
 6346SOL    HW230501   2.836   0.352   6.764 -1.2944  1.7289 -0.1985
 6347SOL     OW30502   0.846   3.089   3.494  0.1202  0.2762  0.7596
 6347SOL    HW130503   0.862   3.163   3.553  1.3942 -1.0999  2.1276
 6347SOL    HW230504   0.826   3.014   3.549 -2.3522  1.4398  1.4205
 6348SOL     OW30505   4.670   0.532   6.713  0.0059  0.1295 -0.1095
 6348SOL    HW130506   4.580   0.528   6.747 -0.3341  2.8237 -0.6490
 6348SOL    HW230507   4.666   0.449   6.666 -0.5449 -1.4327  2.6898
 6349SOL     OW30508   2.261   0.149   7.517 -0.0478  0.1902 -0.0986
 6349SOL    HW130509   2.214   0.144   7.434  0.6581 -1.0731 -0.4207
 6349SOL    HW230510   2.256   0.242   7.540 -1.9780 -0.5669  2.6413
 6350SOL     OW30511   2.410   0.133   5.217  0.1057 -0.2238 -0.3706
 6350SOL    HW130512   2.427   0.156   5.126 -1.3533 -2.0326 -1.1100
 6350SOL    HW230513   2.435   0.041   5.219  1.5781  0.2029  0.4189
 6351SOL     OW30514   2.215   2.520   8.327  0.0440  0.4078 -0.3092
 6351SOL    HW130515   2.151   2.581   8.364 -0.2237 -1.8907  3.0580
 6351SOL    HW230516   2.248   2.571   8.253  0.0238 -1.8830 -1.8886
 6352SOL     OW30517   1.550   0.688   5.870 -0.2617 -0.3551 -0.5616
 6352SOL    HW130518   1.602   0.613   5.841 -0.9376 -1.3589  0.8049
 6352SOL    HW230519   1.491   0.646   5.933  0.5837  1.1111  1.2007
 6353SOL     OW30520   4.537   2.011   4.864  0.1721  0.6401 -0.3925
 6353SOL    HW130521   4.593   2.034   4.938 -0.1060  2.3685 -0.7064
 6353SOL    HW230522   4.479   2.085   4.880 -0.5422  0.3653 -1.7890
 6354SOL     OW30523   0.602   3.412   9.361  0.3255 -0.2039 -0.0175
 6354SOL    HW130524   0.615   3.330   9.314 -0.0360  0.3276 -1.0429
 6354SOL    HW230525   0.679   3.412   9.418 -0.4243 -2.7975  0.9919
 6355SOL     OW30526   0.519   1.078  13.745 -0.7438 -0.2130  0.6597
 6355SOL    HW130527   0.518   1.170  13.719  2.4510 -0.5621 -0.7171
 6355SOL    HW230528   0.431   1.068  13.779 -1.0070 -1.7078 -0.4712
 6356SOL     OW30529   2.324   2.963   2.521  0.0195  0.0412 -0.2854
 6356SOL    HW130530   2.237   2.998   2.540  0.0586  0.9639 -1.8291
 6356SOL    HW230531   2.371   3.046   2.525 -0.2736  0.1710  0.4128
 6357SOL     OW30532   1.574   2.129   3.285  0.1907  0.0875 -0.3428
 6357SOL    HW130533   1.482   2.115   3.303  0.2573 -1.5732 -1.3480
 6357SOL    HW230534   1.594   2.188   3.358 -1.2497  0.4762 -0.2745
 6358SOL     OW30535   4.186   2.729  14.865  0.2167  0.3132  0.0316
 6358SOL    HW130536   4.169   2.645  14.908 -0.6456  0.3874 -0.1685
 6358SOL    HW230537   4.099   2.767  14.866 -0.7290 -1.8019 -0.4843
 6359SOL     OW30538   1.234   2.147   1.449 -0.2539  0.0056  0.8431
 6359SOL    HW130539   1.242   2.059   1.488  1.2607 -0.0048  0.5278
 6359SOL    HW230540   1.257   2.125   1.359 -2.4610  0.4296  0.2035
 6360SOL     OW30541   0.434   1.223   2.047 -0.0562  0.0738 -0.8549
 6360SOL    HW130542   0.385   1.305   2.052  0.5359  0.5119 -2.3231
 6360SOL    HW230543   0.416   1.185   2.133  0.1869 -1.1668 -1.3492
 6361SOL     OW30544   1.884   4.678   8.919  0.1616 -0.1459  0.1278
 6361SOL    HW130545   1.954   4.626   8.882 -0.7294  0.8084 -2.8750
 6361SOL    HW230546   1.862   4.642   9.005 -0.7069  3.0310  1.2394
 6362SOL     OW30547   3.199   4.136   2.938 -0.0004  0.0667  0.2185
 6362SOL    HW130548   3.243   4.129   3.023  1.3958 -1.0500 -0.5995
 6362SOL    HW230549   3.165   4.224   2.956  1.4856  0.8069 -0.4791
 6363SOL     OW30550   2.349   1.503   3.537 -0.3333  0.0349 -0.4070
 6363SOL    HW130551   2.412   1.453   3.486 -0.3288  0.1353 -0.5006
 6363SOL    HW230552   2.277   1.494   3.475 -0.5240  1.5650 -0.4074
 6364SOL     OW30553   2.562   1.514   6.989  0.8343  0.2872  0.2213
 6364SOL    HW130554   2.584   1.481   6.902 -1.5109 -1.7980  0.4014
 6364SOL    HW230555   2.627   1.474   7.047 -0.0892 -0.6182  0.6343
 6365SOL     OW30556   0.369   1.978  10.845  0.4330 -0.0469 -0.3683
 6365SOL    HW130557   0.281   1.951  10.872  0.4219 -0.7072 -1.0699
 6365SOL    HW230558   0.339   2.041  10.780  1.1527  1.4408  0.7631
 6366SOL     OW30559   1.977   3.994  13.268 -0.5792  0.3562  0.1209
 6366SOL    HW130560   1.906   4.048  13.303 -1.5997 -2.0612  1.7352
 6366SOL    HW230561   2.050   4.056  13.263 -0.6372  0.4085 -0.1017
 6367SOL     OW30562   2.516   3.684  16.201  0.4020  0.3377 -0.1030
 6367SOL    HW130563   2.574   3.753  16.233  0.3748 -0.2727  1.2556
 6367SOL    HW230564   2.525   3.694  16.106 -0.1057  0.6324 -0.1196
 6368SOL     OW30565   4.504   2.050   5.388  0.4532  0.1144 -0.0220
 6368SOL    HW130566   4.576   2.090   5.340  2.3795 -1.1284  1.7676
 6368SOL    HW230567   4.475   2.121   5.444 -1.0738 -1.1265  0.7622
 6369SOL     OW30568   1.186   1.174   0.907  0.2555 -0.3227 -0.0913
 6369SOL    HW130569   1.238   1.096   0.926  1.5085  0.6387  0.4077
 6369SOL    HW230570   1.220   1.212   0.826  2.6998  0.0565  1.1274
 6370SOL     OW30571   1.117   3.623   6.226 -0.1402  0.5598  0.0377
 6370SOL    HW130572   1.117   3.536   6.267 -1.0609  0.8074  0.5618
 6370SOL    HW230573   1.142   3.607   6.135  3.0479  1.5154  0.7486
 6371SOL     OW30574   0.925   2.541   6.522 -0.8207 -0.2031  0.0192
 6371SOL    HW130575   0.932   2.605   6.593 -0.2813  0.8913 -1.0303
 6371SOL    HW230576   0.832   2.544   6.500 -0.9458  1.6880  0.8221
 6372SOL     OW30577   3.327   1.015   3.720 -0.0283  0.2595 -0.5520
 6372SOL    HW130578   3.314   1.061   3.637 -0.9851  2.3967  0.7810
 6372SOL    HW230579   3.351   0.930   3.682 -0.4362 -0.8567  1.7200
 6373SOL     OW30580   4.721   1.035   4.945  0.8933 -0.3585  0.4295
 6373SOL    HW130581   0.001   0.952   4.898  0.1282 -0.2457  0.1943
 6373SOL    HW230582   0.045   1.084   4.877 -1.3363  0.9444 -0.1307
 6374SOL     OW30583   1.752   2.975   2.434  0.0004 -0.2606  0.0948
 6374SOL    HW130584   1.736   3.028   2.355 -0.5909  0.4777  0.7080
 6374SOL    HW230585   1.705   2.893   2.417  2.3462 -1.4979 -0.4390
 6375SOL     OW30586   1.818   3.562  10.427 -0.5753 -0.2119 -0.5668
 6375SOL    HW130587   1.742   3.522  10.469 -0.1137 -0.8606 -0.3464
 6375SOL    HW230588   1.780   3.576  10.341 -0.7375 -0.8367 -0.5997
 6376SOL     OW30589   0.683   0.612   5.321  0.1057  0.0120  0.0128
 6376SOL    HW130590   0.762   0.642   5.278 -0.2636 -0.3870 -0.9353
 6376SOL    HW230591   0.675   0.524   5.284 -2.1184  1.4182 -2.7476
 6377SOL     OW30592   0.764   0.060   2.616  0.3071  0.5367  0.0962
 6377SOL    HW130593   0.770   0.137   2.672 -0.9335 -0.1685  1.2150
 6377SOL    HW230594   0.670   0.043   2.624  0.2201  0.3796 -1.2985
 6378SOL     OW30595   4.024   1.156  10.553 -0.3172 -0.2161  0.1977
 6378SOL    HW130596   4.096   1.162  10.490 -0.0880 -0.1240  0.4691
 6378SOL    HW230597   3.996   1.065  10.544 -0.5360 -0.0445 -0.8570
 6379SOL     OW30598   2.959   2.221   5.516  0.3100  0.0169 -0.1145
 6379SOL    HW130599   2.950   2.149   5.453 -1.2784  0.6031 -0.5411
 6379SOL    HW230600   2.948   2.291   5.452  0.8822  1.3281  1.2502
 6380SOL     OW30601   0.951   1.724   3.371  0.1326  0.5556  0.1348
 6380SOL    HW130602   0.996   1.788   3.316 -0.1277  0.8210  0.2314
 6380SOL    HW230603   0.962   1.775   3.451 -0.2303 -1.6194  1.5859
 6381SOL     OW30604   4.335   1.458   0.977 -0.3149 -0.1113  0.1040
 6381SOL    HW130605   4.390   1.535   0.989 -0.0230 -0.0300 -1.7764
 6381SOL    HW230606   4.407   1.401   0.951 -0.2371  0.6714 -1.3357
 6382SOL     OW30607   1.006   2.873  13.605  0.4368 -0.0657  0.6094
 6382SOL    HW130608   0.997   2.851  13.698  2.3189 -2.6721  0.1624
 6382SOL    HW230609   1.044   2.961  13.604 -1.0751  0.5634 -0.9149
 6383SOL     OW30610   0.228   0.001   4.629 -0.0619 -0.1819 -0.0898
 6383SOL    HW130611   0.260   0.047   4.551 -0.6857 -3.0123 -2.0077
 6383SOL    HW230612   0.305   0.007   4.685 -0.1074  0.4498 -0.0911
 6384SOL     OW30613   2.784   1.670   7.524  0.1644  0.3203  0.6517
 6384SOL    HW130614   2.818   1.647   7.438 -1.6620 -0.5199  0.1756
 6384SOL    HW230615   2.731   1.746   7.503 -1.7256 -1.4379 -0.8561
 6385SOL     OW30616   0.129   0.327   6.210  0.3317  0.0176 -0.0752
 6385SOL    HW130617   0.052   0.348   6.158  0.6069  2.2510  0.4245
 6385SOL    HW230618   0.132   0.403   6.268  1.6727  1.4064 -1.9595
 6386SOL     OW30619   4.552   1.142   7.966 -0.0466  0.1486  0.2872
 6386SOL    HW130620   4.561   1.098   8.051  0.4117 -0.3584 -0.0234
 6386SOL    HW230621   4.459   1.153   7.947 -0.4542 -0.1761  2.0904
 6387SOL     OW30622   4.028   2.033   3.606  0.2668  0.1562 -0.5375
 6387SOL    HW130623   4.103   2.068   3.559  1.3420  0.6407  1.5269
 6387SOL    HW230624   3.987   2.111   3.644 -0.9365  0.1497 -1.8305
 6388SOL     OW30625   3.689   4.678   5.981 -0.0404  0.0262  0.2980
 6388SOL    HW130626   3.757   0.017   5.954  0.1142 -0.4133 -0.3055
 6388SOL    HW230627   3.627   4.682   5.908 -0.3554  2.0254  0.6810
 6389SOL     OW30628   4.104   3.517   1.889 -0.3977 -0.0514  0.3686
 6389SOL    HW130629   4.190   3.554   1.872  0.0538 -1.0404  0.5144
 6389SOL    HW230630   4.037   3.582   1.866 -0.2528  0.4685  1.3958
 6390SOL     OW30631   4.408   0.980   9.037 -0.0142  0.0853 -0.3387
 6390SOL    HW130632   4.481   1.029   9.076  0.5584 -2.4854  1.8507
 6390SOL    HW230633   4.444   0.892   9.024  1.6125  1.0025 -2.0802
 6391SOL     OW30634   4.574   3.763  10.912 -0.3123  0.2752 -0.0482
 6391SOL    HW130635   4.591   3.720  10.828 -0.6859 -1.2870  0.6736
 6391SOL    HW230636   4.499   3.816  10.885 -1.4671  1.2479  5.0153
 6392SOL     OW30637   0.409   0.756   7.630  0.0983  0.4522  0.4860
 6392SOL    HW130638   0.388   0.711   7.549  2.3258  0.1366  0.0647
 6392SOL    HW230639   0.373   0.839   7.600 -2.2386 -0.6448  0.3314
 6393SOL     OW30640   2.114   1.003   8.906 -0.1979 -0.1647  0.1066
 6393SOL    HW130641   2.133   1.019   8.999  0.7449 -1.1208  0.0752
 6393SOL    HW230642   2.184   1.052   8.863  0.3313 -1.3348 -0.3568
 6394SOL     OW30643   2.736   1.946   4.497 -0.1814  0.5318  0.2737
 6394SOL    HW130644   2.644   1.922   4.505  0.0097 -0.5068 -0.5707
 6394SOL    HW230645   2.735   1.942   4.401  1.3949 -0.4873  0.2868
 6395SOL     OW30646   3.917   2.541   0.850  0.3188 -0.3935 -0.0217
 6395SOL    HW130647   3.992   2.573   0.799  0.4743 -1.1252 -0.2589
 6395SOL    HW230648   3.886   2.474   0.789 -1.3659  0.2831  0.0869
 6396SOL     OW30649   0.995   3.662   4.110 -0.1632  0.1742  0.2462
 6396SOL    HW130650   0.917   3.714   4.092 -0.1614 -0.4083 -1.3691
 6396SOL    HW230651   1.032   3.711   4.184  0.0490  0.6531 -0.1746
 6397SOL     OW30652   2.612   1.000   7.911  0.3449 -0.1824 -0.5976
 6397SOL    HW130653   2.541   0.976   7.852 -0.9963 -0.2971  1.0778
 6397SOL    HW230654   2.620   1.095   7.907  0.6139 -0.2708 -2.2703
 6398SOL     OW30655   1.954   3.591   5.730 -0.4985 -0.1029  0.4962
 6398SOL    HW130656   2.010   3.662   5.699 -1.7755  0.0837 -1.3290
 6398SOL    HW230657   1.880   3.594   5.670 -0.5170  0.3310  0.5468
 6399SOL     OW30658   0.237   0.314  17.629  0.2451 -0.1274 -0.3185
 6399SOL    HW130659   0.176   0.249  17.664 -0.6304  0.7041 -0.2936
 6399SOL    HW230660   0.214   0.329  17.537 -0.7223 -1.3593 -0.2794
 6400SOL     OW30661   2.905   1.612   5.931 -0.1099 -0.2217 -0.1790
 6400SOL    HW130662   2.813   1.596   5.911  0.2776 -3.4492  0.6386
 6400SOL    HW230663   2.922   1.701   5.962  2.3372 -0.8258  0.2385
 6401SOL     OW30664   0.443   3.528   3.044  0.0404 -0.4358  0.3530
 6401SOL    HW130665   0.425   3.437   3.066 -1.5905 -0.0801  0.5077
 6401SOL    HW230666   0.523   3.526   3.096  1.1950  1.3890 -1.3278
 6402SOL     OW30667   2.141   1.491  12.723 -0.1423  0.2125  0.5212
 6402SOL    HW130668   2.129   1.403  12.689  0.2862  0.6429 -0.7484
 6402SOL    HW230669   2.076   1.490  12.794  0.8090  1.2394  1.4083
 6403SOL     OW30670   2.930   1.438   5.688  0.5651 -0.2379 -0.6309
 6403SOL    HW130671   2.864   1.376   5.719  1.5060 -0.6798  0.5052
 6403SOL    HW230672   2.925   1.504   5.758  1.3612 -0.4339 -0.3834
 6404SOL     OW30673   3.178   0.102   4.190 -0.3867  0.5374 -0.2373
 6404SOL    HW130674   3.194   0.176   4.133 -1.3822  0.5533 -0.5044
 6404SOL    HW230675   3.125   0.046   4.133  1.6805 -1.1704 -0.4961
 6405SOL     OW30676   0.852   3.655  10.009 -0.2120  0.5378  0.1740
 6405SOL    HW130677   0.849   3.574   9.958  0.6645  0.6703 -0.0972
 6405SOL    HW230678   0.933   3.644  10.059 -0.6741 -1.3778  0.5227
 6406SOL     OW30679   2.627   0.280   8.894  0.2123  0.0699  0.7747
 6406SOL    HW130680   2.610   0.202   8.948  1.6641 -0.8144 -0.0330
 6406SOL    HW230681   2.706   0.247   8.850  0.2773  0.7565  0.3810
 6407SOL     OW30682   4.490   2.281   0.060 -0.0416  0.1671 -0.2786
 6407SOL    HW130683   4.535   2.364   0.047  1.6452 -0.9359 -1.3983
 6407SOL    HW230684   4.491   2.275   0.155 -0.6873 -2.9517 -0.4758
 6408SOL     OW30685   3.836   0.443   2.250 -0.6534 -0.5368  0.1091
 6408SOL    HW130686   3.903   0.386   2.214 -0.4295 -0.6312  0.6660
 6408SOL    HW230687   3.858   0.428   2.342  0.0203 -0.8141 -0.0949
 6409SOL     OW30688   1.374   3.912  16.026 -0.0310 -0.3832  0.0179
 6409SOL    HW130689   1.457   3.887  15.984  1.4771  2.3783  1.3512
 6409SOL    HW230690   1.370   4.005  16.003  1.3495 -0.6140 -1.1374
 6410SOL     OW30691   2.534   4.255   2.433  0.0371  0.2158  0.1433
 6410SOL    HW130692   2.582   4.277   2.353 -0.1638  1.8359  0.4740
 6410SOL    HW230693   2.440   4.245   2.416  0.0984  0.7866 -0.5296
 6411SOL     OW30694   0.305   2.860   9.593 -0.0464 -0.0609 -0.0187
 6411SOL    HW130695   0.392   2.834   9.563 -0.0154 -0.9426  0.8345
 6411SOL    HW230696   0.268   2.872   9.505 -0.2291 -2.6487 -0.2795
 6412SOL     OW30697   3.039   1.828   2.479 -0.2817 -0.0356  0.6960
 6412SOL    HW130698   3.011   1.901   2.424  2.6515  0.2274 -0.4369
 6412SOL    HW230699   3.129   1.811   2.451 -0.5068  0.2991 -0.2299
 6413SOL     OW30700   2.675   3.859   6.164  0.0073  0.3283 -0.1209
 6413SOL    HW130701   2.690   3.815   6.248 -1.2220  1.2160  0.5694
 6413SOL    HW230702   2.586   3.829   6.142  1.2104 -1.8252 -2.0745
 6414SOL     OW30703   3.009   3.184  10.185 -0.6814 -0.1059  0.7710
 6414SOL    HW130704   2.996   3.098  10.144  0.2736  0.3619 -0.5334
 6414SOL    HW230705   3.026   3.153  10.273  0.6291  0.9902  0.9047
 6415SOL     OW30706   1.575   1.830  17.131  0.0636  0.3939  0.1643
 6415SOL    HW130707   1.670   1.823  17.131 -0.0114 -0.6101  0.3273
 6415SOL    HW230708   1.562   1.910  17.079 -0.8837  0.6980  0.8636
 6416SOL     OW30709   2.462   2.680   6.971 -0.7127  0.0489 -0.6752
 6416SOL    HW130710   2.512   2.716   6.898 -1.3634 -0.0708 -1.1839
 6416SOL    HW230711   2.485   2.588   6.957 -1.0412 -0.2557  0.7583
 6417SOL     OW30712   0.631   2.998   0.767  0.1825  0.2753  0.6528
 6417SOL    HW130713   0.687   3.054   0.714  0.8439 -0.5331  0.5051
 6417SOL    HW230714   0.549   3.037   0.736  0.0838 -0.4643 -0.0165
 6418SOL     OW30715   1.049   1.007   4.934  0.1917  0.2120 -0.8704
 6418SOL    HW130716   1.069   0.930   4.882  2.2752 -0.2732  0.6618
 6418SOL    HW230717   0.998   1.057   4.870 -2.3905  1.2679  2.0331
 6419SOL     OW30718   1.773   1.861   6.354  0.2694  0.4164 -0.4328
 6419SOL    HW130719   1.679   1.875   6.341 -0.2243 -1.6728  0.8147
 6419SOL    HW230720   1.798   1.781   6.307 -0.1761  1.5427 -2.5922
 6420SOL     OW30721   2.126   3.865  13.461  0.5010  0.2938  0.0750
 6420SOL    HW130722   2.078   3.890  13.382  1.5501 -0.2046 -0.7177
 6420SOL    HW230723   2.056   3.873  13.526  1.3155 -0.1199  0.9937
 6421SOL     OW30724   1.657   2.112  14.541  0.4241 -0.0750 -0.1043
 6421SOL    HW130725   1.657   2.070  14.455 -0.4774  1.1998 -0.7211
 6421SOL    HW230726   1.709   2.044  14.584  0.6795  0.4944  0.4896
 6422SOL     OW30727   1.933   3.262   2.035  0.5038 -0.2745 -0.5541
 6422SOL    HW130728   1.898   3.253   1.946  1.1376 -0.6452 -0.7677
 6422SOL    HW230729   1.953   3.356   2.028  2.0189 -0.7081 -2.1222
 6423SOL     OW30730   2.963   0.601   7.587 -0.1760  0.0269 -0.5007
 6423SOL    HW130731   2.873   0.591   7.619 -0.8049  2.3974 -1.5358
 6423SOL    HW230732   2.940   0.617   7.496  0.1023  3.5315  0.0593
 6424SOL     OW30733   1.345   4.224  11.290 -1.7870 -0.0494 -0.4462
 6424SOL    HW130734   1.409   4.158  11.263 -1.1649 -0.2803  1.5725
 6424SOL    HW230735   1.325   4.191  11.378 -1.4619  0.4942 -0.1637
 6425SOL     OW30736   3.033   2.684   4.938 -0.0360 -0.6447 -0.8541
 6425SOL    HW130737   3.110   2.643   4.898 -1.9229 -0.6877 -4.4007
 6425SOL    HW230738   3.048   2.777   4.921  0.0970 -1.0803 -3.0865
 6426SOL     OW30739   2.041   2.533  13.597 -0.1720  0.1201  0.5050
 6426SOL    HW130740   2.121   2.560  13.642 -0.0911 -0.1556  0.5243
 6426SOL    HW230741   1.976   2.598  13.624 -0.5724 -0.3200  0.5893
 6427SOL     OW30742   0.731   2.887   8.155  0.3725 -0.2883  0.5915
 6427SOL    HW130743   0.697   2.822   8.216  0.2277  0.6523  1.5096
 6427SOL    HW230744   0.718   2.849   8.068  0.7977 -1.3745  0.9980
 6428SOL     OW30745   0.273   0.800   8.659  0.4955  0.1249  0.8693
 6428SOL    HW130746   0.225   0.866   8.708  0.1067  0.4655  0.0228
 6428SOL    HW230747   0.341   0.847   8.611  0.0416 -1.2404 -1.1294
 6429SOL     OW30748   2.888   3.125   7.453  0.3528  0.1242 -0.3483
 6429SOL    HW130749   2.817   3.123   7.517 -0.5789  2.6335 -1.2941
 6429SOL    HW230750   2.889   3.034   7.425 -1.3455 -0.8935  2.9658
 6430SOL     OW30751   4.472   3.563   9.456  0.3812 -0.2065  0.3941
 6430SOL    HW130752   4.472   3.488   9.397 -2.3849 -0.4330  0.6797
 6430SOL    HW230753   4.415   3.621   9.404 -2.3556 -1.7892  1.6084
 6431SOL     OW30754   1.970   2.944   5.268  0.0278  0.0451 -0.0953
 6431SOL    HW130755   2.025   3.022   5.264 -1.0763  0.8348  0.1367
 6431SOL    HW230756   2.011   2.886   5.203  0.8092  0.0301  0.4154
 6432SOL     OW30757   1.488   4.617   9.326 -0.1187 -0.4647  0.3412
 6432SOL    HW130758   1.409   4.669   9.312  1.3999  1.5428 -0.7766
 6432SOL    HW230759   1.459   4.558   9.396  0.7648 -1.8219 -0.4488
 6433SOL     OW30760   0.344   4.701   9.128  0.1834  0.2173 -0.5013
 6433SOL    HW130761   0.272   4.656   9.172 -0.4842  0.2743 -1.5369
 6433SOL    HW230762   0.314   0.070   9.132 -1.6681 -0.4682  1.1641
 6434SOL     OW30763   1.125   3.120  13.605 -0.3653  0.0726  0.4584
 6434SOL    HW130764   1.138   3.147  13.696 -0.5140 -1.8658  1.0654
 6434SOL    HW230765   1.216   3.125  13.574  0.5285 -1.4867  2.7910
 6435SOL     OW30766   3.496   4.578   8.271  0.1453  0.4536  0.5419
 6435SOL    HW130767   3.436   4.612   8.337 -1.4454 -0.6189 -0.3324
 6435SOL    HW230768   3.492   4.641   8.200  0.1487  0.7636  0.8194
 6436SOL     OW30769   2.005   4.304  14.765  0.3890 -0.0200 -0.5946
 6436SOL    HW130770   1.940   4.345  14.708  0.2862  0.5506 -0.0635
 6436SOL    HW230771   2.028   4.218  14.731  1.8474  0.7636 -1.5458
 6437SOL     OW30772   2.884   4.336   6.362  0.2022  0.2388  0.3388
 6437SOL    HW130773   2.843   4.404   6.415  0.8602  1.3993 -0.6731
 6437SOL    HW230774   2.813   4.318   6.300  1.0224  0.0294 -0.5440
 6438SOL     OW30775   0.867   1.342  12.387  0.1443 -0.3502  0.2006
 6438SOL    HW130776   0.942   1.376  12.338  0.6809 -1.1600  0.4557
 6438SOL    HW230777   0.883   1.248  12.395  2.1560 -0.3575 -3.6499
 6439SOL     OW30778   3.448   2.587   3.834 -0.1024  0.7996 -0.0843
 6439SOL    HW130779   3.403   2.543   3.906  0.1822 -0.8341 -0.9028
 6439SOL    HW230780   3.409   2.674   3.840  2.3954  1.8505  0.7199
 6440SOL     OW30781   0.649   0.490   3.657 -0.0671 -0.0146 -0.2871
 6440SOL    HW130782   0.598   0.484   3.577 -0.4265 -4.4897  0.2608
 6440SOL    HW230783   0.723   0.441   3.622 -0.7410  0.0922 -1.8340
 6441SOL     OW30784   3.017   3.615   0.343  0.2203  0.1530 -0.9063
 6441SOL    HW130785   3.111   3.598   0.350  0.4468  1.3250 -1.1894
 6441SOL    HW230786   2.991   3.559   0.270  1.2448 -3.3732  1.4261
 6442SOL     OW30787   2.976   4.567  15.164  0.4814  0.5980  0.1099
 6442SOL    HW130788   3.004   4.594  15.251 -0.2017  1.0462  0.1932
 6442SOL    HW230789   3.054   4.584  15.111 -0.6519 -0.6212 -1.9815
 6443SOL     OW30790   1.777   3.636   2.994  0.0174 -0.1802 -0.4858
 6443SOL    HW130791   1.802   3.669   2.908 -1.6534  0.4621 -0.7159
 6443SOL    HW230792   1.683   3.633   2.979 -0.3686 -0.3370  1.9320
 6444SOL     OW30793   2.480   3.300   9.328  0.5955  0.3649 -0.0172
 6444SOL    HW130794   2.484   3.374   9.389  2.8875 -0.2265  0.5544
 6444SOL    HW230795   2.507   3.226   9.382 -3.0622 -1.4133 -0.6438
 6445SOL     OW30796   2.066   3.802  16.391  0.0991  0.0833  0.0135
 6445SOL    HW130797   2.115   3.731  16.432 -0.1869  0.0485  0.2898
 6445SOL    HW230798   2.134   3.854  16.347  0.1004 -0.8339 -1.0751
 6446SOL     OW30799   2.919   1.061   7.963 -0.1661 -0.6686 -0.3661
 6446SOL    HW130800   2.839   1.107   7.937 -0.8215  0.0069  2.8641
 6446SOL    HW230801   2.879   0.994   8.018 -0.9995  0.6265  0.5947
 6447SOL     OW30802   4.250   3.075  10.750  0.5739  0.0692 -0.0397
 6447SOL    HW130803   4.336   3.053  10.713  0.9485 -0.3052  1.0453
 6447SOL    HW230804   4.271   3.131  10.825  2.2893  0.0160 -0.4738
 6448SOL     OW30805   2.873   4.102   8.409 -0.0710 -0.1710  0.0797
 6448SOL    HW130806   2.880   4.188   8.367 -1.9399 -2.1745 -4.3130
 6448SOL    HW230807   2.777   4.099   8.415 -0.1788  0.6185 -1.2049
 6449SOL     OW30808   1.319   0.687   1.118  0.6374 -0.2960  0.0149
 6449SOL    HW130809   1.304   0.780   1.098  0.5467 -0.3732 -0.2838
 6449SOL    HW230810   1.410   0.680   1.147  0.6621 -0.8517 -0.2071
 6450SOL     OW30811   0.398   1.182  14.039  0.0445 -0.5503 -0.1017
 6450SOL    HW130812   0.437   1.107  13.992 -0.0900 -1.5009  1.3070
 6450SOL    HW230813   0.331   1.138  14.091  1.1468 -0.2514  1.5573
 6451SOL     OW30814   0.167   2.716   9.914  0.2279  0.3836 -0.2032
 6451SOL    HW130815   0.154   2.621   9.913  0.7904  0.3961 -4.7830
 6451SOL    HW230816   0.184   2.730  10.008 -0.5231 -0.5169  0.0653
 6452SOL     OW30817   2.797   2.693  15.325 -0.4606 -0.3467  0.1709
 6452SOL    HW130818   2.799   2.737  15.240 -1.5938 -1.4030 -0.3840
 6452SOL    HW230819   2.741   2.619  15.304 -1.8626  0.6429  0.4035
 6453SOL     OW30820   0.362   1.090   4.762 -0.2793 -0.5972 -0.2251
 6453SOL    HW130821   0.412   1.140   4.827  2.2088 -0.2677 -2.3805
 6453SOL    HW230822   0.273   1.124   4.769  0.5957  2.0183 -2.1070
 6454SOL     OW30823   3.753   1.342   4.616 -0.0457  0.3686  0.0175
 6454SOL    HW130824   3.713   1.296   4.542  2.2774 -1.6816  0.0149
 6454SOL    HW230825   3.809   1.274   4.655  0.0617  0.5038  0.0992
 6455SOL     OW30826   1.753   1.639   4.636 -0.5210 -0.1448  0.4825
 6455SOL    HW130827   1.723   1.617   4.548  0.0164  0.6668  0.0927
 6455SOL    HW230828   1.793   1.556   4.661  1.1489  0.4056 -0.3516
 6456SOL     OW30829   0.616   2.542   4.515 -0.1460 -0.0088  0.1744
 6456SOL    HW130830   0.662   2.570   4.594  1.7687 -1.4471 -0.4420
 6456SOL    HW230831   0.680   2.487   4.471 -1.1921 -1.4905  0.4965
 6457SOL     OW30832   3.074   4.030   7.842  0.5660 -0.3166  0.3561
 6457SOL    HW130833   3.011   4.079   7.789 -1.8303 -2.1740  1.5216
 6457SOL    HW230834   3.122   3.985   7.772  0.7789 -0.5624  0.6664
 6458SOL     OW30835   1.519   4.555   9.055  0.7040 -0.1884  0.1446
 6458SOL    HW130836   1.611   4.573   9.071  0.5446  1.0073 -0.2684
 6458SOL    HW230837   1.483   4.569   9.142  0.7641 -1.0951  0.3100
 6459SOL     OW30838   3.290   1.593  12.151  0.3758  0.7026 -0.4549
 6459SOL    HW130839   3.357   1.564  12.214  1.6075  1.1723 -1.5338
 6459SOL    HW230840   3.212   1.541  12.169  0.8050 -0.3797 -1.7143
 6460SOL     OW30841   0.940   2.098   8.669  0.3014 -0.2187  0.3758
 6460SOL    HW130842   1.011   2.144   8.714 -2.0571  1.0811  2.8060
 6460SOL    HW230843   0.982   2.015   8.644  1.8854  0.2480  1.5239
 6461SOL     OW30844   3.765   2.430   8.800 -0.2275  0.1549 -0.3950
 6461SOL    HW130845   3.737   2.504   8.746  0.8847  0.4911 -0.5249
 6461SOL    HW230846   3.828   2.467   8.861 -0.4430  1.9264 -1.2477
 6462SOL     OW30847   2.926   1.600   2.547  0.1268  0.0045 -0.0010
 6462SOL    HW130848   2.957   1.681   2.507  0.9423  0.0857  0.7921
 6462SOL    HW230849   2.993   1.597   2.616  0.6650  1.0416 -0.4800
 6463SOL     OW30850   1.014   4.425   8.236 -0.3506 -0.3568  0.1569
 6463SOL    HW130851   1.050   4.480   8.306 -0.1675  0.0897 -0.2847
 6463SOL    HW230852   0.928   4.408   8.273 -0.0150 -0.3379  0.9455
 6464SOL     OW30853   3.900   1.081   3.958  0.2134 -0.2022 -0.2628
 6464SOL    HW130854   3.833   1.022   3.923 -1.2906  0.3388  1.6952
 6464SOL    HW230855   3.962   1.099   3.887 -1.8460  2.2789 -1.4199
 6465SOL     OW30856   1.668   0.037   5.383 -0.0701 -0.2047  0.5718
 6465SOL    HW130857   1.755   0.066   5.410  0.7012  0.1141 -2.2606
 6465SOL    HW230858   1.679   0.040   5.287 -2.6453 -0.0487  0.2872
 6466SOL     OW30859   3.816   2.376   2.980  0.2990  0.3580 -0.3849
 6466SOL    HW130860   3.861   2.427   3.047  1.0885  1.1161 -1.4996
 6466SOL    HW230861   3.787   2.300   3.031 -1.2873  1.0183 -0.2986
 6467SOL     OW30862   0.621   2.740   3.432  0.2463 -0.2665  0.4609
 6467SOL    HW130863   0.560   2.670   3.408 -0.8902  0.1976  1.9786
 6467SOL    HW230864   0.592   2.760   3.521 -1.0289 -1.6137  0.3519
 6468SOL     OW30865   4.228   1.365  14.482 -0.4112 -0.5674  0.1489
 6468SOL    HW130866   4.290   1.307  14.526 -0.1798 -1.5518 -1.4797
 6468SOL    HW230867   4.283   1.420  14.427 -0.6534 -1.1619 -0.6907
 6469SOL     OW30868   3.830   3.346  13.191 -0.0621  0.6648 -0.7483
 6469SOL    HW130869   3.920   3.376  13.201  0.7853 -2.7075  1.8896
 6469SOL    HW230870   3.794   3.379  13.273  0.6007  1.6199 -0.8510
 6470SOL     OW30871   3.812   2.156   4.840  0.0046  0.3085  0.1293
 6470SOL    HW130872   3.754   2.082   4.825 -0.5296  0.5161  1.1643
 6470SOL    HW230873   3.752   2.201   4.899 -0.9737 -0.7907 -0.0286
 6471SOL     OW30874   3.344   4.099   8.970  0.1545  0.3989  0.4059
 6471SOL    HW130875   3.416   4.036   8.970  0.2011  0.4479 -0.1605
 6471SOL    HW230876   3.301   4.072   8.889 -1.6910  2.0353  0.8508
 6472SOL     OW30877   2.860   0.823  16.222 -0.4320  0.2736 -0.4402
 6472SOL    HW130878   2.862   0.728  16.233 -0.4924  0.3218 -0.0220
 6472SOL    HW230879   2.879   0.828  16.128 -1.0162  4.2152 -0.3456
 6473SOL     OW30880   0.311   2.653   7.684 -0.0074 -0.2444 -0.3095
 6473SOL    HW130881   0.263   2.597   7.745 -1.6430  1.4201 -0.0560
 6473SOL    HW230882   0.355   2.718   7.738 -2.0641 -1.0074  2.2536
 6474SOL     OW30883   3.456   0.701   3.312  0.2832  0.3682  0.4276
 6474SOL    HW130884   3.427   0.645   3.240  0.8988 -1.0657  1.2804
 6474SOL    HW230885   3.504   0.773   3.274  0.6577 -0.6632 -1.0532
 6475SOL     OW30886   4.346   2.621   7.075  0.4832 -0.1176 -0.4781
 6475SOL    HW130887   4.299   2.652   7.152  3.0205  3.4546 -0.3666
 6475SOL    HW230888   4.369   2.530   7.096  1.5415  0.1453 -0.4626
 6476SOL     OW30889   1.551   1.315   1.858 -0.2866  0.6165  0.0689
 6476SOL    HW130890   1.586   1.230   1.884 -1.5536 -0.2728 -1.1620
 6476SOL    HW230891   1.603   1.382   1.903  1.5486  0.1343 -1.3428
 6477SOL     OW30892   0.920   4.677   8.986  0.2067  0.1340  0.1274
 6477SOL    HW130893   0.945   4.594   9.028 -0.3517 -0.4701 -0.7481
 6477SOL    HW230894   0.834   4.658   8.950  0.6695 -0.7812 -0.4952
 6478SOL     OW30895   2.626   1.240  12.619 -0.0001  0.2981 -0.3429
 6478SOL    HW130896   2.531   1.239  12.609 -0.0628 -0.6233  0.3261
 6478SOL    HW230897   2.655   1.309  12.680  1.4807  0.3332 -1.0884
 6479SOL     OW30898   0.596   0.819   1.036  0.1109  0.2577 -0.1869
 6479SOL    HW130899   0.607   0.914   1.028  0.4649  0.0621 -2.1358
 6479SOL    HW230900   0.635   0.795   1.120  2.9797 -0.6686 -1.7848
 6480SOL     OW30901   3.317   2.314   5.392 -0.0328 -0.2144  0.0087
 6480SOL    HW130902   3.318   2.407   5.416  1.1488 -0.6461  1.5722
 6480SOL    HW230903   3.227   2.294   5.419 -0.2498  0.3684 -0.2663
 6481SOL     OW30904   3.912   0.566  16.408  0.4873  0.0809 -0.1242
 6481SOL    HW130905   3.957   0.650  16.418  1.2169 -0.6073  2.4475
 6481SOL    HW230906   3.849   0.568  16.480 -0.2741 -3.7459 -0.6767
 6482SOL     OW30907   3.869   4.171   1.852  0.0350 -0.5517  0.2066
 6482SOL    HW130908   3.812   4.139   1.922 -0.2405 -1.6183 -0.5082
 6482SOL    HW230909   3.944   4.115   1.868  0.1100 -0.4754  0.1219
 6483SOL     OW30910   4.057   0.531  17.158  0.4973 -0.0355  0.1913
 6483SOL    HW130911   4.149   0.510  17.140  1.0907  0.9513  2.0337
 6483SOL    HW230912   4.052   0.463  17.225 -3.5309 -1.4055 -1.5321
 6484SOL     OW30913   0.229   3.617  11.368  0.4622  0.2839  0.4695
 6484SOL    HW130914   0.147   3.592  11.325  1.2490 -2.2003  0.4565
 6484SOL    HW230915   0.261   3.695  11.322 -0.9806  1.2587  1.1022
 6485SOL     OW30916   4.692   2.502   3.719 -0.4764  0.1072 -0.3750
 6485SOL    HW130917   0.031   2.459   3.779 -0.9207  0.2962  0.2149
 6485SOL    HW230918   0.038   2.555   3.679  1.1733 -1.2510  0.6420
 6486SOL     OW30919   1.283   0.968   1.068 -0.1785  0.3863  0.0200
 6486SOL    HW130920   1.350   1.028   1.100 -0.4076  0.1489  0.9168
 6486SOL    HW230921   1.202   1.019   1.077  0.3386  0.9483  1.4646
 6487SOL     OW30922   0.563   1.548  16.682 -0.3883 -0.3679  0.3308
 6487SOL    HW130923   0.512   1.608  16.628  0.2563 -0.8996 -0.8698
 6487SOL    HW230924   0.493   1.494  16.719 -1.6041  0.6640 -0.4720
 6488SOL     OW30925   3.882   1.835   5.730 -0.5176  0.5207  0.6589
 6488SOL    HW130926   3.811   1.863   5.671 -1.3473 -1.6152  0.6455
 6488SOL    HW230927   3.926   1.775   5.670 -0.5266 -0.3374  1.5024
 6489SOL     OW30928   2.541   0.967   2.643  0.5152  0.0127 -0.2271
 6489SOL    HW130929   2.543   0.874   2.664  0.9795 -0.1254 -0.8694
 6489SOL    HW230930   2.587   1.016   2.711  0.4667 -1.1433  0.6252
 6490SOL     OW30931   3.591   4.578   4.382 -0.1804  0.3193 -0.6601
 6490SOL    HW130932   3.598   4.670   4.405 -1.7153  0.1336  0.5250
 6490SOL    HW230933   3.653   4.531   4.438  0.9221  1.7843 -0.6676
 6491SOL     OW30934   3.039   3.236  15.283 -0.3565 -0.4360  0.0118
 6491SOL    HW130935   3.087   3.263  15.205 -0.1736 -0.8733 -0.0284
 6491SOL    HW230936   2.953   3.203  15.256 -0.9460  0.3017  0.9853
 6492SOL     OW30937   0.043   4.465   4.190 -0.0580 -0.3380  0.0597
 6492SOL    HW130938   0.090   4.525   4.249  0.9085  0.5758 -1.6224
 6492SOL    HW230939   4.702   4.519   4.142 -1.2761 -0.4869  1.4876
 6493SOL     OW30940   2.864   0.818   5.039 -0.2055  0.5076 -0.0186
 6493SOL    HW130941   2.953   0.797   5.068  0.3315  0.9694 -1.3152
 6493SOL    HW230942   2.837   0.744   4.984  2.6603  0.5004 -1.4235
 6494SOL     OW30943   0.075   0.820  10.085  0.0818 -0.1332  0.0590
 6494SOL    HW130944   0.106   0.753  10.145  0.8857 -0.0947 -0.3147
 6494SOL    HW230945   0.156   0.860  10.053 -0.3337  1.7626  1.3548
 6495SOL     OW30946   2.627   4.106   6.303 -0.2725  0.3736 -0.1497
 6495SOL    HW130947   2.688   4.048   6.348  1.7846  1.0021 -2.1257
 6495SOL    HW230948   2.670   4.109   6.217 -0.1558  0.1304 -0.0985
 6496SOL     OW30949   2.375   0.203  14.500 -0.0335  0.1191 -0.6761
 6496SOL    HW130950   2.353   0.293  14.527 -0.1851 -0.1325  0.0485
 6496SOL    HW230951   2.448   0.234  14.447  0.9521 -0.7982  0.1307
 6497SOL     OW30952   3.771   0.062   6.518  0.1419  0.0971  0.0255
 6497SOL    HW130953   3.679   0.043   6.537 -0.3561 -0.7946 -3.2766
 6497SOL    HW230954   3.811   0.009   6.588 -0.6029 -2.8632 -1.7850
 6498SOL     OW30955   4.302   4.150   3.818  0.0097  0.0229 -0.3816
 6498SOL    HW130956   4.331   4.171   3.907  0.9198  1.4383 -1.0186
 6498SOL    HW230957   4.386   4.155   3.773 -0.4104  0.4815 -1.1043
 6499SOL     OW30958   4.309   1.483  10.871  0.5110  0.5388  0.9108
 6499SOL    HW130959   4.324   1.450  10.783  0.3362  0.3589  0.9486
 6499SOL    HW230960   4.216   1.464  10.866  0.8141 -0.3421 -1.2929
 6500SOL     OW30961   2.931   2.360   7.974  0.4733  0.1935 -0.1477
 6500SOL    HW130962   3.013   2.322   7.942  0.0333 -0.1025 -0.9175
 6500SOL    HW230963   2.918   2.431   7.912 -0.0864  0.4804  0.2983
 6501SOL     OW30964   4.420   2.364   8.780  1.0489  0.2496  0.3768
 6501SOL    HW130965   4.431   2.313   8.860 -1.0881 -2.1059 -0.8201
 6501SOL    HW230966   4.329   2.388   8.799  0.9579 -0.8639  1.3435
 6502SOL     OW30967   1.153   0.219   1.976 -0.2473 -0.6026  0.0145
 6502SOL    HW130968   1.190   0.148   2.028 -2.1035 -1.1383  0.6291
 6502SOL    HW230969   1.156   0.288   2.043 -2.1414  0.2417 -0.7611
 6503SOL     OW30970   0.282   3.029  13.619  0.3083 -0.6086  0.0338
 6503SOL    HW130971   0.201   2.982  13.600  0.6336 -0.0457 -2.7597
 6503SOL    HW230972   0.345   2.957  13.615  2.5772  1.4084 -0.5499
 6504SOL     OW30973   0.272   2.954   6.949  0.0905  0.3629 -0.1808
 6504SOL    HW130974   0.298   2.862   6.954  0.4782  0.4354 -0.9592
 6504SOL    HW230975   0.218   2.957   7.028  3.8857  0.9486  2.4284
 6505SOL     OW30976   1.063   1.435   4.685  0.0653 -0.1133 -0.3007
 6505SOL    HW130977   1.085   1.495   4.757  0.4593 -3.6925  2.5968
 6505SOL    HW230978   1.120   1.469   4.617  1.0733  0.6768  0.9293
 6506SOL     OW30979   2.769   3.897  14.336 -0.5924  0.8265 -0.5603
 6506SOL    HW130980   2.758   3.926  14.426 -3.2842 -3.8728  0.6474
 6506SOL    HW230981   2.794   3.974  14.286  0.5282  0.4461 -0.5779
 6507SOL     OW30982   1.528   1.403   5.959 -0.0794  0.2219 -0.1255
 6507SOL    HW130983   1.543   1.309   5.951 -0.3175  0.1101  0.7843
 6507SOL    HW230984   1.517   1.438   5.870 -2.4439 -0.0370  0.0760
 6508SOL     OW30985   1.372   4.281   7.895 -0.0086 -0.2302 -0.3745
 6508SOL    HW130986   1.396   4.358   7.946  0.8436  0.4063 -1.7439
 6508SOL    HW230987   1.282   4.301   7.869  0.2723  1.6063  0.0751
 6509SOL     OW30988   1.155   0.641   1.509 -0.4121 -0.1020  0.5512
 6509SOL    HW130989   1.200   0.671   1.588 -1.8240 -0.9079  1.6449
 6509SOL    HW230990   1.227   0.599   1.462 -1.4558 -0.6853 -0.5382
 6510SOL     OW30991   2.908   2.292   3.703  0.2082 -0.4976  0.4621
 6510SOL    HW130992   2.846   2.288   3.630 -0.1454 -1.9393  0.8441
 6510SOL    HW230993   2.982   2.243   3.668 -1.5236 -1.2806 -2.0513
 6511SOL     OW30994   1.519   0.369   6.211 -0.3875  0.3114  0.1055
 6511SOL    HW130995   1.594   0.421   6.183 -0.0763 -1.7363 -2.9387
 6511SOL    HW230996   1.549   0.287   6.250  3.7514  1.2538 -1.1939
 6512SOL     OW30997   0.584   2.449   7.323  0.1194  0.0534  0.0707
 6512SOL    HW130998   0.636   2.392   7.379 -0.3119 -0.7121 -0.3167
 6512SOL    HW230999   0.578   2.525   7.382  1.6243  0.1428  0.1273
 6513SOL     OW31000   3.153   1.605   8.112 -0.2214 -0.8057  0.5235
 6513SOL    HW131001   3.209   1.532   8.137  1.2567  0.6795  1.5368
 6513SOL    HW231002   3.216   1.672   8.138 -1.3198  0.6605 -0.5404
 6514SOL     OW31003   0.295   0.770   4.879  0.3568 -0.4074 -0.4484
 6514SOL    HW131004   0.349   0.837   4.837  1.4755 -0.1635  1.3830
 6514SOL    HW231005   0.340   0.751   4.961  1.0690  0.4479 -0.6366
 6515SOL     OW31006   2.104   1.047   6.702  0.4036 -0.4822  0.5326
 6515SOL    HW131007   2.015   1.062   6.669  0.4979  3.4460  2.0219
 6515SOL    HW231008   2.118   0.954   6.689 -1.1181 -0.5550 -0.6713
 6516SOL     OW31009   2.504   1.265   2.969 -0.2955  0.7210  0.1779
 6516SOL    HW131010   2.412   1.257   2.998  0.1727 -3.1746  0.6835
 6516SOL    HW231011   2.496   1.322   2.893 -3.2736  2.6936  1.9581
 6517SOL     OW31012   0.897   4.001  13.094 -0.3091 -0.3392 -0.0989
 6517SOL    HW131013   0.813   3.956  13.086 -0.5325  0.1568 -0.5741
 6517SOL    HW231014   0.873   4.057  13.167  1.1926  0.4838 -0.2268
 6518SOL     OW31015   1.864   0.982   7.475  0.7891  0.0739  0.2602
 6518SOL    HW131016   1.799   1.037   7.432  2.6077  2.6657  0.7569
 6518SOL    HW231017   1.906   0.938   7.402 -0.4910  0.9309 -0.9880
 6519SOL     OW31018   3.097   0.234   7.939 -0.2952  0.1079 -0.2664
 6519SOL    HW131019   3.142   0.205   7.860  1.1386 -1.0458  0.9718
 6519SOL    HW231020   3.070   0.324   7.918 -2.4257 -0.7834 -1.3216
 6520SOL     OW31021   3.099   0.954   8.212  0.0127  0.5954 -0.0157
 6520SOL    HW131022   3.050   0.872   8.218  1.4767 -0.3192 -0.5514
 6520SOL    HW231023   3.132   0.964   8.302 -2.4557 -0.3908  0.9921
 6521SOL     OW31024   0.362   4.104   7.447  0.1314  0.4138 -0.3841
 6521SOL    HW131025   0.419   4.176   7.420  0.4683 -0.0718 -0.9838
 6521SOL    HW231026   0.283   4.155   7.466  0.3219  0.1601  1.1338
 6522SOL     OW31027   1.431   4.183  13.514 -0.7611 -0.0554 -0.4287
 6522SOL    HW131028   1.453   4.264  13.559  0.5801 -0.4133 -0.4399
 6522SOL    HW231029   1.357   4.148  13.564 -0.4423 -0.0980  0.0111
 6523SOL     OW31030   1.167   4.170   1.194  0.0642 -0.1966  0.1799
 6523SOL    HW131031   1.260   4.158   1.210  0.3621  0.3201 -1.1522
 6523SOL    HW231032   1.170   4.248   1.138 -1.3112 -0.2330  0.0421
 6524SOL     OW31033   0.536   3.527   3.319  0.2942 -0.2806 -0.2022
 6524SOL    HW131034   0.458   3.477   3.343  0.1722 -0.5203 -1.0905
 6524SOL    HW231035   0.508   3.616   3.341  1.6103 -0.6555  2.9224
 6525SOL     OW31036   2.655   2.509   7.409 -0.5272 -0.2691 -0.4830
 6525SOL    HW131037   2.578   2.558   7.439  0.6855  2.0742 -1.1717
 6525SOL    HW231038   2.688   2.570   7.343  1.1856  0.1095  0.6961
 6526SOL     OW31039   0.886   3.367   8.869  0.2813 -0.4368  0.6877
 6526SOL    HW131040   0.817   3.300   8.879  0.2585 -0.4331  0.5570
 6526SOL    HW231041   0.901   3.368   8.774  3.4304  0.7498  1.1933
 6527SOL     OW31042   0.142   3.418   1.669 -0.1270  0.2432 -0.0672
 6527SOL    HW131043   0.066   3.381   1.713 -0.2403 -1.1661 -1.4495
 6527SOL    HW231044   0.136   3.385   1.580  0.9605  1.0827 -0.4431
 6528SOL     OW31045   1.714   2.749   3.836  0.2706  0.4135  0.2310
 6528SOL    HW131046   1.660   2.680   3.797  0.5510 -0.0482  0.6588
 6528SOL    HW231047   1.720   2.817   3.769  1.2588 -0.6952 -0.7962
 6529SOL     OW31048   0.945   4.218   1.386  0.1537 -0.5741  0.0509
 6529SOL    HW131049   0.966   4.127   1.408 -1.0496 -1.0035 -0.5852
 6529SOL    HW231050   1.033   4.241   1.358  0.0265  0.2525  0.3395
 6530SOL     OW31051   1.446   4.427  15.824  0.3638 -0.1703 -1.0062
 6530SOL    HW131052   1.449   4.521  15.842  0.6028 -0.6940  1.6765
 6530SOL    HW231053   1.426   4.413  15.732 -1.1719 -2.3873 -0.3504
 6531SOL     OW31054   4.115   1.744  11.244  0.0246 -0.4860 -0.5513
 6531SOL    HW131055   4.061   1.671  11.214 -0.6970  0.2921 -1.1414
 6531SOL    HW231056   4.158   1.697  11.316 -0.3116  0.8564  0.5326
 6532SOL     OW31057   1.588   2.596   8.123 -0.0650  0.5161  0.5925
 6532SOL    HW131058   1.674   2.572   8.159 -0.3032  2.0270  2.1490
 6532SOL    HW231059   1.531   2.535   8.169  0.3452 -1.3430 -1.3579
 6533SOL     OW31060   1.294   3.326   6.389  0.3963 -0.2916 -0.0096
 6533SOL    HW131061   1.278   3.340   6.296 -2.8354 -1.9700  0.3017
 6533SOL    HW231062   1.208   3.346   6.427  0.3762  0.5482 -0.4813
 6534SOL     OW31063   1.291   3.275   8.225 -0.1312  0.2334  0.4882
 6534SOL    HW131064   1.358   3.259   8.291  1.3437 -0.0546 -1.0788
 6534SOL    HW231065   1.284   3.370   8.217 -0.0121  0.1207 -0.9927
 6535SOL     OW31066   1.027   0.751  13.445 -0.3839  0.0094  0.0365
 6535SOL    HW131067   1.115   0.782  13.464 -0.2922 -0.0824 -0.2487
 6535SOL    HW231068   1.040   0.720  13.355 -4.2731 -0.9820 -0.1780
 6536SOL     OW31069   2.651   1.183  17.621  0.1619  0.0953 -0.3123
 6536SOL    HW131070   2.739   1.196  17.653  0.0937  0.9778 -0.4826
 6536SOL    HW231071   2.599   1.151   0.004  0.2469  0.4544 -0.0943
 6537SOL     OW31072   0.612   3.751   5.218  0.5393 -0.5432 -0.2346
 6537SOL    HW131073   0.692   3.736   5.269  1.2239  0.3857 -1.0227
 6537SOL    HW231074   0.633   3.819   5.154  1.7379  0.4167  1.1907
 6538SOL     OW31075   1.047   1.730   4.243  0.8005  0.4745  0.2280
 6538SOL    HW131076   1.110   1.669   4.282  1.0017  0.3198 -0.3253
 6538SOL    HW231077   1.086   1.731   4.155 -1.7692  1.9468 -0.9076
 6539SOL     OW31078   1.545   2.176   7.450 -0.1664 -0.1380  0.3838
 6539SOL    HW131079   1.542   2.139   7.362 -0.4232 -1.5067  0.9783
 6539SOL    HW231080   1.636   2.206   7.459  0.1473 -0.6050 -1.1840
 6540SOL     OW31081   2.494   4.261   4.882  0.2326  0.0394  0.3131
 6540SOL    HW131082   2.576   4.301   4.852  0.3627  0.1280  0.8021
 6540SOL    HW231083   2.430   4.303   4.825  0.8733  1.4796  0.6539
 6541SOL     OW31084   2.055   3.787  14.706 -0.4214  0.0996  0.3906
 6541SOL    HW131085   1.998   3.827  14.640 -1.0976 -1.5841 -0.0385
 6541SOL    HW231086   2.010   3.704  14.720 -0.7519  0.4242  1.2208
 6542SOL     OW31087   1.210   2.695   3.026  0.5222  0.7431  0.3237
 6542SOL    HW131088   1.218   2.789   3.038 -2.8216  1.0352  0.2636
 6542SOL    HW231089   1.148   2.693   2.953  0.3498  0.2741  0.4787
 6543SOL     OW31090   4.666   2.589   0.666  0.0410 -0.1731 -0.3430
 6543SOL    HW131091   4.651   2.586   0.571  1.3901 -0.0106 -0.5736
 6543SOL    HW231092   0.038   2.570   0.673 -0.3721 -1.4848  1.6009
 6544SOL     OW31093   1.255   1.532  12.216  0.4346  0.0049  0.1202
 6544SOL    HW131094   1.295   1.492  12.293  1.9398 -0.9662 -1.1619
 6544SOL    HW231095   1.288   1.621  12.223  0.7669 -0.0121 -1.2609
 6545SOL     OW31096   3.233   2.590   7.983  0.8276  0.4105  0.7190
 6545SOL    HW131097   3.199   2.677   7.960 -3.3294 -1.4012  0.0575
 6545SOL    HW231098   3.217   2.535   7.906 -1.9407  0.5734  1.1755
 6546SOL     OW31099   0.556   3.159   9.538 -0.5433  0.7244 -0.1383
 6546SOL    HW131100   0.623   3.121   9.594 -0.3324  1.7073  0.2741
 6546SOL    HW231101   0.581   3.140   9.448  3.7861  1.1468  0.9875
 6547SOL     OW31102   2.644   1.189   5.550 -0.3241 -0.4138  0.0598
 6547SOL    HW131103   2.637   1.230   5.464  1.3592 -1.9281 -0.7802
 6547SOL    HW231104   2.619   1.104   5.512  2.5632 -0.0611 -2.6271
 6548SOL     OW31105   4.373   1.595   8.639  0.0506  0.3011 -0.2275
 6548SOL    HW131106   4.280   1.602   8.616 -0.4795 -3.3017  0.7678
 6548SOL    HW231107   4.409   1.606   8.552 -2.5812 -1.7615 -1.5798
 6549SOL     OW31108   3.892   2.914  12.185 -0.3300  0.0887 -0.4530
 6549SOL    HW131109   3.887   2.938  12.278  1.9520  1.3470 -0.6667
 6549SOL    HW231110   3.844   2.988  12.147 -0.5356 -0.8290 -1.9685
 6550SOL     OW31111   0.762   3.686  15.275 -0.4627  0.6806 -0.2300
 6550SOL    HW131112   0.848   3.703  15.313  0.5641 -1.3794 -1.6624
 6550SOL    HW231113   0.770   3.607  15.222 -1.8502  1.5909 -1.8044
 6551SOL     OW31114   2.464   1.956   4.448  0.0485  0.3532 -0.4817
 6551SOL    HW131115   2.450   2.050   4.443 -0.8670  0.2609  0.4301
 6551SOL    HW231116   2.424   1.940   4.533  1.8688  0.2077  0.3373
 6552SOL     OW31117   2.513   0.700   8.524 -0.3573 -0.4055  0.3967
 6552SOL    HW131118   2.462   0.745   8.591  1.7825  1.3222  0.8729
 6552SOL    HW231119   2.583   0.675   8.585 -0.1150 -0.1805  0.2125
 6553SOL     OW31120   3.293   3.909   9.458 -0.3212 -0.0555  0.5040
 6553SOL    HW131121   3.331   3.993   9.482 -0.5739  0.3961 -0.6954
 6553SOL    HW231122   3.373   3.868   9.423 -0.5855 -1.4721  1.5526
 6554SOL     OW31123   1.128   2.424  13.069 -0.1013  0.3329 -0.3778
 6554SOL    HW131124   1.107   2.491  13.004  0.6116  1.2095  0.3018
 6554SOL    HW231125   1.210   2.455  13.105 -0.1783  0.7940 -0.6082
 6555SOL     OW31126   0.275   4.340  15.175  0.3162 -0.1470 -0.4846
 6555SOL    HW131127   0.184   4.320  15.197 -0.5704  3.4976 -0.7531
 6555SOL    HW231128   0.303   4.266  15.122 -1.3581 -1.9240  1.1393
 6556SOL     OW31129   4.682   4.695   4.685 -0.2027 -0.5801 -0.1193
 6556SOL    HW131130   0.050   4.722   4.664  0.5969 -2.4158  0.9846
 6556SOL    HW231131   4.688   4.628   4.617 -1.7663  1.5785 -2.3712
 6557SOL     OW31132   2.457   4.070  16.450 -0.1492 -0.6070  0.5321
 6557SOL    HW131133   2.520   4.084  16.378 -0.2708 -1.7407  0.2010
 6557SOL    HW231134   2.427   4.157  16.475 -2.6469 -0.5404 -2.6699
 6558SOL     OW31135   3.700   1.032   4.239  0.1693  0.4725  0.5020
 6558SOL    HW131136   3.703   0.937   4.226 -1.9903  0.2767  1.3625
 6558SOL    HW231137   3.790   1.064   4.229 -0.4293  1.0072 -3.3298
 6559SOL     OW31138   2.345   2.149   3.538  0.1199 -0.2899  0.4064
 6559SOL    HW131139   2.261   2.118   3.505 -0.9236  2.3778  0.5800
 6559SOL    HW231140   2.363   2.234   3.498  0.0935  0.7004  2.4782
 6560SOL     OW31141   1.316   3.089   7.260  0.8412  0.5124  0.5119
 6560SOL    HW131142   1.402   3.050   7.243 -0.0766 -1.1186 -0.3536
 6560SOL    HW231143   1.290   3.124   7.175  1.7781  1.5475  0.6487
 6561SOL     OW31144   3.683   0.456   9.303  0.0254 -0.1767  0.0391
 6561SOL    HW131145   3.610   0.512   9.330  1.1653  0.1772  2.3688
 6561SOL    HW231146   3.635   0.395   9.246  0.9078 -2.3466  1.6159
 6562SOL     OW31147   4.112   2.105   1.360 -0.0160  0.3395 -0.1685
 6562SOL    HW131148   4.108   2.039   1.430 -1.1503 -0.2152 -0.7568
 6562SOL    HW231149   4.062   2.177   1.399  0.5850  1.0128 -0.6584
 6563SOL     OW31150   3.185   3.911   3.907 -0.6654  0.2109  0.2491
 6563SOL    HW131151   3.162   3.854   3.834 -0.7997  1.5308 -0.7275
 6563SOL    HW231152   3.236   3.980   3.866 -1.1123  0.7392  0.5847
 6564SOL     OW31153   1.433   0.251   9.837  0.1606 -0.0028 -0.0326
 6564SOL    HW131154   1.481   0.294   9.766  0.7872 -0.5403  0.0587
 6564SOL    HW231155   1.365   0.200   9.792 -0.2888  0.1353  0.4850
 6565SOL     OW31156   4.127   2.986   9.684 -0.5168 -0.4187 -0.0047
 6565SOL    HW131157   4.183   2.918   9.722  0.7355 -0.0752 -1.2240
 6565SOL    HW231158   4.048   2.975   9.736 -1.2407  0.4350 -0.9271
 6566SOL     OW31159   3.986   4.472   4.795 -0.3665  0.7179  0.2498
 6566SOL    HW131160   4.073   4.454   4.757 -0.1343 -0.5703  1.3918
 6566SOL    HW231161   3.994   4.434   4.883  0.8507 -0.3195 -0.2970
 6567SOL     OW31162   3.219   3.900   6.826  0.2900  0.5576 -0.1902
 6567SOL    HW131163   3.272   3.931   6.900 -3.0715  1.8374  1.6645
 6567SOL    HW231164   3.132   3.901   6.864 -0.6323  0.5779 -2.3335
 6568SOL     OW31165   3.181   0.622   6.876 -0.4208  0.2222 -0.0807
 6568SOL    HW131166   3.103   0.574   6.904 -0.5878  0.2373 -0.5211
 6568SOL    HW231167   3.248   0.600   6.941 -1.2622 -2.2041 -0.0458
 6569SOL     OW31168   2.510   2.578  13.507  0.3119 -0.2086  0.5993
 6569SOL    HW131169   2.442   2.557  13.443  0.7400  0.4763 -0.0709
 6569SOL    HW231170   2.558   2.642  13.455  1.8566 -1.1597  0.8388
 6570SOL     OW31171   1.818   0.279  17.515  0.1411 -0.0474 -0.0563
 6570SOL    HW131172   1.763   0.253  17.442 -0.7469  0.7672  0.3210
 6570SOL    HW231173   1.780   0.364  17.538  1.5672  0.9397 -1.3159
 6571SOL     OW31174   3.600   0.597   3.568  0.2688 -0.1292  0.3584
 6571SOL    HW131175   3.681   0.556   3.599  1.1428 -0.2895 -2.1749
 6571SOL    HW231176   3.533   0.586   3.635 -1.3425  0.3475 -1.1822
 6572SOL     OW31177   0.173   0.010   5.216 -0.1094  0.1644 -0.5852
 6572SOL    HW131178   0.257   0.008   5.262 -0.4668  0.6490  0.0974
 6572SOL    HW231179   0.208   4.680   5.144 -0.3220  0.1980 -0.7149
 6573SOL     OW31180   0.675   1.488   2.730 -0.2586  0.6034 -0.0256
 6573SOL    HW131181   0.585   1.520   2.733 -0.6262 -0.1418 -2.7739
 6573SOL    HW231182   0.697   1.489   2.637  0.7777  3.5126  0.2339
 6574SOL     OW31183   0.837   0.256   3.831 -0.2894  0.3142 -0.3299
 6574SOL    HW131184   0.879   0.171   3.826  1.8184  1.3685 -0.6209
 6574SOL    HW231185   0.831   0.268   3.736 -0.6842  2.8281  0.0111
 6575SOL     OW31186   1.832   0.618   6.094  0.0900  0.0219  0.2426
 6575SOL    HW131187   1.797   0.564   6.165  1.7016  0.6034  1.4729
 6575SOL    HW231188   1.820   0.552   6.027 -4.9247 -0.7804  1.8961
 6576SOL     OW31189   2.297   4.075  10.925 -0.2089 -0.3156 -0.0738
 6576SOL    HW131190   2.301   4.098  11.018  0.1227  0.4054 -0.2716
 6576SOL    HW231191   2.202   4.077  10.912 -0.2771 -1.9799  0.2333
 6577SOL     OW31192   0.423   1.911   6.811 -0.0635  0.2075 -0.0440
 6577SOL    HW131193   0.490   1.945   6.871 -0.1059 -2.5367  1.5438
 6577SOL    HW231194   0.386   1.841   6.864  0.5778 -0.2367 -0.1750
 6578SOL     OW31195   2.365   1.894   5.520  0.8582 -0.4422  0.3799
 6578SOL    HW131196   2.368   1.834   5.446  1.6124 -2.1009  1.7709
 6578SOL    HW231197   2.271   1.899   5.537  0.4995  1.7215 -2.1862
 6579SOL     OW31198   0.488   2.305   6.772 -0.0059 -0.9028  0.0185
 6579SOL    HW131199   0.574   2.286   6.733  0.5696  0.4244  0.6322
 6579SOL    HW231200   0.467   2.216   6.800  0.5073 -1.0710 -0.1245
 6580SOL     OW31201   2.568   0.537  13.342  0.1998 -0.1338  0.3282
 6580SOL    HW131202   2.656   0.559  13.311 -1.0156  3.7219 -0.2921
 6580SOL    HW231203   2.544   0.623  13.377  2.8425  1.3972 -1.6766
 6581SOL     OW31204   2.870   2.125   8.262 -0.2709 -0.5975  0.1026
 6581SOL    HW131205   2.867   2.074   8.344 -3.4671  0.4839  0.6621
 6581SOL    HW231206   2.854   2.217   8.282 -0.9326 -0.5733 -0.5089
 6582SOL     OW31207   4.073   0.185  10.408 -0.0923 -0.1449 -0.2269
 6582SOL    HW131208   4.124   0.225  10.479 -3.0225 -0.1607  1.8487
 6582SOL    HW231209   4.123   0.198  10.327 -1.3166  3.2149 -0.4373
 6583SOL     OW31210   1.000   0.136   3.133  0.0717  0.0010  0.4228
 6583SOL    HW131211   1.007   0.215   3.079  0.6706 -2.3230 -2.9203
 6583SOL    HW231212   1.090   0.107   3.144 -0.4205 -1.3790  0.8823
 6584SOL     OW31213   4.529   4.034   0.278 -0.4637 -0.2130  0.8369
 6584SOL    HW131214   4.477   4.008   0.354  0.1268  2.9394  2.2908
 6584SOL    HW231215   4.618   4.027   0.312  1.1895  0.4025 -3.3584
 6585SOL     OW31216   1.991   3.403   5.447 -0.1066  0.4414 -0.0892
 6585SOL    HW131217   1.957   3.327   5.495 -1.4417 -0.4630 -2.4988
 6585SOL    HW231218   2.079   3.401   5.485 -1.0834 -1.0578  2.1289
 6586SOL     OW31219   1.578   0.875   3.064  0.4613 -0.1370  0.3965
 6586SOL    HW131220   1.658   0.838   3.102 -0.6374 -1.0463  1.7701
 6586SOL    HW231221   1.611   0.918   2.985 -2.5098 -0.4387 -0.9893
 6587SOL     OW31222   1.890   3.609  15.314  0.1435  0.3944  0.3411
 6587SOL    HW131223   1.972   3.624  15.267 -1.8672  1.8357 -2.6374
 6587SOL    HW231224   1.861   3.528  15.272  4.0361 -0.2561 -1.0589
 6588SOL     OW31225   2.730   4.504   3.915 -0.0668 -0.2908  0.2462
 6588SOL    HW131226   2.746   4.436   3.849 -1.6001 -1.2452  0.8741
 6588SOL    HW231227   2.753   4.466   3.999  0.1246  0.6617  0.6274
 6589SOL     OW31228   1.370   0.962   9.277  0.5910 -0.1038 -0.1742
 6589SOL    HW131229   1.416   0.893   9.324 -1.3552  1.9952  4.7513
 6589SOL    HW231230   1.309   1.000   9.340  2.0873  1.2564  0.4593
 6590SOL     OW31231   4.308   1.517   7.516 -0.3693 -0.3461  0.3415
 6590SOL    HW131232   4.381   1.572   7.486 -0.2374 -1.6668 -1.7108
 6590SOL    HW231233   4.255   1.593   7.541 -0.2190 -1.0494  2.8429
 6591SOL     OW31234   2.512   1.984   2.485  0.1702 -0.1379 -0.0220
 6591SOL    HW131235   2.589   2.000   2.540  0.1474 -4.1144  1.1272
 6591SOL    HW231236   2.518   1.897   2.447  2.1876  0.6075 -1.4673
 6592SOL     OW31237   3.295   4.298   3.517  0.1152 -0.0112  0.3120
 6592SOL    HW131238   3.377   4.343   3.497  1.1940 -2.1826 -0.1971
 6592SOL    HW231239   3.243   4.308   3.438 -1.0988 -0.6234  1.0269
 6593SOL     OW31240   3.040   1.031   3.865 -0.4718  0.4259 -0.2398
 6593SOL    HW131241   3.120   1.005   3.911  0.6949  0.2102 -2.4115
 6593SOL    HW231242   3.061   1.114   3.822 -1.1176  0.0203 -1.3460
 6594SOL     OW31243   3.002   4.036   3.542 -0.5062 -0.1747  0.2883
 6594SOL    HW131244   2.969   3.952   3.575 -1.0011  0.2497  0.8773
 6594SOL    HW231245   3.050   4.081   3.612 -1.9506 -2.2237  2.6160
 6595SOL     OW31246   0.219   4.490  10.189 -0.0489  0.0619 -0.5009
 6595SOL    HW131247   0.218   4.399  10.220 -2.0318  0.3278  0.1891
 6595SOL    HW231248   0.165   4.543  10.247 -0.2455 -1.2223  0.4940
 6596SOL     OW31249   1.619   4.391  10.138 -0.8785  0.1632 -0.5831
 6596SOL    HW131250   1.673   4.394  10.059 -2.7810  1.6370 -1.8300
 6596SOL    HW231251   1.657   4.455  10.197 -0.3527 -1.4965  0.8630
 6597SOL     OW31252   3.945   0.289   3.519 -0.6283  0.0199  0.0782
 6597SOL    HW131253   3.909   0.233   3.451 -0.6495 -0.6075  0.6051
 6597SOL    HW231254   3.995   0.345   3.460  2.0282 -2.9946 -0.4785
 6598SOL     OW31255   0.787   3.882  10.165  0.2330 -0.1862 -0.0170
 6598SOL    HW131256   0.832   3.883  10.249 -0.3238 -0.5591  0.2840
 6598SOL    HW231257   0.831   3.803  10.133  1.7079  0.5233  0.2490
 6599SOL     OW31258   1.260   1.929   3.262  0.1068  0.2476 -0.2140
 6599SOL    HW131259   1.296   2.010   3.300 -0.3670  0.2989  0.1260
 6599SOL    HW231260   1.237   1.954   3.173  2.8197  3.6396  0.0094
 6600SOL     OW31261   3.436   4.468   0.971  0.3667 -0.1397 -0.5349
 6600SOL    HW131262   3.522   4.485   1.010  0.7795 -0.7367 -1.1764
 6600SOL    HW231263   3.402   4.406   1.035 -2.3573  1.1715 -0.7565
 6601SOL     OW31264   2.801   1.685   4.141 -0.1954  0.0011  0.3182
 6601SOL    HW131265   2.825   1.702   4.050  1.9443 -0.9411  0.7206
 6601SOL    HW231266   2.781   1.777   4.160  0.4696 -0.1369  1.7397
 6602SOL     OW31267   0.725   3.337   5.768  0.1162  0.3069 -0.4928
 6602SOL    HW131268   0.707   3.277   5.695  0.5821 -0.9170  0.4052
 6602SOL    HW231269   0.673   3.414   5.743 -1.1001 -0.3950 -0.1330
 6603SOL     OW31270   3.200   0.353   2.725  0.2561 -0.8529  0.0010
 6603SOL    HW131271   3.294   0.367   2.714  0.1954  1.7149  2.5014
 6603SOL    HW231272   3.171   0.312   2.644 -0.5590 -0.1924 -0.0446
 6604SOL     OW31273   0.530   0.706   2.879 -0.0360  0.5567 -0.7519
 6604SOL    HW131274   0.457   0.676   2.826 -0.0877  3.6492 -2.4627
 6604SOL    HW231275   0.490   0.709   2.966 -3.0656  0.3889 -2.1349
 6605SOL     OW31276   2.383   3.866   2.267  0.3952 -0.2728  0.1010
 6605SOL    HW131277   2.339   3.916   2.197  0.2057 -1.2555 -0.4895
 6605SOL    HW231278   2.362   3.919   2.344  1.9753 -0.8998  0.9628
 6606SOL     OW31279   1.639   3.915  15.173 -0.3332 -0.5707  0.0592
 6606SOL    HW131280   1.665   3.845  15.113  0.4397  0.9522 -1.4177
 6606SOL    HW231281   1.644   3.869  15.256  0.3221  0.8009  0.7810
 6607SOL     OW31282   1.158   2.001  13.133  0.6191  0.6067  0.4311
 6607SOL    HW131283   1.252   1.990  13.123  0.3200 -0.3921 -1.3332
 6607SOL    HW231284   1.114   1.921  13.103  0.3576  0.9838 -0.1926
 6608SOL     OW31285   4.194   0.581   5.305 -0.6665  0.7841 -0.0547
 6608SOL    HW131286   4.181   0.606   5.214 -1.6652  0.6440  0.0402
 6608SOL    HW231287   4.134   0.647   5.341  0.2615  1.7005 -0.1982
 6609SOL     OW31288   2.664   0.760   9.744  0.3060  0.3893 -0.3886
 6609SOL    HW131289   2.587   0.737   9.795  1.4836  1.6446  1.9406
 6609SOL    HW231290   2.707   0.817   9.808 -1.1902  0.5543  0.4564
 6610SOL     OW31291   3.237   4.669   4.411  0.2911 -0.2594 -0.8523
 6610SOL    HW131292   3.207   4.717   4.334 -1.5838 -0.1792 -0.0762
 6610SOL    HW231293   3.212   4.578   4.394 -0.0978  0.2236 -2.8453
 6611SOL     OW31294   1.422   0.019   6.248  0.4169  0.1547  0.1430
 6611SOL    HW131295   1.437   0.099   6.198 -1.3491  0.4008 -0.0010
 6611SOL    HW231296   1.468   4.670   6.203  0.1952 -0.0982  0.3128
 6612SOL     OW31297   1.431   1.226   2.381 -0.4553  1.0930 -0.5456
 6612SOL    HW131298   1.401   1.233   2.290 -0.5895  1.6086 -0.4608
 6612SOL    HW231299   1.351   1.219   2.432 -1.3129  1.1713 -1.8881
 6613SOL     OW31300   0.766   0.231   9.653  0.2173 -0.4718 -0.3033
 6613SOL    HW131301   0.724   0.179   9.584  2.6033 -4.1564  1.0292
 6613SOL    HW231302   0.790   0.315   9.612  1.1056 -0.7480 -0.3491
 6614SOL     OW31303   1.737   1.644   7.355  0.1470  0.2507  0.1144
 6614SOL    HW131304   1.680   1.567   7.355 -2.8673  2.5182  0.7153
 6614SOL    HW231305   1.733   1.673   7.264  0.6381  0.7522  0.2537
 6615SOL     OW31306   2.780   2.249  16.036  0.3120 -0.1014  0.2571
 6615SOL    HW131307   2.721   2.178  16.012 -1.2659  0.6508  1.9535
 6615SOL    HW231308   2.815   2.228  16.122 -2.0307 -0.2016  1.1830
 6616SOL     OW31309   1.094   2.945   1.297  0.1866 -0.3280  0.1438
 6616SOL    HW131310   1.012   2.932   1.249 -0.3387 -0.6410  1.1296
 6616SOL    HW231311   1.063   2.927   1.386 -0.5152 -0.0068 -0.0370
 6617SOL     OW31312   2.538   3.015   4.379  0.0549  0.0569  0.3381
 6617SOL    HW131313   2.543   3.042   4.471 -0.6349 -1.1397  0.7153
 6617SOL    HW231314   2.609   2.952   4.370 -0.2704 -0.3881  0.8856
 6618SOL     OW31315   0.313   1.405   2.601 -0.1254 -0.3247 -0.2605
 6618SOL    HW131316   0.225   1.442   2.606 -0.9416 -2.3827  0.6077
 6618SOL    HW231317   0.357   1.457   2.668  0.6497 -0.6702 -0.4981
 6619SOL     OW31318   1.336   1.882   4.748  0.0495  0.1828 -0.2552
 6619SOL    HW131319   1.304   1.797   4.718 -0.2279  0.9284 -2.1107
 6619SOL    HW231320   1.421   1.895   4.707 -0.3403  0.4924 -0.9639
 6620SOL     OW31321   1.442   2.998   3.457  0.6342  0.4113 -0.6655
 6620SOL    HW131322   1.449   3.036   3.544  1.9436  0.1494 -0.6595
 6620SOL    HW231323   1.532   3.014   3.429  0.1630  3.0601 -0.6934
 6621SOL     OW31324   0.067   0.997   6.450  0.3072  0.6999  0.7628
 6621SOL    HW131325   0.041   0.907   6.432 -0.8826  0.7028  2.4654
 6621SOL    HW231326   0.014   1.044   6.386 -0.0108 -0.0629  0.4586
 6622SOL     OW31327   0.421   0.215   3.932 -0.3247 -0.5501  0.5819
 6622SOL    HW131328   0.471   0.143   3.970  2.0348 -0.3560 -2.1632
 6622SOL    HW231329   0.423   0.198   3.838 -0.4670  1.6980  0.1628
 6623SOL     OW31330   1.398   0.622  14.686 -0.2395 -0.0814 -0.2472
 6623SOL    HW131331   1.409   0.698  14.744  0.6754  1.6184 -2.6477
 6623SOL    HW231332   1.320   0.655  14.641 -0.3462  0.4367  0.3131
 6624SOL     OW31333   0.061   0.622  17.631 -0.4043  0.2144  0.1328
 6624SOL    HW131334   0.109   0.561  17.687  0.9724  1.3670  0.1985
 6624SOL    HW231335   0.132   0.680  17.605 -0.0320  0.4323  1.6845
 6625SOL     OW31336   0.192   3.967   1.616 -0.3495  0.3135 -0.2274
 6625SOL    HW131337   0.207   3.946   1.524 -0.2129  1.5584 -0.4833
 6625SOL    HW231338   0.147   3.886   1.642 -1.2552  1.4335  1.6929
 6626SOL     OW31339   3.443   2.438   0.586  0.3198  0.5913  0.2164
 6626SOL    HW131340   3.498   2.409   0.659  1.3938 -0.3204 -0.9692
 6626SOL    HW231341   3.517   2.455   0.527 -0.2355  1.4622 -0.2227
 6627SOL     OW31342   4.491   0.713   7.840  0.0713  0.4700 -0.3419
 6627SOL    HW131343   4.462   0.645   7.780 -2.4781  1.2937 -0.0421
 6627SOL    HW231344   4.546   0.670   7.905  1.3465  1.9223 -0.4431
 6628SOL     OW31345   2.516   3.489   6.631 -0.7232 -0.1595 -0.6745
 6628SOL    HW131346   2.586   3.550   6.653  0.7151 -2.5583  1.3674
 6628SOL    HW231347   2.437   3.522   6.673  0.1102  1.5560 -0.4520
 6629SOL     OW31348   1.863   3.559   0.653 -0.3143 -0.4651  0.3777
 6629SOL    HW131349   1.817   3.481   0.621 -0.5858  0.1081 -0.6477
 6629SOL    HW231350   1.832   3.627   0.592  0.6810  2.0884  2.6946
 6630SOL     OW31351   3.971   3.117   8.132  0.0662 -0.7736  0.2064
 6630SOL    HW131352   4.040   3.068   8.178  1.0789  0.6899  0.2571
 6630SOL    HW231353   3.981   3.091   8.041  0.8928 -2.1177  0.6813
 6631SOL     OW31354   3.702   1.239  13.754  0.1865  0.6652 -0.0617
 6631SOL    HW131355   3.609   1.243  13.732  0.1641 -0.5139 -0.1690
 6631SOL    HW231356   3.729   1.326  13.722 -0.5084  0.8186 -0.2191
 6632SOL     OW31357   2.639   3.818   7.253 -0.0005 -0.3647  0.0961
 6632SOL    HW131358   2.547   3.819   7.227 -0.3231 -1.6110  1.1712
 6632SOL    HW231359   2.658   3.743   7.309  0.2750  0.4624  1.1293
 6633SOL     OW31360   2.230   0.241   6.720  0.1211 -0.4215  0.5865
 6633SOL    HW131361   2.295   0.188   6.766  0.0073 -0.9516  0.1398
 6633SOL    HW231362   2.244   0.327   6.759  0.0192  0.6545 -1.7065
 6634SOL     OW31363   3.618   0.685   6.211 -0.1998 -0.0271  0.7350
 6634SOL    HW131364   3.557   0.713   6.280 -2.2386 -1.4095 -0.5162
 6634SOL    HW231365   3.682   0.642   6.268 -0.3785  0.1301  1.0556
 6635SOL     OW31366   1.776   2.957   4.617  0.2580  0.5200 -0.1031
 6635SOL    HW131367   1.856   2.989   4.576  0.7431  2.4623  2.3804
 6635SOL    HW231368   1.761   2.873   4.574  0.3173  0.6961 -0.4638
 6636SOL     OW31369   2.623   2.744  11.323  0.0173 -0.2416  0.1871
 6636SOL    HW131370   2.693   2.683  11.346  1.5552  0.8898 -1.4393
 6636SOL    HW231371   2.567   2.729  11.399 -3.1585 -0.9679 -2.3140
 6637SOL     OW31372   4.604   3.164   7.084  0.2050 -0.1992  0.1036
 6637SOL    HW131373   4.650   3.202   7.159  1.2699 -2.5077  0.6281
 6637SOL    HW231374   4.514   3.174   7.113  0.0146 -1.9255  0.1384
 6638SOL     OW31375   3.958   0.933   8.387  0.1742 -0.3548 -0.0882
 6638SOL    HW131376   3.980   0.981   8.307 -0.5393 -1.3719 -0.8898
 6638SOL    HW231377   3.983   0.994   8.457 -0.9396  0.5724 -0.5127
 6639SOL     OW31378   2.208   2.612   4.492 -0.1666 -0.7012 -0.0672
 6639SOL    HW131379   2.114   2.606   4.474 -0.2422 -0.4172  0.2434
 6639SOL    HW231380   2.209   2.683   4.555  2.9715 -2.2456  1.5918
 6640SOL     OW31381   2.830   0.765   7.858 -0.3080  0.1840 -0.1705
 6640SOL    HW131382   2.815   0.796   7.948  0.9857 -1.0752  0.4744
 6640SOL    HW231383   2.746   0.783   7.816 -0.6971  1.5802  1.1814
 6641SOL     OW31384   3.292   0.862  12.360  0.1079  0.0187 -0.2193
 6641SOL    HW131385   3.286   0.768  12.344 -0.8933  0.3482 -1.8480
 6641SOL    HW231386   3.260   0.869  12.449 -0.2714  2.0077 -0.5043
 6642SOL     OW31387   0.794   2.844  12.749 -0.2693 -0.0324  0.5105
 6642SOL    HW131388   0.743   2.924  12.736 -0.7690 -0.1748  1.5025
 6642SOL    HW231389   0.741   2.788  12.692  1.1616 -0.2769 -0.5611
 6643SOL     OW31390   1.718   4.394  13.309  0.2086  0.0091 -0.0464
 6643SOL    HW131391   1.672   4.418  13.229  0.5624 -0.1424 -0.2959
 6643SOL    HW231392   1.789   4.459  13.302  1.2799 -1.2162 -0.6404
 6644SOL     OW31393   0.964   4.290   2.080 -0.5644  0.2869 -0.1065
 6644SOL    HW131394   1.015   4.354   2.032  1.4028 -1.3169 -0.1592
 6644SOL    HW231395   0.874   4.320   2.066 -1.2177 -2.2672 -1.3514
 6645SOL     OW31396   0.978   2.796   6.293  0.5754  0.7627  0.0866
 6645SOL    HW131397   0.973   2.777   6.387  2.9893  0.7068  0.1946
 6645SOL    HW231398   1.072   2.797   6.276  1.0146 -0.3928  2.4035
 6646SOL     OW31399   0.526   0.699   7.914 -0.0264 -0.0232  0.8470
 6646SOL    HW131400   0.439   0.719   7.948  0.3167  3.3435 -0.2121
 6646SOL    HW231401   0.514   0.673   7.823  0.2047  0.3300  0.7158
 6647SOL     OW31402   2.436   1.753  17.456  0.3423 -0.0817  0.3505
 6647SOL    HW131403   2.375   1.680  17.464  1.6541 -1.2159 -0.0395
 6647SOL    HW231404   2.435   1.790  17.544 -0.2622 -1.5338  0.9499
 6648SOL     OW31405   0.810   3.795   4.424  0.3446 -0.1945  0.4180
 6648SOL    HW131406   0.894   3.838   4.441  1.3606 -1.5632 -1.0621
 6648SOL    HW231407   0.834   3.703   4.435  2.5617 -0.1479 -3.8107
 6649SOL     OW31408   1.272   4.136  10.771 -0.1358 -0.0483 -0.8977
 6649SOL    HW131409   1.239   4.211  10.721  0.3246  0.1453 -0.9096
 6649SOL    HW231410   1.192   4.087  10.793 -0.9778  0.7589 -2.1331
 6650SOL     OW31411   1.693   4.164   9.392 -0.7433 -0.3855 -0.1819
 6650SOL    HW131412   1.763   4.188   9.332 -3.1308  2.5897 -1.8014
 6650SOL    HW231413   1.670   4.248   9.432 -0.8923 -0.4092 -0.2166
 6651SOL     OW31414   0.953   1.746   3.774 -0.0030  0.8542 -0.3441
 6651SOL    HW131415   0.924   1.767   3.863  2.5437  1.5771  0.3086
 6651SOL    HW231416   0.897   1.669   3.762  0.7348  0.4177 -1.0007
 6652SOL     OW31417   0.772   3.293   4.457 -0.1888  0.0006 -0.0011
 6652SOL    HW131418   0.785   3.238   4.534  1.9539 -1.7599 -1.6205
 6652SOL    HW231419   0.766   3.219   4.396 -0.9091  0.3684 -0.3781
 6653SOL     OW31420   1.162   1.296   7.760 -0.2336 -0.4590 -0.2246
 6653SOL    HW131421   1.206   1.240   7.825  0.7676  1.0383  0.3917
 6653SOL    HW231422   1.216   1.301   7.681 -1.5200 -0.9372 -1.1270
 6654SOL     OW31423   0.979   4.267   0.327 -0.1635  0.2108 -0.2712
 6654SOL    HW131424   1.072   4.290   0.317 -0.7035  1.4962 -2.2665
 6654SOL    HW231425   0.950   4.249   0.238 -0.3519 -1.7587  0.1717
 6655SOL     OW31426   4.152   3.762   9.841 -0.0248  0.2240 -0.5310
 6655SOL    HW131427   4.135   3.669   9.829 -0.2754  0.3689 -1.3258
 6655SOL    HW231428   4.068   3.802   9.861  0.1817 -0.2618  1.2417
 6656SOL     OW31429   0.979   0.995   8.142 -0.4743  0.0226 -0.2032
 6656SOL    HW131430   0.957   1.033   8.226 -1.0139 -0.0222 -0.3221
 6656SOL    HW231431   0.919   1.047   8.088  1.4023 -0.6185 -2.9450
 6657SOL     OW31432   2.888   3.927  11.274 -0.0372 -0.5866 -0.6211
 6657SOL    HW131433   2.897   3.839  11.237  0.4054 -1.3161  1.2073
 6657SOL    HW231434   2.977   3.960  11.285 -0.1628 -1.5508  3.1309
 6658SOL     OW31435   4.475   0.742   8.935  0.1579 -1.0666  0.0846
 6658SOL    HW131436   4.543   0.694   8.982  2.8448  1.0873 -1.6279
 6658SOL    HW231437   4.502   0.733   8.843  1.0583  0.9562  0.1604
 6659SOL     OW31438   4.290   4.716  10.625  0.2971  0.6399 -0.1035
 6659SOL    HW131439   4.196   0.005  10.641 -0.1470  0.0626 -2.2897
 6659SOL    HW231440   4.288   4.664  10.545  2.9439  0.4314 -0.0115
 6660SOL     OW31441   2.691   2.377  11.527  0.1740 -0.0052  0.4488
 6660SOL    HW131442   2.688   2.452  11.587 -1.4407  0.6747 -0.4921
 6660SOL    HW231443   2.618   2.321  11.552  2.0244 -2.3510  0.5438
 6661SOL     OW31444   4.105   0.575   2.062  0.1468  0.0159 -0.0957
 6661SOL    HW131445   4.177   0.546   2.117  1.1374  1.5240 -0.5966
 6661SOL    HW231446   4.093   0.513   1.990  1.1460  1.0345 -1.1434
 6662SOL     OW31447   0.164   3.655   6.454  0.6073  0.1883  0.4743
 6662SOL    HW131448   0.143   3.615   6.539  1.5146  0.4361  0.8214
 6662SOL    HW231449   0.083   3.646   6.404  0.5318 -1.1663  0.8212
 6663SOL     OW31450   1.760   0.437   5.648  0.3206  0.2311 -0.7091
 6663SOL    HW131451   1.761   0.345   5.622 -1.3776  0.3365 -1.1462
 6663SOL    HW231452   1.683   0.476   5.605 -0.6161  0.1140  0.8603
 6664SOL     OW31453   3.875   3.739  12.752  0.3017  0.1751 -0.2151
 6664SOL    HW131454   3.906   3.814  12.702  0.1280  0.8037  0.6177
 6664SOL    HW231455   3.926   3.756  12.832  0.1432 -0.1738 -0.0384
 6665SOL     OW31456   2.118   1.472   7.266  0.0175 -0.1607  0.1784
 6665SOL    HW131457   2.180   1.441   7.200  0.3124  2.3713 -0.7304
 6665SOL    HW231458   2.126   1.567   7.256 -1.1269 -0.1231 -0.3623
 6666SOL     OW31459   3.146   4.373   6.432  0.3317  0.3153  0.3154
 6666SOL    HW131460   3.167   4.281   6.448  2.1214  0.6394 -0.0969
 6666SOL    HW231461   3.061   4.368   6.390 -0.3930  0.7905  1.7340
 6667SOL     OW31462   2.317   1.718   6.230  0.2570  0.1404  0.0176
 6667SOL    HW131463   2.258   1.743   6.301  0.3760  1.2533 -0.2739
 6667SOL    HW231464   2.310   1.790   6.168 -1.5307 -0.2343 -0.2065
 6668SOL     OW31465   0.554   2.409   3.083  0.1264 -0.0592 -0.4551
 6668SOL    HW131466   0.533   2.484   3.029  1.6691  0.0216 -0.9381
 6668SOL    HW231467   0.546   2.333   3.025  0.1533 -0.4158  0.0003
 6669SOL     OW31468   3.756   0.420   8.346 -0.5815 -0.4428  0.4061
 6669SOL    HW131469   3.818   0.494   8.353 -1.5147  0.1989  1.9109
 6669SOL    HW231470   3.690   0.442   8.281 -0.7118  0.0636  0.7088
 6670SOL     OW31471   2.954   3.811   5.178 -0.5329 -0.0112  0.0381
 6670SOL    HW131472   2.927   3.873   5.245 -3.0798  0.2729 -1.2407
 6670SOL    HW231473   2.877   3.803   5.122 -1.3630  1.4897  0.9793
 6671SOL     OW31474   2.846   2.287   4.258 -0.3085  0.1643  0.4426
 6671SOL    HW131475   2.861   2.227   4.186  1.4536  0.0717  0.8927
 6671SOL    HW231476   2.893   2.245   4.330 -0.8893 -1.2884 -0.0311
 6672SOL     OW31477   1.295   2.898   7.626  1.2282 -0.1427  0.5816
 6672SOL    HW131478   1.306   2.803   7.628  0.5177 -0.2463 -0.4717
 6672SOL    HW231479   1.380   2.921   7.662  2.1255 -1.1234 -0.9462
 6673SOL     OW31480   2.583   4.551   7.033 -0.5363  0.2745 -0.5443
 6673SOL    HW131481   2.597   4.601   6.953 -1.1682  0.2483 -0.6675
 6673SOL    HW231482   2.673   4.524   7.050 -1.4307 -1.9045  0.7812
 6674SOL     OW31483   2.770   2.610   2.725 -0.4314  0.2479 -0.1854
 6674SOL    HW131484   2.719   2.668   2.669  0.7024  0.9464 -0.5014
 6674SOL    HW231485   2.727   2.527   2.708 -1.7010  0.6791  0.9037
 6675SOL     OW31486   0.751   2.891  16.338 -0.8084  0.5223 -0.2368
 6675SOL    HW131487   0.730   2.924  16.426  0.8143  4.6076 -1.3715
 6675SOL    HW231488   0.697   2.813  16.331  0.7950 -0.5878 -0.3003
 6676SOL     OW31489   2.857   3.549   7.646  0.0145 -0.0257 -0.1174
 6676SOL    HW131490   2.873   3.554   7.741  0.3445 -0.0874 -0.1678
 6676SOL    HW231491   2.923   3.485   7.619 -0.5944 -0.3940 -0.7314
 6677SOL     OW31492   2.020   3.180   4.862  0.1685  0.6097 -0.2653
 6677SOL    HW131493   2.036   3.267   4.897  1.9118  0.7194 -1.3440
 6677SOL    HW231494   1.931   3.159   4.893 -0.2327  2.0374 -0.4813
 6678SOL     OW31495   4.061   1.501  11.131 -0.2584 -0.2990 -0.4334
 6678SOL    HW131496   4.061   1.490  11.036  2.2649  0.5591 -0.5423
 6678SOL    HW231497   3.976   1.467  11.157 -0.0932  0.2115  0.7824
 6679SOL     OW31498   4.271   4.244  15.689  0.1689  0.0098 -0.5022
 6679SOL    HW131499   4.329   4.197  15.748 -0.9030 -1.1033 -0.3397
 6679SOL    HW231500   4.279   4.332  15.726 -0.1520  0.3661 -1.2758
 6680SOL     OW31501   1.841   2.559   6.598 -0.3717  0.1440 -0.3357
 6680SOL    HW131502   1.887   2.604   6.669 -1.8604 -1.4331  1.6055
 6680SOL    HW231503   1.760   2.539   6.645 -0.6674  1.8360 -0.1238
 6681SOL     OW31504   0.807   2.445   3.522 -0.2942 -0.5608  0.4985
 6681SOL    HW131505   0.851   2.526   3.544  0.1457 -0.2158 -1.6474
 6681SOL    HW231506   0.865   2.390   3.575  0.5073  0.3537  0.5573
 6682SOL     OW31507   2.133   3.099  15.613 -0.0478 -0.0269  0.2373
 6682SOL    HW131508   2.059   3.132  15.562 -0.2342 -1.9741 -0.7403
 6682SOL    HW231509   2.120   3.137  15.700  1.8873  0.1633  0.4446
 6683SOL     OW31510   2.764   1.291   9.219  0.7436 -0.7145  0.3901
 6683SOL    HW131511   2.768   1.198   9.195  0.0364 -0.7901  0.5604
 6683SOL    HW231512   2.770   1.332   9.133  0.6769  1.3157  1.3530
 6684SOL     OW31513   1.645   0.344   5.371  0.0651  0.1358  0.1248
 6684SOL    HW131514   1.669   0.428   5.331 -0.5018  0.5359  0.6284
 6684SOL    HW231515   1.688   0.282   5.312  1.4289  0.6672  0.5561
 6685SOL     OW31516   4.147   1.133   9.038  0.3398 -0.1400 -0.6835
 6685SOL    HW131517   4.219   1.071   9.027  0.3344  0.0336 -1.7756
 6685SOL    HW231518   4.199   1.205   9.073  1.9589 -1.8280  0.3874
 6686SOL     OW31519   4.413   0.881  13.098  0.2459  0.1429  0.0544
 6686SOL    HW131520   4.341   0.939  13.070 -0.9822 -0.7580  1.3454
 6686SOL    HW231521   4.486   0.929  13.058  0.1869  0.6199  0.5176
 6687SOL     OW31522   3.543   2.550  16.851 -0.2362  0.0286 -0.0225
 6687SOL    HW131523   3.459   2.523  16.888 -0.9444  0.8923 -0.9944
 6687SOL    HW231524   3.598   2.490  16.902 -0.5128 -0.4265 -0.2619
 6688SOL     OW31525   2.266   0.881   1.866  0.1089  0.3241 -0.6781
 6688SOL    HW131526   2.324   0.807   1.847 -0.6978 -0.8015  1.2964
 6688SOL    HW231527   2.269   0.887   1.961  1.4017 -1.2915 -0.6223
 6689SOL     OW31528   1.446   3.112   3.722  0.0008 -0.1437  0.1099
 6689SOL    HW131529   1.464   3.167   3.799  0.1652 -1.4257  0.9806
 6689SOL    HW231530   1.357   3.079   3.730 -0.3033  0.1809 -1.9645
 6690SOL     OW31531   3.629   2.674   5.329 -0.5417 -0.0568 -0.0328
 6690SOL    HW131532   3.686   2.745   5.357  1.8093 -1.1246 -2.1558
 6690SOL    HW231533   3.679   2.596   5.354 -3.3504 -3.1172 -3.8692
 6691SOL     OW31534   4.574   1.287   4.348  1.0434  0.0246  0.3387
 6691SOL    HW131535   4.577   1.226   4.422 -0.8335 -0.1415  0.2671
 6691SOL    HW231536   4.499   1.254   4.299  1.5128 -2.2017  1.1031
 6692SOL     OW31537   0.652   0.893   7.708 -0.3526 -0.4046 -0.6267
 6692SOL    HW131538   0.632   0.963   7.770  0.6107 -0.8788  0.2459
 6692SOL    HW231539   0.571   0.844   7.693 -0.6235 -0.0793 -0.2223
 6693SOL     OW31540   3.324   4.193   0.550  0.0981  0.0890 -0.1803
 6693SOL    HW131541   3.275   4.268   0.517  1.8546  1.9837  1.5798
 6693SOL    HW231542   3.263   4.193   0.624  0.9883 -0.6575  0.5600
 6694SOL     OW31543   3.157   2.837   6.930 -0.1297 -0.1046 -0.1782
 6694SOL    HW131544   3.074   2.881   6.914  0.4975  1.1775  0.0468
 6694SOL    HW231545   3.223   2.897   6.894 -0.4568  0.9904  1.0353
 6695SOL     OW31546   3.101   4.325   2.118 -0.3740  0.3683 -0.4182
 6695SOL    HW131547   3.164   4.398   2.115  1.2403 -0.9311  2.0853
 6695SOL    HW231548   3.025   4.367   2.157  1.2824  1.6378  1.4449
 6696SOL     OW31549   1.981   0.803   2.002 -0.0746  0.0595 -0.2067
 6696SOL    HW131550   2.058   0.800   1.946  0.1434  0.6412  0.0639
 6696SOL    HW231551   2.014   0.780   2.089  0.7429  1.3004 -0.1979
 6697SOL     OW31552   2.310   4.316  15.409 -0.0197  0.1815 -0.3736
 6697SOL    HW131553   2.224   4.279  15.428 -0.0830  0.6794  0.2991
 6697SOL    HW231554   2.300   4.334  15.315 -1.6749 -0.6627 -0.3569
 6698SOL     OW31555   2.136   1.138   0.631 -0.2306  0.0007  0.2617
 6698SOL    HW131556   2.111   1.114   0.720 -0.9581 -1.4461 -0.3470
 6698SOL    HW231557   2.231   1.139   0.645  0.3420 -0.2066 -3.4654
 6699SOL     OW31558   3.852   3.679   6.875 -0.1551  0.0054 -0.4731
 6699SOL    HW131559   3.803   3.752   6.912 -0.2246 -0.3104  0.0631
 6699SOL    HW231560   3.817   3.598   6.912  1.8643 -0.8687 -0.4893
 6700SOL     OW31561   3.450   3.373   4.357  0.1703 -0.6874 -0.4797
 6700SOL    HW131562   3.393   3.320   4.301 -0.3902 -1.3335  0.7198
 6700SOL    HW231563   3.450   3.458   4.312  0.1709 -0.4391 -0.0045
 6701SOL     OW31564   0.012   4.310   6.640 -0.0860 -0.2918  0.1021
 6701SOL    HW131565   4.698   4.231   6.598  0.2788 -0.6351  0.4295
 6701SOL    HW231566   0.078   4.272   6.698 -0.8710 -0.1592  1.0960
 6702SOL     OW31567   2.490   1.107   1.331 -0.3372 -0.4003 -0.1056
 6702SOL    HW131568   2.462   1.121   1.422 -0.2447 -2.2979  0.2103
 6702SOL    HW231569   2.544   1.184   1.316 -2.7797  1.3764  0.2710
 6703SOL     OW31570   1.029   2.382  11.235  0.3183 -0.6898 -0.0173
 6703SOL    HW131571   0.975   2.388  11.313 -2.9063  1.8842 -2.4614
 6703SOL    HW231572   0.975   2.322  11.185 -0.2586 -1.9644  2.1264
 6704SOL     OW31573   3.735   1.929  11.307 -0.2809 -0.7236  0.1908
 6704SOL    HW131574   3.809   1.968  11.262 -1.4891 -0.7817 -1.8567
 6704SOL    HW231575   3.778   1.858  11.354  0.7039 -0.5538 -0.4546
 6705SOL     OW31576   0.341   1.741   5.810  0.1212  0.0011  0.0833
 6705SOL    HW131577   0.363   1.769   5.721  1.6847 -0.5332  0.3019
 6705SOL    HW231578   0.299   1.656   5.794 -3.5667  1.5982  1.1227
 6706SOL     OW31579   4.531   0.988   6.638 -0.1416  0.5918  0.0324
 6706SOL    HW131580   4.581   1.020   6.563 -0.8131  2.4227  0.3728
 6706SOL    HW231581   4.589   1.000   6.712 -2.1488  1.6223  1.4282
 6707SOL     OW31582   1.626   1.029   1.828  0.0343 -0.6654  0.2677
 6707SOL    HW131583   1.686   1.012   1.901 -0.8977  0.3815  1.2692
 6707SOL    HW231584   1.576   0.948   1.820 -2.3976  0.8715  0.0984
 6708SOL     OW31585   3.768   0.146   6.837  1.0913 -0.3623  0.3793
 6708SOL    HW131586   3.795   0.057   6.813  2.1930 -0.0116  0.3312
 6708SOL    HW231587   3.848   0.184   6.871  0.2927 -0.5712  2.5075
 6709SOL     OW31588   2.406   2.278  15.675 -0.0746 -0.1152  0.1999
 6709SOL    HW131589   2.489   2.293  15.629  1.2102  0.9049  2.7627
 6709SOL    HW231590   2.375   2.198  15.635 -1.3379  0.0659  0.8388
 6710SOL     OW31591   0.976   1.213   7.549 -0.0554  0.7254 -0.1386
 6710SOL    HW131592   1.049   1.273   7.567  0.1001  0.6834 -0.6040
 6710SOL    HW231593   0.937   1.203   7.635 -1.0908  0.3565 -0.6457
 6711SOL     OW31594   2.697   0.667   1.878 -0.2674 -0.1911 -0.4990
 6711SOL    HW131595   2.712   0.638   1.788 -0.1366 -1.4338 -0.0829
 6711SOL    HW231596   2.718   0.760   1.873  0.7110 -0.3707  0.2225
 6712SOL     OW31597   1.299   0.534   3.130  0.0925  0.4098 -0.2032
 6712SOL    HW131598   1.358   0.587   3.076 -0.5333  1.2997 -0.0142
 6712SOL    HW231599   1.348   0.532   3.212 -1.4138 -1.5486  0.6506
 6713SOL     OW31600   0.973   2.598   9.002 -0.0350 -0.0432 -0.4231
 6713SOL    HW131601   0.900   2.584   8.942  0.0802 -1.9065 -0.1048
 6713SOL    HW231602   0.932   2.593   9.088  0.8996 -0.5015 -0.0036
 6714SOL     OW31603   4.245   3.908   0.062 -0.1243  0.8135 -0.3033
 6714SOL    HW131604   4.316   3.869   0.114 -1.8230  0.1131  1.5061
 6714SOL    HW231605   4.218   3.831   0.011 -1.1029 -1.1010  3.0953
 6715SOL     OW31606   0.013   4.553   1.144  0.8379 -0.6296  0.4113
 6715SOL    HW131607   0.038   4.565   1.235 -0.3577  1.1762  0.4973
 6715SOL    HW231608   4.647   4.515   1.153  1.1578 -0.8239  2.6676
 6716SOL     OW31609   1.676   3.924   7.883  0.5009  0.2698  0.2244
 6716SOL    HW131610   1.584   3.925   7.858  0.3150  1.6454  0.9762
 6716SOL    HW231611   1.669   3.956   7.973  0.4078 -0.1066  0.3503
 6717SOL     OW31612   2.788   2.370  13.770 -0.3668  0.5549 -0.0255
 6717SOL    HW131613   2.806   2.450  13.820  1.0538 -0.3876  0.9787
 6717SOL    HW231614   2.702   2.343  13.802 -0.3759 -1.3723 -1.6752
 6718SOL     OW31615   2.487   3.961   5.850  0.0627  0.4203  0.3584
 6718SOL    HW131616   2.452   3.883   5.807 -0.5781 -0.5152  2.5955
 6718SOL    HW231617   2.508   4.009   5.770 -0.5042  0.1343  0.0432
 6719SOL     OW31618   0.148   2.419  12.753 -0.4593  0.3201  0.1747
 6719SOL    HW131619   0.220   2.371  12.794 -0.7150 -1.0369 -0.9614
 6719SOL    HW231620   0.080   2.394  12.816 -0.3832  0.7465  0.4273
 6720SOL     OW31621   2.524   3.290   8.358 -0.1893  0.0320  0.3295
 6720SOL    HW131622   2.508   3.224   8.290 -0.7701 -1.2220  1.6815
 6720SOL    HW231623   2.559   3.364   8.308  1.0991  0.1072  1.3446
 6721SOL     OW31624   1.304   1.992   3.626 -0.3839 -0.6156  0.1513
 6721SOL    HW131625   1.374   1.955   3.572  0.8131  0.6989  0.8029
 6721SOL    HW231626   1.338   1.970   3.713  1.9769  2.2797 -0.0602
 6722SOL     OW31627   0.282   2.327   3.765  0.1800  0.2581 -0.2254
 6722SOL    HW131628   0.307   2.245   3.808  0.7655  1.9683  2.7004
 6722SOL    HW231629   0.357   2.381   3.793  2.2786 -1.5081 -2.4093
 6723SOL     OW31630   2.470   3.977  11.647 -0.4025  0.0387 -0.1296
 6723SOL    HW131631   2.525   4.007  11.719 -0.2556 -1.8458  0.5336
 6723SOL    HW231632   2.404   3.930  11.699  3.0489 -2.6671  1.8129
 6724SOL     OW31633   3.119   2.800  10.267 -0.1842  0.1740 -0.0665
 6724SOL    HW131634   3.139   2.781  10.359  1.7402  0.5169 -0.4047
 6724SOL    HW231635   3.039   2.851  10.271 -0.9114 -0.9852  0.2305
 6725SOL     OW31636   2.644   3.372  15.153 -0.1775  0.2197 -0.2554
 6725SOL    HW131637   2.573   3.362  15.090  0.0048 -0.3550 -0.3726
 6725SOL    HW231638   2.643   3.467  15.165 -2.2078  0.1619 -0.0580
 6726SOL     OW31639   0.470   0.001   8.254 -0.5199 -0.2036 -0.1011
 6726SOL    HW131640   0.460   4.628   8.248  1.5669 -0.5554  1.9039
 6726SOL    HW231641   0.555   0.011   8.211 -0.0434 -0.9216  0.6863
 6727SOL     OW31642   3.789   1.736   0.902 -0.1812  0.2694 -0.1273
 6727SOL    HW131643   3.834   1.698   0.826 -1.0806 -0.2221 -0.4214
 6727SOL    HW231644   3.734   1.800   0.857  0.5626  0.6572 -0.4811
 6728SOL     OW31645   1.697   4.246   3.476  0.6609 -0.1543 -0.1828
 6728SOL    HW131646   1.755   4.169   3.483 -1.6141 -1.9972 -1.5621
 6728SOL    HW231647   1.736   4.282   3.397 -1.0102 -1.6332 -1.6937
 6729SOL     OW31648   3.627   4.191   3.199  0.1661  0.2067 -0.1890
 6729SOL    HW131649   3.620   4.097   3.216  0.7436  0.3010  0.5690
 6729SOL    HW231650   3.718   4.204   3.175  0.0176 -0.6989 -1.2271
 6730SOL     OW31651   3.482   1.374   6.031  0.2107  0.0891 -0.5495
 6730SOL    HW131652   3.503   1.392   6.122 -1.2025  0.4917 -0.3077
 6730SOL    HW231653   3.568   1.370   5.988  0.9226  0.9054  0.8085
 6731SOL     OW31654   3.974   3.589   6.333 -0.2107  0.1302  0.3434
 6731SOL    HW131655   4.055   3.608   6.286 -0.3507 -1.2487 -0.4429
 6731SOL    HW231656   3.930   3.531   6.271  0.7320  1.5407 -1.6592
 6732SOL     OW31657   4.684   4.573   8.891 -0.2819  0.3198  0.0395
 6732SOL    HW131658   4.714   4.486   8.917 -0.3788  1.0931  2.6822
 6732SOL    HW231659   0.031   4.615   8.840 -0.4295 -0.4935 -0.8210
 6733SOL     OW31660   2.302   1.160   8.790  0.3272 -0.5489  0.3929
 6733SOL    HW131661   2.369   1.156   8.721  0.6373 -0.7911  0.7031
 6733SOL    HW231662   2.302   1.254   8.804 -0.2089 -0.6519  1.0855
 6734SOL     OW31663   3.683   0.288   8.568 -0.2803  0.0131  0.0754
 6734SOL    HW131664   3.716   0.340   8.494 -0.3400 -0.7545 -0.4895
 6734SOL    HW231665   3.668   0.201   8.531  1.7157  1.6962 -4.6877
 6735SOL     OW31666   1.206   0.374   3.999  0.3501  0.3740  0.1750
 6735SOL    HW131667   1.233   0.465   4.002 -2.0385  0.9886  1.9887
 6735SOL    HW231668   1.140   0.378   3.930  0.4380 -1.5163 -0.0361
 6736SOL     OW31669   0.117   1.130   4.450 -0.0539  0.4567 -0.6987
 6736SOL    HW131670   0.111   1.214   4.404  0.3538 -0.4862 -2.4596
 6736SOL    HW231671   0.187   1.087   4.403 -0.1172 -1.1916  0.7096
 6737SOL     OW31672   2.676   2.895  10.509 -0.0556 -0.1155  0.2055
 6737SOL    HW131673   2.666   2.803  10.531  0.7470 -0.6532 -1.6711
 6737SOL    HW231674   2.652   2.934  10.592 -0.3579  2.8366 -1.2565
 6738SOL     OW31675   1.989   3.364   5.885 -0.1431  0.1985  0.2714
 6738SOL    HW131676   2.065   3.386   5.938 -0.0522 -1.6416  0.8705
 6738SOL    HW231677   1.977   3.446   5.836 -0.0584  1.4273  2.3018
 6739SOL     OW31678   1.938   3.017  16.622 -0.2690  0.3154 -0.2159
 6739SOL    HW131679   2.031   3.019  16.598 -0.3221 -0.0173 -0.4565
 6739SOL    HW231680   1.929   2.923  16.642  0.1201  1.0543  3.2788
 6740SOL     OW31681   2.861   4.045   5.317  0.4089  0.3717  0.3931
 6740SOL    HW131682   2.856   4.086   5.230  1.4127  1.4610  0.8603
 6740SOL    HW231683   2.800   4.102   5.364 -0.2623 -0.2301  0.2562
 6741SOL     OW31684   1.779   0.244   6.779 -0.0665  0.4363  0.2995
 6741SOL    HW131685   1.689   0.241   6.812  0.4517  4.8484  2.1358
 6741SOL    HW231686   1.818   0.309   6.837  2.5123 -1.7878  1.0612
 6742SOL     OW31687   0.012   3.567   7.567 -0.3276  0.3648  0.0167
 6742SOL    HW131688   4.698   3.632   7.628  0.0822  0.4861  0.1345
 6742SOL    HW231689   4.684   3.569   7.486  0.0323 -1.1037 -0.2378
 6743SOL     OW31690   1.837   4.432  15.761 -0.4422 -1.1317 -0.6842
 6743SOL    HW131691   1.789   4.368  15.814 -2.9337  2.2164  1.1101
 6743SOL    HW231692   1.797   4.510  15.801  1.2431 -0.9721  0.7120
 6744SOL     OW31693   2.241   2.819   7.346 -0.3591 -0.3067 -0.6680
 6744SOL    HW131694   2.169   2.818   7.283  0.6928  1.2534 -1.8927
 6744SOL    HW231695   2.195   2.878   7.406 -1.2690 -0.1512 -1.5184
 6745SOL     OW31696   2.463   3.338   4.073  0.3323 -0.0941 -0.1975
 6745SOL    HW131697   2.463   3.261   4.016  1.3345 -0.1014 -0.1951
 6745SOL    HW231698   2.386   3.325   4.127  0.4795  4.2247  1.0505
 6746SOL     OW31699   4.065   1.861   4.915 -1.0651 -0.5421  0.3518
 6746SOL    HW131700   4.102   1.839   4.830  2.2213  1.1619  1.3197
 6746SOL    HW231701   4.075   1.956   4.911 -0.2893 -0.6930 -1.4430
 6747SOL     OW31702   4.692   3.699  14.874  0.2854 -0.1798  0.3185
 6747SOL    HW131703   4.646   3.657  14.802 -0.4096  0.8414  0.1664
 6747SOL    HW231704   0.046   3.733  14.826 -0.7310  1.1436 -0.3403
 6748SOL     OW31705   3.887   1.030   7.123 -0.2212  0.0968 -0.4176
 6748SOL    HW131706   3.802   1.023   7.079 -0.9110  1.2082  0.7427
 6748SOL    HW231707   3.940   1.014   7.045 -0.3881  0.9652 -0.7036
 6749SOL     OW31708   1.105   0.401   2.380  0.4679 -0.4510  0.2057
 6749SOL    HW131709   1.098   0.318   2.427  1.1796 -1.7790 -2.0299
 6749SOL    HW231710   1.190   0.422   2.418  0.1344  2.1246 -0.4819
 6750SOL     OW31711   3.674   1.624   8.374 -0.1826  0.5177  0.8078
 6750SOL    HW131712   3.637   1.685   8.437  2.9642  1.0693  2.1152
 6750SOL    HW231713   3.612   1.551   8.366 -1.3214  1.8227 -2.3781
 6751SOL     OW31714   3.444   2.016   6.224  0.6616  0.4882  0.0459
 6751SOL    HW131715   3.487   2.058   6.298  0.2255  2.1981 -0.6511
 6751SOL    HW231716   3.479   2.069   6.152 -1.6321  0.2119 -1.2649
 6752SOL     OW31717   3.877   0.948  17.397  0.0548 -1.1715 -0.1056
 6752SOL    HW131718   3.911   0.866  17.360  1.3376 -0.7901  0.2233
 6752SOL    HW231719   3.791   0.926  17.433 -0.1460 -2.9725 -1.6756
 6753SOL     OW31720   0.320   2.418   1.367 -0.5094 -0.1855  0.0323
 6753SOL    HW131721   0.369   2.355   1.420  0.5371 -0.6234 -1.4472
 6753SOL    HW231722   0.283   2.471   1.437 -0.0148 -1.1574  1.0297
 6754SOL     OW31723   1.349   3.028   4.558  0.6051  0.8119  0.0060
 6754SOL    HW131724   1.261   3.030   4.519 -0.2767  0.0226  1.9290
 6754SOL    HW231725   1.409   2.994   4.493  0.8363 -2.4975  1.9209
 6755SOL     OW31726   0.621   1.253   5.309 -0.0726 -0.4062 -0.4410
 6755SOL    HW131727   0.547   1.311   5.293 -0.5387 -0.5820  1.0192
 6755SOL    HW231728   0.666   1.254   5.225  0.6614 -0.9678 -0.0627
 6756SOL     OW31729   2.461   0.702   4.922  0.3193  0.2723  0.2000
 6756SOL    HW131730   2.509   0.781   4.895 -0.2004  0.7262  0.5928
 6756SOL    HW231731   2.421   0.664   4.844 -2.4897  0.3955  1.5893
 6757SOL     OW31732   1.993   3.771   6.446 -0.1287 -0.5671 -0.1190
 6757SOL    HW131733   2.006   3.797   6.537 -0.6221  2.4083 -0.8790
 6757SOL    HW231734   2.042   3.838   6.397  0.4146 -1.2548 -0.5178
 6758SOL     OW31735   1.635   0.013   8.349  0.1788 -0.1214 -0.8082
 6758SOL    HW131736   1.652   4.644   8.323  3.5117  0.3529 -0.2935
 6758SOL    HW231737   1.612   0.004   8.442  0.0115 -0.6542 -0.8992
 6759SOL     OW31738   3.026   3.634   5.367  0.0598 -0.4499 -0.3560
 6759SOL    HW131739   3.029   3.697   5.295 -0.3635  0.6076  0.5531
 6759SOL    HW231740   2.943   3.662   5.407 -0.3863 -3.3634  0.7832
 6760SOL     OW31741   3.581   0.901  15.086 -0.1719 -0.2887 -0.0768
 6760SOL    HW131742   3.599   0.974  15.027  2.2934 -0.5274  0.4025
 6760SOL    HW231743   3.669   0.878  15.114 -0.1499  1.1931  1.0681
 6761SOL     OW31744   0.636   0.445   6.530  0.1450  0.6474  0.4978
 6761SOL    HW131745   0.726   0.413   6.540 -0.4951 -1.2501  0.1527
 6761SOL    HW231746   0.593   0.395   6.600  1.9891 -0.0195  1.1613
 6762SOL     OW31747   3.116   4.609   7.393  0.0756 -0.0848 -0.4480
 6762SOL    HW131748   3.094   4.648   7.477 -1.3592 -0.1301 -0.8062
 6762SOL    HW231749   3.049   4.541   7.388 -1.1450  1.1020 -0.1706
 6763SOL     OW31750   1.789   2.056   3.075 -0.4777  0.1289 -0.0709
 6763SOL    HW131751   1.743   2.073   3.158  0.3431  1.1647  0.1676
 6763SOL    HW231752   1.828   2.140   3.050 -0.9393  0.7646  1.3294
 6764SOL     OW31753   1.563   3.860   2.238  0.0581  0.2997  0.1658
 6764SOL    HW131754   1.558   3.942   2.189 -1.6929  1.0344  1.5904
 6764SOL    HW231755   1.490   3.881   2.297 -0.8131  0.3497 -0.9235
 6765SOL     OW31756   3.150   0.565   6.609  0.5892 -0.0731  0.5584
 6765SOL    HW131757   3.234   0.562   6.654  0.8725  1.1737  0.1437
 6765SOL    HW231758   3.181   0.536   6.523 -1.5279  2.4469 -1.0714
 6766SOL     OW31759   1.491   3.707   8.337 -0.0492 -0.3191 -0.0856
 6766SOL    HW131760   1.530   3.665   8.414  0.2570  0.3622  0.1276
 6766SOL    HW231761   1.504   3.799   8.357 -0.6734  0.1605 -1.9060
 6767SOL     OW31762   3.503   3.656  14.029  0.1151  0.2982  0.3317
 6767SOL    HW131763   3.477   3.568  14.002 -0.0370  0.0059  1.4228
 6767SOL    HW231764   3.528   3.684  13.942  2.0520 -0.4426  0.6614
 6768SOL     OW31765   2.480   0.788   0.940 -0.2760 -0.3185 -0.0177
 6768SOL    HW131766   2.431   0.859   0.981  2.0324  0.8359  0.6736
 6768SOL    HW231767   2.514   0.741   1.016 -0.6928 -1.3974 -0.4955
 6769SOL     OW31768   1.303   2.060   7.434 -0.0084 -0.0181 -0.0891
 6769SOL    HW131769   1.303   2.096   7.345 -0.5408  0.6602  0.1940
 6769SOL    HW231770   1.390   2.090   7.463 -1.3309  1.6143  2.1884
 6770SOL     OW31771   3.579   1.246   6.371 -0.5402  0.5320  0.0192
 6770SOL    HW131772   3.489   1.252   6.405 -1.0499  1.4931 -1.4580
 6770SOL    HW231773   3.611   1.336   6.374  0.9766  0.0085 -0.5622
 6771SOL     OW31774   0.450   2.831   2.078  0.1621  0.4067  0.7059
 6771SOL    HW131775   0.457   2.923   2.055 -1.1924  0.4355  0.4251
 6771SOL    HW231776   0.385   2.806   2.013  0.6224 -1.1509  0.8257
 6772SOL     OW31777   3.783   2.821   7.317  0.3751  0.4897  0.2207
 6772SOL    HW131778   3.819   2.824   7.228 -0.9609 -0.7645 -0.3563
 6772SOL    HW231779   3.776   2.916   7.325  0.1957  0.4314  0.7383
 6773SOL     OW31780   0.219   4.040  10.653 -0.9794 -0.2184 -0.7005
 6773SOL    HW131781   0.203   3.999  10.568 -0.7912 -1.5396 -0.1099
 6773SOL    HW231782   0.262   4.122  10.629 -1.3047 -0.0525 -0.7157
 6774SOL     OW31783   3.881   2.931   2.880  0.0818  0.1791  0.1334
 6774SOL    HW131784   3.934   2.874   2.825  1.5075 -0.0710  1.7646
 6774SOL    HW231785   3.933   3.011   2.872 -1.7641  1.4381  0.6206
 6775SOL     OW31786   0.694   0.776   6.971 -0.1718 -0.0485  0.3598
 6775SOL    HW131787   0.782   0.812   6.960  0.7036 -2.6979 -1.2876
 6775SOL    HW231788   0.701   0.771   7.067  0.4446  2.1745  0.4370
 6776SOL     OW31789   1.487   3.839   5.885 -0.1945  0.2862 -0.6979
 6776SOL    HW131790   1.582   3.828   5.882 -0.0863  1.5971 -1.9420
 6776SOL    HW231791   1.479   3.806   5.975  0.0701 -1.0120 -1.1567
 6777SOL     OW31792   0.687   2.821  11.608  0.0854  0.2479 -0.1042
 6777SOL    HW131793   0.731   2.745  11.570 -0.2007  0.8141 -1.5837
 6777SOL    HW231794   0.615   2.785  11.659 -0.7613 -0.1136 -1.5487
 6778SOL     OW31795   1.314   3.052   2.584 -0.4301 -0.3124  0.3934
 6778SOL    HW131796   1.223   3.079   2.574 -0.6508 -1.3414 -0.3632
 6778SOL    HW231797   1.366   3.078   2.508  2.2952  0.9070  2.6724
 6779SOL     OW31798   3.087   0.225   2.932  0.1143  0.4955 -0.2444
 6779SOL    HW131799   3.073   0.161   2.862 -0.1240  0.7287 -0.4078
 6779SOL    HW231800   3.131   0.294   2.882  0.3255  1.5634  1.4339
 6780SOL     OW31801   3.601   2.332  17.671 -0.2782 -0.1336 -0.2491
 6780SOL    HW131802   3.624   2.362  17.583 -0.7162  0.7536 -0.0625
 6780SOL    HW231803   3.580   2.241  17.652  1.0450  0.0827 -2.8247
 6781SOL     OW31804   4.299   0.453  14.765  0.3067 -0.0533  0.7579
 6781SOL    HW131805   4.346   0.373  14.787 -1.9422 -1.2386  1.1746
 6781SOL    HW231806   4.364   0.496  14.709  1.1279  0.0994  1.8318
 6782SOL     OW31807   4.225   4.220   6.953 -0.2446 -0.1537 -0.0079
 6782SOL    HW131808   4.217   4.143   6.896 -1.3113  0.3300 -0.5100
 6782SOL    HW231809   4.223   4.291   6.890  0.8028 -0.0979  0.0245
 6783SOL     OW31810   1.390   2.020   8.677  0.2805  0.2485 -0.0179
 6783SOL    HW131811   1.325   1.953   8.700  3.2357 -3.1375 -1.5266
 6783SOL    HW231812   1.437   2.043   8.757  0.9223 -1.3777  0.0611
 6784SOL     OW31813   4.585   3.067   1.383 -0.1882 -0.4040  0.5316
 6784SOL    HW131814   4.564   3.010   1.457  2.2188 -0.5981  1.0591
 6784SOL    HW231815   4.498   3.091   1.353  0.6719 -1.6875 -3.0986
 6785SOL     OW31816   1.103   2.713   4.068  0.2034 -0.1488  0.1795
 6785SOL    HW131817   1.070   2.637   4.021 -0.1132  0.8114 -1.1627
 6785SOL    HW231818   1.186   2.730   4.024  0.4216  0.9530  1.0183
 6786SOL     OW31819   1.434   1.456   5.402  0.0538  0.1018  0.0749
 6786SOL    HW131820   1.438   1.378   5.346 -0.9160 -0.6167  0.9935
 6786SOL    HW231821   1.526   1.482   5.401 -0.0877  0.5631 -0.6698
 6787SOL     OW31822   2.707   4.309  11.791 -0.6119  0.2072 -0.1080
 6787SOL    HW131823   2.663   4.233  11.829 -1.7823 -0.0068 -1.9013
 6787SOL    HW231824   2.791   4.277  11.758  0.0059  1.7053  0.0154
 6788SOL     OW31825   3.737   4.567   6.229 -0.1826 -0.0238  0.0942
 6788SOL    HW131826   3.745   4.620   6.149 -1.6890 -0.4736 -0.3544
 6788SOL    HW231827   3.646   4.582   6.254 -0.2262  1.5804 -1.0444
 6789SOL     OW31828   3.392   1.218   7.834 -0.0155  0.3091 -0.2488
 6789SOL    HW131829   3.312   1.166   7.843  0.8982 -0.6670  2.3149
 6789SOL    HW231830   3.460   1.150   7.838 -0.8478 -0.6152 -1.5914
 6790SOL     OW31831   4.200   1.291   0.783  0.1598  0.1799  0.2084
 6790SOL    HW131832   4.265   1.221   0.778  0.6478  0.7598 -1.4158
 6790SOL    HW231833   4.229   1.338   0.862 -0.3768  2.1209 -0.7578
 6791SOL     OW31834   2.070   2.569   2.343 -0.0443 -0.5052 -0.1659
 6791SOL    HW131835   2.142   2.508   2.331  0.2039 -0.4962  1.2690
 6791SOL    HW231836   2.003   2.502   2.331  0.0687 -0.8000  0.8731
 6792SOL     OW31837   3.125   3.679  11.965 -0.3837  0.2528  0.2452
 6792SOL    HW131838   3.193   3.635  11.915 -1.2532  1.8483 -2.3313
 6792SOL    HW231839   3.072   3.704  11.889 -1.3981 -1.0780  0.4964
 6793SOL     OW31840   1.770   1.597   5.391  0.1222  0.2906  0.0324
 6793SOL    HW131841   1.863   1.574   5.385  0.3532  1.6956 -1.8952
 6793SOL    HW231842   1.741   1.506   5.384 -1.2903  0.6641  1.1620
 6794SOL     OW31843   0.760   1.714  11.498 -0.2770 -0.5751 -0.4228
 6794SOL    HW131844   0.741   1.629  11.457  0.2799 -0.8735 -0.0682
 6794SOL    HW231845   0.679   1.734  11.544  0.1432 -0.8436  0.4339
 6795SOL     OW31846   4.179   0.264  12.349 -0.3519 -0.6433 -0.0957
 6795SOL    HW131847   4.106   0.203  12.364 -1.3561  0.5266 -0.1751
 6795SOL    HW231848   4.237   0.238  12.420  0.1990  0.2657 -0.2081
 6796SOL     OW31849   1.837   1.235  10.822  0.3996 -0.2684  0.4223
 6796SOL    HW131850   1.752   1.278  10.813  1.3081  1.0718 -1.6163
 6796SOL    HW231851   1.844   1.224  10.917  1.8011 -0.2173  0.3217
 6797SOL     OW31852   1.885   0.303   7.548 -0.1010 -0.4364 -0.5420
 6797SOL    HW131853   1.796   0.317   7.580  0.6426 -0.4668  1.4910
 6797SOL    HW231854   1.893   0.209   7.537 -2.2600 -0.7877  0.8390
 6798SOL     OW31855   4.041   3.827   5.402  0.3454  0.3935 -0.0365
 6798SOL    HW131856   3.948   3.836   5.426  0.5032 -1.1573  1.1262
 6798SOL    HW231857   4.064   3.920   5.399 -2.5857  1.1280 -0.4105
 6799SOL     OW31858   1.860   4.593   3.463  0.1731 -0.2826 -0.6328
 6799SOL    HW131859   1.924   4.526   3.486 -0.1012 -0.0845  0.7127
 6799SOL    HW231860   1.851   4.578   3.369 -0.9376 -1.3122 -0.3668
 6800SOL     OW31861   1.261   3.445   6.915 -0.5113 -0.4253  0.0670
 6800SOL    HW131862   1.205   3.487   6.849  0.8691  0.1170 -0.7521
 6800SOL    HW231863   1.228   3.492   6.992  0.7226  0.6877 -0.0954
 6801SOL     OW31864   4.238   1.784  14.371  0.6486  0.0782  0.0116
 6801SOL    HW131865   4.304   1.722  14.402  1.6579  1.4969  0.7090
 6801SOL    HW231866   4.265   1.855  14.430 -1.8130  1.1328 -0.1293
 6802SOL     OW31867   1.181   2.895  17.244 -0.2629 -0.1049 -0.0014
 6802SOL    HW131868   1.269   2.912  17.210 -0.4293  1.3279  0.2872
 6802SOL    HW231869   1.217   2.856  17.324  0.7180 -0.0049 -0.3932
 6803SOL     OW31870   1.374   0.181   7.032 -0.3134  0.4106  0.1514
 6803SOL    HW131871   1.429   0.183   7.110  0.8239  1.3104 -0.6672
 6803SOL    HW231872   1.417   0.112   6.981 -0.8333  0.5547 -0.4847
 6804SOL     OW31873   3.773   1.468   9.249  0.3294  0.0445 -0.2155
 6804SOL    HW131874   3.751   1.516   9.169  1.3444 -0.1327 -0.5974
 6804SOL    HW231875   3.867   1.488   9.250  0.5136 -1.0082  2.1329
 6805SOL     OW31876   2.411   1.706  11.889 -0.3378  0.5680 -0.0186
 6805SOL    HW131877   2.415   1.612  11.873  1.8032  0.5456  0.6761
 6805SOL    HW231878   2.465   1.711  11.968 -0.9176  0.4054  0.3872
 6806SOL     OW31879   4.657   1.719   2.942  0.5193 -0.4856  0.0756
 6806SOL    HW131880   4.708   1.640   2.922  2.1806  0.8869 -1.0841
 6806SOL    HW231881   4.669   1.756   2.855  1.7796 -1.2575 -0.0886
 6807SOL     OW31882   4.707   0.875   5.844  0.3747  0.1122  0.7064
 6807SOL    HW131883   0.074   0.842   5.858  1.9098  3.1233 -1.9607
 6807SOL    HW231884   4.649   0.799   5.849  2.2995 -1.4038  0.2066
 6808SOL     OW31885   2.100   4.123   6.290 -0.7343 -0.4749 -0.2249
 6808SOL    HW131886   2.031   4.114   6.356  0.8002 -1.5071  1.2354
 6808SOL    HW231887   2.142   4.205   6.315 -0.3571 -0.9442  0.6780
 6809SOL     OW31888   3.959   0.790  14.284 -0.4399  0.3015 -0.3285
 6809SOL    HW131889   3.965   0.865  14.225  2.3829  1.3335  1.2683
 6809SOL    HW231890   4.046   0.763  14.257 -0.8011  0.5976 -1.8106
 6810SOL     OW31891   0.563   1.314   5.938  0.0683  0.0835 -0.2803
 6810SOL    HW131892   0.630   1.245   5.941 -1.4706 -1.3828  0.4612
 6810SOL    HW231893   0.545   1.318   5.844  1.4955  0.4088 -0.5488
 6811SOL     OW31894   0.446   3.972   3.253  0.3926 -0.1560  0.4090
 6811SOL    HW131895   0.366   3.924   3.230  0.3463  1.1354 -2.2396
 6811SOL    HW231896   0.496   3.975   3.171  0.6864 -0.3534  0.5861
 6812SOL     OW31897   0.003   0.341  11.118  0.2939 -0.3186 -0.3181
 6812SOL    HW131898   4.692   0.331  11.207  2.8247  1.0567  0.7595
 6812SOL    HW231899   4.658   0.396  11.077 -1.8389 -0.9146  2.3743
 6813SOL     OW31900   1.966   2.873   8.242 -0.1316 -0.1746 -0.1514
 6813SOL    HW131901   2.005   2.954   8.209  0.5928 -1.1373 -1.6410
 6813SOL    HW231902   1.957   2.823   8.160 -0.2934 -0.2973 -0.0597
 6814SOL     OW31903   2.268   4.397   3.455  0.4823 -0.4407  0.6396
 6814SOL    HW131904   2.269   4.485   3.491  0.0910 -0.1026 -0.1602
 6814SOL    HW231905   2.339   4.356   3.504  0.7697 -2.6430 -1.6037
 6815SOL     OW31906   1.827   4.418  14.600 -0.0630  0.7875  0.6357
 6815SOL    HW131907   1.809   4.477  14.526  1.0456 -2.2931 -2.0904
 6815SOL    HW231908   1.756   4.356  14.585 -0.0484  0.6808  0.9945
 6816SOL     OW31909   0.008   4.035   4.102 -0.7834 -0.2085 -0.0547
 6816SOL    HW131910   0.026   4.036   4.008 -1.6052 -3.1277 -0.2543
 6816SOL    HW231911   0.077   3.979   4.136  0.7389  0.1856 -2.4539
 6817SOL     OW31912   2.300   2.080   5.283 -0.3346 -0.4962  0.1093
 6817SOL    HW131913   2.304   2.144   5.354 -2.3814 -0.4103  0.1599
 6817SOL    HW231914   2.350   2.129   5.219  0.6495  1.4136  2.3225
 6818SOL     OW31915   2.263   0.997  11.046 -0.0897  0.1482  0.1612
 6818SOL    HW131916   2.170   0.979  11.030 -0.2959  0.8163  0.5943
 6818SOL    HW231917   2.275   0.971  11.137 -0.8707  1.6895  0.7148
 6819SOL     OW31918   1.957   3.680   4.840  0.4571  0.1058  0.0328
 6819SOL    HW131919   1.903   3.615   4.885  0.8331  0.2884  0.7570
 6819SOL    HW231920   2.046   3.656   4.867  0.3207 -0.5126 -0.0697
 6820SOL     OW31921   3.396   3.840   1.707 -0.3081  0.4832  0.1043
 6820SOL    HW131922   3.359   3.878   1.787  1.6497 -0.5092  1.4948
 6820SOL    HW231923   3.436   3.922   1.675 -1.9160  1.6438  1.0690
 6821SOL     OW31924   4.211   3.699   9.402  0.2422 -0.1257  0.3033
 6821SOL    HW131925   4.191   3.630   9.465 -0.7052  1.1776  1.4337
 6821SOL    HW231926   4.203   3.774   9.462 -0.9673  0.0940 -0.1351
 6822SOL     OW31927   4.422   0.657   6.962 -0.1514  0.7355  1.1399
 6822SOL    HW131928   4.411   0.682   6.870 -3.7861 -0.2538  1.3022
 6822SOL    HW231929   4.395   0.565   6.970  0.2181  0.3812 -1.6930
 6823SOL     OW31930   3.029   2.700  13.910  0.0228  0.4429  0.5945
 6823SOL    HW131931   2.940   2.664  13.906  0.3383  0.0013 -2.3903
 6823SOL    HW231932   3.004   2.793  13.904 -0.0320  0.3291 -1.0446
 6824SOL     OW31933   2.782   0.866  16.895 -0.1389  0.7818 -0.0271
 6824SOL    HW131934   2.780   0.813  16.815 -1.5398  0.2162  0.3891
 6824SOL    HW231935   2.867   0.836  16.927 -0.8481  0.1556  1.2416
 6825SOL     OW31936   2.031   2.915   3.082  0.8447 -0.1417  0.1653
 6825SOL    HW131937   1.953   2.879   3.125  4.0481 -3.7884  2.9685
 6825SOL    HW231938   2.079   2.832   3.082  0.7376 -0.2037  0.0734
 6826SOL     OW31939   0.920   3.949   7.661 -0.6745 -0.6342 -0.4400
 6826SOL    HW131940   0.896   4.011   7.592 -0.3156 -1.1871 -1.0666
 6826SOL    HW231941   0.915   4.003   7.739 -1.3240  0.9620 -1.5948
 6827SOL     OW31942   1.753   2.684   1.155  0.2599 -0.0679 -0.0821
 6827SOL    HW131943   1.761   2.753   1.090  1.2330  0.1369  0.2680
 6827SOL    HW231944   1.763   2.609   1.097  0.1650 -0.4916  0.4486
 6828SOL     OW31945   1.880   0.602   1.208  0.1086  0.9423  0.2149
 6828SOL    HW131946   1.951   0.667   1.215  1.5225 -0.5960  0.1829
 6828SOL    HW231947   1.838   0.638   1.130  0.7749 -1.7235 -1.3766
 6829SOL     OW31948   0.986   1.485   1.103  0.0575  0.2288 -0.5667
 6829SOL    HW131949   0.974   1.392   1.120  0.1989  0.3746  0.3438
 6829SOL    HW231950   0.974   1.487   1.008  0.8123  0.2512 -0.6599
 6830SOL     OW31951   1.793   2.946   6.501  0.2474  0.4393 -0.2944
 6830SOL    HW131952   1.765   3.020   6.554 -3.2254 -0.4055 -0.9710
 6830SOL    HW231953   1.718   2.888   6.513  1.0482 -0.6163 -0.4185
 6831SOL     OW31954   4.402   1.552   4.875  0.0905  0.9807  0.2048
 6831SOL    HW131955   4.314   1.571   4.909 -1.1423 -0.5017 -2.2012
 6831SOL    HW231956   4.430   1.643   4.862 -2.1805  1.8580  1.4359
 6832SOL     OW31957   1.656   3.843  12.064  0.2829  0.1412  0.3313
 6832SOL    HW131958   1.748   3.866  12.050  0.1009  0.4528 -0.3389
 6832SOL    HW231959   1.619   3.899  11.996  0.0006 -0.7569 -0.2513
 6833SOL     OW31960   2.357   0.403   4.651  0.3499  0.4543  0.1619
 6833SOL    HW131961   2.292   0.442   4.710  2.0466  0.2433  2.1821
 6833SOL    HW231962   2.407   0.481   4.627  0.5593  0.8305  1.8383
 6834SOL     OW31963   3.781   2.042   0.078  0.2118  0.2669 -0.1033
 6834SOL    HW131964   3.782   2.076  17.679 -1.1225  0.8989  0.1220
 6834SOL    HW231965   3.876   2.026   0.072 -0.0412 -0.5023 -1.9887
 6835SOL     OW31966   1.895   1.357   7.593  0.5093  0.0211 -0.1163
 6835SOL    HW131967   1.891   1.449   7.566 -0.3863 -0.1593 -0.6264
 6835SOL    HW231968   1.803   1.343   7.617  0.7233 -0.5552  0.3507
 6836SOL     OW31969   0.762   2.740   7.929 -0.0650 -0.3354  0.2946
 6836SOL    HW131970   0.704   2.674   7.890  0.6882 -1.0142  0.3360
 6836SOL    HW231971   0.825   2.685   7.975 -1.0051 -2.9473 -1.5004
 6837SOL     OW31972   0.422   1.132  11.314 -0.2989 -0.0708  0.5861
 6837SOL    HW131973   0.400   1.170  11.399  0.5028  2.1451 -0.2138
 6837SOL    HW231974   0.518   1.123  11.320 -0.1339  0.5211 -1.0920
 6838SOL     OW31975   2.941   2.704  11.000 -0.4531 -0.1736 -0.3739
 6838SOL    HW131976   2.963   2.796  11.015  0.0309 -0.1196 -1.4100
 6838SOL    HW231977   2.855   2.704  10.960 -1.1504  1.9195  1.1684
 6839SOL     OW31978   1.367   2.158   5.957 -0.1997 -0.3273  0.1257
 6839SOL    HW131979   1.343   2.120   6.042 -3.4869  0.6306 -0.3859
 6839SOL    HW231980   1.442   2.102   5.938  0.0610 -0.4257  1.4265
 6840SOL     OW31981   4.420   0.831   9.371  0.5015  0.0511 -0.4309
 6840SOL    HW131982   4.469   0.812   9.451 -0.3617 -0.9347 -0.1478
 6840SOL    HW231983   4.486   0.813   9.304 -0.4312 -1.4205 -0.9482
 6841SOL     OW31984   0.916   1.287   1.471  0.1828  0.1578  0.1073
 6841SOL    HW131985   1.006   1.281   1.503  1.1222  2.2431 -2.1739
 6841SOL    HW231986   0.873   1.245   1.545 -0.0967 -1.8673 -1.2027
 6842SOL     OW31987   1.510   4.291  11.801  0.4624 -0.1007 -0.0745
 6842SOL    HW131988   1.568   4.278  11.726  0.5559  1.4739 -0.2612
 6842SOL    HW231989   1.437   4.334  11.756  1.0497  0.7373 -0.2272
 6843SOL     OW31990   0.762   1.125   2.430 -0.1868 -0.3245 -0.1072
 6843SOL    HW131991   0.687   1.167   2.472  1.2571  2.4435 -0.3611
 6843SOL    HW231992   0.726   1.036   2.435 -1.3494  0.1048 -0.9703
 6844SOL     OW31993   3.446   4.600   7.871 -0.3510  0.0720  0.3442
 6844SOL    HW131994   3.486   4.523   7.830 -0.4412 -0.1605  0.6823
 6844SOL    HW231995   3.510   4.667   7.848 -1.2295  1.3342  1.5452
 6845SOL     OW31996   2.678   2.252   3.849  0.0037 -0.4771  0.1093
 6845SOL    HW131997   2.643   2.213   3.769  1.1532  0.2596 -0.7507
 6845SOL    HW231998   2.763   2.278   3.815  0.5210 -1.6867  0.4441
 6846SOL     OW31999   2.047   4.138   3.612  0.5830 -0.2821  0.2830
 6846SOL    HW132000   2.008   4.122   3.698  1.2144  3.8822  1.3297
 6846SOL    HW232001   1.975   4.100   3.562  1.2108 -0.5723 -0.4017
 6847SOL     OW32002   3.250   2.238   9.195  0.5530 -0.6410 -0.3113
 6847SOL    HW132003   3.230   2.244   9.289  1.7953  1.4335 -0.1801
 6847SOL    HW232004   3.261   2.332   9.177 -0.2883  0.1007  3.0533
 6848SOL     OW32005   2.146   4.581  11.556 -0.3339 -0.1015 -0.1773
 6848SOL    HW132006   2.163   4.492  11.523 -3.4103 -0.9074  0.4486
 6848SOL    HW232007   2.150   4.629  11.474  1.8051 -1.4188 -0.8572
 6849SOL     OW32008   2.684   2.629  10.563  0.0653 -0.3621  0.0283
 6849SOL    HW132009   2.672   2.565  10.493 -1.2410  0.2956 -0.3597
 6849SOL    HW232010   2.614   2.610  10.625  0.1644  0.0641  0.2690
 6850SOL     OW32011   2.744   2.756  12.700 -0.0095  0.6816 -0.4060
 6850SOL    HW132012   2.693   2.791  12.773 -1.4386  1.3205 -1.7156
 6850SOL    HW232013   2.693   2.677  12.684  4.1294 -2.0043 -0.5008
 6851SOL     OW32014   0.632   0.723  17.521  0.1933 -0.0528 -0.5079
 6851SOL    HW132015   0.600   0.811  17.540  0.0093 -0.1842 -0.2143
 6851SOL    HW232016   0.587   0.702  17.439 -0.5537 -0.3184 -0.0212
 6852SOL     OW32017   3.058   2.143  15.606 -0.1930 -0.2754  0.4822
 6852SOL    HW132018   3.099   2.207  15.547 -1.3527  0.3674  0.3710
 6852SOL    HW232019   3.119   2.140  15.680 -1.2766  0.6499  1.4017
 6853SOL     OW32020   1.523   1.365   6.756  0.3182  0.0153  0.0929
 6853SOL    HW132021   1.440   1.407   6.778 -1.0964 -1.5846 -2.2487
 6853SOL    HW232022   1.573   1.421   6.698  0.0062  1.3848  1.1452
 6854SOL     OW32023   3.148   0.648   2.843  0.2029 -0.3488  0.2410
 6854SOL    HW132024   3.128   0.719   2.782  0.6394 -0.8968 -0.5375
 6854SOL    HW232025   3.140   0.581   2.775  0.9171 -1.3198  1.1177
 6855SOL     OW32026   0.478   2.660   2.458 -0.1663 -0.7531 -0.5844
 6855SOL    HW132027   0.443   2.628   2.541  0.3876 -0.4099 -0.2190
 6855SOL    HW232028   0.567   2.678   2.488  0.2051 -1.0509 -1.5012
 6856SOL     OW32029   4.501   4.412  11.024  0.1589  0.0358  0.2450
 6856SOL    HW132030   4.474   4.446  10.939  2.0589  0.4824 -0.1924
 6856SOL    HW232031   4.539   4.491  11.062 -1.6308  1.6613 -1.3856
 6857SOL     OW32032   0.250   3.088   1.052 -0.3960 -0.5960  0.8238
 6857SOL    HW132033   0.193   3.071   1.126 -1.1714  2.8108  0.9785
 6857SOL    HW232034   0.310   3.013   1.056  0.8754  0.5083  2.2776
 6858SOL     OW32035   2.001   3.558   8.144  0.0850  0.4159  0.3282
 6858SOL    HW132036   1.920   3.606   8.165 -0.8247 -0.2473 -1.6850
 6858SOL    HW232037   2.061   3.606   8.201  1.1601 -2.1693  1.3671
 6859SOL     OW32038   1.681   3.082   4.144 -0.2534 -0.4412 -0.3828
 6859SOL    HW132039   1.747   3.126   4.090 -0.3933  0.2658  0.0196
 6859SOL    HW232040   1.714   2.992   4.142 -0.2822 -0.4606 -0.0000
 6860SOL     OW32041   1.097   4.323   6.872 -0.2029 -0.3299 -0.3605
 6860SOL    HW132042   1.092   4.236   6.912  2.2440 -0.5046 -0.4495
 6860SOL    HW232043   1.014   4.326   6.824 -1.2692  1.9291  1.5891
 6861SOL     OW32044   4.300   3.419  15.578  0.0386  0.0862 -0.4771
 6861SOL    HW132045   4.371   3.477  15.604  0.7890 -0.7322 -0.7066
 6861SOL    HW232046   4.340   3.345  15.532  2.3716 -0.7729  2.9306
 6862SOL     OW32047   3.730   3.732   2.187  0.4114  0.1909  0.4674
 6862SOL    HW132048   3.734   3.685   2.270  0.1646 -1.4987 -0.4774
 6862SOL    HW232049   3.681   3.812   2.207  2.0886  0.7131  2.4975
 6863SOL     OW32050   1.195   0.240   9.528  0.0712  0.5822 -0.3488
 6863SOL    HW132051   1.175   0.298   9.601  2.1296  0.9008 -0.0278
 6863SOL    HW232052   1.183   0.310   9.464 -2.3728  1.3537  0.9639
 6864SOL     OW32053   2.038   1.602   4.491 -0.1204  0.3686 -0.2632
 6864SOL    HW132054   1.962   1.599   4.549  1.6174 -0.4003  2.0180
 6864SOL    HW232055   2.026   1.679   4.436  0.2349 -0.9254 -2.1749
 6865SOL     OW32056   1.889   0.215   6.534  0.0053 -0.4687  0.2679
 6865SOL    HW132057   1.822   0.220   6.602  2.3855  0.4766  2.5085
 6865SOL    HW232058   1.881   0.303   6.496 -0.2518 -0.3771  0.5359
 6866SOL     OW32059   3.581   0.344   9.094 -0.3758  0.5086 -0.3244
 6866SOL    HW132060   3.498   0.382   9.120 -1.1340 -0.8019 -0.8523
 6866SOL    HW232061   3.612   0.415   9.038 -2.0919  2.0620  0.7411
 6867SOL     OW32062   1.768   4.322   6.266  0.0559 -0.1221  0.1659
 6867SOL    HW132063   1.715   4.379   6.210 -1.8553 -1.5125  0.5627
 6867SOL    HW232064   1.821   4.268   6.207  0.2465  0.0408  0.1883
 6868SOL     OW32065   1.628   4.477   2.091 -0.0766 -0.8183  0.6741
 6868SOL    HW132066   1.694   4.409   2.086  2.8485  2.2692 -2.2308
 6868SOL    HW232067   1.568   4.442   2.025  1.5302 -1.1611 -0.5919
 6869SOL     OW32068   3.287   0.838   7.421 -0.1252  0.2244  0.1351
 6869SOL    HW132069   3.300   0.932   7.429 -0.1850  0.1425  1.2581
 6869SOL    HW232070   3.264   0.842   7.328 -0.1105 -0.7214  0.0890
 6870SOL     OW32071   2.596   1.662   6.003 -0.8120  0.3050 -0.0881
 6870SOL    HW132072   2.536   1.694   5.935  0.4194  1.3105 -0.6890
 6870SOL    HW232073   2.567   1.570   6.001 -0.0289  0.0859 -1.1448
 6871SOL     OW32074   2.303   1.074   7.422  0.1553  0.3758 -0.4637
 6871SOL    HW132075   2.382   1.059   7.474  0.5581  0.0919 -1.1689
 6871SOL    HW232076   2.269   1.153   7.465  3.0561  1.4567 -0.1729
 6872SOL     OW32077   3.709   4.401   5.893 -0.2801  0.1605  1.0522
 6872SOL    HW132078   3.754   4.364   5.969 -2.2057  0.5260  2.3545
 6872SOL    HW232079   3.681   4.486   5.927 -0.9823 -0.6001  2.3871
 6873SOL     OW32080   2.973   4.414  11.182  0.1162 -0.3821  0.0914
 6873SOL    HW132081   3.066   4.412  11.204  0.1873 -0.7598 -0.2569
 6873SOL    HW232082   2.973   4.412  11.087  0.0039  2.7173  0.0463
 6874SOL     OW32083   2.894   4.150  11.689 -0.5308 -0.0004  0.7136
 6874SOL    HW132084   2.840   4.115  11.618 -1.7832  0.4080  1.4811
 6874SOL    HW232085   2.961   4.185  11.630 -0.9898 -0.9155 -0.3511
 6875SOL     OW32086   0.524   4.667   6.059 -0.1536  0.8945  0.1359
 6875SOL    HW132087   0.436   4.706   6.062 -0.0134  1.2180  0.0904
 6875SOL    HW232088   0.578   0.006   6.009 -0.0284  1.1117  0.5341
 6876SOL     OW32089   1.761   1.837  13.193  0.4708 -0.5332 -1.2542
 6876SOL    HW132090   1.854   1.840  13.217 -0.0060 -2.0049  0.7308
 6876SOL    HW232091   1.759   1.897  13.118 -1.9404  1.9691  0.8377
 6877SOL     OW32092   0.285   1.873   8.349  0.3878  0.2995 -0.2837
 6877SOL    HW132093   0.223   1.914   8.409 -1.1152 -0.8888 -1.0202
 6877SOL    HW232094   0.351   1.842   8.411 -0.0106 -0.3507 -0.1928
 6878SOL     OW32095   4.544   0.940  10.045  0.3815  0.6383 -0.2308
 6878SOL    HW132096   4.576   1.015  10.094 -2.5533  1.6209  0.1508
 6878SOL    HW232097   4.613   0.876  10.061  0.2310  0.4011 -0.5344
 6879SOL     OW32098   4.292   2.706  14.636 -0.2361 -0.2987  0.6663
 6879SOL    HW132099   4.243   2.702  14.718 -1.5682  0.0022 -0.1299
 6879SOL    HW232100   4.383   2.698  14.667  0.0648  2.3510  0.5097
 6880SOL     OW32101   2.536   2.355   4.702 -0.2268 -0.0375 -0.2922
 6880SOL    HW132102   2.616   2.408   4.706 -1.0160  1.0683  0.7320
 6880SOL    HW232103   2.457   2.403   4.725 -0.8641 -1.8957  1.3089
 6881SOL     OW32104   2.667   3.650   1.868  0.1683 -0.3079  0.1218
 6881SOL    HW132105   2.657   3.613   1.781  1.0188  2.1476 -1.0253
 6881SOL    HW232106   2.598   3.594   1.904 -0.2642 -0.1706 -0.4936
 6882SOL     OW32107   0.464   0.827   5.118 -0.0302 -0.0408  0.2656
 6882SOL    HW132108   0.508   0.807   5.200  2.2344 -1.4119 -1.2874
 6882SOL    HW232109   0.447   0.920   5.130 -2.0192 -0.0996 -2.1102
 6883SOL     OW32110   3.181   3.050   5.475 -0.2183  0.6512 -0.7353
 6883SOL    HW132111   3.173   3.136   5.433  0.8041  1.0561 -0.0978
 6883SOL    HW232112   3.090   3.030   5.500  0.5773 -2.6426 -0.5127
 6884SOL     OW32113   3.733   2.570  17.119 -0.4095 -0.1692  0.4439
 6884SOL    HW132114   3.808   2.553  17.177 -0.5376 -1.1156  0.3240
 6884SOL    HW232115   3.663   2.595  17.179  1.2838 -0.5209  2.6096
 6885SOL     OW32116   4.669   2.432   6.755 -0.2538  0.0863  0.5487
 6885SOL    HW132117   4.588   2.381   6.752 -1.5186  2.0758  0.9431
 6885SOL    HW232118   4.653   2.470   6.669  1.5483  0.2393  0.2741
 6886SOL     OW32119   4.201   4.505  17.194 -0.5152 -0.5387  0.0067
 6886SOL    HW132120   4.261   4.507  17.269  1.7143  0.3977 -1.8032
 6886SOL    HW232121   4.162   4.593  17.202 -2.0518 -1.0877 -1.3154
 6887SOL     OW32122   1.316   1.249   5.525  0.4534 -0.7761 -0.2114
 6887SOL    HW132123   1.373   1.324   5.506 -0.5569 -0.1548 -0.8442
 6887SOL    HW232124   1.385   1.203   5.571  2.1849  3.4561  1.3991
 6888SOL     OW32125   1.038   3.934   1.428 -0.1345 -0.5534  0.3032
 6888SOL    HW132126   1.075   3.913   1.343 -0.3636 -1.8213  0.5278
 6888SOL    HW232127   1.078   3.876   1.493  2.4734  0.9270  0.0109
 6889SOL     OW32128   1.297   2.144  16.058 -0.2257 -0.2249 -0.3367
 6889SOL    HW132129   1.211   2.106  16.072 -1.0323  1.4843 -0.6817
 6889SOL    HW232130   1.327   2.140  16.149  2.9879 -2.3069 -1.4775
 6890SOL     OW32131   0.826   4.569  11.141  0.6707  0.7415  0.2547
 6890SOL    HW132132   0.770   4.580  11.064  1.3501 -1.0313 -0.5097
 6890SOL    HW232133   0.892   4.637  11.129  1.1650  0.6442  2.4629
 6891SOL     OW32134   0.690   3.171  16.274 -0.5806  0.0053 -0.2374
 6891SOL    HW132135   0.754   3.104  16.297 -0.6934  0.3910  1.2405
 6891SOL    HW232136   0.717   3.239  16.336  0.8567 -0.6293 -0.1632
 6892SOL     OW32137   0.714   0.558   4.583  0.0378 -0.0220  0.3875
 6892SOL    HW132138   0.707   0.550   4.678 -2.9477 -1.0263  0.0856
 6892SOL    HW232139   0.630   0.593   4.554 -0.4514 -0.8001  0.8445
 6893SOL     OW32140   3.969   4.652   5.050  0.0573 -0.5509 -0.3322
 6893SOL    HW132141   3.876   4.668   5.036 -0.2242 -1.9177  0.0538
 6893SOL    HW232142   3.976   4.560   5.024 -0.8878 -0.5590 -0.5442
 6894SOL     OW32143   4.056   0.451   3.315  0.1032  0.4054  0.1505
 6894SOL    HW132144   4.146   0.469   3.288  0.9520 -1.9708  1.3795
 6894SOL    HW232145   4.019   0.420   3.232 -1.2607 -0.0114  0.9080
 6895SOL     OW32146   3.821   2.982   6.746  1.1194  0.0218  0.5963
 6895SOL    HW132147   3.879   2.906   6.750  0.4950 -0.4628  0.5572
 6895SOL    HW232148   3.836   3.006   6.655  1.1387  1.6935  1.0378
 6896SOL     OW32149   0.132   2.924   6.629 -0.0200 -0.2714  0.4131
 6896SOL    HW132150   0.172   2.853   6.680  2.0404  1.4502  1.2325
 6896SOL    HW232151   0.053   2.929   6.683 -0.4904 -3.5662  0.0260
 6897SOL     OW32152   0.532   3.630  11.321  0.1105 -0.1963  0.6958
 6897SOL    HW132153   0.490   3.701  11.273  0.6171  1.4968  2.7352
 6897SOL    HW232154   0.607   3.676  11.359 -1.5521  2.5732  0.5965
 6898SOL     OW32155   2.074   4.542  15.213  0.3220  0.2530  0.1252
 6898SOL    HW132156   2.070   4.605  15.141  2.5723 -0.3338 -0.5082
 6898SOL    HW232157   2.146   4.483  15.194  2.1442  1.9888  1.4962
 6899SOL     OW32158   4.434   2.320   5.441 -0.3910  0.1635  0.0564
 6899SOL    HW132159   4.377   2.397   5.446 -1.2840 -0.2904 -2.7069
 6899SOL    HW232160   4.516   2.367   5.429  0.5723 -1.5058  0.0686
 6900SOL     OW32161   0.080   0.477   7.611 -0.1696  0.1734  0.7002
 6900SOL    HW132162   0.000   0.530   7.611  0.3702  0.9640 -1.1348
 6900SOL    HW232163   0.050   0.404   7.665  1.2793 -1.3221 -0.5584
 6901SOL     OW32164   4.125   3.673   4.582  0.2995  0.1814  0.1615
 6901SOL    HW132165   4.167   3.676   4.668  1.1485  0.4961 -0.2625
 6901SOL    HW232166   4.186   3.727   4.532 -0.1313 -1.7551 -2.4321
 6902SOL     OW32167   0.713   0.971   5.783 -0.3851  0.7402 -0.6182
 6902SOL    HW132168   0.660   0.976   5.703 -0.5824  0.4586 -0.5050
 6902SOL    HW232169   0.773   1.046   5.788  0.8070 -0.3197  1.1587
 6903SOL     OW32170   1.190   4.309   1.795 -0.1950 -0.0902 -0.2730
 6903SOL    HW132171   1.170   4.216   1.795 -0.5815 -0.0045 -0.9201
 6903SOL    HW232172   1.173   4.330   1.703 -2.3877 -0.6974 -0.0092
 6904SOL     OW32173   0.639   1.542  17.442 -0.4709  0.0214 -0.1146
 6904SOL    HW132174   0.560   1.489  17.431 -0.2912 -0.5854  1.6006
 6904SOL    HW232175   0.678   1.494  17.515  1.3623  1.1589 -0.3431
 6905SOL     OW32176   1.044   4.662  10.843 -0.3895 -0.0420 -0.1560
 6905SOL    HW132177   0.949   4.665  10.846 -0.3530  1.4473 -0.4016
 6905SOL    HW232178   1.057   4.720  10.768  1.4258 -1.4562 -0.9441
 6906SOL     OW32179   4.383   3.949  14.731  0.5759 -0.2523  0.6129
 6906SOL    HW132180   4.320   3.891  14.687  1.6427 -0.1516 -1.0350
 6906SOL    HW232181   4.458   3.891  14.741  0.9641  0.6587  3.1279
 6907SOL     OW32182   1.738   4.059   4.933  0.2890  0.0417 -0.5107
 6907SOL    HW132183   1.783   4.044   4.850 -0.4112 -0.2729 -0.8322
 6907SOL    HW232184   1.658   4.014   4.907  0.3366 -0.9909  1.1476
 6908SOL     OW32185   3.347   4.509   8.525  0.0967  0.4797  0.0945
 6908SOL    HW132186   3.261   4.551   8.512 -0.1904  0.5413  2.1449
 6908SOL    HW232187   3.324   4.427   8.569 -1.2418  1.7849  1.8304
 6909SOL     OW32188   0.559   3.024  16.843 -0.1916  0.0446 -0.1031
 6909SOL    HW132189   0.517   3.103  16.876  0.4758 -0.0790  1.0357
 6909SOL    HW232190   0.509   2.949  16.874 -1.0296  0.5647 -0.1931
 6910SOL     OW32191   3.310   4.080   4.432  0.2310 -0.7314  0.1464
 6910SOL    HW132192   3.314   4.000   4.380  1.4835 -1.8372  1.9740
 6910SOL    HW232193   3.306   4.154   4.371  1.3513 -0.1412  0.7945
 6911SOL     OW32194   1.782   0.433  11.611  0.3630 -0.0221 -0.3965
 6911SOL    HW132195   1.862   0.445  11.662 -0.4309 -1.6824  1.2481
 6911SOL    HW232196   1.817   0.408  11.526 -1.6955 -1.6779 -0.7630
 6912SOL     OW32197   0.699   3.204  14.888 -0.6537 -0.3342 -0.5578
 6912SOL    HW132198   0.657   3.268  14.830  1.5366  1.7966  0.1895
 6912SOL    HW232199   0.622   3.192  14.944  0.4833  1.4052  1.3720
 6913SOL     OW32200   4.594   2.411   3.101  0.4077  0.3591 -0.2805
 6913SOL    HW132201   4.634   2.361   3.030 -0.5378  0.6596 -1.0249
 6913SOL    HW232202   4.510   2.366   3.104  0.7365 -0.2661 -0.4197
 6914SOL     OW32203   3.952   4.607  11.545 -0.1736 -0.5488 -0.4104
 6914SOL    HW132204   3.901   4.526  11.546 -0.2078 -0.5521 -2.0043
 6914SOL    HW232205   4.024   4.580  11.488  0.0833 -1.4168  0.3369
 6915SOL     OW32206   3.207   2.848   2.901  0.2570  0.0984  0.4836
 6915SOL    HW132207   3.233   2.813   2.816  0.0606  1.4908 -0.1622
 6915SOL    HW232208   3.113   2.829   2.903  0.4738 -0.8383  1.6347
 6916SOL     OW32209   0.241   1.026   8.815  0.2012  0.1823  0.2760
 6916SOL    HW132210   0.335   1.032   8.797  0.2499  2.6463  1.3636
 6916SOL    HW232211   0.246   1.069   8.900  1.7967 -1.2986  0.9349
 6917SOL     OW32212   2.149   1.611   5.838  0.4213 -0.1051 -0.6384
 6917SOL    HW132213   2.161   1.540   5.901  1.8321  0.1197 -0.6607
 6917SOL    HW232214   2.067   1.577   5.802 -0.1450  0.5400  0.0382
 6918SOL     OW32215   4.493   4.190   4.034  0.6313  0.0945  0.1731
 6918SOL    HW132216   4.532   4.277   4.035 -1.8878  1.1867  2.2024
 6918SOL    HW232217   4.563   4.126   4.048  0.4780  0.0036  0.5113
 6919SOL     OW32218   0.934   3.236   5.936 -0.5884  0.2066  0.6070
 6919SOL    HW132219   0.864   3.184   5.977  1.9644 -2.1943  1.9528
 6919SOL    HW232220   0.880   3.281   5.871  0.9155 -0.2086 -0.9335
 6920SOL     OW32221   1.407   0.089   9.581  0.1718 -0.4865 -0.7865
 6920SOL    HW132222   1.334   0.147   9.559  1.1264  0.9066 -0.3152
 6920SOL    HW232223   1.483   0.130   9.540  1.4823 -0.8776  1.2627
 6921SOL     OW32224   1.330   0.628   3.934 -0.6161 -0.1503 -0.2697
 6921SOL    HW132225   1.341   0.649   3.842 -0.5680  1.4888  0.1073
 6921SOL    HW232226   1.287   0.708   3.964  1.0751  1.2113 -1.5172
 6922SOL     OW32227   2.238   0.585   3.127 -0.0085 -0.5078  1.0251
 6922SOL    HW132228   2.150   0.561   3.153 -1.4570 -0.2660 -3.7096
 6922SOL    HW232229   2.286   0.515   3.172  4.5705  2.2104  0.4388
 6923SOL     OW32230   3.290   3.620   0.358 -0.9203 -0.1460 -0.5916
 6923SOL    HW132231   3.377   3.626   0.319  0.4060 -1.7986  2.1483
 6923SOL    HW232232   3.314   3.575   0.439  1.2133  0.0629 -1.1013
 6924SOL     OW32233   2.150   3.734  12.045 -0.3467 -0.1801 -1.3914
 6924SOL    HW132234   2.227   3.679  12.060  0.7790  1.5097 -1.0328
 6924SOL    HW232235   2.172   3.800  12.111  1.6506  0.2004 -2.4252
 6925SOL     OW32236   1.652   1.253   7.375 -0.8765  0.6601 -0.3484
 6925SOL    HW132237   1.565   1.267   7.338 -1.2596  1.8044  0.9978
 6925SOL    HW232238   1.632   1.191   7.445  0.4870 -0.2303 -0.7455
 6926SOL     OW32239   3.664   0.103  16.566 -0.1053  0.3001  0.0855
 6926SOL    HW132240   3.670   0.070  16.476 -2.3341 -2.1851  0.8606
 6926SOL    HW232241   3.679   0.016  16.604 -1.9707 -0.2813 -0.5502
 6927SOL     OW32242   3.731   0.781   7.725 -0.9314  0.1141  0.1130
 6927SOL    HW132243   3.780   0.829   7.658 -1.1058 -0.8540 -0.6983
 6927SOL    HW232244   3.642   0.789   7.691 -0.5597 -3.5338 -1.6545
 6928SOL     OW32245   3.443   4.396   3.830  0.0038  0.1144 -0.3292
 6928SOL    HW132246   3.418   4.466   3.891  2.5588  1.5848 -0.9657
 6928SOL    HW232247   3.438   4.458   3.757  1.0975  0.2849 -0.2559
 6929SOL     OW32248   0.750   2.616   3.981  0.5703 -0.4944  0.6761
 6929SOL    HW132249   0.761   2.616   4.077  0.6898  0.5845  0.6635
 6929SOL    HW232250   0.840   2.640   3.958  0.0281  0.1127 -0.7856
 6930SOL     OW32251   2.118   2.017   3.456 -0.0641  0.0257  0.6178
 6930SOL    HW132252   2.026   2.041   3.465 -0.7696 -3.4013  2.6822
 6930SOL    HW232253   2.116   1.933   3.503  0.0943  0.8652  2.0989
 6931SOL     OW32254   2.862   2.418   8.238 -0.2601  0.0067 -0.3341
 6931SOL    HW132255   2.887   2.403   8.147  1.1678 -1.2752  0.2653
 6931SOL    HW232256   2.931   2.470   8.279 -0.2640 -0.0342 -0.2752
 6932SOL     OW32257   1.803   4.476  13.698 -0.2098  0.2545  0.0917
 6932SOL    HW132258   1.883   4.529  13.702  0.3970 -0.7797  1.4251
 6932SOL    HW232259   1.842   4.390  13.684  3.4528  1.8981  0.3359
 6933SOL     OW32260   1.356   3.383   6.117 -0.1350  0.0947 -0.2373
 6933SOL    HW132261   1.441   3.427   6.119  0.6721 -1.5344  1.4524
 6933SOL    HW232262   1.310   3.458   6.079 -0.7444  1.3987  3.0585
 6934SOL     OW32263   1.364   2.045   1.226  0.3848  0.2071  0.1113
 6934SOL    HW132264   1.431   2.066   1.290  0.3307 -1.7922  0.8086
 6934SOL    HW232265   1.417   2.067   1.150 -2.1171  1.3251 -1.3418
 6935SOL     OW32266   2.354   0.385   4.015  0.1457  0.2046 -0.0975
 6935SOL    HW132267   2.394   0.409   3.931 -0.4440  2.7510  0.3514
 6935SOL    HW232268   2.354   0.289   4.009 -3.2358  0.1876 -0.0566
 6936SOL     OW32269   2.279   3.893   6.379 -0.0591  0.0681  0.2859
 6936SOL    HW132270   2.305   3.906   6.470  0.1291 -0.3246  0.2919
 6936SOL    HW232271   2.290   3.983   6.348 -0.7693 -0.1760 -0.6824
 6937SOL     OW32272   0.094   4.255  14.071 -0.2523 -0.2048  0.5174
 6937SOL    HW132273   0.024   4.248  14.005  0.4155  1.0579 -0.3095
 6937SOL    HW232274   0.099   4.164  14.102  0.5149  0.0018  0.9935
 6938SOL     OW32275   0.391   3.951   7.006  0.1711  0.0300  0.2021
 6938SOL    HW132276   0.459   3.943   6.939  1.8701  3.5060  1.5522
 6938SOL    HW232277   0.354   3.862   7.005  0.2305  0.0176 -0.9419
 6939SOL     OW32278   0.396   0.905   3.375  0.0194 -0.0483 -0.4974
 6939SOL    HW132279   0.397   0.823   3.425  1.4025  0.3232  0.0846
 6939SOL    HW232280   0.313   0.950   3.393  0.3936 -0.2021  1.6854
 6940SOL     OW32281   1.940   2.491  16.561  0.4384 -0.8365  0.2134
 6940SOL    HW132282   1.919   2.535  16.479 -1.7041 -0.8920  0.7213
 6940SOL    HW232283   2.015   2.436  16.538 -1.3950 -2.1178 -2.6498
 6941SOL     OW32284   2.176   2.673  12.621  0.0239  0.2290 -0.2950
 6941SOL    HW132285   2.164   2.638  12.710 -0.1185 -2.9440 -1.5410
 6941SOL    HW232286   2.146   2.762  12.636  0.7975  0.7167 -1.6598
 6942SOL     OW32287   1.824   2.199  17.444 -0.7085 -0.1563 -0.4639
 6942SOL    HW132288   1.903   2.234  17.401  0.3936 -2.8697 -0.6039
 6942SOL    HW232289   1.769   2.214  17.367  0.4566 -0.1769 -1.3049
 6943SOL     OW32290   4.183   0.573  13.522  0.1128  0.2464 -0.0304
 6943SOL    HW132291   4.271   0.609  13.519  0.7206 -1.2391 -0.1203
 6943SOL    HW232292   4.136   0.617  13.451 -1.1792 -1.7848 -0.4347
 6944SOL     OW32293   2.743   1.761   0.412  0.1258  0.1631  0.1557
 6944SOL    HW132294   2.779   1.688   0.462 -1.3345 -0.3551  0.4653
 6944SOL    HW232295   2.817   1.797   0.363  0.5198  0.2182  0.7992
 6945SOL     OW32296   1.803   1.475  10.199  0.4772 -0.1057 -0.0260
 6945SOL    HW132297   1.844   1.390  10.185  2.0783  1.0552 -2.3064
 6945SOL    HW232298   1.815   1.479  10.294  0.4456  1.4866 -0.0896
 6946SOL     OW32299   4.265   3.877   4.463 -0.4710  0.9867  0.7672
 6946SOL    HW132300   4.271   3.894   4.369 -0.2762 -1.4875  0.3161
 6946SOL    HW232301   4.347   3.913   4.496  0.4053 -0.2545 -0.0468
 6947SOL     OW32302   4.009   4.181   4.497  0.8507  0.2560  0.0110
 6947SOL    HW132303   4.043   4.243   4.433  1.7665  0.8667  1.1038
 6947SOL    HW232304   3.921   4.220   4.503 -0.1581 -1.8973 -0.6692
 6948SOL     OW32305   2.875   2.503   6.369  0.4948 -0.1540 -0.0032
 6948SOL    HW132306   2.921   2.430   6.410 -0.0271 -0.9401 -0.8152
 6948SOL    HW232307   2.806   2.464   6.314 -0.0241  1.6428 -0.6362
 6949SOL     OW32308   4.604   4.192   3.036 -0.6787  0.1062 -0.2449
 6949SOL    HW132309   4.686   4.187   3.085 -0.8286 -0.8905 -0.1027
 6949SOL    HW232310   4.544   4.213   3.108 -1.0138 -2.7640  0.3093
 6950SOL     OW32311   0.356   2.785  10.967 -0.4883  0.0590 -0.1173
 6950SOL    HW132312   0.326   2.849  11.031  0.6442 -0.1122  0.5772
 6950SOL    HW232313   0.279   2.729  10.959 -0.1855 -0.1008 -2.0743
 6951SOL     OW32314   1.372   0.983   7.566 -0.0490 -0.1423 -0.2848
 6951SOL    HW132315   1.303   0.978   7.500  1.6287 -1.3450 -1.9576
 6951SOL    HW232316   1.368   0.899   7.612  0.3524 -0.3177 -0.5692
 6952SOL     OW32317   0.094   2.407   7.436 -0.2841  0.5819  0.3276
 6952SOL    HW132318   0.128   2.496   7.442  1.3280 -0.0892  1.0210
 6952SOL    HW232319   0.172   2.353   7.426 -0.1997  0.4961  1.4728
 6953SOL     OW32320   0.770   2.272   7.903 -0.3086  0.4065 -0.2643
 6953SOL    HW132321   0.772   2.357   7.948 -2.0917 -0.0581  0.6954
 6953SOL    HW232322   0.801   2.293   7.815  1.0349  0.1716  0.1479
 6954SOL     OW32323   2.181   3.681   5.060 -0.9498  0.0573 -0.1586
 6954SOL    HW132324   2.214   3.759   5.017 -0.4411  0.6101  1.2323
 6954SOL    HW232325   2.199   3.693   5.154 -1.5462 -2.2057  0.2591
 6955SOL     OW32326   1.623   0.233   2.858  0.5268 -0.8100  0.3019
 6955SOL    HW132327   1.644   0.304   2.798  0.8688 -0.4047  0.9046
 6955SOL    HW232328   1.595   0.168   2.793  0.7799  0.4738 -1.0837
 6956SOL     OW32329   1.186   2.596   6.490  0.5204 -0.2535 -0.0983
 6956SOL    HW132330   1.185   2.640   6.575 -0.5092  0.1153 -0.2939
 6956SOL    HW232331   1.094   2.571   6.480  0.5700  0.4185 -2.2456
 6957SOL     OW32332   3.448   2.614   0.253 -0.2449 -0.4683 -0.6344
 6957SOL    HW132333   3.515   2.612   0.322  0.1660  2.4536 -0.9206
 6957SOL    HW232334   3.501   2.588   0.177  0.6111 -1.3081  0.2537
 6958SOL     OW32335   2.274   1.840  12.910 -0.2244 -0.1836 -0.1418
 6958SOL    HW132336   2.220   1.767  12.941  1.5435 -1.3645  0.1851
 6958SOL    HW232337   2.323   1.793  12.842  0.6934  1.4485 -0.6024
 6959SOL     OW32338   0.264   0.416   4.071 -0.2411 -0.0592 -0.5239
 6959SOL    HW132339   0.356   0.434   4.091 -0.6009  0.4045  0.7054
 6959SOL    HW232340   0.276   0.350   4.003 -0.7916 -0.3078 -0.3846
 6960SOL     OW32341   0.438   2.790  13.639  0.0475 -0.2395 -0.2826
 6960SOL    HW132342   0.418   2.709  13.685 -0.2303  0.9298  1.6541
 6960SOL    HW232343   0.477   2.761  13.557  2.6436 -0.5141  1.0542
 6961SOL     OW32344   2.262   1.365   2.064  0.1685  0.0344  0.1785
 6961SOL    HW132345   2.232   1.452   2.089 -3.3946 -1.7279  2.0427
 6961SOL    HW232346   2.343   1.374   2.015  0.1513 -1.3386 -0.0910
 6962SOL     OW32347   3.392   1.148   5.187 -0.1569  0.2243 -0.1838
 6962SOL    HW132348   3.338   1.173   5.262  0.9969 -1.7870  1.2912
 6962SOL    HW232349   3.478   1.181   5.213 -0.3816  0.9834 -0.3784
 6963SOL     OW32350   0.563   0.476   9.663 -0.5697 -0.8557  0.0022
 6963SOL    HW132351   0.612   0.471   9.745 -0.7713 -0.0233  0.1790
 6963SOL    HW232352   0.638   0.471   9.604 -2.0953 -2.7894 -1.7183
 6964SOL     OW32353   0.775   3.102  11.520  0.0682  0.0528  0.5706
 6964SOL    HW132354   0.845   3.047  11.554  1.8299  1.5821 -0.6293
 6964SOL    HW232355   0.711   3.033  11.501  1.1692 -1.7581  3.4140
 6965SOL     OW32356   3.747   2.574   4.750 -0.0072  0.3287  0.2510
 6965SOL    HW132357   3.772   2.548   4.838  0.0976 -1.8440 -0.4379
 6965SOL    HW232358   3.805   2.648   4.730  0.9980 -0.0187  1.8912
 6966SOL     OW32359   2.578   3.371  16.784 -0.1839  0.3310  0.1936
 6966SOL    HW132360   2.657   3.408  16.824 -1.2638  1.8223  0.9401
 6966SOL    HW232361   2.564   3.299  16.845  0.7598  1.7080  2.0483
 6967SOL     OW32362   1.423   1.182  13.366  0.1465 -0.2555  0.0817
 6967SOL    HW132363   1.413   1.254  13.304 -0.1196 -0.8674 -0.5834
 6967SOL    HW232364   1.378   1.110  13.323 -0.1435  1.9910 -3.3566
 6968SOL     OW32365   2.593   1.495   7.894 -0.2694 -0.0755 -0.0148
 6968SOL    HW132366   2.649   1.567   7.925  1.7006 -2.5369  2.1360
 6968SOL    HW232367   2.656   1.424   7.907  1.9494  2.1020  1.1894
 6969SOL     OW32368   3.683   2.384   6.561  0.0605  0.1098  0.4535
 6969SOL    HW132369   3.618   2.336   6.511  1.6946 -1.9625  0.3389
 6969SOL    HW232370   3.739   2.426   6.495 -0.0519  1.5751  1.2847
 6970SOL     OW32371   3.813   0.471   3.710  0.1869  0.0636  0.0190
 6970SOL    HW132372   3.851   0.397   3.663 -1.1051 -0.2187 -0.5817
 6970SOL    HW232373   3.893   0.493   3.758  0.2953 -0.0666 -0.1022
 6971SOL     OW32374   3.672   4.245   5.126 -0.5387  0.1170  0.0215
 6971SOL    HW132375   3.642   4.220   5.038  0.2199  3.6571 -1.2498
 6971SOL    HW232376   3.644   4.335   5.140 -0.0377  0.2370  0.2498
 6972SOL     OW32377   3.160   0.932   4.986  0.1682  0.2512 -0.2571
 6972SOL    HW132378   3.094   0.993   4.953 -0.2805 -0.2814 -0.3409
 6972SOL    HW232379   3.209   0.913   4.905  2.7656 -0.7889  1.5557
 6973SOL     OW32380   2.529   3.805   3.489 -0.3827 -0.1639 -0.0442
 6973SOL    HW132381   2.459   3.764   3.439  0.1024 -1.6563  0.5080
 6973SOL    HW232382   2.513   3.771   3.577 -0.3502 -1.6227 -0.6022
 6974SOL     OW32383   1.215   4.090   8.905  0.2421  0.0833 -0.1528
 6974SOL    HW132384   1.298   4.065   8.947  0.7284  0.6856 -0.7402
 6974SOL    HW232385   1.159   4.123   8.975 -0.6097  0.8766 -1.2101
 6975SOL     OW32386   3.972   3.840   2.089  0.1612  0.1947 -0.0429
 6975SOL    HW132387   3.936   3.909   2.144  0.3282 -1.4988  2.2105
 6975SOL    HW232388   3.895   3.784   2.088 -0.3783  0.9195  0.6216
 6976SOL     OW32389   4.321   3.614   4.779 -0.5043  0.7314  0.5311
 6976SOL    HW132390   4.394   3.616   4.718 -2.0855  0.3949 -1.3979
 6976SOL    HW232391   4.355   3.570   4.856  0.5618 -0.5669 -0.6929
 6977SOL     OW32392   3.811   1.168   5.857 -0.7239 -0.4883 -0.2964
 6977SOL    HW132393   3.764   1.251   5.856  1.1940  0.6222  0.1781
 6977SOL    HW232394   3.797   1.143   5.948  0.1603 -2.8451 -0.8256
 6978SOL     OW32395   2.049   2.092   2.695  0.0498 -0.0185 -0.0796
 6978SOL    HW132396   2.143   2.110   2.692  0.2270 -0.6086  1.8763
 6978SOL    HW232397   2.017   2.179   2.674 -1.3197 -0.2880  0.9238
 6979SOL     OW32398   1.710   3.147  15.168 -0.3776  0.7285  0.1113
 6979SOL    HW132399   1.785   3.103  15.207 -0.3326 -0.1340 -0.9510
 6979SOL    HW232400   1.664   3.072  15.131  1.4672 -0.7670  0.8683
 6980SOL     OW32401   0.872   0.796   9.920  0.1113 -0.4711 -0.4226
 6980SOL    HW132402   0.894   0.790   9.828 -0.8899  0.6483 -0.7485
 6980SOL    HW232403   0.954   0.776   9.965 -0.7467 -0.8200  0.9980
 6981SOL     OW32404   3.838   2.268  16.397 -0.4655  0.2692 -0.2113
 6981SOL    HW132405   3.783   2.337  16.433  0.8642  1.2183  0.0065
 6981SOL    HW232406   3.860   2.311  16.314  1.7890 -0.2478  0.1212
 6982SOL     OW32407   0.122   4.441   2.057  0.2907 -0.6920 -0.6685
 6982SOL    HW132408   0.160   4.524   2.086  1.3540 -2.1196  2.0440
 6982SOL    HW232409   0.075   4.475   1.981 -1.7725  0.3703  1.0997
 6983SOL     OW32410   2.303   1.369  16.054 -0.6771 -0.1581 -0.2780
 6983SOL    HW132411   2.368   1.324  16.000  1.4207 -0.0594  2.1631
 6983SOL    HW232412   2.330   1.348  16.143 -4.2741  2.7444  1.4863
 6984SOL     OW32413   3.049   0.348   0.995  0.1893  0.5488 -0.3708
 6984SOL    HW132414   3.063   0.254   0.981 -2.0971  0.3525 -1.4263
 6984SOL    HW232415   3.130   0.383   0.958  0.3640  0.2848 -0.2373
 6985SOL     OW32416   4.631   0.499   9.091 -0.4224  0.5589 -0.6781
 6985SOL    HW132417   4.704   0.507   9.153 -0.2860  1.4167 -0.9373
 6985SOL    HW232418   4.555   0.493   9.148 -0.9570  0.6322 -1.3824
 6986SOL     OW32419   1.939   3.199  12.406  0.4819 -0.1883 -0.0143
 6986SOL    HW132420   1.948   3.132  12.339  1.1342  0.7886 -0.9045
 6986SOL    HW232421   1.996   3.270  12.379 -0.2649 -0.1811 -1.5813
 6987SOL     OW32422   1.303   3.378   5.597  0.8985  0.2994  0.1094
 6987SOL    HW132423   1.327   3.454   5.650 -0.2508  1.7834 -1.4974
 6987SOL    HW232424   1.215   3.401   5.567  1.8483  1.3007 -1.9637
 6988SOL     OW32425   1.003   1.457   3.974  0.1278  0.2964  0.3788
 6988SOL    HW132426   1.089   1.499   3.966 -0.0398  0.4214 -0.7627
 6988SOL    HW232427   0.953   1.530   3.938 -2.1912 -1.0663  0.7980
 6989SOL     OW32428   2.334   2.268   5.467  0.3459  0.1240 -0.1551
 6989SOL    HW132429   2.279   2.326   5.414  0.8810  1.1282  0.3821
 6989SOL    HW232430   2.274   2.240   5.535  0.2328 -1.7430 -1.0285
 6990SOL     OW32431   4.579   3.240   9.655  0.1791  0.3900 -0.0671
 6990SOL    HW132432   4.503   3.203   9.610 -0.5802  1.1551  0.5855
 6990SOL    HW232433   4.651   3.223   9.594 -0.6878  0.9365 -1.2296
 6991SOL     OW32434   3.194   0.868  16.261  0.5018  0.1926 -0.2074
 6991SOL    HW132435   3.179   0.898  16.171 -1.7096 -1.3038 -0.3335
 6991SOL    HW232436   3.246   0.940  16.298  1.8350 -2.2116  2.5721
 6992SOL     OW32437   0.624   1.194   8.523 -0.4662  0.1557 -0.3665
 6992SOL    HW132438   0.656   1.242   8.447  1.9126 -2.6589 -1.1711
 6992SOL    HW232439   0.679   1.116   8.513  1.4479  1.7036 -1.8484
 6993SOL     OW32440   3.794   2.858   8.693  0.0974  0.7560 -0.7591
 6993SOL    HW132441   3.873   2.812   8.722 -0.9593  0.0556  1.0017
 6993SOL    HW232442   3.817   2.874   8.601  1.3297  1.7019 -0.2984
 6994SOL     OW32443   4.047   0.014   4.707 -0.0198  0.0736 -0.6306
 6994SOL    HW132444   3.990   4.661   4.727 -0.6939  0.1426 -2.2851
 6994SOL    HW232445   4.113   4.711   4.771 -1.4982 -0.2640  0.7612
 6995SOL     OW32446   1.181   3.632   7.137  0.7092 -0.3621 -0.3870
 6995SOL    HW132447   1.184   3.689   7.060 -0.0418 -0.1093 -0.2246
 6995SOL    HW232448   1.133   3.685   7.201  1.5166  0.0880 -0.1474
 6996SOL     OW32449   3.386   0.846   6.680  0.1822 -0.2349  0.3179
 6996SOL    HW132450   3.332   0.853   6.759 -1.0951 -0.9549 -0.4757
 6996SOL    HW232451   3.461   0.799   6.716  1.8270  1.3603 -1.0333
 6997SOL     OW32452   4.093   3.695   4.911 -0.0039  0.4272 -0.7954
 6997SOL    HW132453   4.183   3.667   4.895  0.0113  0.1354 -0.1993
 6997SOL    HW232454   4.040   3.631   4.864  0.9177 -0.6055 -0.4109
 6998SOL     OW32455   3.526   3.287   5.828 -0.3519  0.1505  0.0349
 6998SOL    HW132456   3.586   3.361   5.817 -1.3988  0.8084 -1.1608
 6998SOL    HW232457   3.454   3.320   5.775  0.3373 -1.6109 -2.0278
 6999SOL     OW32458   1.261   2.525   5.107 -0.2762  0.1181  0.4602
 6999SOL    HW132459   1.279   2.607   5.061 -1.9369  0.6753  0.7900
 6999SOL    HW232460   1.170   2.545   5.129 -0.6726  1.1509 -2.0792
 7000SOL     OW32461   0.933   4.326   5.867  0.5738  0.2103 -0.1384
 7000SOL    HW132462   0.863   4.370   5.914  1.2816  3.1126 -1.8278
 7000SOL    HW232463   0.880   4.261   5.821 -0.8139  0.4717  1.0903
 7001SOL     OW32464   0.028   3.201   3.596  0.4287  0.0963 -0.0178
 7001SOL    HW132465   0.020   3.234   3.686 -1.3299  2.5689 -1.0861
 7001SOL    HW232466   4.682   3.134   3.599  0.8225 -0.2888  0.2330
 7002SOL     OW32467   0.815   0.082   9.870 -0.4089  0.2317  0.4056
 7002SOL    HW132468   0.787   0.158   9.820 -0.8170  0.8058  1.5204
 7002SOL    HW232469   0.801   0.016   9.801  0.6312  1.3685 -0.8961
 7003SOL     OW32470   0.934   2.070  11.429 -0.2575 -0.0546 -0.2985
 7003SOL    HW132471   0.953   2.164  11.425 -4.0160  0.6764 -1.7863
 7003SOL    HW232472   0.929   2.066  11.524  0.4776 -0.8817 -0.2965
 7004SOL     OW32473   2.645   0.183  16.007 -0.2964  0.7894 -0.1304
 7004SOL    HW132474   2.566   0.200  16.057 -0.4804 -1.7582  0.4302
 7004SOL    HW232475   2.603   0.153  15.927 -1.7078  0.0295  0.9228
 7005SOL     OW32476   2.807   4.506   4.187  0.0434 -0.0601 -0.0718
 7005SOL    HW132477   2.800   4.416   4.157 -1.4415  0.1977 -0.4932
 7005SOL    HW232478   2.837   4.497   4.277  2.0843  0.1521 -0.7122
 7006SOL     OW32479   3.108   0.442   8.816  0.3403  0.5753  0.4977
 7006SOL    HW132480   3.102   0.526   8.860  0.2824  0.6807  0.2881
 7006SOL    HW232481   3.204   0.438   8.817  0.4058  1.2932 -1.8490
 7007SOL     OW32482   0.219   3.435   5.017  0.3944  0.7125 -0.5066
 7007SOL    HW132483   0.286   3.469   4.958  0.6778  0.2833 -0.4244
 7007SOL    HW232484   0.233   3.344   4.992 -0.7834 -0.7266  3.9314
 7008SOL     OW32485   3.635   0.548   8.882  0.0978 -0.7068 -0.5690
 7008SOL    HW132486   3.706   0.564   8.819  0.1670 -0.0417 -0.3293
 7008SOL    HW232487   3.601   0.635   8.905 -3.5709 -2.1945 -0.4937
 7009SOL     OW32488   3.431   3.334   2.434  0.1963  0.2251  0.3019
 7009SOL    HW132489   3.365   3.402   2.446 -0.2318 -0.1050 -0.1565
 7009SOL    HW232490   3.514   3.374   2.461  1.6865 -3.6004  1.5105
 7010SOL     OW32491   3.481   0.162   5.224  0.6873  0.3815  0.1318
 7010SOL    HW132492   3.415   0.214   5.271 -1.4863 -0.2002 -2.3109
 7010SOL    HW232493   3.546   0.165   5.294  1.3767 -1.9462 -0.4401
 7011SOL     OW32494   3.649   4.515  16.626 -0.2683  0.2724  0.1027
 7011SOL    HW132495   3.736   4.523  16.587 -1.2254 -0.9502 -2.2697
 7011SOL    HW232496   3.684   4.482  16.708 -0.9913 -2.3806 -0.6643
 7012SOL     OW32497   2.056   2.161  14.420  0.3249 -0.1537 -0.5793
 7012SOL    HW132498   2.074   2.069  14.400  0.5463  0.0205 -1.1718
 7012SOL    HW232499   2.044   2.187  14.329  0.4793  2.0837  0.0346
 7013SOL     OW32500   0.823   4.360   5.039 -0.2962 -0.4167 -0.0400
 7013SOL    HW132501   0.856   4.282   4.994  1.8368  0.3749  0.1803
 7013SOL    HW232502   0.748   4.329   5.090 -0.7709 -1.2262 -1.2151
 7014SOL     OW32503   2.706   3.978  11.036 -0.5695 -0.2861 -0.2129
 7014SOL    HW132504   2.766   3.965  10.962  0.4697  2.8902  0.0501
 7014SOL    HW232505   2.768   3.981  11.109  0.2068  1.9698 -0.9763
 7015SOL     OW32506   4.450   3.016  12.357  0.4359 -0.1343 -0.2644
 7015SOL    HW132507   4.477   3.106  12.335 -2.1297  0.8000  0.3567
 7015SOL    HW232508   4.527   2.975  12.318  1.1589  2.0748 -1.1707
 7016SOL     OW32509   1.885   0.640   9.580 -0.2107 -0.3146  0.1682
 7016SOL    HW132510   1.820   0.707   9.600  0.0766  0.1226 -0.3754
 7016SOL    HW232511   1.852   0.577   9.644  0.9618 -0.3570  0.7432
 7017SOL     OW32512   4.394   2.257   4.078  0.0258 -0.3567  0.1417
 7017SOL    HW132513   4.476   2.210   4.060  0.2104  0.8771 -2.2111
 7017SOL    HW232514   4.331   2.190   4.055 -1.0063  0.7013 -0.1020
 7018SOL     OW32515   3.346   3.632  11.840 -0.0415  0.3847 -0.1764
 7018SOL    HW132516   3.393   3.610  11.921  1.2479  2.7921 -0.2494
 7018SOL    HW232517   3.411   3.631  11.770 -0.3924 -2.7829 -0.4705
 7019SOL     OW32518   2.579   3.557   4.974 -0.3699  0.2681 -0.6349
 7019SOL    HW132519   2.592   3.624   4.907  0.3705  0.4005 -0.3533
 7019SOL    HW232520   2.586   3.480   4.918 -0.0892  1.0168 -1.6123
 7020SOL     OW32521   1.701   1.987   0.477 -0.2747 -0.1477  0.1739
 7020SOL    HW132522   1.678   2.051   0.410 -0.9467  0.8866  1.3786
 7020SOL    HW232523   1.787   2.014   0.507 -0.3573 -0.9274  1.1255
 7021SOL     OW32524   1.542   2.592   5.527 -0.2086 -0.6418  0.0006
 7021SOL    HW132525   1.509   2.567   5.613 -2.0315  2.7534  0.2742
 7021SOL    HW232526   1.577   2.506   5.503 -0.3412 -1.0498  1.2373
 7022SOL     OW32527   3.080   2.570   4.211  0.0664  0.1141 -0.6587
 7022SOL    HW132528   3.060   2.477   4.224  0.5543  0.0629 -0.2816
 7022SOL    HW232529   3.174   2.562   4.194 -0.0008 -0.5101 -0.7522
 7023SOL     OW32530   2.818   3.837   0.345 -0.1481 -0.3682 -0.6353
 7023SOL    HW132531   2.868   3.759   0.366  2.0107  1.2327  0.1935
 7023SOL    HW232532   2.785   3.868   0.429  2.0704  0.5076 -0.1143
 7024SOL     OW32533   4.671   1.365  16.302  0.6222 -0.5890  0.1737
 7024SOL    HW132534   4.677   1.458  16.282 -0.0799 -0.9078 -1.4815
 7024SOL    HW232535   0.011   1.354  16.374 -1.2687 -0.4139  1.8361
 7025SOL     OW32536   3.405   0.235   4.349  0.4635 -0.5724  0.1340
 7025SOL    HW132537   3.458   0.183   4.410 -0.7917 -0.8785  0.9614
 7025SOL    HW232538   3.329   0.178   4.339 -0.0507  0.2323 -0.5167
 7026SOL     OW32539   0.534   1.789   6.567  0.2171 -0.4432 -0.1178
 7026SOL    HW132540   0.529   1.702   6.608  1.9167 -0.0092  1.0319
 7026SOL    HW232541   0.519   1.844   6.644 -1.7526  0.3968 -1.1171
 7027SOL     OW32542   0.086   4.294   9.273  0.2393 -0.2651  0.0991
 7027SOL    HW132543   4.715   4.271   9.277  0.1326  0.1240 -0.0891
 7027SOL    HW232544   0.116   4.305   9.363  1.4631  1.6607 -0.5560
 7028SOL     OW32545   2.675   2.894   7.315  0.5641 -0.1195 -0.4053
 7028SOL    HW132546   2.750   2.851   7.275  0.6044  1.7322 -2.3283
 7028SOL    HW232547   2.603   2.840   7.283  0.2049  0.6048 -0.8376
 7029SOL     OW32548   0.483   4.095   4.581  1.0094 -0.4300 -0.4736
 7029SOL    HW132549   0.471   4.165   4.517 -0.7139 -1.5875 -1.4106
 7029SOL    HW232550   0.391   4.071   4.598  0.6002  1.0696 -0.5490
 7030SOL     OW32551   2.592   1.805   6.981 -0.0435  0.1330 -0.5596
 7030SOL    HW132552   2.606   1.713   6.957 -1.3297 -0.1163 -0.3650
 7030SOL    HW232553   2.542   1.790   7.062 -0.2549 -0.5468 -0.8107
 7031SOL     OW32554   2.020   0.579  14.887 -0.2606  0.3279 -0.1132
 7031SOL    HW132555   1.966   0.611  14.959  2.1244  0.2179  1.7168
 7031SOL    HW232556   1.954   0.524  14.844 -1.8100  1.0659  1.3120
 7032SOL     OW32557   3.315   3.219   4.122  0.3394  0.2959  0.4755
 7032SOL    HW132558   3.274   3.159   4.059 -0.4098  0.4260  0.8321
 7032SOL    HW232559   3.312   3.297   4.067 -1.1274  0.2086  0.4077
 7033SOL     OW32560   4.512   1.660   0.965 -0.3069  0.0448  0.1484
 7033SOL    HW132561   4.579   1.721   0.934  0.5436 -0.0358  1.8379
 7033SOL    HW232562   4.439   1.720   0.978  0.1898  0.5757  0.4922
 7034SOL     OW32563   3.143   4.215   4.018 -0.5590 -0.7384  0.2487
 7034SOL    HW132564   3.049   4.201   4.014 -0.4940 -1.6509  2.1689
 7034SOL    HW232565   3.189   4.136   3.990 -0.0015 -0.6017  0.7955
 7035SOL     OW32566   0.352   4.144   9.996  0.6187 -0.1325  0.0725
 7035SOL    HW132567   0.411   4.080   9.956  1.1478  0.2073  0.3097
 7035SOL    HW232568   0.385   4.136  10.086 -0.9766 -0.9419  0.5903
 7036SOL     OW32569   2.194   4.318   5.712  0.3308 -0.3680 -0.1895
 7036SOL    HW132570   2.233   4.255   5.772 -0.6363 -1.0293 -0.2615
 7036SOL    HW232571   2.103   4.325   5.739  0.2697 -0.5804 -0.3450
 7037SOL     OW32572   4.518   2.133   3.520 -0.5389 -0.2091 -0.1937
 7037SOL    HW132573   4.436   2.172   3.550  0.9031  2.4805  0.2596
 7037SOL    HW232574   4.488   2.052   3.479 -0.4180 -0.6720  0.6191
 7038SOL     OW32575   1.844   1.067   8.874 -0.6068  0.6803 -0.1583
 7038SOL    HW132576   1.932   1.050   8.905 -0.8231 -1.8333 -0.9289
 7038SOL    HW232577   1.807   0.979   8.877  0.3862  0.1554 -2.9924
 7039SOL     OW32578   0.106   0.604   8.232  0.1131 -0.2880 -0.1450
 7039SOL    HW132579   0.174   0.628   8.168  1.0859 -0.9597  0.6396
 7039SOL    HW232580   0.087   0.696   8.254  2.6397  0.3622 -0.6434
 7040SOL     OW32581   0.910   3.252  15.169  0.2320 -0.4298  0.7170
 7040SOL    HW132582   0.932   3.276  15.259  1.3234  2.4983 -0.3636
 7040SOL    HW232583   0.842   3.187  15.188  0.2172 -0.2878  1.1479
 7041SOL     OW32584   1.054   0.119   8.156  0.0225 -0.1395 -0.6567
 7041SOL    HW132585   1.132   0.107   8.210  0.4595 -3.7338 -2.1025
 7041SOL    HW232586   1.054   0.027   8.129 -0.8464 -0.3568  0.1172
 7042SOL     OW32587   2.737   4.265  10.494  0.1467  0.0318  0.3257
 7042SOL    HW132588   2.706   4.289  10.581 -3.2285 -0.0404 -0.8678
 7042SOL    HW232589   2.830   4.285  10.505  0.3316 -1.6829  2.0183
 7043SOL     OW32590   1.206   4.570   9.665  0.1106  0.2034 -0.3625
 7043SOL    HW132591   1.269   4.642   9.664  0.9145 -0.4923  0.8726
 7043SOL    HW232592   1.201   4.548   9.758  0.1716  1.2004 -0.1196
 7044SOL     OW32593   4.676   2.028   8.019  0.2268 -0.1975  0.4926
 7044SOL    HW132594   4.700   2.071   7.937 -0.4755 -2.9185 -1.1159
 7044SOL    HW232595   0.009   2.080   8.078 -0.9327 -0.1057  1.4977
 7045SOL     OW32596   1.410   0.485   5.986 -0.1291  0.0603 -0.1634
 7045SOL    HW132597   1.343   0.424   5.954 -1.1489  0.4035  1.3074
 7045SOL    HW232598   1.430   0.442   6.068 -0.2230 -0.7157 -0.5516
 7046SOL     OW32599   1.922   0.622   7.855 -0.0805 -0.3991 -0.2908
 7046SOL    HW132600   1.984   0.601   7.785  1.1230  0.8553  0.3950
 7046SOL    HW232601   1.879   0.539   7.873 -0.7801 -0.2033 -1.0687
 7047SOL     OW32602   1.569   0.416   1.289 -0.2408 -0.4294  0.0031
 7047SOL    HW132603   1.651   0.366   1.294 -0.3376 -0.8929 -2.8319
 7047SOL    HW232604   1.540   0.386   1.203 -0.3876  1.2229 -0.5163
 7048SOL     OW32605   0.711   2.449  12.147  0.3983 -0.2102 -0.1009
 7048SOL    HW132606   0.795   2.410  12.168  0.1708 -0.7108 -0.1277
 7048SOL    HW232607   0.660   2.371  12.124 -0.1948 -0.3049  1.5000
 7049SOL     OW32608   3.011   0.683   8.143  0.0157 -0.2749 -0.1840
 7049SOL    HW132609   2.944   0.647   8.085 -2.3490  1.7025  1.3155
 7049SOL    HW232610   2.958   0.711   8.218  0.2341  3.4353 -1.4470
 7050SOL     OW32611   3.391   0.526   6.166 -0.0484 -0.4981  0.0469
 7050SOL    HW132612   3.453   0.599   6.155  0.2910 -0.7004  0.6177
 7050SOL    HW232613   3.434   0.460   6.111  0.5751 -0.1556  0.1159
 7051SOL     OW32614   0.094   4.320   0.543  0.0072 -0.1541 -0.2640
 7051SOL    HW132615   0.091   4.334   0.638 -0.0829 -1.4526 -0.0742
 7051SOL    HW232616   0.078   4.227   0.532 -2.6600  0.3524 -0.7419
 7052SOL     OW32617   1.856   4.159   5.982 -0.1204 -0.0623  0.3312
 7052SOL    HW132618   1.911   4.089   5.947 -0.8917  0.6116 -2.2288
 7052SOL    HW232619   1.768   4.125   5.997 -0.1915  0.0283  0.1193
 7053SOL     OW32620   0.123   4.559   9.206  0.3187  0.4616  0.1220
 7053SOL    HW132621   0.094   4.616   9.277  0.0408  0.3683  0.0834
 7053SOL    HW232622   0.112   4.474   9.249  2.5018 -0.1348 -0.4517
 7054SOL     OW32623   4.409   3.026   4.357 -0.3532  0.6622  0.1640
 7054SOL    HW132624   4.398   3.065   4.271  1.6593  1.5977  0.3194
 7054SOL    HW232625   4.447   2.946   4.322 -0.5736  0.6902 -0.1356
 7055SOL     OW32626   4.675   4.413   2.461 -1.1617  0.4183  0.3036
 7055SOL    HW132627   0.022   4.392   2.399 -0.9415 -1.8045  1.3140
 7055SOL    HW232628   4.702   4.500   2.491 -1.1611  0.8898 -1.0947
 7056SOL     OW32629   3.788   3.553   1.101 -0.3557 -0.0341  0.4960
 7056SOL    HW132630   3.764   3.645   1.089 -0.0103  0.0410  0.3631
 7056SOL    HW232631   3.743   3.514   1.026  0.3519  1.8603 -0.9317
 7057SOL     OW32632   0.697   3.743   8.518 -0.0619 -0.2401  0.2080
 7057SOL    HW132633   0.776   3.713   8.563  0.2556  1.6994  0.9567
 7057SOL    HW232634   0.727   3.802   8.449  1.2638  0.7272  1.6022
 7058SOL     OW32635   0.307   3.882   2.113  0.3260  0.2475 -0.2557
 7058SOL    HW132636   0.218   3.868   2.082  0.6626 -1.5291 -0.4635
 7058SOL    HW232637   0.345   3.809   2.064 -0.5193  0.2115 -0.8533
 7059SOL     OW32638   0.962   3.256  14.797  0.7292  0.0911 -0.3080
 7059SOL    HW132639   0.882   3.225  14.839  1.6574 -0.8718  0.7523
 7059SOL    HW232640   0.930   3.232  14.710 -0.2481 -1.3375  0.4331
 7060SOL     OW32641   3.973   2.160  17.258 -0.5256 -0.0995  0.1358
 7060SOL    HW132642   4.043   2.219  17.285 -2.0521  1.4337  0.6966
 7060SOL    HW232643   3.997   2.089  17.318 -1.3303  0.8297  1.5510
 7061SOL     OW32644   4.284   0.351   5.724  0.0823 -0.7313  0.2493
 7061SOL    HW132645   4.265   0.385   5.812  0.3884  1.8418 -0.6671
 7061SOL    HW232646   4.213   0.288   5.712 -1.3478  0.1830  3.9213
 7062SOL     OW32647   0.983   4.394   9.722 -0.2104  0.0484  0.7963
 7062SOL    HW132648   1.019   4.478   9.691  0.5905 -0.0670  1.4055
 7062SOL    HW232649   0.914   4.430   9.777  0.7392  1.0958  1.3092
 7063SOL     OW32650   4.078   1.043  17.560  0.6149  0.3444  0.4120
 7063SOL    HW132651   4.009   1.008  17.504 -0.2411 -0.3963  1.9044
 7063SOL    HW232652   4.136   1.096  17.505 -0.1322  0.5211 -0.2057
 7064SOL     OW32653   4.535   1.377  16.047  0.0516  0.0643 -0.1367
 7064SOL    HW132654   4.583   1.352  16.125  0.2549  0.1338 -0.2391
 7064SOL    HW232655   4.569   1.466  16.039 -3.5923  1.4730  0.0894
 7065SOL     OW32656   2.538   1.103  11.082  0.0023  0.4094  0.4352
 7065SOL    HW132657   2.544   1.020  11.131 -0.4705  0.8404  1.2317
 7065SOL    HW232658   2.520   1.166  11.152  1.8977  0.8348  0.5234
 7066SOL     OW32659   1.306   3.491  14.795  0.1367  0.0530  0.2216
 7066SOL    HW132660   1.227   3.462  14.840 -0.4377 -1.9461 -2.0514
 7066SOL    HW232661   1.254   3.561  14.755  0.0443 -1.4765 -2.3873
 7067SOL     OW32662   4.425   0.245   5.013 -0.5036  0.3416  0.3443
 7067SOL    HW132663   4.476   0.218   4.937 -0.2614 -0.1509  0.6756
 7067SOL    HW232664   4.337   0.254   4.977 -0.2290  0.1348 -0.3779
 7068SOL     OW32665   1.828   0.372   7.927  0.1278  0.6860  0.1392
 7068SOL    HW132666   1.738   0.396   7.948  0.1748 -1.4219  2.8600
 7068SOL    HW232667   1.806   0.324   7.847  2.1134  0.6405 -0.3798
 7069SOL     OW32668   1.580   2.240  10.206  0.2010 -0.1457  0.1645
 7069SOL    HW132669   1.535   2.261  10.124 -2.5705 -1.7361  1.2578
 7069SOL    HW232670   1.534   2.159  10.230 -3.1144  2.2564  1.8751
 7070SOL     OW32671   1.441   4.171   1.206 -0.0774 -0.1804  0.1328
 7070SOL    HW132672   1.535   4.160   1.221  0.1350  0.2288 -0.8867
 7070SOL    HW232673   1.438   4.145   1.114 -1.6794  1.3029 -0.2444
 7071SOL     OW32674   3.379   0.925   8.095  0.0385  0.6741 -0.3740
 7071SOL    HW132675   3.366   0.832   8.112  2.7796  0.2031 -0.8640
 7071SOL    HW232676   3.308   0.968   8.144 -0.3213  1.1970 -1.3378
 7072SOL     OW32677   1.579   0.282   3.370 -0.0822  0.4957 -0.1433
 7072SOL    HW132678   1.612   0.336   3.442 -2.7405 -1.1755  2.3551
 7072SOL    HW232679   1.639   0.313   3.302  2.3046  0.0665  1.7652
 7073SOL     OW32680   0.358   0.210   3.451  0.3447 -0.0739 -0.2104
 7073SOL    HW132681   0.288   0.251   3.402  0.2823 -0.0621 -0.1109
 7073SOL    HW232682   0.352   0.117   3.428 -0.8130 -0.6418  2.4263
 7074SOL     OW32683   0.903   4.564   6.619  0.6265 -0.2042  0.6138
 7074SOL    HW132684   0.887   4.607   6.703 -0.3624  0.3197  0.1595
 7074SOL    HW232685   0.950   4.631   6.569  1.9206 -1.1353  0.5886
 7075SOL     OW32686   2.821   4.284   2.794  0.0696  0.3445  0.4103
 7075SOL    HW132687   2.892   4.306   2.854  0.7123 -2.4309  0.6679
 7075SOL    HW232688   2.760   4.257   2.863 -0.5806  2.7131  0.7555
 7076SOL     OW32689   4.356   0.336   5.460  0.2125 -0.3913 -0.3053
 7076SOL    HW132690   4.333   0.429   5.454 -1.8393 -0.8822 -0.0688
 7076SOL    HW232691   4.341   0.329   5.554 -0.4907  0.1421 -0.3760
 7077SOL     OW32692   2.476   4.180   2.878  0.3183  0.0357  0.6873
 7077SOL    HW132693   2.415   4.128   2.930 -1.8795 -0.5599 -2.4960
 7077SOL    HW232694   2.477   4.132   2.795  0.6284  0.4811  0.4320
 7078SOL     OW32695   1.133   4.114  11.151 -0.1642  0.4372  0.0686
 7078SOL    HW132696   1.184   4.165  11.214 -1.6638  1.0657  0.7616
 7078SOL    HW232697   1.054   4.165  11.132 -0.0574  1.4382  2.3223
 7079SOL     OW32698   0.166   0.540   6.371  0.3424 -0.0855  0.4708
 7079SOL    HW132699   0.109   0.615   6.387 -0.9418 -1.2272  1.2015
 7079SOL    HW232700   0.249   0.564   6.413  0.5820  1.2415 -0.7347
 7080SOL     OW32701   0.978   1.100   5.167 -0.3921 -0.0589  0.1014
 7080SOL    HW132702   0.938   1.021   5.204  0.7796 -0.2301  1.0218
 7080SOL    HW232703   0.992   1.071   5.077 -0.9047 -1.7837  0.5639
 7081SOL     OW32704   1.908   3.287   7.270  0.4406  0.1964 -0.5390
 7081SOL    HW132705   1.833   3.238   7.234 -0.9034  1.2999  0.7337
 7081SOL    HW232706   1.952   3.223   7.326  0.3989  1.0744  0.4900
 7082SOL     OW32707   3.830   4.074   9.430 -0.2825  0.3396 -0.4858
 7082SOL    HW132708   3.813   3.981   9.440  0.6778  0.2223 -0.0184
 7082SOL    HW232709   3.844   4.080   9.335  0.4433 -0.1959 -0.4072
 7083SOL     OW32710   3.346   3.323   5.623  0.2666 -0.2644  0.2924
 7083SOL    HW132711   3.279   3.277   5.673  1.4097 -1.7791  0.4392
 7083SOL    HW232712   3.292   3.388   5.577  2.4156  1.3287  0.0242
 7084SOL     OW32713   3.758   2.117   3.362 -0.2612  0.1257 -0.3551
 7084SOL    HW132714   3.712   2.141   3.443 -0.1031  0.4382 -0.3577
 7084SOL    HW232715   3.678   2.117   3.310  0.2241 -0.2949 -1.0941
 7085SOL     OW32716   2.060   2.181   5.543  0.1478  0.2281 -0.1234
 7085SOL    HW132717   2.009   2.102   5.525 -1.7143  1.3638  0.1959
 7085SOL    HW232718   2.027   2.242   5.477  0.9730 -1.0634 -1.7352
 7086SOL     OW32719   3.953   3.028  11.346 -0.4712 -0.6159  0.7801
 7086SOL    HW132720   3.889   3.097  11.329 -0.5858 -0.5744  1.3846
 7086SOL    HW232721   4.017   3.070  11.404 -0.1125 -1.0406  0.6941
 7087SOL     OW32722   4.549   3.599  10.685 -0.4635  0.1564  0.2538
 7087SOL    HW132723   4.542   3.513  10.644 -1.8050  0.1649  0.4392
 7087SOL    HW232724   4.496   3.645  10.620  0.2352  4.1895  2.5005
 7088SOL     OW32725   4.010   3.944   4.631 -0.0532 -0.1342  0.1164
 7088SOL    HW132726   4.026   4.013   4.566  0.7848  1.0005  1.5483
 7088SOL    HW232727   4.077   3.879   4.612  0.5210 -0.2078  2.4159
 7089SOL     OW32728   4.228   2.754   4.929 -0.2820  0.7389 -0.4472
 7089SOL    HW132729   4.288   2.771   4.857  0.5621  4.3685  1.1214
 7089SOL    HW232730   4.214   2.844   4.959  1.8040  1.1588 -0.7250
 7090SOL     OW32731   3.596   1.527   6.225 -0.2888  0.4968  0.6449
 7090SOL    HW132732   3.690   1.543   6.225 -0.8787  4.1096  1.1635
 7090SOL    HW232733   3.569   1.613   6.193 -1.5310  1.2294  3.6265
 7091SOL     OW32734   2.422   1.872   4.692 -0.4525  0.0118  0.0121
 7091SOL    HW132735   2.478   1.825   4.754 -1.0396  0.6305  0.9994
 7091SOL    HW232736   2.357   1.805   4.672  0.9886 -1.6562  0.9340
 7092SOL     OW32737   2.631   1.395   1.210  0.5529 -0.4262  0.1677
 7092SOL    HW132738   2.695   1.379   1.141  2.0894  1.1565  1.2258
 7092SOL    HW232739   2.626   1.488   1.228 -1.4808 -0.2700 -1.1929
 7093SOL     OW32740   3.050   3.943   0.693  0.0142  0.2396 -0.4233
 7093SOL    HW132741   3.013   3.998   0.623 -1.1426 -0.8711 -0.6896
 7093SOL    HW232742   3.142   3.969   0.696  0.8220 -2.6921 -0.2140
 7094SOL     OW32743   2.264   1.509   5.456  0.6848 -0.2060 -0.4093
 7094SOL    HW132744   2.272   1.424   5.413  0.6153 -0.5455  0.2474
 7094SOL    HW232745   2.303   1.499   5.543  0.2942  1.0517 -0.0992
 7095SOL     OW32746   1.316   2.217   7.218  0.9068  0.6239  0.0051
 7095SOL    HW132747   1.269   2.262   7.147 -1.5750 -0.3477  1.0325
 7095SOL    HW232748   1.402   2.197   7.182  0.9104  1.7261 -0.5972
 7096SOL     OW32749   0.702   4.270  11.651  0.2500  0.4816  0.0666
 7096SOL    HW132750   0.754   4.208  11.599 -1.3132  0.7624 -1.8584
 7096SOL    HW232751   0.639   4.216  11.699  1.3448 -0.6257  0.2498
 7097SOL     OW32752   2.843   4.493  15.930 -0.1125 -0.7525  0.0215
 7097SOL    HW132753   2.755   4.510  15.899  1.1255  0.7050 -2.6845
 7097SOL    HW232754   2.900   4.536  15.866 -1.7984  1.0917 -0.2148
 7098SOL     OW32755   3.309   2.793  15.540  0.6184 -0.2221 -0.1983
 7098SOL    HW132756   3.250   2.868  15.532  0.7636  0.1504  2.2790
 7098SOL    HW232757   3.276   2.736  15.470 -0.9722 -0.7017  0.9239
 7099SOL     OW32758   4.296   1.158   6.240 -0.2640 -0.0841  0.1188
 7099SOL    HW132759   4.315   1.168   6.147  1.0639  1.0991  0.4970
 7099SOL    HW232760   4.268   1.246   6.265  0.5747  0.8205 -2.0846
 7100SOL     OW32761   4.053   1.304   5.805 -0.2557  0.0495  0.4366
 7100SOL    HW132762   3.966   1.271   5.783  0.6620 -0.3504 -2.6640
 7100SOL    HW232763   4.043   1.383   5.857  2.5793  0.8906 -0.2999
 7101SOL     OW32764   1.665   0.413   2.412 -0.1341  0.4800  0.0132
 7101SOL    HW132765   1.582   0.460   2.406  0.3193  1.3920  1.0434
 7101SOL    HW232766   1.641   0.332   2.366  2.6044 -1.9401  2.8731
 7102SOL     OW32767   2.132   3.182   6.490  0.0753  0.1984  0.4168
 7102SOL    HW132768   2.170   3.116   6.432 -0.9194 -0.0956  0.0983
 7102SOL    HW232769   2.205   3.244   6.500 -0.2638  0.2833  2.2917
 7103SOL     OW32770   3.577   2.699  10.093  0.3032 -0.3973  0.1518
 7103SOL    HW132771   3.518   2.722  10.164  0.1809  2.1626 -0.8064
 7103SOL    HW232772   3.534   2.637  10.033  0.3653 -1.1040  0.8290
 7104SOL     OW32773   3.779   2.122  17.508  0.3099  0.5163  0.2398
 7104SOL    HW132774   3.792   2.038  17.464 -1.5430 -1.0467  2.6613
 7104SOL    HW232775   3.801   2.178  17.434  0.5788  2.6696  1.9518
 7105SOL     OW32776   2.256   4.666   3.520  0.1192 -0.2887 -0.2388
 7105SOL    HW132777   2.284   0.016   3.464  2.4906  0.5126  1.9447
 7105SOL    HW232778   2.162   4.682   3.519  0.6551  2.9512 -0.0994
 7106SOL     OW32779   3.495   1.400  16.505 -0.5518  0.1880  0.7364
 7106SOL    HW132780   3.423   1.342  16.481  0.1799 -0.8383  1.0326
 7106SOL    HW232781   3.471   1.424  16.594 -1.3757 -0.4550  0.6860
 7107SOL     OW32782   2.081   0.407  14.248  0.5269  0.4616  0.1614
 7107SOL    HW132783   2.089   0.313  14.263 -0.4043  0.5195  1.0490
 7107SOL    HW232784   2.163   0.432  14.291 -0.2335  1.1844  1.1925
 7108SOL     OW32785   1.016   4.099   1.796  0.3801  0.1877  0.4958
 7108SOL    HW132786   1.044   4.012   1.768 -0.0896 -0.3733  1.7782
 7108SOL    HW232787   0.928   4.079   1.827 -1.5089  0.8695 -4.4479
 7109SOL     OW32788   3.100   0.224  12.563 -0.5109  0.7051 -0.1316
 7109SOL    HW132789   3.059   0.283  12.500 -2.4122  0.2372  0.6646
 7109SOL    HW232790   3.033   0.222  12.631 -0.8309 -1.4082 -0.4928
 7110SOL     OW32791   3.978   3.611   1.533 -0.2043 -0.5249  0.3948
 7110SOL    HW132792   3.955   3.577   1.446  0.6703 -3.2068  1.2248
 7110SOL    HW232793   3.980   3.525   1.576  1.2187 -0.4477  0.4946
 7111SOL     OW32794   3.072   2.908   6.386 -0.0440  0.0022 -0.4089
 7111SOL    HW132795   3.000   2.860   6.427  1.0032  0.0759  1.5404
 7111SOL    HW232796   3.029   2.919   6.302 -0.7527  1.3709  0.1356
 7112SOL     OW32797   1.740   4.321   3.042  0.0304  0.1397  0.7157
 7112SOL    HW132798   1.778   4.322   2.955 -1.5163 -1.6195  0.0242
 7112SOL    HW232799   1.675   4.391   3.033 -0.4501 -0.7165 -2.2083
 7113SOL     OW32800   2.177   0.683   5.065  0.2550  0.4055  0.4514
 7113SOL    HW132801   2.226   0.656   5.143 -0.0384  0.6451  0.7191
 7113SOL    HW232802   2.193   0.777   5.059  0.4088  0.2926 -0.8015
 7114SOL     OW32803   3.420   0.275   3.499 -0.1467  0.4396 -0.4388
 7114SOL    HW132804   3.392   0.191   3.535  1.8898 -0.6684 -1.5088
 7114SOL    HW232805   3.332   0.314   3.491 -0.0709  0.4188 -1.3340
 7115SOL     OW32806   2.819   1.089   2.678  0.3754  0.0851 -0.6581
 7115SOL    HW132807   2.757   1.130   2.618  1.6821  2.8074 -0.1474
 7115SOL    HW232808   2.843   1.015   2.622 -0.9929 -0.1502 -0.9431
 7116SOL     OW32809   4.504   2.449  16.242  0.1133  0.2168 -0.5423
 7116SOL    HW132810   4.597   2.436  16.256  0.5048  2.8655 -0.6490
 7116SOL    HW232811   4.462   2.381  16.295  0.5320 -0.7623 -1.4783
 7117SOL     OW32812   3.422   0.866   1.936 -0.3910  0.1324 -0.8571
 7117SOL    HW132813   3.354   0.879   2.003  1.3942  1.2917  0.7432
 7117SOL    HW232814   3.500   0.850   1.990 -0.5486  0.2724 -0.5895
 7118SOL     OW32815   2.367   3.741  15.540 -0.6627  0.4549 -0.4050
 7118SOL    HW132816   2.337   3.794  15.466 -0.8423 -0.3582 -0.9184
 7118SOL    HW232817   2.284   3.719  15.582 -0.1444 -0.3744  0.1832
 7119SOL     OW32818   1.826   3.204  15.769 -0.3935 -0.0764 -0.6162
 7119SOL    HW132819   1.903   3.254  15.743 -0.6777  1.4039  1.4528
 7119SOL    HW232820   1.873   3.133  15.812 -1.2030 -0.5730 -0.5439
 7120SOL     OW32821   4.719   3.018  12.239 -0.3878 -0.0961 -0.3461
 7120SOL    HW132822   0.014   3.093  12.296 -0.5835  0.6057 -1.1989
 7120SOL    HW232823   4.680   3.072  12.170  0.0123  1.1837  0.4295
 7121SOL     OW32824   1.431   3.287   1.604  0.2650 -0.1267  0.6320
 7121SOL    HW132825   1.434   3.212   1.544  3.4125  0.2384  0.3388
 7121SOL    HW232826   1.340   3.297   1.632 -1.0010 -1.9901 -2.7409
 7122SOL     OW32827   3.086   4.370   2.942 -0.1910 -0.0302 -0.0603
 7122SOL    HW132828   3.044   4.442   2.989  0.6847  1.8051 -2.0532
 7122SOL    HW232829   3.110   4.411   2.858  0.5561 -1.0110 -0.3265
 7123SOL     OW32830   3.412   2.579   8.635  0.1115 -0.8698  0.3592
 7123SOL    HW132831   3.447   2.650   8.689  0.6136 -1.8786  1.3620
 7123SOL    HW232832   3.481   2.564   8.571  0.5518 -0.2712  0.6945
 7124SOL     OW32833   1.795   4.658  12.976  0.2843  0.1772  0.8448
 7124SOL    HW132834   1.730   4.600  12.935  1.1812  0.5794 -1.1317
 7124SOL    HW232835   1.868   4.600  12.997  0.4651 -0.0950 -0.5143
 7125SOL     OW32836   4.374   4.522   8.307  0.2847 -0.2666  0.2940
 7125SOL    HW132837   4.279   4.517   8.317 -0.1098  2.5635 -2.1201
 7125SOL    HW232838   4.408   4.508   8.396 -1.4412 -1.2664  0.7926
 7126SOL     OW32839   3.817   0.617   5.098  0.0488 -0.0073 -0.2261
 7126SOL    HW132840   3.816   0.666   5.016  0.0470  1.2698  0.5424
 7126SOL    HW232841   3.724   0.632   5.119  0.0589 -0.1285 -0.0973
 7127SOL     OW32842   2.923   1.117   3.473 -0.1273 -0.0969 -0.0670
 7127SOL    HW132843   3.012   1.151   3.468 -0.2034  0.0542 -0.4197
 7127SOL    HW232844   2.938   1.026   3.498  0.1728 -0.8011 -2.7810
 7128SOL     OW32845   3.344   1.634   6.925  0.3717  0.4671 -0.5291
 7128SOL    HW132846   3.274   1.682   6.880  2.0671  0.2067 -3.4309
 7128SOL    HW232847   3.402   1.703   6.958  0.4814 -0.1024  0.4884
 7129SOL     OW32848   3.153   1.584   2.145 -0.7062 -0.7005 -0.1901
 7129SOL    HW132849   3.200   1.557   2.066  2.1873  0.2110  1.2246
 7129SOL    HW232850   3.065   1.566   2.112 -1.1662 -1.8930  1.6908
 7130SOL     OW32851   3.708   0.419   4.940  0.0892 -0.1171  0.0385
 7130SOL    HW132852   3.711   0.477   5.016 -1.9695  0.9571 -0.7080
 7130SOL    HW232853   3.662   0.476   4.878  1.7401  1.2952  0.1003
 7131SOL     OW32854   1.513   0.289   6.809  0.2485  0.3939 -0.2757
 7131SOL    HW132855   1.446   0.249   6.755  0.7152  1.5442 -1.7177
 7131SOL    HW232856   1.481   0.261   6.895 -0.7387 -1.4659 -1.2712
 7132SOL     OW32857   2.911   1.986   7.352 -0.0012 -0.0175 -0.3887
 7132SOL    HW132858   2.922   1.954   7.263  3.0957 -0.9922  0.3543
 7132SOL    HW232859   2.947   1.915   7.406 -0.1502  1.1501  1.2372
 7133SOL     OW32860   3.103   2.876   7.997  0.1367 -0.9076 -0.5122
 7133SOL    HW132861   3.055   2.851   8.076 -1.7397  1.4888 -0.8828
 7133SOL    HW232862   3.134   2.963   8.022 -0.4369 -0.9683  0.3997
 7134SOL     OW32863   3.345   0.554   7.123  0.0874  0.0757  0.4650
 7134SOL    HW132864   3.388   0.468   7.117  0.9334  0.4242  1.6318
 7134SOL    HW232865   3.418   0.614   7.139 -0.6528  0.9738  0.4064
 7135SOL     OW32866   1.473   3.068   1.016 -0.0682 -0.0810 -0.3750
 7135SOL    HW132867   1.515   3.106   1.093  2.0782 -1.3615 -0.9503
 7135SOL    HW232868   1.407   3.138   1.015  1.4156  1.3401  1.6524
 7136SOL     OW32869   2.011   2.616   5.217 -0.5786 -0.1842  0.2062
 7136SOL    HW132870   1.920   2.586   5.211 -0.1968 -0.8383 -2.0441
 7136SOL    HW232871   2.030   2.624   5.124 -1.4130  1.7349  0.1951
 7137SOL     OW32872   0.586   4.358   6.493  0.2624  0.2886  0.0963
 7137SOL    HW132873   0.511   4.414   6.517  0.7490  1.5944 -1.4232
 7137SOL    HW232874   0.565   4.280   6.544 -0.0489 -0.5443 -1.3073
 7138SOL     OW32875   2.292   4.553   4.959 -0.3117  0.2327 -0.3627
 7138SOL    HW132876   2.259   4.627   5.010  0.2551 -0.8510  1.6099
 7138SOL    HW232877   2.227   4.554   4.890 -0.0230  0.2336 -0.6357
 7139SOL     OW32878   2.457   1.723   8.951 -0.0716 -0.4929  0.0028
 7139SOL    HW132879   2.480   1.780   8.878  1.3148  0.8948  1.5110
 7139SOL    HW232880   2.525   1.657   8.939 -0.8190 -1.0224 -1.3153
 7140SOL     OW32881   4.673   1.743   3.951 -0.4333  0.3689 -0.3453
 7140SOL    HW132882   4.613   1.694   3.895 -1.4307  2.6475 -1.3012
 7140SOL    HW232883   4.627   1.742   4.036  0.9012 -0.8849  0.3528
 7141SOL     OW32884   2.803   2.273   3.408 -0.3612 -0.2380  0.5621
 7141SOL    HW132885   2.764   2.189   3.430 -0.5052 -0.0364  1.1012
 7141SOL    HW232886   2.842   2.263   3.322 -0.3402  1.3473  0.3759
 7142SOL     OW32887   0.678   4.208   7.517 -0.2379 -0.5615  0.4983
 7142SOL    HW132888   0.758   4.184   7.470  1.0624  1.0086  1.9168
 7142SOL    HW232889   0.613   4.232   7.451 -0.8242 -1.9256  0.5774
 7143SOL     OW32890   2.864   2.540   7.741  0.4234  0.3800 -0.7064
 7143SOL    HW132891   2.835   2.624   7.778  0.8911 -0.0757  0.6773
 7143SOL    HW232892   2.894   2.568   7.654  1.9015 -1.2256 -0.7166
 7144SOL     OW32893   0.907   0.921   0.000 -0.1573  0.0459 -0.0453
 7144SOL    HW132894   0.841   0.855  17.671  0.3687 -0.6547  0.5611
 7144SOL    HW232895   0.985   0.882  17.651 -1.0383 -0.6884 -1.0489
 7145SOL     OW32896   2.013   4.060  14.101 -0.3416  0.0569  0.6508
 7145SOL    HW132897   2.033   4.123  14.170 -0.4234  0.0634  0.6683
 7145SOL    HW232898   1.918   4.069  14.097 -0.3384 -0.3351 -0.4773
 7146SOL     OW32899   4.125   1.354   6.869  0.3581 -0.5814 -0.3710
 7146SOL    HW132900   4.117   1.374   6.962  3.1464  1.9964 -0.6626
 7146SOL    HW232901   4.041   1.308   6.864  0.1065 -0.2913  1.2995
 7147SOL     OW32902   3.347   1.099   7.516  0.4054  0.1211  0.6618
 7147SOL    HW132903   3.441   1.107   7.503  0.4787  1.4168  2.0063
 7147SOL    HW232904   3.319   1.183   7.553 -0.2965  0.4985 -0.7006
 7148SOL     OW32905   4.206   2.309   0.868  0.0214  0.3041  0.1483
 7148SOL    HW132906   4.223   2.222   0.905 -1.0841 -0.2511 -0.6321
 7148SOL    HW232907   4.277   2.328   0.807 -0.1187 -2.1585 -0.7936
 7149SOL     OW32908   2.378   1.015   1.119  0.6643 -0.5923 -0.1921
 7149SOL    HW132909   2.424   1.058   1.191  2.7709 -0.9391 -1.3118
 7149SOL    HW232910   2.377   1.087   1.055 -2.7786  0.1188  0.6508
 7150SOL     OW32911   1.424   3.973   8.337  0.1273  0.0523 -0.5686
 7150SOL    HW132912   1.415   4.046   8.276 -0.2122 -0.3791 -1.0338
 7150SOL    HW232913   1.471   4.012   8.411 -0.7206 -0.8197  0.4325
 7151SOL     OW32914   0.519   0.421  11.381 -0.0066  0.4392 -0.2402
 7151SOL    HW132915   0.581   0.441  11.310 -0.2905 -1.8664 -1.1413
 7151SOL    HW232916   0.469   0.501  11.395  0.4912  0.2195  2.6601
 7152SOL     OW32917   3.028   3.358   7.557 -1.0534  0.7340 -0.5734
 7152SOL    HW132918   3.117   3.374   7.525 -0.0385 -2.5937  0.5727
 7152SOL    HW232919   2.993   3.285   7.506  0.9706  1.4806 -3.0042
 7153SOL     OW32920   1.660   0.958   7.290  0.6808 -0.2856  0.3298
 7153SOL    HW132921   1.689   0.867   7.280  2.4043  0.4505 -1.2965
 7153SOL    HW232922   1.567   0.941   7.306  0.0315  1.0472 -1.9950
 7154SOL     OW32923   1.800   0.910   5.381  0.2067  0.0803  0.5645
 7154SOL    HW132924   1.851   0.979   5.338 -1.0286  1.5436  1.4266
 7154SOL    HW232925   1.745   0.882   5.308 -0.8014  0.4820  1.1544
 7155SOL     OW32926   4.073   0.746   5.097 -0.1728  0.3943 -0.2417
 7155SOL    HW132927   3.983   0.719   5.111 -0.6145  2.5398  1.0002
 7155SOL    HW232928   4.065   0.841   5.093 -1.2544  0.2828 -0.6966
 7156SOL     OW32929   0.632   0.908  12.550 -0.1413 -0.1768  0.1896
 7156SOL    HW132930   0.630   0.812  12.549 -0.3421 -0.1739  0.3636
 7156SOL    HW232931   0.636   0.919  12.645 -5.2040  0.4350  0.3187
 7157SOL     OW32932   4.074   2.722  17.440 -0.0839 -0.1700 -0.2190
 7157SOL    HW132933   4.033   2.727  17.526  2.3839 -0.1456  0.9375
 7157SOL    HW232934   4.148   2.667  17.463 -0.1023 -0.9690 -2.0761
 7158SOL     OW32935   0.692   0.887   4.088 -0.0442  0.7543 -0.3526
 7158SOL    HW132936   0.663   0.796   4.095 -0.5622  0.9347 -0.0957
 7158SOL    HW232937   0.786   0.871   4.086 -0.4443 -1.8730  2.0896
 7159SOL     OW32938   4.345   2.677  16.139  0.1674  0.0911 -0.0084
 7159SOL    HW132939   4.367   2.759  16.183  0.0329 -0.1546  0.5310
 7159SOL    HW232940   4.406   2.621  16.187 -0.1076  0.6428  0.9881
 7160SOL     OW32941   1.742   2.421  14.531 -0.0882 -0.3323 -0.5356
 7160SOL    HW132942   1.772   2.457  14.448  3.4415  0.8102  1.2509
 7160SOL    HW232943   1.786   2.338  14.551 -0.0746 -0.0278  0.7034
 7161SOL     OW32944   2.339   3.930  15.302  0.0193 -0.1119 -0.0058
 7161SOL    HW132945   2.301   4.004  15.256  2.6901  2.0745  1.2878
 7161SOL    HW232946   2.427   3.932  15.265 -0.2401  3.2894 -0.3939
 7162SOL     OW32947   1.940   4.597   2.897  0.6985  0.4275  0.6097
 7162SOL    HW132948   1.852   4.558   2.900  0.8170 -0.0378 -1.6622
 7162SOL    HW232949   1.920   4.687   2.871 -1.6816 -0.5695 -1.0247
 7163SOL     OW32950   2.670   4.253   3.036  0.4759  0.5357  0.3589
 7163SOL    HW132951   2.691   4.163   3.063 -0.9997  0.2766  0.6216
 7163SOL    HW232952   2.591   4.230   2.988  0.3845 -0.9094  1.1823
 7164SOL     OW32953   0.462   1.917   4.886 -0.0498  0.3971  0.5579
 7164SOL    HW132954   0.497   1.933   4.973 -0.8287  1.5645  0.6649
 7164SOL    HW232955   0.376   1.948   4.917  0.8033  1.3950  1.9176
 7165SOL     OW32956   4.696   3.183  15.834 -0.5979 -0.0950 -0.2884
 7165SOL    HW132957   4.666   3.172  15.924 -1.4015  0.5918 -0.4698
 7165SOL    HW232958   0.008   3.094  15.823  0.7703  0.1758  1.8396
 7166SOL     OW32959   1.900   3.160   7.900 -0.4163 -0.2716  0.1859
 7166SOL    HW132960   1.837   3.156   7.972 -0.2179 -0.5233  0.3436
 7166SOL    HW232961   1.986   3.164   7.942 -1.0553  2.0306  1.2449
 7167SOL     OW32962   1.400   0.506   3.390  0.3467  0.7234 -0.3291
 7167SOL    HW132963   1.353   0.513   3.473  0.1732 -0.9208 -0.3037
 7167SOL    HW232964   1.470   0.446   3.415  1.2399  1.6199 -0.6548
 7168SOL     OW32965   4.722   2.657   8.183 -0.3780 -0.1313  0.6681
 7168SOL    HW132966   4.657   2.588   8.200 -1.7837  0.6278 -1.5634
 7168SOL    HW232967   4.685   2.691   8.102 -0.4243 -0.8338  0.3933
 7169SOL     OW32968   1.745   4.410   0.686  0.4627 -0.2243 -0.5409
 7169SOL    HW132969   1.763   4.350   0.758 -0.9192 -0.5289 -0.4521
 7169SOL    HW232970   1.653   4.427   0.706  0.8343  1.8156 -0.5610
 7170SOL     OW32971   2.646   1.662   6.534  0.4433  0.1661 -0.0170
 7170SOL    HW132972   2.712   1.728   6.559  0.2112 -0.1331  1.3939
 7170SOL    HW232973   2.602   1.690   6.454  0.7000  0.3867 -0.0804
 7171SOL     OW32974   0.167   1.504   6.035  0.2199 -0.2323  0.6021
 7171SOL    HW132975   0.228   1.508   5.962  0.5256  1.1186  0.9364
 7171SOL    HW232976   0.107   1.576   6.018 -0.5482 -0.7642  1.0723
 7172SOL     OW32977   3.071   1.990  15.380 -0.1738  0.2689  0.5543
 7172SOL    HW132978   2.983   1.963  15.351 -0.3668  0.7424  0.6834
 7172SOL    HW232979   3.063   2.019  15.471 -0.4945  0.1029  0.5800
 7173SOL     OW32980   0.206   3.279  13.225 -0.7535  0.1140 -0.1862
 7173SOL    HW132981   0.272   3.224  13.266  0.4260  1.6364 -0.0352
 7173SOL    HW232982   0.193   3.343  13.295 -0.8598 -0.3468  0.2134
 7174SOL     OW32983   2.284   3.346   8.823 -0.0822 -0.0001  0.0259
 7174SOL    HW132984   2.366   3.349   8.775 -1.4292 -1.4394 -2.3397
 7174SOL    HW232985   2.319   3.354   8.912 -0.3242  0.9132  0.0462
 7175SOL     OW32986   2.894   2.283   0.169  0.2967  0.5923  0.5825
 7175SOL    HW132987   2.933   2.231   0.239 -1.9649  0.7562  1.9674
 7175SOL    HW232988   2.865   2.212   0.112  1.4310  0.7621 -0.2095
 7176SOL     OW32989   0.619   0.810   5.520 -0.2469 -0.4629 -0.5020
 7176SOL    HW132990   0.633   0.752   5.594  0.6703  0.3419 -0.0369
 7176SOL    HW232991   0.590   0.750   5.452 -2.5397 -0.0461  0.1337
 7177SOL     OW32992   1.944   0.648   4.389  0.5241  0.1037  0.0868
 7177SOL    HW132993   1.924   0.610   4.304 -1.1841 -0.0357  0.5524
 7177SOL    HW232994   2.040   0.653   4.396  0.5730 -0.4595 -0.2133
 7178SOL     OW32995   4.398   4.676   4.661 -0.1951  0.1687 -0.3526
 7178SOL    HW132996   4.479   4.636   4.694 -0.6553  0.9878  1.8097
 7178SOL    HW232997   4.340   4.630   4.721  0.1543 -1.7716 -1.5060
 7179SOL     OW32998   3.846   1.860   3.704 -0.1133 -0.5476  0.3248
 7179SOL    HW132999   3.915   1.916   3.668 -1.4704  1.0684  0.2256
 7179SOL    HW233000   3.891   1.777   3.711  0.8346 -0.2398 -2.1898
 7180SOL     OW33001   4.719   2.234   5.278  0.6011  0.5823 -0.1602
 7180SOL    HW133002   4.718   2.307   5.339  0.6908 -0.3792  0.9967
 7180SOL    HW233003   0.065   2.265   5.218  3.3815 -0.5514  2.3502
 7181SOL     OW33004   2.724   1.059   8.420  0.1924  0.6201 -0.5651
 7181SOL    HW133005   2.758   1.132   8.368  1.7279  0.4486  0.1940
 7181SOL    HW233006   2.800   1.034   8.473 -0.5965  0.4352  0.4760
 7182SOL     OW33007   0.173   0.400   2.175 -0.0696 -0.3901  0.6817
 7182SOL    HW133008   0.256   0.446   2.165 -0.2242 -0.5925 -1.5958
 7182SOL    HW233009   0.173   0.348   2.095 -0.8671  1.6977 -0.6786
 7183SOL     OW33010   3.714   4.265   7.812  0.3057 -0.1491  0.0651
 7183SOL    HW133011   3.641   4.289   7.755 -0.1877 -1.0775  0.3051
 7183SOL    HW233012   3.675   4.271   7.899 -0.4025  2.1165 -0.4094
 7184SOL     OW33013   4.675   3.519  17.570  0.1599  0.2537  0.1897
 7184SOL    HW133014   4.653   3.536  17.662  1.4522 -0.8674  0.6990
 7184SOL    HW233015   0.046   3.515  17.590  0.3089 -0.9087 -0.7458
 7185SOL     OW33016   1.279   1.515   7.930 -0.2840  0.3114  0.5387
 7185SOL    HW133017   1.253   1.458   8.003 -1.5065 -0.9116 -0.8701
 7185SOL    HW233018   1.239   1.475   7.853  1.2694  3.5698 -1.9556
 7186SOL     OW33019   4.055   0.778   5.484 -0.0438 -0.3234 -0.1865
 7186SOL    HW133020   4.087   0.857   5.441 -0.9399  0.3370  0.3956
 7186SOL    HW233021   3.969   0.811   5.509  0.0587  0.2195 -0.5651
 7187SOL     OW33022   4.514   2.420   8.259  0.0567  0.1318  0.0786
 7187SOL    HW133023   4.564   2.340   8.274  0.5633  0.3926 -0.2082
 7187SOL    HW233024   4.486   2.439   8.348 -0.9028 -1.4455  0.1178
 7188SOL     OW33025   2.888   3.096   3.565 -0.0199 -0.3014  0.5593
 7188SOL    HW133026   2.869   3.145   3.484  0.7581  0.6942  0.9673
 7188SOL    HW233027   2.830   3.021   3.553 -2.2863  1.1718  2.3494
 7189SOL     OW33028   1.650   1.086   2.502 -0.4207  0.0502 -0.7463
 7189SOL    HW133029   1.568   1.119   2.541  0.9899  3.6768 -0.8100
 7189SOL    HW233030   1.654   1.151   2.432  3.3323 -0.2569 -0.8118
 7190SOL     OW33031   1.908   1.985   0.227  0.0134  0.2608  0.2091
 7190SOL    HW133032   1.826   2.031   0.240  0.6011  1.8613 -1.5791
 7190SOL    HW233033   1.968   2.016   0.295 -0.7503 -0.3464  1.1468
 7191SOL     OW33034   2.612   0.839   7.317 -0.0524 -0.6245  0.3724
 7191SOL    HW133035   2.586   0.871   7.231  1.9235  0.4041  0.1568
 7191SOL    HW233036   2.531   0.798   7.348 -0.9789 -0.1885 -1.5212
 7192SOL     OW33037   3.185   4.459   5.061 -0.3816 -0.2836  0.0522
 7192SOL    HW133038   3.152   4.396   4.997  0.2775 -0.6373  0.0604
 7192SOL    HW233039   3.241   4.398   5.110  1.5210 -0.4382 -2.3699
 7193SOL     OW33040   0.431   2.337   7.789 -0.5425 -0.2286  0.1267
 7193SOL    HW133041   0.441   2.301   7.700  2.5932 -0.5161  0.5670
 7193SOL    HW233042   0.488   2.276   7.836 -0.2401 -0.2390 -0.2465
 7194SOL     OW33043   3.521   3.575  11.627 -0.5119  0.1299  0.1702
 7194SOL    HW133044   3.598   3.572  11.684 -0.4120  1.9455  0.1361
 7194SOL    HW233045   3.543   3.653  11.575  0.3113 -1.1683 -1.4153
 7195SOL     OW33046   3.743   0.564   2.874 -0.5714  0.2614 -0.0586
 7195SOL    HW133047   3.734   0.486   2.819 -1.9099  1.6222 -1.8026
 7195SOL    HW233048   3.837   0.566   2.890 -0.7425  1.9451  0.7740
 7196SOL     OW33049   3.429   2.380   4.346 -0.2173 -0.3724 -0.0141
 7196SOL    HW133050   3.485   2.321   4.295 -0.7969 -0.9110 -0.0278
 7196SOL    HW233051   3.473   2.379   4.430  0.0484 -1.2438 -0.1646
 7197SOL     OW33052   4.289   1.982   3.167  0.0061 -0.4285 -0.3232
 7197SOL    HW133053   4.226   1.927   3.120 -0.3520 -0.7547  0.5313
 7197SOL    HW233054   4.362   1.927   3.138  0.1836 -0.0776 -0.5444
 7198SOL     OW33055   2.431   3.934   7.596  0.0021 -0.4600 -0.1045
 7198SOL    HW133056   2.425   3.843   7.567  0.5913 -1.0058  1.4656
 7198SOL    HW233057   2.366   3.939   7.666 -0.8221 -0.8202 -0.8439
 7199SOL     OW33058   0.240   0.066   6.076 -0.4713 -0.0511 -0.1702
 7199SOL    HW133059   0.265   0.132   6.011 -0.4559  0.9163  0.8049
 7199SOL    HW233060   0.186   0.116   6.137  0.1168  0.3353  0.0431
 7200SOL     OW33061   2.823   3.328   9.982 -0.6320 -0.7895 -0.0057
 7200SOL    HW133062   2.798   3.381   9.906 -1.6679  1.2324  1.7383
 7200SOL    HW233063   2.806   3.241   9.946  0.1396  0.2163 -2.8154
 7201SOL     OW33064   1.043   2.710  12.638 -0.1647 -0.6909  0.1831
 7201SOL    HW133065   1.085   2.793  12.617 -4.0859  2.0482  2.8949
 7201SOL    HW233066   0.951   2.736  12.652  0.3152  0.6496  0.8503
 7202SOL     OW33067   3.029   4.037   6.209 -0.2582  0.0749  0.1551
 7202SOL    HW133068   3.000   4.098   6.141  1.3750  0.2821 -0.3591
 7202SOL    HW233069   2.959   4.039   6.274  0.6870 -1.2791  1.2258
 7203SOL     OW33070   0.742   4.192   2.301  0.0079  0.1500  0.0376
 7203SOL    HW133071   0.664   4.156   2.259 -0.2676 -0.1460  0.8042
 7203SOL    HW233072   0.739   4.279   2.261 -2.9481 -0.5361 -1.2821
 7204SOL     OW33073   1.519   1.313  17.199 -0.1071 -0.5532  0.4197
 7204SOL    HW133074   1.540   1.399  17.235 -0.1652 -0.5774  0.5121
 7204SOL    HW233075   1.608   1.278  17.186  0.2024  0.0369  0.9490
 7205SOL     OW33076   2.566   1.173  14.445 -0.0046  0.4642 -0.2315
 7205SOL    HW133077   2.586   1.114  14.518  0.5794 -0.5483 -1.2006
 7205SOL    HW233078   2.493   1.122  14.408 -1.3707  0.8992  1.8608
 7206SOL     OW33079   2.668   2.328  12.548  0.0391 -0.0305 -0.0808
 7206SOL    HW133080   2.732   2.352  12.480  1.0760  1.5937  1.4709
 7206SOL    HW233081   2.646   2.414  12.583  1.2103  1.1273 -2.1454
 7207SOL     OW33082   2.856   0.995   4.431  0.1722 -0.3503  0.3202
 7207SOL    HW133083   2.814   0.977   4.346  2.6845 -3.1473 -0.2919
 7207SOL    HW233084   2.875   1.088   4.421 -0.2650 -0.3802 -0.8479
 7208SOL     OW33085   3.203   3.477   8.337 -0.4382  0.3496  0.3564
 7208SOL    HW133086   3.142   3.427   8.391  0.2368 -1.2281 -0.3172
 7208SOL    HW233087   3.146   3.536   8.288 -1.2430 -1.1892 -0.5808
 7209SOL     OW33088   1.946   0.029   7.528 -0.0493  0.0755 -0.8403
 7209SOL    HW133089   1.971   0.056   7.617 -1.0374 -1.1073 -0.1978
 7209SOL    HW233090   1.980   4.663   7.514  0.5667  0.0856  0.6107
 7210SOL     OW33091   2.667   0.278  17.590  0.6774  0.1527 -0.2253
 7210SOL    HW133092   2.614   0.299  17.667 -1.8933 -1.2804 -1.5793
 7210SOL    HW233093   2.731   0.349  17.587  0.7350  0.0560 -1.2608
 7211SOL     OW33094   2.968   2.669  10.541 -0.3601  0.6686  0.6680
 7211SOL    HW133095   2.955   2.759  10.512  1.0037  0.5413 -0.3878
 7211SOL    HW233096   2.884   2.655  10.584 -1.0106 -0.7766 -1.0574
 7212SOL     OW33097   0.411   3.701   1.930  0.4772 -0.2498 -0.0893
 7212SOL    HW133098   0.369   3.654   1.858 -3.1246  0.0098  1.8764
 7212SOL    HW233099   0.446   3.625   1.976  1.6300  0.7032  0.5990
 7213SOL     OW33100   1.946   3.930   7.822 -0.2260 -0.3261  0.6494
 7213SOL    HW133101   1.944   3.835   7.813  0.2491 -0.2330 -0.4087
 7213SOL    HW233102   1.855   3.951   7.839 -0.3914 -1.5938  1.3087
 7214SOL     OW33103   4.018   2.007   4.005  0.6289 -0.1229 -0.1698
 7214SOL    HW133104   4.025   1.938   3.940 -0.0470 -0.9242  0.5962
 7214SOL    HW233105   4.065   1.961   4.075  0.2532  0.6844  0.6159
 7215SOL     OW33106   2.455   3.117   5.547  0.5321  0.4680  0.7699
 7215SOL    HW133107   2.494   3.157   5.469 -0.4325  1.6984  0.9369
 7215SOL    HW233108   2.511   3.041   5.564 -0.7842 -0.2729  1.7684
 7216SOL     OW33109   2.213   0.658   4.367 -0.2643 -0.2518 -0.2334
 7216SOL    HW133110   2.291   0.708   4.391  0.2827 -0.4209 -1.6165
 7216SOL    HW233111   2.267   0.585   4.336 -2.3574 -1.6320 -0.5640
 7217SOL     OW33112   3.616   4.722  10.346 -0.1733 -0.1748  0.2729
 7217SOL    HW133113   3.598   0.092  10.329  1.0775 -0.3043 -1.7247
 7217SOL    HW233114   3.706   4.703  10.372 -0.5670  0.2633  1.9712
 7218SOL     OW33115   3.541   3.851  13.160  0.1107  0.0175  0.2671
 7218SOL    HW133116   3.543   3.763  13.196 -0.0737 -0.4429 -0.8575
 7218SOL    HW233117   3.615   3.891  13.207  0.2583 -0.2648  0.2722
 7219SOL     OW33118   1.794   3.272   0.325 -0.1614  0.6031  0.5309
 7219SOL    HW133119   1.747   3.293   0.406 -1.9561 -0.5448 -0.2089
 7219SOL    HW233120   1.827   3.188   0.358 -0.6843  0.7961  1.5492
 7220SOL     OW33121   3.653   0.757   8.613  0.1215 -0.0891  0.4946
 7220SOL    HW133122   3.575   0.729   8.565 -1.4522 -0.2781  3.1588
 7220SOL    HW233123   3.710   0.681   8.604  1.3160  0.7809  0.7333
 7221SOL     OW33124   0.620   4.418   1.712 -0.3701  0.1180  0.7191
 7221SOL    HW133125   0.707   4.383   1.729  0.4320  1.5582 -0.4346
 7221SOL    HW233126   0.632   4.504   1.671  1.0709  0.0736  1.0465
 7222SOL     OW33127   2.008   3.895   4.077 -0.0571  0.0357  0.0341
 7222SOL    HW133128   1.964   3.815   4.107  2.8570 -0.9362  1.7637
 7222SOL    HW233129   2.015   3.934   4.164 -2.9387 -0.3273  0.4274
 7223SOL     OW33130   3.318   3.634  17.567 -0.7953 -0.2469  0.4662
 7223SOL    HW133131   3.349   3.573  17.500 -1.9241 -1.7039  1.2761
 7223SOL    HW233132   3.398   3.630  17.620 -0.3211  1.5896 -0.0886
 7224SOL     OW33133   3.558   0.440   2.228  0.1508 -0.0874  0.8146
 7224SOL    HW133134   3.552   0.412   2.136 -4.7495  3.8274 -0.0511
 7224SOL    HW233135   3.654   0.434   2.229  0.1817  0.0552 -0.8338
 7225SOL     OW33136   1.520   3.583   3.213  0.1650 -0.1956 -0.5456
 7225SOL    HW133137   1.511   3.545   3.125 -2.6188 -0.8811  0.0352
 7225SOL    HW233138   1.601   3.542   3.243 -0.3189  1.5596  3.1311
 7226SOL     OW33139   3.479   2.856   9.841  0.0449 -0.3051 -0.2613
 7226SOL    HW133140   3.426   2.868   9.920  0.6037  0.8038 -0.0563
 7226SOL    HW233141   3.554   2.803   9.868  0.5953  0.5977 -0.0387
 7227SOL     OW33142   1.793   0.297  15.152  0.0168 -0.3263 -0.3745
 7227SOL    HW133143   1.749   0.350  15.085 -1.1329  0.0244  0.6755
 7227SOL    HW233144   1.880   0.339  15.151 -0.0090 -0.3202 -3.1717
 7228SOL     OW33145   4.184   0.303  14.402  0.1378 -0.1737  0.3876
 7228SOL    HW133146   4.113   0.325  14.463  0.4154  1.6865  0.0633
 7228SOL    HW233147   4.166   0.372  14.338 -2.0747 -0.1030  1.0952
 7229SOL     OW33148   3.718   2.031  16.294  0.2422  1.2737 -0.2970
 7229SOL    HW133149   3.742   2.108  16.345 -0.1964  1.2989 -0.1251
 7229SOL    HW233150   3.698   1.974  16.368  2.8183  0.0277 -0.5718
 7230SOL     OW33151   1.136   1.024   9.773  0.8512 -0.1240  0.3330
 7230SOL    HW133152   1.040   1.030   9.778  0.7916  0.2492 -1.0715
 7230SOL    HW233153   1.161   1.015   9.864 -1.0772 -1.8359  0.7104
 7231SOL     OW33154   2.968   1.336   2.410 -0.3604 -0.1879 -0.0585
 7231SOL    HW133155   2.891   1.362   2.360 -1.3277 -2.0184  0.4493
 7231SOL    HW233156   2.956   1.407   2.474  1.3867  1.1951 -1.2909
 7232SOL     OW33157   2.698   4.274   1.986  0.3148 -0.5473 -0.1734
 7232SOL    HW133158   2.644   4.210   1.940 -0.4031  0.0835 -0.2206
 7232SOL    HW233159   2.739   4.323   1.915 -0.6529  1.0424  0.3438
 7233SOL     OW33160   2.026   0.004   6.631  0.1495  0.1379 -0.5043
 7233SOL    HW133161   1.999   4.716   6.722 -0.1485 -0.3736 -0.6474
 7233SOL    HW233162   2.011   0.097   6.617 -1.5046 -0.5821 -3.6703
 7234SOL     OW33163   2.587   3.597   2.846 -0.2941 -0.3234  0.6904
 7234SOL    HW133164   2.616   3.616   2.757  1.0413 -0.9509  0.9867
 7234SOL    HW233165   2.496   3.571   2.836 -0.0075 -0.9053 -0.4224
 7235SOL     OW33166   0.456   3.310   4.040  0.4677 -0.0796 -0.5795
 7235SOL    HW133167   0.363   3.322   4.059  0.7270  1.0639 -0.0467
 7235SOL    HW233168   0.447   3.285   3.948 -2.2337  2.7503 -1.0613
 7236SOL     OW33169   0.680   0.285   2.770  0.6455  0.6340  0.3971
 7236SOL    HW133170   0.638   0.326   2.694  2.3681  2.2648  0.3362
 7236SOL    HW233171   0.711   0.367   2.808  0.7093  1.2274 -0.9453
 7237SOL     OW33172   0.983   4.628   5.563  0.2107  0.4053  0.0557
 7237SOL    HW133173   0.986   4.641   5.658  1.0249 -2.2796  0.4134
 7237SOL    HW233174   0.989   4.532   5.558  3.3344  0.7485 -2.5424
 7238SOL     OW33175   4.702   4.562  10.645 -0.0671  0.2305  0.2221
 7238SOL    HW133176   4.664   4.600  10.724  0.9981  1.0406  0.3400
 7238SOL    HW233177   4.653   4.480  10.637 -0.5683  0.4938  0.5973
 7239SOL     OW33178   1.657   2.829  11.142  0.0308  0.6103  0.3516
 7239SOL    HW133179   1.731   2.810  11.084 -0.5767  0.7160 -0.4556
 7239SOL    HW233180   1.585   2.860  11.087 -1.0794 -0.6393  1.0919
 7240SOL     OW33181   1.465   1.719   7.377  0.1351  0.3289  0.1001
 7240SOL    HW133182   1.528   1.788   7.399 -0.2022  0.5829  0.2624
 7240SOL    HW233183   1.406   1.779   7.332 -0.6894 -0.8609 -0.4179
 7241SOL     OW33184   2.549   3.425  13.415  0.0751 -0.3546 -0.3999
 7241SOL    HW133185   2.584   3.513  13.429 -0.1260  0.0811 -2.6916
 7241SOL    HW233186   2.505   3.401  13.497 -0.2853 -1.5440 -0.9363
 7242SOL     OW33187   0.178   2.076   0.714 -0.4995 -0.0830  0.5660
 7242SOL    HW133188   0.099   2.126   0.692  1.3704  2.9684  0.7948
 7242SOL    HW233189   0.227   2.138   0.766 -0.6745  2.2151 -1.9963
 7243SOL     OW33190   3.532   2.214   6.043 -0.1905 -0.3816 -0.1404
 7243SOL    HW133191   3.514   2.262   5.962  1.3816 -0.5590 -0.5818
 7243SOL    HW233192   3.619   2.252   6.058 -0.7373 -0.4024  3.1430
 7244SOL     OW33193   3.726   0.854   3.306 -0.2819  0.3697 -0.4182
 7244SOL    HW133194   3.728   0.949   3.299  0.5189  0.2074 -2.3216
 7244SOL    HW233195   3.769   0.834   3.223  0.3279  0.5742 -0.1574
 7245SOL     OW33196   2.684   3.691   2.616 -0.3967 -0.1234 -0.4586
 7245SOL    HW133197   2.770   3.715   2.650 -1.7831  1.2116  2.1044
 7245SOL    HW233198   2.671   3.762   2.553  1.3805  0.2355 -0.4102
 7246SOL     OW33199   3.197   2.182   8.206  0.4255  0.4468 -0.1498
 7246SOL    HW133200   3.102   2.170   8.208  0.2818  1.9630  2.4622
 7246SOL    HW233201   3.222   2.180   8.298 -1.0745 -0.0818  0.2378
 7247SOL     OW33202   2.085   2.709  12.148  0.0385  0.5304  0.4606
 7247SOL    HW133203   2.005   2.706  12.094 -0.5177 -1.3546  1.3864
 7247SOL    HW233204   2.087   2.804  12.158  2.6652  0.5646 -0.3358
 7248SOL     OW33205   4.135   4.183   8.000  0.6018  0.1469 -0.6087
 7248SOL    HW133206   4.093   4.117   8.055 -1.3964  1.2159 -0.8522
 7248SOL    HW233207   4.113   4.259   8.053  0.1781 -0.7483  0.4949
 7249SOL     OW33208   0.239   2.712   4.743  0.0217  0.1918  0.4286
 7249SOL    HW133209   0.316   2.769   4.733 -2.0302  2.5367 -1.9870
 7249SOL    HW233210   0.205   2.718   4.654 -1.0931 -0.2279  0.8307
 7250SOL     OW33211   4.444   4.356   3.201  0.0251  0.0839  0.4174
 7250SOL    HW133212   4.469   4.440   3.161  3.2305 -0.2429  1.7463
 7250SOL    HW233213   4.418   4.388   3.287  1.8802 -3.6936  2.3877
 7251SOL     OW33214   4.447   2.017   7.379  0.1654  0.1523 -0.0061
 7251SOL    HW133215   4.492   2.102   7.374  1.1605 -0.3974 -0.4580
 7251SOL    HW233216   4.462   1.993   7.471  1.7117 -0.0526 -0.3008
 7252SOL     OW33217   0.604   2.715  13.966 -0.4776  0.4770  0.6849
 7252SOL    HW133218   0.546   2.739  14.038 -2.3475  3.3759 -1.7744
 7252SOL    HW233219   0.539   2.686  13.901 -0.6379 -0.9449  1.4906
 7253SOL     OW33220   3.166   1.689  13.447  0.1282 -0.2568 -0.4325
 7253SOL    HW133221   3.158   1.784  13.451  0.9672 -0.1772 -0.7301
 7253SOL    HW233222   3.074   1.663  13.437 -0.5105  2.1935 -0.9401
 7254SOL     OW33223   4.265   1.553   8.165 -0.4730  0.0564  0.3049
 7254SOL    HW133224   4.298   1.526   8.079 -0.3573  1.9039 -0.2430
 7254SOL    HW233225   4.197   1.612   8.133  1.0216  0.8714 -1.4420
 7255SOL     OW33226   1.618   2.188   8.376  0.2405 -0.1490 -0.2364
 7255SOL    HW133227   1.577   2.102   8.367  1.4719 -0.7205 -0.4305
 7255SOL    HW233228   1.658   2.182   8.463 -1.0404  1.5734  0.4721
 7256SOL     OW33229   3.244   4.332   8.862  0.0211 -0.5266  0.5170
 7256SOL    HW133230   3.300   4.300   8.791 -1.1155 -0.6950 -0.3113
 7256SOL    HW233231   3.289   4.284   8.932 -0.9477 -0.8386  0.9177
 7257SOL     OW33232   0.629   2.697   1.459  0.0297  0.1906  0.7541
 7257SOL    HW133233   0.648   2.641   1.384 -1.7436 -0.4320  0.7668
 7257SOL    HW233234   0.569   2.636   1.501  0.2942  0.3868  1.4185
 7258SOL     OW33235   4.581   4.413   8.517 -0.2940  0.1199  0.4419
 7258SOL    HW133236   4.656   4.386   8.569  0.4487  2.0617  0.3669
 7258SOL    HW233237   4.531   4.460   8.584  0.1727 -2.1088  2.3491
 7259SOL     OW33238   0.680   0.491  17.031 -0.4063 -0.0043  0.6525
 7259SOL    HW133239   0.605   0.522  16.981  0.6576  2.5845  0.6953
 7259SOL    HW233240   0.750   0.513  16.969 -3.5370  0.8203 -2.6383
 7260SOL     OW33241   4.020   3.019   0.285 -0.7460 -0.3629 -0.2126
 7260SOL    HW133242   3.955   3.070   0.334  0.9585 -0.0179  1.6685
 7260SOL    HW233243   3.965   2.954   0.241 -1.3298 -2.1913  3.1917
 7261SOL     OW33244   2.106   0.269   4.578 -0.3962  0.0118 -0.2268
 7261SOL    HW133245   2.195   0.297   4.596 -0.9097  0.2613  2.0054
 7261SOL    HW233246   2.080   0.349   4.533 -2.0206  0.7124  1.9298
 7262SOL     OW33247   0.419   2.581   4.299  0.3404  0.4035 -0.0735
 7262SOL    HW133248   0.406   2.505   4.242  0.1082 -0.2865  0.8721
 7262SOL    HW233249   0.480   2.536   4.357 -1.7147 -1.5946  0.5525
 7263SOL     OW33250   1.873   1.833   6.768 -0.4020 -0.8909 -0.8542
 7263SOL    HW133251   1.951   1.884   6.746 -0.4799  0.0895  1.0651
 7263SOL    HW233252   1.896   1.816   6.860 -0.2018 -2.0677 -1.1212
 7264SOL     OW33253   1.649   2.333   5.500 -0.3817  0.1395  0.4395
 7264SOL    HW133254   1.681   2.376   5.579  0.9409 -0.9041  0.4828
 7264SOL    HW233255   1.639   2.243   5.531  0.6920 -0.1848 -0.1595
 7265SOL     OW33256   0.289   4.686  17.630 -0.0357  0.5936  0.0978
 7265SOL    HW133257   0.368   4.676  17.682 -0.3373  0.9645  0.6262
 7265SOL    HW233258   0.261   4.595  17.620 -0.5459  0.8988 -1.2999
 7266SOL     OW33259   3.980   2.144   2.263 -0.6844  0.3438 -0.5771
 7266SOL    HW133260   3.892   2.151   2.227 -0.5407 -3.1741 -1.6224
 7266SOL    HW233261   4.018   2.105   2.184 -2.5664  0.6005 -1.6207
 7267SOL     OW33262   1.366   4.061  11.013  0.7824  0.1788  0.5069
 7267SOL    HW133263   1.337   4.068  10.922 -1.0049  1.2897  1.1606
 7267SOL    HW233264   1.282   4.039  11.053  0.9497  0.5275  1.0455
 7268SOL     OW33265   2.531   2.953   0.617 -0.0352  0.1523  0.4489
 7268SOL    HW133266   2.556   2.863   0.640 -2.0426 -0.4927  0.0866
 7268SOL    HW233267   2.497   2.937   0.529  2.9056  0.1527 -0.6849
 7269SOL     OW33268   0.952   2.341  12.250  0.4199 -0.0388  0.4767
 7269SOL    HW133269   1.012   2.341  12.175  0.4587 -0.3483  0.5103
 7269SOL    HW233270   0.958   2.251  12.281  0.5139 -1.4901 -3.7117
 7270SOL     OW33271   1.428   0.401  13.563 -0.2464  0.4171 -0.1527
 7270SOL    HW133272   1.438   0.332  13.628 -1.7697  2.2812  2.0461
 7270SOL    HW233273   1.383   0.468  13.613 -0.9109  1.7099 -2.4832
 7271SOL     OW33274   3.281   0.331   7.476 -1.0758 -0.2027  0.8496
 7271SOL    HW133275   3.371   0.312   7.449 -0.6710 -1.1047  2.8261
 7271SOL    HW233276   3.283   0.419   7.513 -1.0419  0.1154  0.0906
 7272SOL     OW33277   4.554   1.202   8.438 -0.3196 -0.3656 -0.1571
 7272SOL    HW133278   4.537   1.221   8.530  0.7338 -0.2164  0.0036
 7272SOL    HW233279   4.473   1.166   8.402 -1.6845  0.6753  1.8571
 7273SOL     OW33280   2.538   0.838   1.264  0.3461  0.4818 -0.0398
 7273SOL    HW133281   2.561   0.894   1.338  0.9490  0.8781 -0.5275
 7273SOL    HW233282   2.469   0.892   1.227 -0.6154  0.4307  1.7196
 7274SOL     OW33283   4.214   4.574   9.489 -0.6469 -0.6923  0.5127
 7274SOL    HW133284   4.214   4.528   9.572 -0.5531 -0.8991  0.3983
 7274SOL    HW233285   4.259   4.654   9.517 -0.3913 -1.5375  2.5030
 7275SOL     OW33286   4.528   2.774   4.579 -0.0627 -0.1216 -0.0129
 7275SOL    HW133287   4.603   2.825   4.607 -0.1447  1.2033 -2.2060
 7275SOL    HW233288   4.484   2.738   4.656 -2.6006  0.4651 -1.1860
 7276SOL     OW33289   4.418   3.262   3.972 -0.2239 -0.1574 -0.3555
 7276SOL    HW133290   4.369   3.337   4.006 -1.1420 -1.2724  0.7995
 7276SOL    HW233291   4.402   3.259   3.877  2.5519 -0.8391 -0.7961
 7277SOL     OW33292   1.232   0.353   6.293 -0.3727 -0.3379 -0.8190
 7277SOL    HW133293   1.298   0.373   6.228  2.1824 -0.1109  1.8347
 7277SOL    HW233294   1.261   0.418   6.358 -2.8935 -0.1761  0.1449
 7278SOL     OW33295   2.757   0.978   9.257 -0.2693  0.2725 -0.1596
 7278SOL    HW133296   2.715   0.923   9.323  1.6056  0.4462  1.1991
 7278SOL    HW233297   2.847   0.944   9.256 -0.1298  0.6515 -0.5810
 7279SOL     OW33298   2.020   1.580   5.353  0.4566  0.0343  0.1292
 7279SOL    HW133299   2.098   1.545   5.397 -0.0120 -2.2981 -0.9111
 7279SOL    HW233300   2.054   1.667   5.331  0.7550 -0.0205  0.3617
 7280SOL     OW33301   1.880   1.719  16.536  0.0346 -0.0239  0.8205
 7280SOL    HW133302   1.807   1.660  16.521 -0.5171  0.8165  0.1701
 7280SOL    HW233303   1.909   1.735  16.447  0.4453 -3.3280  0.3840
 7281SOL     OW33304   3.236   4.016   8.737  0.0477 -0.3160 -0.1533
 7281SOL    HW133305   3.196   3.933   8.763 -1.7419  0.5137 -0.2780
 7281SOL    HW233306   3.180   4.053   8.668  0.4558 -2.1916 -1.4688
 7282SOL     OW33307   4.371   3.328   6.019 -0.2858 -0.1763  0.3432
 7282SOL    HW133308   4.367   3.253   5.961  0.7576 -1.1264  1.5120
 7282SOL    HW233309   4.342   3.293   6.103  0.5920  0.0045  0.7272
 7283SOL     OW33310   3.355   0.843   9.199 -0.1149 -0.2675 -0.6176
 7283SOL    HW133311   3.423   0.808   9.256 -1.7759  1.1473  2.2463
 7283SOL    HW233312   3.281   0.851   9.259  0.1160  0.4064 -0.4268
 7284SOL     OW33313   2.450   0.818  14.728 -0.3163 -0.2953  0.0931
 7284SOL    HW133314   2.520   0.774  14.776  1.4848  2.0947 -0.3524
 7284SOL    HW233315   2.380   0.754  14.738  0.2966 -0.9869 -0.0221
 7285SOL     OW33316   0.215   3.997   4.594  0.2821 -0.0045 -0.2638
 7285SOL    HW133317   0.194   3.925   4.654  4.0475 -0.3263  0.6701
 7285SOL    HW233318   0.151   3.973   4.527 -0.2840  0.8175 -0.0150
 7286SOL     OW33319   1.384   0.821   5.250  0.3481 -0.1594 -0.0733
 7286SOL    HW133320   1.403   0.888   5.316 -1.7365 -0.4579  0.8133
 7286SOL    HW233321   1.289   0.818   5.252  0.2803  1.5360 -1.1570
 7287SOL     OW33322   3.623   2.388   3.503  0.2691  0.0850  0.4141
 7287SOL    HW133323   3.547   2.380   3.445  0.7274 -0.6369 -0.0796
 7287SOL    HW233324   3.626   2.484   3.507  0.0074  0.0571  1.3628
 7288SOL     OW33325   3.617   2.523   8.471 -0.0703 -0.1704  0.2822
 7288SOL    HW133326   3.700   2.546   8.513 -0.3594  3.1262 -1.0340
 7288SOL    HW233327   3.647   2.490   8.387 -1.0129 -0.3848  0.0255
 7289SOL     OW33328   0.235   1.435   6.609  0.1026  0.2103 -0.2887
 7289SOL    HW133329   0.151   1.390   6.598 -0.0361  0.8448 -1.8593
 7289SOL    HW233330   0.248   1.446   6.515 -0.1200  0.3645 -0.3004
 7290SOL     OW33331   3.337   3.190  10.369 -0.1222 -0.4995  0.2050
 7290SOL    HW133332   3.408   3.253  10.382  2.1219 -2.9762 -0.1462
 7290SOL    HW233333   3.305   3.214  10.282  1.3995  1.5574  0.1891
 7291SOL     OW33334   4.619   4.502   4.488  0.0500  0.4817 -0.5428
 7291SOL    HW133335   4.679   4.428   4.495  0.9432  1.4523  2.1599
 7291SOL    HW233336   4.539   4.467   4.527  0.9297 -1.5895 -0.6345
 7292SOL     OW33337   1.795   4.068   4.257  0.2638  0.1655  0.6380
 7292SOL    HW133338   1.757   4.064   4.345 -0.5454 -1.7213  0.2022
 7292SOL    HW233339   1.779   3.978   4.231 -2.8795  1.2125 -1.0556
 7293SOL     OW33340   4.204   4.317   3.627 -0.0616 -0.5139  0.2137
 7293SOL    HW133341   4.181   4.393   3.680 -0.2756  0.2652 -1.0007
 7293SOL    HW233342   4.229   4.250   3.690  1.4031 -1.5203 -1.4046
 7294SOL     OW33343   4.060   2.690   4.055  0.4019 -0.0774 -0.7449
 7294SOL    HW133344   4.005   2.754   4.098  1.5827 -0.2432  1.0212
 7294SOL    HW233345   3.989   2.644   4.010 -1.1506  1.8126 -0.2200
 7295SOL     OW33346   0.851   4.334   3.032  0.3633  0.7029  0.6785
 7295SOL    HW133347   0.848   4.367   2.942  1.7857 -3.7243 -0.9767
 7295SOL    HW233348   0.876   4.415   3.078  0.8079  0.4676  0.8569
 7296SOL     OW33349   4.195   4.258   2.391 -0.5322  0.7202 -0.1374
 7296SOL    HW133350   4.221   4.291   2.306  0.1039 -1.2033 -0.6783
 7296SOL    HW233351   4.106   4.292   2.401 -0.7011  0.5263 -1.0578
 7297SOL     OW33352   4.383   4.035   4.809 -0.5239  0.1165 -0.3568
 7297SOL    HW133353   4.472   4.002   4.826 -2.2782 -3.5995  1.6248
 7297SOL    HW233354   4.351   3.988   4.886  0.6042 -0.6227 -0.3237
 7298SOL     OW33355   0.367   2.594  13.823 -0.4888 -0.0312  0.0228
 7298SOL    HW133356   0.276   2.591  13.793 -0.0626 -1.3015 -1.1381
 7298SOL    HW233357   0.362   2.530  13.894  0.8300 -1.5184 -1.2211
 7299SOL     OW33358   0.266   2.204   3.480  0.0839  0.3917 -0.1433
 7299SOL    HW133359   0.332   2.263   3.518  0.2979  0.0509  0.0123
 7299SOL    HW233360   0.180   2.246   3.487  0.1095  0.2109  1.3914
 7300SOL     OW33361   1.135   2.797   8.168  0.3218  0.3244  0.3066
 7300SOL    HW133362   1.129   2.889   8.194 -1.8429  1.2551 -3.4844
 7300SOL    HW233363   1.079   2.754   8.233  1.4152 -1.8086 -0.1643
 7301SOL     OW33364   2.142   2.623   7.772  0.4572  0.1412 -0.3669
 7301SOL    HW133365   2.131   2.568   7.850  0.2262 -0.6637 -0.9704
 7301SOL    HW233366   2.053   2.615   7.737  0.2370  1.4259 -0.0952
 7302SOL     OW33367   0.373   0.581   6.574 -0.2352  0.5252 -0.2024
 7302SOL    HW133368   0.445   0.529   6.611  0.7111  1.4058 -0.7834
 7302SOL    HW233369   0.416   0.666   6.559 -0.9132  0.4875 -2.3042
 7303SOL     OW33370   3.830   2.876  13.762  0.3608  0.3493 -0.0225
 7303SOL    HW133371   3.845   2.931  13.685  2.4280  1.4331  1.1626
 7303SOL    HW233372   3.891   2.917  13.824 -0.1966  1.1685 -0.0166
 7304SOL     OW33373   1.289   0.300   2.732 -0.9800 -0.0207 -0.4140
 7304SOL    HW133374   1.301   0.207   2.752 -1.2241  0.0696  0.1286
 7304SOL    HW233375   1.298   0.335   2.820 -0.7579  0.2526 -0.5432
 7305SOL     OW33376   4.561   0.292   2.266  0.0428  0.4474  0.2636
 7305SOL    HW133377   4.592   0.264   2.180  0.2377 -0.6332  0.6746
 7305SOL    HW233378   4.645   0.285   2.311 -0.5194 -0.6809  1.1565
 7306SOL     OW33379   0.484   2.256   7.144 -0.3432 -0.0482  0.2909
 7306SOL    HW133380   0.492   2.313   7.221  4.1301 -0.2852  0.0068
 7306SOL    HW233381   0.394   2.281   7.121  0.3228  2.0058 -0.0746
 7307SOL     OW33382   2.231   1.843   0.527  0.0486 -0.2380 -0.0987
 7307SOL    HW133383   2.269   1.760   0.554 -0.2020  0.1401  1.4262
 7307SOL    HW233384   2.182   1.876   0.602 -0.8150 -3.5436  0.7694
 7308SOL     OW33385   1.497   1.284   8.156  0.4000 -0.2570 -0.2295
 7308SOL    HW133386   1.534   1.201   8.186  1.8316  0.3525 -0.2942
 7308SOL    HW233387   1.563   1.332   8.105 -0.5625 -0.5095 -1.7260
 7309SOL     OW33388   1.758   3.962   1.562  0.4148 -0.3166 -0.0050
 7309SOL    HW133389   1.693   4.032   1.568  0.9716  0.2694 -0.8344
 7309SOL    HW233390   1.760   3.948   1.468 -0.9054 -1.0237  0.0673
 7310SOL     OW33391   1.816   0.003   2.418 -0.1555 -0.0330 -0.0147
 7310SOL    HW133392   1.890   0.020   2.361 -1.5271 -1.5800 -2.2792
 7310SOL    HW233393   1.746   0.054   2.377  0.2578 -0.3366 -1.0855
 7311SOL     OW33394   4.214   0.909   6.325  0.0072  0.0659  0.1917
 7311SOL    HW133395   4.241   0.996   6.295  0.9559  0.8414  3.3434
 7311SOL    HW233396   4.172   0.880   6.244  1.1867 -0.5331 -0.2040
 7312SOL     OW33397   3.241   1.849   4.706  0.4163 -0.9093 -0.3713
 7312SOL    HW133398   3.265   1.841   4.613  0.6206  0.9301 -0.4752
 7312SOL    HW233399   3.165   1.906   4.709  1.6976  0.7182  0.9623
 7313SOL     OW33400   1.018   0.630   8.661 -0.4037 -0.1023 -0.2319
 7313SOL    HW133401   1.029   0.720   8.689 -2.4252 -0.3876  1.4823
 7313SOL    HW233402   1.058   0.633   8.574 -0.2232  0.7392 -0.1178
 7314SOL     OW33403   3.184   2.199   9.467  0.6664  0.5403 -0.6232
 7314SOL    HW133404   3.155   2.109   9.483 -0.5052  1.1092  0.5150
 7314SOL    HW233405   3.112   2.244   9.511  0.9117  0.9113 -0.5988
 7315SOL     OW33406   1.560   4.201  13.887  0.4709  0.0970  0.3448
 7315SOL    HW133407   1.479   4.194  13.835 -0.0605  1.9224  0.9191
 7315SOL    HW233408   1.576   4.295  13.894  0.2493  0.2761 -1.4955
 7316SOL     OW33409   0.681   2.050   4.559 -0.5727 -0.2644 -0.7023
 7316SOL    HW133410   0.663   2.105   4.483  0.3265  0.5780 -0.3035
 7316SOL    HW233411   0.735   1.984   4.516  0.8956  0.3001  0.2826
 7317SOL     OW33412   2.981   3.632   8.579  0.3536  0.1572  0.1221
 7317SOL    HW133413   2.892   3.655   8.606 -0.7472 -2.0097 -1.7065
 7317SOL    HW233414   3.040   3.677   8.639  0.2623  1.3519 -0.6909
 7318SOL     OW33415   0.589   3.184   6.261  0.6090  0.5394  0.2331
 7318SOL    HW133416   0.573   3.278   6.269 -0.4663  0.3424  0.3370
 7318SOL    HW233417   0.502   3.159   6.233  0.6498  0.7895 -0.1142
 7319SOL     OW33418   1.727   3.153   6.668 -0.0468 -1.2440  0.1391
 7319SOL    HW133419   1.806   3.208   6.659 -0.1449 -1.0085  0.6823
 7319SOL    HW233420   1.758   3.088   6.731  0.6030  0.3520  1.4691
 7320SOL     OW33421   0.202   4.455  17.062  0.3825 -0.3561  0.6108
 7320SOL    HW133422   0.256   4.521  17.106 -1.8872  1.2495  0.9550
 7320SOL    HW233423   0.118   4.500  17.056 -0.4308 -1.5857  2.6723
 7321SOL     OW33424   2.045   2.600   6.793 -0.6044 -0.4488 -0.1016
 7321SOL    HW133425   2.103   2.627   6.864 -0.9816  2.2078 -0.7944
 7321SOL    HW233426   2.119   2.592   6.733 -0.3409  1.1987  0.0061
 7322SOL     OW33427   0.514   0.356   6.742 -0.5296 -0.1190 -0.6924
 7322SOL    HW133428   0.432   0.383   6.784 -1.3824 -1.9071 -1.2262
 7322SOL    HW233429   0.495   0.263   6.752 -0.3539  0.2123  2.7443
 7323SOL     OW33430   4.446   3.906   2.784  0.2045 -0.3313 -0.3777
 7323SOL    HW133431   4.445   3.993   2.745  1.5757 -0.1238  0.0484
 7323SOL    HW233432   4.541   3.897   2.792  0.3647  0.7415 -1.0906
 7324SOL     OW33433   2.356   1.436   5.052  0.0504 -0.3451  0.2250
 7324SOL    HW133434   2.317   1.515   5.015 -0.9703  0.3404  2.7574
 7324SOL    HW233435   2.372   1.388   4.970  0.0699 -1.7322  1.0425
 7325SOL     OW33436   1.631   4.095   8.762  0.2859  0.3980  0.4123
 7325SOL    HW133437   1.673   4.157   8.821 -1.2797  1.0225  0.8532
 7325SOL    HW233438   1.585   4.046   8.830  0.4057  0.6840  0.6964
 7326SOL     OW33439   1.643   0.927   5.637 -0.3566  0.5990 -0.2096
 7326SOL    HW133440   1.690   0.853   5.675 -0.4706  1.3027  1.3108
 7326SOL    HW233441   1.639   0.905   5.544 -1.6538  0.0667 -0.0243
 7327SOL     OW33442   1.039   4.471  14.304  0.1428 -0.0278 -0.5181
 7327SOL    HW133443   0.975   4.542  14.298  0.6195  0.2370 -2.5781
 7327SOL    HW233444   1.086   4.496  14.384 -0.9145  0.5861 -0.0927
 7328SOL     OW33445   2.974   3.552   7.242  0.5475 -0.0670  0.1172
 7328SOL    HW133446   3.022   3.622   7.285 -0.9605  0.9343  0.1428
 7328SOL    HW233447   2.947   3.499   7.317 -0.4418  1.9756  1.1969
 7329SOL     OW33448   2.218   2.961   8.492 -0.0263  0.6360  0.6766
 7329SOL    HW133449   2.126   2.955   8.518  0.2410 -0.4125  1.4186
 7329SOL    HW233450   2.244   3.040   8.540  2.4073  0.3474 -0.1580
 7330SOL     OW33451   0.130   4.347   1.737  0.3615 -0.0155 -0.0838
 7330SOL    HW133452   0.215   4.373   1.700  0.7047 -1.5125 -0.3575
 7330SOL    HW233453   0.088   4.428   1.763  0.5103 -0.0197  0.1652
 7331SOL     OW33454   0.465   0.677   3.964 -0.0202 -0.1804  0.2434
 7331SOL    HW133455   0.432   0.677   4.054  1.4151  1.0427  0.7773
 7331SOL    HW233456   0.452   0.764   3.925  0.4194 -0.4042 -0.4085
 7332SOL     OW33457   0.720   3.602  16.329  0.2244 -0.3397 -0.2737
 7332SOL    HW133458   0.758   3.602  16.241 -1.0263 -0.9979 -0.8311
 7332SOL    HW233459   0.786   3.552  16.375  0.5492  1.4644  1.2243
 7333SOL     OW33460   0.302   4.653  15.828 -0.0384 -0.1596 -0.2918
 7333SOL    HW133461   0.385   4.610  15.808  0.6164  1.1348 -0.3763
 7333SOL    HW233462   0.269   4.593  15.894  1.0156 -1.1349 -0.6494
 7334SOL     OW33463   0.880   0.568   7.396  0.2656 -0.1246  0.1723
 7334SOL    HW133464   0.917   0.619   7.468  2.5045  0.7540 -1.5722
 7334SOL    HW233465   0.956   0.531   7.351 -0.5940 -0.0938 -1.2857
 7335SOL     OW33466   1.194   3.547   5.968  0.6438 -0.5925  0.1266
 7335SOL    HW133467   1.260   3.535   5.900  1.6001  0.1006  0.9358
 7335SOL    HW233468   1.110   3.547   5.923  0.0285  0.1697  1.2675
 7336SOL     OW33469   3.959   2.033  15.520  0.0032  0.4559  0.5324
 7336SOL    HW133470   3.938   2.043  15.612 -0.1719 -2.6401  0.8260
 7336SOL    HW233471   4.054   2.027  15.521  0.0335  1.0316  0.9947
 7337SOL     OW33472   3.591   1.653  13.504  0.2941 -0.3997  0.3120
 7337SOL    HW133473   3.523   1.661  13.437  1.9036 -0.5120 -1.3328
 7337SOL    HW233474   3.676   1.647  13.460  0.4096 -0.5262  0.5521
 7338SOL     OW33475   4.657   1.035   3.846  0.0014 -0.3028 -0.2578
 7338SOL    HW133476   0.003   1.010   3.784 -0.6986  0.5004 -1.3470
 7338SOL    HW233477   4.719   1.035   3.920 -0.6977  0.1875  0.3348
 7339SOL     OW33478   0.636   4.290  14.992 -0.1912  0.5760 -0.5474
 7339SOL    HW133479   0.721   4.333  14.994  0.1379 -0.0527 -1.0176
 7339SOL    HW233480   0.631   4.254  15.080 -0.4756  0.8598 -0.4505
 7340SOL     OW33481   2.708   0.116   1.510  0.3500  0.4979  0.6051
 7340SOL    HW133482   2.647   0.190   1.513  0.0821  0.3913 -1.7133
 7340SOL    HW233483   2.669   0.055   1.572  0.4005  1.2080  1.3305
 7341SOL     OW33484   2.444   4.223   5.891 -0.0427  0.1450  0.6701
 7341SOL    HW133485   2.401   4.258   5.968 -0.0780 -1.9863  1.6354
 7341SOL    HW233486   2.426   4.129   5.898 -1.3577  0.4387  1.2167
 7342SOL     OW33487   2.063   4.320  15.029 -0.3014 -0.1869  0.3149
 7342SOL    HW133488   2.025   4.403  15.059 -0.3119  0.3851 -1.2574
 7342SOL    HW233489   2.046   4.330  14.935  0.3942  1.1816  0.3279
 7343SOL     OW33490   1.790   2.493  13.218  0.3386  0.3425 -0.1184
 7343SOL    HW133491   1.805   2.492  13.124  2.1089 -1.7508  0.1970
 7343SOL    HW233492   1.778   2.587  13.236 -1.4025  0.2677 -0.9171
 7344SOL     OW33493   2.199   3.114   9.552 -0.1075 -0.3758 -0.6545
 7344SOL    HW133494   2.186   3.194   9.604 -1.4639 -1.5525  0.8615
 7344SOL    HW233495   2.209   3.051   9.624 -0.1058  2.3890  1.8001
 7345SOL     OW33496   0.326   4.256  13.875 -0.5550 -0.3596 -1.0340
 7345SOL    HW133497   0.394   4.310  13.915 -0.6427  0.4533 -1.9555
 7345SOL    HW233498   0.259   4.262  13.943  0.4268  0.2742 -0.1314
 7346SOL     OW33499   3.464   1.398   4.883 -0.0270  0.0162 -0.1640
 7346SOL    HW133500   3.372   1.411   4.907 -0.3521  1.3625 -2.1756
 7346SOL    HW233501   3.475   1.420   4.790 -1.4789  0.7882 -0.1503
 7347SOL     OW33502   1.862   4.538   9.150 -0.0752 -0.2369  0.8117
 7347SOL    HW133503   1.856   4.559   9.243 -2.0866  0.9277  0.4342
 7347SOL    HW233504   1.902   4.454   9.173  0.7161 -0.5734 -1.7906
 7348SOL     OW33505   1.118   0.947   3.681  0.0878  0.1225 -0.4759
 7348SOL    HW133506   1.059   1.021   3.670  1.1877  1.2117  0.9570
 7348SOL    HW233507   1.157   0.939   3.594  1.4604 -0.6565  0.2036
 7349SOL     OW33508   0.933   4.204   9.547  0.8544  0.0426 -0.1688
 7349SOL    HW133509   0.872   4.270   9.513  0.7736  0.3008  0.4809
 7349SOL    HW233510   0.973   4.261   9.612 -0.3465 -1.2433  1.7002
 7350SOL     OW33511   2.121   1.625  12.997 -0.7486 -0.4733 -0.3404
 7350SOL    HW133512   2.170   1.550  13.030 -1.6351 -0.3723  1.2090
 7350SOL    HW233513   2.045   1.579  12.963  0.0154 -1.7987 -0.2349
 7351SOL     OW33514   2.890   0.926   8.576 -0.7532 -0.2764 -0.2025
 7351SOL    HW133515   2.984   0.942   8.586 -0.9643  1.7188 -1.4505
 7351SOL    HW233516   2.867   0.923   8.669  0.0996  1.0831  0.0607
 7352SOL     OW33517   1.915   2.601  12.356  0.0400  0.8428 -0.1549
 7352SOL    HW133518   2.005   2.618  12.329 -0.1189  0.1748 -1.1266
 7352SOL    HW233519   1.925   2.512  12.392  4.0724  1.0891 -0.7076
 7353SOL     OW33520   2.404   3.841   4.303  0.1186  0.4377  0.2773
 7353SOL    HW133521   2.386   3.905   4.234 -0.6821  0.6849  0.7122
 7353SOL    HW233522   2.343   3.871   4.371 -1.5952 -0.7238 -0.7343
 7354SOL     OW33523   1.462   4.471  11.388  0.3891  0.0565 -0.2625
 7354SOL    HW133524   1.448   4.391  11.337 -2.2504 -1.7318  3.2698
 7354SOL    HW233525   1.462   4.437  11.478  2.7059 -0.0036 -0.2828
 7355SOL     OW33526   4.071   2.173   9.585  0.1181 -0.1243 -0.1271
 7355SOL    HW133527   4.132   2.136   9.522  0.9789  1.4902 -0.2318
 7355SOL    HW233528   4.069   2.103   9.651  1.6818  0.2572  0.3051
 7356SOL     OW33529   2.605   2.050   5.242  0.2054 -0.1009 -0.4301
 7356SOL    HW133530   2.515   2.025   5.261  0.3168  0.1912  0.4575
 7356SOL    HW233531   2.630   2.017   5.155  1.9167 -0.1405  0.0751
 7357SOL     OW33532   3.449   2.756   0.950 -0.6157  0.2505  0.1162
 7357SOL    HW133533   3.404   2.704   1.016  0.7867  0.8333  1.5137
 7357SOL    HW233534   3.528   2.707   0.928 -2.0182 -0.9997 -2.1623
 7358SOL     OW33535   4.404   0.308   6.971 -0.4246  0.0820  0.6640
 7358SOL    HW133536   4.334   0.334   7.031  0.7571 -2.1993  3.0167
 7358SOL    HW233537   4.476   0.308   7.034  1.1534  0.6938 -1.1533
 7359SOL     OW33538   3.177   3.319   7.099  0.3528 -0.6806 -0.6360
 7359SOL    HW133539   3.182   3.250   7.165  1.3251 -0.0969 -0.0865
 7359SOL    HW233540   3.235   3.388   7.130  1.6379 -1.8177 -0.5071
 7360SOL     OW33541   0.451   1.151   7.191 -0.1872 -0.4389 -0.4779
 7360SOL    HW133542   0.481   1.069   7.152 -0.1657 -0.4842 -0.3683
 7360SOL    HW233543   0.493   1.210   7.129 -1.7102 -0.6136 -1.6617
 7361SOL     OW33544   0.468   3.304   8.735  0.1668 -0.1329 -0.0482
 7361SOL    HW133545   0.508   3.388   8.711 -0.0962  0.2899  0.9875
 7361SOL    HW233546   0.539   3.271   8.790 -0.3082 -0.6464  0.2588
 7362SOL     OW33547   1.653   3.377   7.140  0.3692 -0.6396  0.6074
 7362SOL    HW133548   1.580   3.414   7.190 -0.1322 -0.3753 -0.3062
 7362SOL    HW233549   1.650   3.419   7.054 -0.9703 -3.1716 -0.5882
 7363SOL     OW33550   1.326   1.274   6.433 -0.2551  0.1752 -0.1470
 7363SOL    HW133551   1.238   1.236   6.439 -0.2464 -0.0519 -1.4738
 7363SOL    HW233552   1.304   1.367   6.425 -0.2848  0.0393 -1.7010
 7364SOL     OW33553   3.486   1.695   9.407 -0.3366  0.2844  0.3696
 7364SOL    HW133554   3.581   1.683   9.411 -0.5848 -1.0783  2.2203
 7364SOL    HW233555   3.470   1.771   9.350 -0.9940  0.7554  1.1892
 7365SOL     OW33556   1.225   3.011   0.039 -0.6943 -0.5713 -0.5375
 7365SOL    HW133557   1.295   3.011   0.105 -1.5420  0.8758  0.3461
 7365SOL    HW233558   1.232   2.919   0.011  2.4349  0.6833 -3.9228
 7366SOL     OW33559   2.707   1.607   1.519  0.0538 -0.3703 -0.4878
 7366SOL    HW133560   2.791   1.568   1.543 -0.9643 -0.2879  3.2019
 7366SOL    HW233561   2.708   1.696   1.554 -1.6785 -0.5338 -0.0130
 7367SOL     OW33562   1.091   3.907   6.160  0.0436 -0.2490  0.2195
 7367SOL    HW133563   1.129   3.820   6.173  1.2336  0.0350 -1.5178
 7367SOL    HW233564   1.073   3.914   6.067 -2.2869  2.0900  0.8352
 7368SOL     OW33565   0.459   3.914   4.860 -0.0010  0.3274  0.0667
 7368SOL    HW133566   0.443   3.930   4.767 -0.7141 -0.5290  0.0422
 7368SOL    HW233567   0.470   4.004   4.891  0.4069  0.2751  0.0735
 7369SOL     OW33568   0.929   0.763   4.684  0.1319 -0.2084  0.8072
 7369SOL    HW133569   1.002   0.753   4.624  0.0655 -0.0302  0.6946
 7369SOL    HW233570   0.939   0.695   4.750  1.1071  0.0754  0.9397
 7370SOL     OW33571   3.757   0.612   3.942  0.4421  0.0556  0.3529
 7370SOL    HW133572   3.801   0.545   3.995 -0.0564  0.2467  1.0123
 7370SOL    HW233573   3.745   0.561   3.862 -1.1624  2.0963 -0.7056
 7371SOL     OW33574   4.359   2.117   1.243 -0.1744  0.3119 -0.3329
 7371SOL    HW133575   4.267   2.141   1.252 -0.6026 -1.2118 -0.6283
 7371SOL    HW233576   4.364   2.087   1.152  2.2736 -2.2204  0.6601
 7372SOL     OW33577   4.255   2.783  11.461  0.4338  0.4235  0.2746
 7372SOL    HW133578   4.182   2.824  11.414  1.1567  1.1308 -0.2323
 7372SOL    HW233579   4.234   2.690  11.461 -0.7098  0.6766  1.2038
 7373SOL     OW33580   0.991   4.341   8.568  0.3237 -0.3245  0.2429
 7373SOL    HW133581   0.980   4.433   8.544  0.6613 -0.7054 -1.3234
 7373SOL    HW233582   0.926   4.299   8.512  0.6733  0.1313 -0.4982
 7374SOL     OW33583   3.270   0.421   9.141  0.2015 -0.3933  0.3266
 7374SOL    HW133584   3.244   0.337   9.103  0.8335 -0.0220 -0.9425
 7374SOL    HW233585   3.281   0.472   9.061 -1.8653 -0.3939  0.0395
 7375SOL     OW33586   2.387   3.239   7.454 -0.5615  0.2156 -0.3251
 7375SOL    HW133587   2.478   3.211   7.453 -0.3817  0.7314  0.9676
 7375SOL    HW233588   2.371   3.268   7.364 -1.1931 -4.1600 -1.6221
 7376SOL     OW33589   3.673   2.252   5.039 -0.3800  0.0832 -0.3937
 7376SOL    HW133590   3.587   2.292   5.051 -0.5170 -0.7409  1.4171
 7376SOL    HW233591   3.734   2.309   5.085  0.4544 -3.5483  2.9903
 7377SOL     OW33592   0.379   4.655   9.958  0.0940  0.2890  0.1527
 7377SOL    HW133593   0.338   0.020   9.967 -1.1362 -0.2257 -0.4256
 7377SOL    HW233594   0.456   4.673  10.013 -0.1894  1.5145  0.1680
 7378SOL     OW33595   0.629   1.515  11.724 -0.0241 -0.3837  0.2607
 7378SOL    HW133596   0.639   1.535  11.631  0.7297 -1.0417  0.2053
 7378SOL    HW233597   0.683   1.581  11.767 -1.0024  0.0962  0.7691
 7379SOL     OW33598   4.422   1.188  15.591 -0.1841 -0.4192  0.3906
 7379SOL    HW133599   4.498   1.246  15.583 -1.4893  1.1673 -0.2173
 7379SOL    HW233600   4.348   1.247  15.600 -0.0959 -0.3705  0.8034
 7380SOL     OW33601   0.734   1.865   1.009 -0.1750 -0.2918 -0.0637
 7380SOL    HW133602   0.660   1.882   0.951 -1.4983 -0.0186  1.7055
 7380SOL    HW233603   0.766   1.787   0.964  1.3628  1.1372 -1.4550
 7381SOL     OW33604   1.439   2.928  10.980 -0.5891  0.6486  0.0475
 7381SOL    HW133605   1.441   2.949  10.887 -0.4846 -0.8460 -0.2996
 7381SOL    HW233606   1.407   2.837  10.982 -0.4398  0.5433 -1.9810
 7382SOL     OW33607   3.250   0.584   1.407 -0.4490  0.0228  0.1258
 7382SOL    HW133608   3.231   0.515   1.343  1.4689 -1.3623  1.0520
 7382SOL    HW233609   3.167   0.632   1.399  0.0518  0.7920 -0.3939
 7383SOL     OW33610   4.661   0.630  15.328  0.3365  0.2704 -0.6578
 7383SOL    HW133611   4.637   0.625  15.235 -1.9576  1.5389 -0.1428
 7383SOL    HW233612   4.634   0.547  15.366 -0.2360  1.7050  2.0355
 7384SOL     OW33613   0.044   3.265   7.855  0.6245  0.2132  0.5266
 7384SOL    HW133614   4.716   3.315   7.919 -0.1414 -1.6391  1.3641
 7384SOL    HW233615   4.693   3.243   7.798  0.4930 -0.3858  0.9252
 7385SOL     OW33616   0.857   1.163   7.844 -0.2152 -0.7292  0.5005
 7385SOL    HW133617   0.762   1.151   7.839 -0.0020 -1.1754 -2.6205
 7385SOL    HW233618   0.867   1.255   7.867 -1.0808 -0.2617 -0.9527
 7386SOL     OW33619   4.292   0.515   3.225  0.9373  0.0781  0.3190
 7386SOL    HW133620   4.356   0.450   3.254 -0.4920 -0.1584  3.0104
 7386SOL    HW233621   4.297   0.503   3.130  0.5830  0.3231  0.2693
 7387SOL     OW33622   0.422   1.862   6.210 -0.4419 -0.4078 -0.0712
 7387SOL    HW133623   0.345   1.806   6.218  0.5145 -1.4868  1.6947
 7387SOL    HW233624   0.457   1.813   6.136  2.4011  0.8630  0.4174
 7388SOL     OW33625   2.946   0.835   2.618  0.0894  0.6478  0.0488
 7388SOL    HW133626   2.931   0.836   2.712 -2.9629  2.3210 -0.4508
 7388SOL    HW233627   2.954   0.741   2.601 -0.3357  0.4313  1.0651
 7389SOL     OW33628   1.196   2.290   6.198 -0.2298 -0.2204  0.9892
 7389SOL    HW133629   1.141   2.318   6.270 -1.9529  1.5358 -1.0150
 7389SOL    HW233630   1.253   2.224   6.237  1.3390  0.1675 -0.6358
 7390SOL     OW33631   0.365   4.564   7.321  0.1823 -0.2939 -0.1358
 7390SOL    HW133632   0.311   4.561   7.241  1.3098  0.0519 -0.9056
 7390SOL    HW233633   0.368   4.654   7.352 -1.4582 -0.9636  1.9297
 7391SOL     OW33634   2.876   2.981   6.170 -0.5140 -0.2075  0.4006
 7391SOL    HW133635   2.868   2.959   6.078 -0.4317 -1.3360  0.6628
 7391SOL    HW233636   2.820   2.910   6.200 -1.6283  0.8005  0.6941
 7392SOL     OW33637   2.000   2.671   8.426  0.1413 -0.4449 -0.0473
 7392SOL    HW133638   1.974   2.716   8.506  0.8420  1.4493 -0.8772
 7392SOL    HW233639   2.040   2.746   8.382  1.1643 -0.2507  1.2000
 7393SOL     OW33640   0.087   1.840  10.530 -0.3384  0.1840  0.2666
 7393SOL    HW133641   0.079   1.901  10.457 -0.3440 -0.2317 -0.0738
 7393SOL    HW233642   0.071   1.900  10.604 -0.4225  0.9313 -0.3583
 7394SOL     OW33643   3.259   0.926   7.137  0.4135  0.2161  0.4704
 7394SOL    HW133644   3.265   1.009   7.089 -0.6376  0.3522  0.5888
 7394SOL    HW233645   3.346   0.891   7.119 -0.2115 -0.4992 -1.1476
 7395SOL     OW33646   1.138   1.024   4.379  0.5711  0.4127  0.2622
 7395SOL    HW133647   1.102   1.111   4.396 -1.1457  0.0945 -1.7323
 7395SOL    HW233648   1.148   0.990   4.468  1.0692  2.2099  0.8848
 7396SOL     OW33649   3.218   0.200   5.443  0.4256  0.3718  0.5463
 7396SOL    HW133650   3.186   0.117   5.409 -0.4606  0.6875  0.5867
 7396SOL    HW233651   3.193   0.254   5.367  0.3488 -0.7946 -0.2547
 7397SOL     OW33652   0.556   4.134   7.787 -0.1292 -0.3484 -0.3605
 7397SOL    HW133653   0.585   4.170   7.703  0.3447 -2.5658 -1.1737
 7397SOL    HW233654   0.592   4.181   7.862  1.0469 -2.4388  0.3742
 7398SOL     OW33655   0.528   0.753  17.240 -0.3860  0.3349  0.0870
 7398SOL    HW133656   0.519   0.835  17.192  1.3461  1.0951  1.0535
 7398SOL    HW233657   0.443   0.712  17.228 -1.5335  2.1571  1.8273
 7399SOL     OW33658   3.092   3.439  14.539 -0.6425 -0.1348 -0.0622
 7399SOL    HW133659   3.061   3.524  14.507 -0.0156  0.1949  0.1882
 7399SOL    HW233660   3.024   3.380  14.509  0.9593 -2.1431  0.2583
 7400SOL     OW33661   1.754   3.132  14.900  0.5672 -0.1413 -0.1356
 7400SOL    HW133662   1.722   3.145  14.989  1.7824 -1.4858  0.4813
 7400SOL    HW233663   1.692   3.081  14.846  0.8643 -0.0490 -0.5623
 7401SOL     OW33664   4.177   1.291   4.623 -0.0121 -0.1501 -0.2711
 7401SOL    HW133665   4.096   1.264   4.666  1.0062 -0.1560  1.6929
 7401SOL    HW233666   4.235   1.277   4.699  0.3409 -0.3452 -0.5755
 7402SOL     OW33667   0.232   0.961  17.387  0.1842  0.0386 -0.0360
 7402SOL    HW133668   0.174   1.022  17.432 -1.1346 -1.5860  0.5026
 7402SOL    HW233669   0.308   1.017  17.369 -1.4396  1.5631 -2.0701
 7403SOL     OW33670   4.290   0.561   1.739  0.0319 -0.3832  0.2608
 7403SOL    HW133671   4.233   0.502   1.690  0.8879 -0.3982 -0.7083
 7403SOL    HW233672   4.362   0.565   1.676 -0.7438  0.0991 -0.5983
 7404SOL     OW33673   3.734   1.841   2.277  0.4350 -0.0932 -0.4071
 7404SOL    HW133674   3.824   1.831   2.246  0.8002  0.4602  0.5011
 7404SOL    HW233675   3.687   1.833   2.194 -0.3625  1.9640 -0.1457
 7405SOL     OW33676   4.505   3.942   5.964  0.3243  0.2512  0.1106
 7405SOL    HW133677   4.470   3.890   5.891 -2.4384  0.6200  1.1782
 7405SOL    HW233678   4.450   4.020   5.967  0.4192  0.3371 -0.3243
 7406SOL     OW33679   1.081   1.638  17.270 -0.6951 -0.3157 -0.5298
 7406SOL    HW133680   1.041   1.663  17.187 -1.4332  1.5117  0.3940
 7406SOL    HW233681   1.173   1.623  17.247 -0.0530 -0.2966  2.1016
 7407SOL     OW33682   1.063   0.143   3.500 -0.5586  0.1590 -0.5446
 7407SOL    HW133683   1.102   0.058   3.520 -0.8705  0.2855  0.6160
 7407SOL    HW233684   1.137   0.198   3.474  0.1078 -0.0927  0.8086
 7408SOL     OW33685   3.498   2.472   2.674  0.4421  0.0734 -0.1103
 7408SOL    HW133686   3.590   2.483   2.650  0.0183  1.6533 -0.9978
 7408SOL    HW233687   3.461   2.490   2.588 -0.9152 -1.0799  0.2313
 7409SOL     OW33688   0.480   4.409  15.343  0.2761  0.2820  0.2353
 7409SOL    HW133689   0.421   4.399  15.268  0.9262 -0.2285 -0.2101
 7409SOL    HW233690   0.570   4.402  15.313  0.1242  3.2825 -0.8712
 7410SOL     OW33691   2.465   1.626  12.272 -0.3812 -0.1225  0.3622
 7410SOL    HW133692   2.400   1.695  12.259 -0.8011 -0.2369  1.8053
 7410SOL    HW233693   2.524   1.644  12.199 -0.6354 -0.3992  0.0898
 7411SOL     OW33694   3.314   4.465  16.109 -0.6591  0.3379  0.8004
 7411SOL    HW133695   3.311   4.371  16.123  0.2913  0.1646 -0.1364
 7411SOL    HW233696   3.378   4.494  16.174  0.8012 -0.7157 -0.1676
 7412SOL     OW33697   2.350   4.476  15.139  0.5119  0.0161  0.0157
 7412SOL    HW133698   2.340   4.477  15.044 -0.0715 -1.7109  0.0570
 7412SOL    HW233699   2.423   4.536  15.147  0.0439  0.5846  0.0516
 7413SOL     OW33700   0.255   0.332   5.905  0.1702  0.4424 -0.1034
 7413SOL    HW133701   0.187   0.388   5.866  0.0235  0.7848  0.6477
 7413SOL    HW233702   0.287   0.401   5.964 -0.2617  0.4590  0.1078
 7414SOL     OW33703   2.900   2.989   5.532  0.5020  0.6044  0.8135
 7414SOL    HW133704   2.834   3.040   5.577 -0.2980  0.4111 -0.1357
 7414SOL    HW233705   2.840   2.941   5.474  1.0334 -0.3096  1.0190
 7415SOL     OW33706   0.376   3.730   8.502  0.2100  0.1470 -0.0791
 7415SOL    HW133707   0.324   3.652   8.523  0.0226  0.9495  2.4753
 7415SOL    HW233708   0.461   3.704   8.537 -0.1609  1.9737  2.2072
 7416SOL     OW33709   0.950   1.221   1.186  0.2679  0.2902 -0.0213
 7416SOL    HW133710   0.855   1.215   1.187  0.2929 -0.2501 -0.7670
 7416SOL    HW233711   0.967   1.241   1.278  0.7967 -3.3358  0.6615
 7417SOL     OW33712   1.106   3.365  14.996 -0.0739  0.2508 -0.7211
 7417SOL    HW133713   1.055   3.343  15.073 -0.9787  0.1250 -1.3625
 7417SOL    HW233714   1.057   3.334  14.919 -0.3939 -2.2940  0.5089
 7418SOL     OW33715   3.717   4.693   4.137  0.4582  0.2663  0.4392
 7418SOL    HW133716   3.774   4.656   4.069  1.9431  0.9076  1.3212
 7418SOL    HW233717   3.691   4.613   4.184  0.2475  0.5687  0.8396
 7419SOL     OW33718   0.932   0.092   1.853 -0.5514  0.9257 -0.1471
 7419SOL    HW133719   0.971   0.025   1.796 -1.5248 -0.0337  0.3323
 7419SOL    HW233720   1.002   0.134   1.903  1.4819 -1.6224 -0.8409
 7420SOL     OW33721   3.131   1.821   3.690  0.5029  0.2634 -0.6737
 7420SOL    HW133722   3.108   1.746   3.635  0.0828 -1.9562  2.5421
 7420SOL    HW233723   3.058   1.880   3.668 -0.6441 -0.9757 -0.1631
 7421SOL     OW33724   2.817   0.428   0.139 -0.0590  0.6071 -0.0568
 7421SOL    HW133725   2.910   0.403   0.142  0.0008  0.8968  0.5175
 7421SOL    HW233726   2.821   0.485   0.217 -1.2555 -3.7680  3.1803
 7422SOL     OW33727   2.458   1.738   1.474 -0.4819 -0.0316 -0.5212
 7422SOL    HW133728   2.546   1.703   1.460  0.0480  1.1311 -0.1613
 7422SOL    HW233729   2.483   1.813   1.529  0.3718  0.6080 -1.7479
 7423SOL     OW33730   2.052   1.239   4.652  0.5519  0.3514 -0.4238
 7423SOL    HW133731   2.078   1.147   4.647  2.3800  0.7346  1.9103
 7423SOL    HW233732   2.139   1.272   4.630 -0.2062  2.6201  0.0032
 7424SOL     OW33733   0.026   1.371  10.274  0.1588 -0.5368 -0.2668
 7424SOL    HW133734   4.685   1.442  10.278 -0.2592 -0.9220 -0.1004
 7424SOL    HW233735   0.017   1.325  10.358  0.2635 -2.8020 -1.4778
 7425SOL     OW33736   1.055   3.748   7.864 -0.4610 -0.6251  0.0572
 7425SOL    HW133737   1.109   3.769   7.787  0.3383 -1.2847  0.4361
 7425SOL    HW233738   1.041   3.838   7.892  0.9233 -0.5331  0.4532
 7426SOL     OW33739   1.453   4.061   1.954  0.2071 -0.1968  0.1177
 7426SOL    HW133740   1.516   4.059   2.026  0.9459 -0.0341 -0.5168
 7426SOL    HW233741   1.489   3.991   1.898  2.0501 -0.1765  1.2701
 7427SOL     OW33742   4.635   1.684   5.098  0.2521  0.0558  0.1092
 7427SOL    HW133743   4.686   1.720   5.026  2.0758  0.3833  1.5707
 7427SOL    HW233744   4.628   1.595   5.064 -1.6279  0.8827 -1.6453
 7428SOL     OW33745   2.696   3.804   5.117 -0.3199 -0.5749 -0.4733
 7428SOL    HW133746   2.619   3.748   5.102 -0.3102 -0.5019 -0.8083
 7428SOL    HW233747   2.659   3.888   5.090 -0.4139 -0.5194 -0.1670
 7429SOL     OW33748   0.214   0.842   7.083 -0.1721  0.0060  0.1800
 7429SOL    HW133749   0.252   0.886   7.007 -0.1405 -0.3333  0.0002
 7429SOL    HW233750   0.120   0.830   7.067 -0.0023 -1.4447  0.3007
 7430SOL     OW33751   3.640   2.238   4.207  0.4540 -0.5691  0.0090
 7430SOL    HW133752   3.723   2.283   4.190  0.2274 -0.2676 -0.2868
 7430SOL    HW233753   3.611   2.208   4.121 -1.6382  3.1275 -0.5548
 7431SOL     OW33754   1.409   0.473   1.806 -0.0403  0.3004  0.2714
 7431SOL    HW133755   1.460   0.463   1.886 -1.2832  0.8568  1.1192
 7431SOL    HW233756   1.478   0.468   1.739 -0.4873  0.0532 -0.1757
 7432SOL     OW33757   2.341   3.757  12.462 -0.3299  0.0294 -0.5975
 7432SOL    HW133758   2.290   3.687  12.504  0.0258 -0.1611 -0.4854
 7432SOL    HW233759   2.433   3.730  12.467 -0.4536  0.0091  1.8165
 7433SOL     OW33760   3.445   0.245   6.118 -0.3035 -0.3769  0.2442
 7433SOL    HW133761   3.435   0.150   6.116 -0.0275 -0.4253  1.0501
 7433SOL    HW233762   3.518   0.258   6.179 -1.9379  0.0719  2.0803
 7434SOL     OW33763   3.356   1.226   0.304 -0.2617  0.1958  0.3652
 7434SOL    HW133764   3.304   1.259   0.377 -1.8691 -1.3009 -0.1073
 7434SOL    HW233765   3.416   1.166   0.348 -0.1204  0.6836  0.8302
 7435SOL     OW33766   2.378   4.013   5.352  0.4249  0.0504 -0.4387
 7435SOL    HW133767   2.313   3.979   5.290  0.4790 -0.6882 -0.0934
 7435SOL    HW233768   2.396   4.096   5.308 -0.2838 -0.3507 -1.4973
 7436SOL     OW33769   1.597   4.285  14.562 -0.4938  0.5413 -0.2564
 7436SOL    HW133770   1.510   4.318  14.542 -0.3736  0.3316 -1.1162
 7436SOL    HW233771   1.581   4.220  14.630  2.3153  0.5330  0.4093
 7437SOL     OW33772   3.532   3.170   1.840  0.6004 -0.2537 -0.2259
 7437SOL    HW133773   3.578   3.251   1.861  0.8070 -0.7809  1.3448
 7437SOL    HW233774   3.542   3.180   1.745  0.5576  0.0318 -0.2010
 7438SOL     OW33775   2.560   0.745   7.782 -0.2424 -0.0566  0.0732
 7438SOL    HW133776   2.485   0.763   7.724  1.4808 -0.1563 -2.2178
 7438SOL    HW233777   2.512   0.769   7.861 -2.8054 -2.1520 -0.8051
 7439SOL     OW33778   3.472   1.122   8.360 -0.3801 -0.1378 -0.4101
 7439SOL    HW133779   3.484   1.070   8.440 -0.6143 -0.1448 -0.3795
 7439SOL    HW233780   3.545   1.085   8.310  1.0596  1.3524  0.5759
 7440SOL     OW33781   2.965   2.648   6.078  0.2522  0.0910 -0.1119
 7440SOL    HW133782   2.928   2.560   6.091 -0.0035  0.1201 -0.6553
 7440SOL    HW233783   2.895   2.671   6.017  0.6901 -2.2277 -1.5084
 7441SOL     OW33784   1.148   3.357   4.387  0.7725 -0.1606 -0.4128
 7441SOL    HW133785   1.139   3.352   4.292  1.9700  0.8816 -0.5850
 7441SOL    HW233786   1.094   3.281   4.410  0.8491 -0.0536  0.1301
 7442SOL     OW33787   3.344   1.330   1.031 -0.2383 -0.3113 -0.9738
 7442SOL    HW133788   3.410   1.276   1.074  0.4053  1.3965  0.1770
 7442SOL    HW233789   3.308   1.274   0.962 -3.2148 -0.6196  0.8269
 7443SOL     OW33790   4.569   2.933   5.221 -0.5739  0.1370  0.1831
 7443SOL    HW133791   4.577   3.003   5.156 -1.0624  1.8145  1.9097
 7443SOL    HW233792   4.649   2.951   5.271  0.3784  1.5743 -1.8576
 7444SOL     OW33793   1.415   4.366   1.388 -0.3199  0.0645  0.2233
 7444SOL    HW133794   1.431   4.425   1.315 -1.2071  0.8642  0.6779
 7444SOL    HW233795   1.439   4.287   1.340  0.0016 -1.1384  2.3549
 7445SOL     OW33796   0.064   2.975   1.238 -0.2355  0.2814  0.4038
 7445SOL    HW133797   0.005   2.986   1.163  2.5643 -3.9314 -2.4473
 7445SOL    HW233798   0.004   3.008   1.305 -0.7600  2.4268 -1.1544
 7446SOL     OW33799   3.350   2.263   3.035  0.1146  0.2142  0.1356
 7446SOL    HW133800   3.267   2.302   3.007  0.1466  0.3458  0.2228
 7446SOL    HW233801   3.313   2.175   3.030 -0.0752  0.1910  1.8744
 7447SOL     OW33802   3.217   1.638   0.852 -0.0830 -0.0150 -0.0085
 7447SOL    HW133803   3.170   1.713   0.816 -0.0111  0.6275  1.2392
 7447SOL    HW233804   3.171   1.610   0.931 -3.1654  3.0433 -0.7022
 7448SOL     OW33805   0.372   3.745   1.359  0.2225 -0.3900  0.4671
 7448SOL    HW133806   0.462   3.731   1.332 -0.0341 -3.1309  1.0457
 7448SOL    HW233807   0.365   3.838   1.383 -2.5882 -0.2031 -1.0877
 7449SOL     OW33808   3.444   1.867   2.151 -0.2663  0.0327 -0.2087
 7449SOL    HW133809   3.395   1.906   2.223 -0.9674  0.1149 -0.7281
 7449SOL    HW233810   3.411   1.910   2.072  2.1467  0.2360 -1.1005
 7450SOL     OW33811   1.986   2.631  11.366 -0.3630 -0.1274  0.2978
 7450SOL    HW133812   1.902   2.612  11.407 -1.0418 -1.4408 -1.6677
 7450SOL    HW233813   2.020   2.708  11.411 -5.0388  0.4681  2.7802
 7451SOL     OW33814   2.574   2.542  12.678 -0.0041  0.0096 -0.1674
 7451SOL    HW133815   2.491   2.521  12.636  0.8748  0.2285 -1.9865
 7451SOL    HW233816   2.568   2.492  12.759  4.2722  1.1466  0.8307
 7452SOL     OW33817   4.403   0.732   3.375  0.0832  0.7290  0.4793
 7452SOL    HW133818   4.450   0.754   3.295  1.2114  0.6635  1.1223
 7452SOL    HW233819   4.379   0.643   3.352  0.8674  0.3539  1.1299
 7453SOL     OW33820   1.114   1.161   8.744 -0.5389 -0.2343  0.0294
 7453SOL    HW133821   1.206   1.166   8.770 -0.4335 -1.2608 -0.1179
 7453SOL    HW233822   1.060   1.191   8.817 -2.4147 -3.3146 -0.0748
 7454SOL     OW33823   1.689   1.335   5.437 -0.1769  0.3793  0.1238
 7454SOL    HW133824   1.783   1.327   5.451 -0.2476 -2.0105 -0.8208
 7454SOL    HW233825   1.646   1.260   5.479  2.2712 -1.1139 -0.0265
 7455SOL     OW33826   4.319   2.806   2.173  0.0887  0.0129 -0.1589
 7455SOL    HW133827   4.382   2.878   2.160 -2.6322  2.6319  1.1292
 7455SOL    HW233828   4.362   2.752   2.239  1.8247  2.1868  0.4877
 7456SOL     OW33829   1.846   0.185   2.987 -0.1401  0.4391  0.2500
 7456SOL    HW133830   1.783   0.205   2.918  1.6915 -0.9016 -1.8295
 7456SOL    HW233831   1.794   0.129   3.045 -1.2561 -0.9958 -2.1298
 7457SOL     OW33832   1.034   3.830   8.908 -0.6532 -0.0208 -0.1811
 7457SOL    HW133833   0.954   3.779   8.922  0.9837 -2.8741 -1.0913
 7457SOL    HW233834   1.019   3.907   8.963 -1.0797 -0.5266  0.4299
 7458SOL     OW33835   0.510   0.811   6.564  0.0019  0.1783  0.0465
 7458SOL    HW133836   0.565   0.875   6.608  1.7474 -1.2490 -0.0835
 7458SOL    HW233837   0.494   0.853   6.479  1.0598  1.0232  0.2742
 7459SOL     OW33838   4.160   1.827   4.654  0.5373  0.5210  0.5886
 7459SOL    HW133839   4.150   1.734   4.632  3.1657  0.5849 -0.8014
 7459SOL    HW233840   4.125   1.869   4.575  0.0736 -2.4338 -0.7983
 7460SOL     OW33841   4.713   1.839   1.197 -0.4036  0.5131  0.5633
 7460SOL    HW133842   0.022   1.749   1.212  0.0911  0.4165 -1.1004
 7460SOL    HW233843   4.626   1.839   1.237 -1.1517  0.0840 -1.0834
 7461SOL     OW33844   2.091   2.134  14.149  0.1326 -0.4580  0.2763
 7461SOL    HW133845   2.169   2.181  14.119 -0.4018 -0.0478 -0.4695
 7461SOL    HW233846   2.057   2.096  14.068 -3.3222  2.2851  0.4479
 7462SOL     OW33847   3.656   1.867   7.762 -0.1605 -0.3187  0.5969
 7462SOL    HW133848   3.576   1.898   7.720  0.0800  1.4182  1.4029
 7462SOL    HW233849   3.620   1.788   7.801  1.0179 -0.2574  1.8150
 7463SOL     OW33850   2.912   2.348   4.527  0.2435 -0.2572  0.2632
 7463SOL    HW133851   2.937   2.290   4.599 -0.7630  0.3458  1.0970
 7463SOL    HW233852   2.996   2.375   4.490 -0.1223 -1.2784 -1.3475
 7464SOL     OW33853   1.662   3.008   3.317  0.1524  0.2194  0.8148
 7464SOL    HW133854   1.598   2.958   3.267  0.8482 -2.8588  3.0608
 7464SOL    HW233855   1.748   2.980   3.285 -1.4598 -2.9675 -0.6626
 7465SOL     OW33856   0.888   4.251  11.126  0.0331 -0.2869  0.6098
 7465SOL    HW133857   0.863   4.326  11.072 -3.1009 -1.2004  0.8083
 7465SOL    HW233858   0.801   4.238  11.162  0.0645  0.5133  0.9643
 7466SOL     OW33859   2.458   2.358  10.628 -0.3677  0.1885 -0.3501
 7466SOL    HW133860   2.430   2.293  10.692  0.2488 -1.0259 -1.3011
 7466SOL    HW233861   2.549   2.337  10.607 -0.1998 -0.3937  0.9764
 7467SOL     OW33862   1.736   4.637  16.182 -0.2188  0.3551  0.9534
 7467SOL    HW133863   1.700   4.583  16.112 -1.1697  1.3021  0.7103
 7467SOL    HW233864   1.827   4.608  16.172 -0.6510 -1.6411  2.9027
 7468SOL     OW33865   3.955   2.817   9.850 -0.7061 -0.3096 -0.4170
 7468SOL    HW133866   3.892   2.745   9.842 -1.3840  0.0265  1.8098
 7468SOL    HW233867   3.992   2.809   9.938  1.9130 -1.5637 -1.6476
 7469SOL     OW33868   0.715   0.161  15.022 -0.7065  0.6293 -0.3831
 7469SOL    HW133869   0.702   0.091  15.086  1.1170  0.9743  0.3793
 7469SOL    HW233870   0.806   0.187  15.036 -0.5927 -1.3816  2.6559
 7470SOL     OW33871   1.334   0.746   7.716 -0.0283 -0.5162 -0.1091
 7470SOL    HW133872   1.279   0.723   7.790  1.4390  0.4247  1.2852
 7470SOL    HW233873   1.306   0.688   7.645 -2.5198  1.4562 -0.7480
 7471SOL     OW33874   4.114   4.527   3.787  0.1772 -0.3059 -0.5005
 7471SOL    HW133875   4.083   4.582   3.715 -2.1637 -2.8571 -1.4560
 7471SOL    HW233876   4.035   4.528   3.841  1.5954 -0.1170  1.5377
 7472SOL     OW33877   1.645   2.550  14.783  0.7206  0.2915  0.0929
 7472SOL    HW133878   1.713   2.561  14.850  0.3017 -1.1062  0.7404
 7472SOL    HW233879   1.696   2.488  14.731  1.5918  1.4823 -0.4922
 7473SOL     OW33880   3.468   0.830   7.661  0.0291  0.4548 -0.0224
 7473SOL    HW133881   3.413   0.839   7.584 -3.1667  0.5284  2.2775
 7473SOL    HW233882   3.420   0.892   7.715 -0.7371 -2.2076  2.3291
 7474SOL     OW33883   4.314   0.166   8.215  0.4750 -0.3544  0.3330
 7474SOL    HW133884   4.357   0.094   8.169  2.2409  0.2795  0.9737
 7474SOL    HW233885   4.267   0.217   8.149 -0.0086 -1.5711 -0.2533
 7475SOL     OW33886   3.969   0.368   1.066  0.2077  0.4783  0.1647
 7475SOL    HW133887   4.045   0.425   1.070  1.8694 -1.8055  1.2102
 7475SOL    HW233888   3.971   0.339   0.975 -0.9384 -0.8551  0.5606
 7476SOL     OW33889   3.616   0.772   7.415 -0.2488 -0.3987  0.0239
 7476SOL    HW133890   3.558   0.758   7.490  0.8676 -0.3292  0.9061
 7476SOL    HW233891   3.662   0.690   7.399 -0.0325 -0.3712  0.4887
 7477SOL     OW33892   2.332   2.119   2.669 -0.1644 -0.1500  0.2036
 7477SOL    HW133893   2.366   2.086   2.752  0.1610  1.4175  0.6851
 7477SOL    HW233894   2.401   2.084   2.613 -0.1366  1.4162 -0.7518
 7478SOL     OW33895   3.090   0.640   0.872 -0.4122  0.5173 -0.4875
 7478SOL    HW133896   3.057   0.646   0.782  1.6884 -1.4754 -1.3928
 7478SOL    HW233897   3.156   0.571   0.865 -0.9240  0.0728 -0.8813
 7479SOL     OW33898   0.810   3.241  17.017  0.4834 -0.0836 -0.0611
 7479SOL    HW133899   0.724   3.225  17.055  0.0278 -0.5666 -1.3038
 7479SOL    HW233900   0.867   3.222  17.092  0.7825  0.5977 -0.1132
 7480SOL     OW33901   0.352   4.617  17.198 -0.2530  0.1097  0.3171
 7480SOL    HW133902   0.371   4.563  17.275  0.4256 -2.5179 -1.7161
 7480SOL    HW233903   0.330   4.697  17.246 -0.5965  0.8250 -1.0244
 7481SOL     OW33904   3.198   0.754   0.015  0.0437 -0.5028  0.5143
 7481SOL    HW133905   3.181   0.761   0.108  3.8350  0.7338  1.1252
 7481SOL    HW233906   3.292   0.775   0.011  0.0864 -0.6528  0.8107
 7482SOL     OW33907   3.458   0.066  10.921 -0.8148 -0.2643 -0.3330
 7482SOL    HW133908   3.482   0.153  10.887 -0.0714 -0.5894 -0.6538
 7482SOL    HW233909   3.496   0.066  11.009 -2.6544  2.0155  0.4495
 7483SOL     OW33910   3.387   3.033   1.023 -0.0307 -0.0859  0.5644
 7483SOL    HW133911   3.438   2.967   0.977  3.0597  2.5353  0.2334
 7483SOL    HW233912   3.320   2.972   1.053 -2.6294  2.2836 -0.4104
 7484SOL     OW33913   4.552   4.326   2.689  0.6452 -0.1259 -0.1707
 7484SOL    HW133914   4.471   4.275   2.679  0.5043  0.7178 -3.2949
 7484SOL    HW233915   4.579   4.350   2.601  1.1437 -0.5527 -0.1331
 7485SOL     OW33916   0.847   3.932   0.768  0.3737  0.1029 -0.5380
 7485SOL    HW133917   0.926   3.970   0.805 -0.0100  0.2149  0.1623
 7485SOL    HW233918   0.810   3.992   0.703  1.8147  2.0602  0.4566
 7486SOL     OW33919   3.576   4.022  17.360 -0.5910 -0.4431  0.0558
 7486SOL    HW133920   3.562   4.114  17.338  1.0482 -0.0465  0.6527
 7486SOL    HW233921   3.493   3.987  17.330 -1.0228  0.4038  0.2647
 7487SOL     OW33922   3.156   1.065   6.094  0.2927 -0.5754 -0.1594
 7487SOL    HW133923   3.089   1.100   6.035  0.7094  2.7357  1.2959
 7487SOL    HW233924   3.115   0.979   6.103  0.0677 -0.4576 -0.0496
 7488SOL     OW33925   3.093   0.831  13.445 -0.3694 -0.2720  0.4040
 7488SOL    HW133926   3.098   0.760  13.510 -2.4947  0.1036  0.9723
 7488SOL    HW233927   3.001   0.814  13.422 -0.8348  0.3699  1.7665
 7489SOL     OW33928   2.479   3.000   8.810  0.1838 -0.0108  0.2907
 7489SOL    HW133929   2.391   2.967   8.790  1.4601 -2.2633 -1.7297
 7489SOL    HW233930   2.500   3.037   8.724  0.1628 -0.9814 -0.1330
 7490SOL     OW33931   3.899   2.380   9.497 -0.1476 -0.0921 -0.0251
 7490SOL    HW133932   3.816   2.344   9.527  0.1639 -0.5229  0.3261
 7490SOL    HW233933   3.969   2.335   9.545 -0.6080 -0.9919 -0.2007
 7491SOL     OW33934   4.112   1.990   6.195 -0.1069 -0.1418 -0.3079
 7491SOL    HW133935   4.150   1.999   6.108 -1.2022 -0.3264 -0.8039
 7491SOL    HW233936   4.191   1.992   6.249 -0.2665  2.3827 -0.1693
 7492SOL     OW33937   0.973   1.185   6.596  0.4397 -0.0443 -0.0920
 7492SOL    HW133938   1.006   1.209   6.509  2.3679  1.9614  1.1919
 7492SOL    HW233939   1.038   1.119   6.620  0.9461  0.3543 -0.3549
 7493SOL     OW33940   4.673   2.319   1.867  0.6413  0.2204  0.8315
 7493SOL    HW133941   4.634   2.395   1.910 -1.9413 -0.2713 -0.6382
 7493SOL    HW233942   4.604   2.258   1.844 -0.3531  1.8737 -0.5447
 7494SOL     OW33943   2.841   2.410   6.716  0.1737 -0.4982 -0.1040
 7494SOL    HW133944   2.899   2.382   6.646 -0.7692  0.1297 -1.1416
 7494SOL    HW233945   2.896   2.462   6.774  0.0390 -1.6863  1.0963
 7495SOL     OW33946   2.611   2.388  14.623  0.1195 -0.1429 -0.3243
 7495SOL    HW133947   2.561   2.445  14.681 -0.1038  0.3500 -1.0091
 7495SOL    HW233948   2.646   2.460  14.570  1.1256 -1.2495 -1.1550
 7496SOL     OW33949   1.348   3.707  16.773  0.0210  0.0054 -0.1415
 7496SOL    HW133950   1.276   3.695  16.835  0.8885 -0.1237  0.8335
 7496SOL    HW233951   1.422   3.711  16.833  0.2833  3.5314 -0.6620
 7497SOL     OW33952   2.222   1.628  17.210  0.1995 -0.6107  0.5547
 7497SOL    HW133953   2.265   1.544  17.196  0.2163 -0.2883 -1.2859
 7497SOL    HW233954   2.227   1.660  17.120 -0.7509 -0.9937  0.3680
 7498SOL     OW33955   2.776   3.315   1.979 -0.5591 -0.2040  0.1564
 7498SOL    HW133956   2.740   3.274   1.900  1.0871  0.1402 -0.7657
 7498SOL    HW233957   2.698   3.305   2.034 -0.2526 -0.7129  0.4988
 7499SOL     OW33958   4.460   4.393   4.675  0.0152 -0.7625  0.0289
 7499SOL    HW133959   4.419   4.309   4.657  0.2466 -0.8214 -0.2230
 7499SOL    HW233960   4.503   4.368   4.757 -2.1324 -1.7648  0.8411
 7500SOL     OW33961   1.192   4.531   3.978 -0.1780  0.1700 -0.4017
 7500SOL    HW133962   1.268   4.504   3.927  2.3053  0.7668  2.9823
 7500SOL    HW233963   1.173   4.608   3.923  1.7777  1.0407  0.1343
 7501SOL     OW33964   0.973   4.374   7.450 -0.5816 -0.6773  0.5686
 7501SOL    HW133965   1.019   4.429   7.386 -1.3907 -0.3465  0.2743
 7501SOL    HW233966   0.926   4.442   7.497 -0.9898  0.2159 -1.1155
 7502SOL     OW33967   3.888   3.984   5.800 -0.0361 -0.1287  0.3912
 7502SOL    HW133968   3.940   3.941   5.868  1.4244  1.0355  0.0017
 7502SOL    HW233969   3.803   3.999   5.840 -0.7935 -0.4939 -1.1089
 7503SOL     OW33970   0.274   3.586   6.751 -0.0581 -0.2893 -0.5543
 7503SOL    HW133971   0.183   3.580   6.780 -0.5893 -0.7061 -2.3233
 7503SOL    HW233972   0.309   3.634   6.826  1.7244 -2.0127 -0.2689
 7504SOL     OW33973   4.596   0.418   5.147  0.5019  0.2600  0.8409
 7504SOL    HW133974   4.611   0.362   5.223 -1.3197  0.5466  1.3940
 7504SOL    HW233975   4.518   0.373   5.115 -0.7422  2.6893  0.5109
 7505SOL     OW33976   1.898   1.403   5.174 -0.9188  0.4954 -0.3877
 7505SOL    HW133977   1.945   1.461   5.233 -1.7158  0.9957 -0.2418
 7505SOL    HW233978   1.945   1.407   5.091  0.6511 -1.9382  0.3970
 7506SOL     OW33979   1.972   3.578   2.613 -0.1992 -0.7954  0.2378
 7506SOL    HW133980   2.032   3.562   2.686  0.0871 -1.9293 -0.2376
 7506SOL    HW233981   2.014   3.637   2.550 -1.2346 -1.3093 -0.9470
 7507SOL     OW33982   0.285   0.073   5.584  0.1346  0.0061 -0.0220
 7507SOL    HW133983   0.216   0.013   5.611 -1.8566  2.6124  0.6520
 7507SOL    HW233984   0.345   0.010   5.544 -0.8888 -0.4509 -0.8349
 7508SOL     OW33985   0.263   1.854   8.057  0.2508 -0.3694  0.0114
 7508SOL    HW133986   0.214   1.772   8.051 -1.9178  0.9672 -0.6498
 7508SOL    HW233987   0.262   1.876   8.150  0.6259  0.9253 -0.2940
 7509SOL     OW33988   3.551   3.155   0.583 -0.3600 -0.4334  0.1088
 7509SOL    HW133989   3.487   3.087   0.563  0.0837 -0.7159 -0.3483
 7509SOL    HW233990   3.496   3.233   0.590 -0.0343 -0.2938  1.0555
 7510SOL     OW33991   0.366   4.617   5.048  0.3342 -0.4479  0.5039
 7510SOL    HW133992   0.438   4.626   4.986 -0.1139  0.6115  0.1258
 7510SOL    HW233993   0.293   4.602   4.988  0.4346 -0.5989  0.4189
 7511SOL     OW33994   2.583   2.056   8.900 -0.3305 -0.1037  0.2694
 7511SOL    HW133995   2.620   2.047   8.988 -0.3385 -0.0298  0.2805
 7511SOL    HW233996   2.491   2.056   8.928 -0.9011 -3.6169 -1.5779
 7512SOL     OW33997   0.449   1.932  15.188  0.3237  0.2931 -0.0425
 7512SOL    HW133998   0.520   1.887  15.143 -0.2982 -0.2513 -0.4769
 7512SOL    HW233999   0.497   1.968  15.263  1.2183  0.5892 -0.7663
 7513SOL     OW34000   4.349   2.350   7.088 -0.3313 -0.3202  0.3408
 7513SOL    HW134001   4.317   2.290   7.021  1.2183  0.5081 -1.1579
 7513SOL    HW234002   4.313   2.309   7.167 -0.0183 -3.4182 -1.1378
 7514SOL     OW34003   0.121   4.181   9.836 -0.2431  0.3480 -0.1400
 7514SOL    HW134004   0.044   4.141   9.875  0.1720 -1.4179 -1.1555
 7514SOL    HW234005   0.191   4.157   9.896  2.9802  1.8164 -3.3255
 7515SOL     OW34006   3.729   3.708  13.444  0.0163 -0.1748 -0.0145
 7515SOL    HW134007   3.640   3.705  13.409  1.5372  2.2229 -4.0085
 7515SOL    HW234008   3.747   3.802  13.434 -1.0535  0.3617  2.9719
 7516SOL     OW34009   4.603   3.999   8.992  0.9330  0.0296  0.8309
 7516SOL    HW134010   4.536   3.939   9.024 -1.1354  0.9938 -1.6511
 7516SOL    HW234011   4.561   4.027   8.910  1.9338  0.2692  0.3968
 7517SOL     OW34012   2.684   3.317   6.322  0.1510  0.0993  0.3813
 7517SOL    HW134013   2.734   3.368   6.386 -0.3280  2.4019 -1.0821
 7517SOL    HW234014   2.603   3.367   6.321 -0.5283 -0.9822  1.5076
 7518SOL     OW34015   3.193   0.290   6.895  0.0464 -0.0653 -0.0972
 7518SOL    HW134016   3.164   0.282   6.986  3.1473 -0.0013  0.9048
 7518SOL    HW234017   3.286   0.268   6.903 -0.5313 -2.1603  0.8002
 7519SOL     OW34018   3.668   0.226   6.318  0.6567  0.3660 -0.9106
 7519SOL    HW134019   3.718   0.307   6.314 -0.1582  0.8968 -0.3148
 7519SOL    HW234020   3.718   0.171   6.378  1.1730  2.0470  0.1792
 7520SOL     OW34021   1.067   3.445  12.706 -0.4337 -0.4054  0.2113
 7520SOL    HW134022   1.104   3.487  12.784  0.3401 -1.8328  0.6270
 7520SOL    HW234023   1.024   3.521  12.669 -0.6524 -0.2931  0.6989
 7521SOL     OW34024   1.080   0.366   7.948 -0.0709 -0.5965  0.4385
 7521SOL    HW134025   1.053   0.323   8.029  0.4545 -0.6897  0.5675
 7521SOL    HW234026   1.106   0.286   7.904 -1.6624  0.5925 -2.7013
 7522SOL     OW34027   4.367   4.164   5.955  0.2086  0.0726  0.4015
 7522SOL    HW134028   4.285   4.209   5.974 -1.8091 -3.7861  0.8572
 7522SOL    HW234029   4.428   4.232   5.983 -0.2019  0.0342  1.3574
 7523SOL     OW34030   3.152   0.410  16.644 -0.3983  0.5195  0.7389
 7523SOL    HW134031   3.239   0.372  16.639 -0.2375  0.6731  2.3100
 7523SOL    HW234032   3.123   0.393  16.555  0.6321  0.9423  0.3268
 7524SOL     OW34033   2.729   2.001   2.626  0.6579  0.0779  0.1733
 7524SOL    HW134034   2.771   1.933   2.680 -1.5090 -0.6575  0.9350
 7524SOL    HW234035   2.791   2.070   2.604  0.1118  0.8838  1.1503
 7525SOL     OW34036   1.742   3.774  13.252  0.1587 -0.1539 -0.5723
 7525SOL    HW134037   1.781   3.820  13.326  0.8109 -0.4042 -0.7629
 7525SOL    HW234038   1.805   3.796  13.184  0.0210 -0.6204 -0.8540
 7526SOL     OW34039   2.692   4.357   4.723  0.2240  0.2553 -0.1288
 7526SOL    HW134040   2.704   4.285   4.661  1.6759 -0.1672  0.6309
 7526SOL    HW234041   2.635   4.413   4.670  2.1502  0.5312 -1.9223
 7527SOL     OW34042   1.271   0.049   4.593  0.0259 -0.5867 -0.4434
 7527SOL    HW134043   1.203   0.088   4.648 -1.4142 -0.2433 -2.4491
 7527SOL    HW234044   1.327   0.124   4.574 -0.2883 -0.6097 -1.4971
 7528SOL     OW34045   3.225   4.395  10.700 -0.0597 -0.5242  0.5003
 7528SOL    HW134046   3.261   4.340  10.769  1.5278 -0.7414 -0.4952
 7528SOL    HW234047   3.269   4.479  10.717  0.1846 -0.8886  1.6142
 7529SOL     OW34048   2.161   2.402   5.319  0.0192 -0.7078  0.4621
 7529SOL    HW134049   2.096   2.471   5.304  0.5369 -0.4167 -0.4696
 7529SOL    HW234050   2.145   2.352   5.238 -1.3991  0.4796 -0.0010
 7530SOL     OW34051   0.467   0.777  13.784  0.3251 -0.1705 -0.8033
 7530SOL    HW134052   0.436   0.687  13.779 -0.2911 -0.0657  0.8757
 7530SOL    HW234053   0.404   0.803  13.852  1.4054 -1.8724  0.8263
 7531SOL     OW34054   1.896   0.344  10.202  0.1565  0.0580  0.0091
 7531SOL    HW134055   1.965   0.410  10.193  0.1360  0.2647  1.3425
 7531SOL    HW234056   1.878   0.335  10.108  0.6762 -1.6485  0.0738
 7532SOL     OW34057   2.229   2.135   4.574  0.0961 -0.0287  0.1294
 7532SOL    HW134058   2.316   2.174   4.567  0.1760 -0.3795 -0.8433
 7532SOL    HW234059   2.174   2.214   4.571  0.4363  0.1956 -0.1749
 7533SOL     OW34060   4.416   1.054   5.586 -0.6925 -0.5223 -0.3887
 7533SOL    HW134061   4.362   0.994   5.536 -1.8771 -0.1509  0.4411
 7533SOL    HW234062   4.350   1.119   5.612 -0.6038  0.1105 -1.7707
 7534SOL     OW34063   3.530   3.596   0.069 -1.0892  0.2903 -0.2086
 7534SOL    HW134064   3.594   3.607   0.138  0.0378  0.4714 -1.2797
 7534SOL    HW234065   3.537   3.678   0.020  0.1924 -0.0517 -0.5875
 7535SOL     OW34066   2.433   2.958  10.955  0.1522  0.1970  0.1497
 7535SOL    HW134067   2.520   2.955  10.994  0.2996  1.3500 -0.0840
 7535SOL    HW234068   2.392   2.878  10.987 -0.2660 -0.4134 -1.8830
 7536SOL     OW34069   0.640   2.637  16.343 -0.2116 -1.0067  0.2721
 7536SOL    HW134070   0.683   2.555  16.367 -0.1582 -1.5676 -1.7037
 7536SOL    HW234071   0.546   2.617  16.338 -0.6328  1.0423 -0.1011
 7537SOL     OW34072   2.692   3.129  15.515  0.0642  0.1627  0.1884
 7537SOL    HW134073   2.610   3.094  15.550 -0.1621 -0.2588 -0.7679
 7537SOL    HW234074   2.664   3.220  15.501  0.6345  0.1621 -0.9664
 7538SOL     OW34075   2.025   0.438   8.292 -0.1958 -0.0851 -0.2190
 7538SOL    HW134076   1.979   0.488   8.359  1.0421  0.3223  0.3115
 7538SOL    HW234077   2.006   0.494   8.216 -1.8734 -0.7415 -0.2828
 7539SOL     OW34078   3.503   4.227   9.804 -0.0897 -0.8051  0.0364
 7539SOL    HW134079   3.423   4.209   9.854 -0.1573 -0.4000  0.0732
 7539SOL    HW234080   3.477   4.199   9.716 -0.0876  1.7093 -0.7458
 7540SOL     OW34081   2.620   0.253  10.532 -0.4485 -0.0884  0.3256
 7540SOL    HW134082   2.687   0.221  10.471 -0.3327 -2.5344  1.7565
 7540SOL    HW234083   2.571   0.173  10.547 -0.5294 -0.3744 -1.4746
 7541SOL     OW34084   0.372   2.120   4.491  0.0652 -0.1189 -0.0056
 7541SOL    HW134085   0.438   2.146   4.555  0.0816 -0.6194  0.1765
 7541SOL    HW234086   0.420   2.120   4.408  0.5153 -1.1072  0.2566
 7542SOL     OW34087   3.688   3.659   8.866 -0.3387 -0.1547 -0.8667
 7542SOL    HW134088   3.718   3.611   8.789 -2.5887 -0.0491 -1.8069
 7542SOL    HW234089   3.599   3.623   8.864 -0.5527  0.3028  0.3860
 7543SOL     OW34090   1.835   4.316   1.568  0.2946  0.0373 -0.5088
 7543SOL    HW134091   1.757   4.265   1.589  0.8399 -0.5528  0.0603
 7543SOL    HW234092   1.859   4.273   1.486  0.3595  2.6557 -1.8883
 7544SOL     OW34093   2.555   3.078   6.353 -0.2321 -0.0805  0.0439
 7544SOL    HW134094   2.606   3.157   6.336  0.5725 -1.4005 -3.6929
 7544SOL    HW234095   2.565   3.078   6.448  0.2694  2.6589 -0.0019
 7545SOL     OW34096   4.161   3.454  14.874  0.2124  0.2054  0.3138
 7545SOL    HW134097   4.197   3.415  14.953 -1.1176 -1.5018  0.0661
 7545SOL    HW234098   4.175   3.546  14.895 -2.0921  0.9508 -1.3954
 7546SOL     OW34099   4.629   2.595   0.385 -0.1774  0.2481 -0.9171
 7546SOL    HW134100   0.001   2.610   0.388 -0.0331 -0.8886  0.4245
 7546SOL    HW234101   4.602   2.630   0.300 -0.3370  0.3557 -0.8230
 7547SOL     OW34102   2.470   3.002   7.948  0.0933  0.9392  0.1125
 7547SOL    HW134103   2.555   2.963   7.927 -0.6990 -0.5196 -0.3883
 7547SOL    HW234104   2.415   2.940   7.899  0.5848  0.1489  0.5485
 7548SOL     OW34105   2.277   1.078   3.817 -0.4875 -0.7157 -0.1521
 7548SOL    HW134106   2.319   1.149   3.770 -1.3284  1.4158  2.3534
 7548SOL    HW234107   2.222   1.035   3.750 -2.8879 -0.2741  1.5459
 7549SOL     OW34108   3.162   3.095   4.555 -0.0438  0.3753 -0.1035
 7549SOL    HW134109   3.228   3.027   4.566  0.4636  1.1820  1.8021
 7549SOL    HW234110   3.091   3.066   4.611 -0.7039 -0.1122 -1.1877
 7550SOL     OW34111   3.147   0.012   8.407  0.4727  0.4977 -0.0262
 7550SOL    HW134112   3.156   0.089   8.350  1.7594 -0.7380 -1.5220
 7550SOL    HW234113   3.063   4.697   8.379 -1.0281  3.8182  0.0771
 7551SOL     OW34114   0.163   4.290  12.385  0.1347  0.1430  0.0997
 7551SOL    HW134115   0.197   4.352  12.449 -1.4352  1.0216  0.0932
 7551SOL    HW234116   0.231   4.222  12.388 -0.4785 -0.4826 -0.1488
 7552SOL     OW34117   4.283   3.319   4.992 -0.5386 -0.1221 -0.4350
 7552SOL    HW134118   4.322   3.403   4.970  1.4553 -0.5199  1.4953
 7552SOL    HW234119   4.319   3.255   4.931 -0.2205  0.9226 -1.3351
 7553SOL     OW34120   3.389   2.357   7.444  0.1998 -0.4706  0.0134
 7553SOL    HW134121   3.397   2.438   7.494  1.0462 -0.5484  0.0115
 7553SOL    HW234122   3.476   2.360   7.404  0.0818  1.7238 -0.0783
 7554SOL     OW34123   0.335   3.501   2.223 -0.4247 -0.8110  0.0305
 7554SOL    HW134124   0.297   3.465   2.303  0.8623 -2.1039  0.0578
 7554SOL    HW234125   0.256   3.543   2.188  0.3823  1.6878  1.2200
 7555SOL     OW34126   1.184   0.542  11.255  0.3753  0.7554 -0.1295
 7555SOL    HW134127   1.140   0.625  11.238  2.7675  1.3940 -3.3615
 7555SOL    HW234128   1.253   0.562  11.319  1.5810  0.4121 -1.3127
 7556SOL     OW34129   3.351   2.960  17.255  0.2878  0.2872  0.1948
 7556SOL    HW134130   3.293   2.893  17.291 -0.0707  0.6279  0.2517
 7556SOL    HW234131   3.397   3.006  17.325  0.0895  0.4330  0.2311
 7557SOL     OW34132   2.110   2.622   3.026  0.3471  0.2980  0.1339
 7557SOL    HW134133   2.073   2.537   3.051  0.2101  0.0525 -0.8840
 7557SOL    HW234134   2.050   2.644   2.955 -1.8229  2.0061  2.5008
 7558SOL     OW34135   1.323   1.548   7.209 -0.3314  0.1795  0.3922
 7558SOL    HW134136   1.362   1.613   7.268  2.6928 -1.5927  0.2862
 7558SOL    HW234137   1.236   1.561   7.248 -0.2519  2.4181 -0.1859
 7559SOL     OW34138   2.979   0.646  16.687 -0.1538  0.8233  0.3152
 7559SOL    HW134139   3.001   0.678  16.600 -2.0832 -1.0359 -0.8492
 7559SOL    HW234140   3.021   0.561  16.677 -1.3426  0.4146 -1.1822
 7560SOL     OW34141   2.344   3.603   2.992 -0.3617 -0.0167 -0.3890
 7560SOL    HW134142   2.416   3.616   3.054  0.5169 -0.0208 -1.4072
 7560SOL    HW234143   2.316   3.515   3.016 -1.3479  1.1150  2.5278
 7561SOL     OW34144   2.691   3.292   5.893 -0.1830  0.4142  0.1511
 7561SOL    HW134145   2.639   3.337   5.960  1.1026 -0.7584  1.9446
 7561SOL    HW234146   2.778   3.320   5.923 -0.0148  1.6215 -1.4721
 7562SOL     OW34147   1.896   3.652  15.606 -0.1626  0.3390 -0.7902
 7562SOL    HW134148   1.814   3.603  15.606 -1.2290  2.0880  1.1781
 7562SOL    HW234149   1.903   3.651  15.511  0.5071 -1.9983 -0.7105
 7563SOL     OW34150   1.134   2.237   0.383 -0.2645 -0.1084  0.4689
 7563SOL    HW134151   1.062   2.176   0.399 -2.1410  2.0239  0.1778
 7563SOL    HW234152   1.130   2.246   0.288 -1.8662 -1.1737  0.4481
 7564SOL     OW34153   0.226   0.705  10.964  0.1972  0.2489  0.0433
 7564SOL    HW134154   0.298   0.764  10.945  0.6187  0.8901  3.6026
 7564SOL    HW234155   0.189   0.676  10.881  0.9120  1.2859 -0.6353
 7565SOL     OW34156   1.343   1.749   2.799 -0.8359  0.0992 -0.3410
 7565SOL    HW134157   1.336   1.821   2.736  1.0519  0.4454 -0.1485
 7565SOL    HW234158   1.275   1.687   2.772 -1.1865  0.2769  0.1441
 7566SOL     OW34159   1.019   1.250  11.322  0.3921 -0.0218 -0.1425
 7566SOL    HW134160   1.084   1.318  11.302 -0.8269  1.4764  0.9937
 7566SOL    HW234161   0.948   1.280  11.265 -0.5553 -2.2254 -0.1157
 7567SOL     OW34162   4.274   2.968  10.018 -0.3542  0.4718 -0.1089
 7567SOL    HW134163   4.211   2.900  10.044 -0.0798 -0.7703 -2.6222
 7567SOL    HW234164   4.296   3.016  10.097 -0.2551  0.3771 -0.0778
 7568SOL     OW34165   0.902   4.205   0.590  0.3067  0.0108  0.0302
 7568SOL    HW134166   0.848   4.134   0.555 -0.6549  0.7418  0.0323
 7568SOL    HW234167   0.928   4.241   0.506  2.5306  0.9329  1.1253
 7569SOL     OW34168   3.090   2.580   4.592 -0.3396  0.5328 -0.0647
 7569SOL    HW134169   3.106   2.661   4.544 -1.6196 -0.6223 -2.4361
 7569SOL    HW234170   3.129   2.512   4.537 -2.1337 -0.6342  0.1160
 7570SOL     OW34171   4.128   4.556   3.336  0.1741  0.0029 -0.7155
 7570SOL    HW134172   4.053   4.568   3.278 -0.2668 -0.0356 -0.1501
 7570SOL    HW234173   4.131   4.462   3.356 -1.3269  0.4489  1.5402
 7571SOL     OW34174   4.148   3.240   3.704  0.4698  0.1070 -0.2741
 7571SOL    HW134175   4.239   3.268   3.695 -0.3198  2.1048 -2.0223
 7571SOL    HW234176   4.122   3.279   3.788 -1.5037 -1.4338 -0.1641
 7572SOL     OW34177   4.120   2.998   3.922  0.6711 -0.2688 -0.0643
 7572SOL    HW134178   4.131   3.017   3.828  0.5908 -1.4802 -0.3118
 7572SOL    HW234179   4.103   3.084   3.961  1.0455 -1.0726  1.8285
 7573SOL     OW34180   3.051   4.663   7.657  0.5391  0.2133  0.5689
 7573SOL    HW134181   2.956   4.674   7.664  0.5258  0.9512 -0.7692
 7573SOL    HW234182   3.079   4.630   7.742  0.0351 -2.5195 -0.3080
 7574SOL     OW34183   1.135   2.235   8.773  0.0755 -0.1270 -0.1239
 7574SOL    HW134184   1.107   2.228   8.864 -1.4575  0.8084 -0.5318
 7574SOL    HW234185   1.226   2.205   8.778  0.2285  0.3393 -0.0494
 7575SOL     OW34186   2.625   0.423  14.966 -0.4048 -0.6194 -0.0151
 7575SOL    HW134187   2.563   0.496  14.970  0.6013  0.1386  1.7994
 7575SOL    HW234188   2.623   0.414  14.871  1.9737  0.3204 -0.1580
 7576SOL     OW34189   3.620   2.663  13.292 -0.4881 -0.2367 -0.2968
 7576SOL    HW134190   3.677   2.624  13.358 -3.1118  0.4890  2.4153
 7576SOL    HW234191   3.679   2.711  13.233 -1.0845  1.4091  0.4276
 7577SOL     OW34192   0.194   2.784   5.551  0.1350 -0.4474  0.2074
 7577SOL    HW134193   0.213   2.707   5.496  0.2843 -1.0112  1.0478
 7577SOL    HW234194   0.164   2.748   5.634 -1.3286 -1.4952 -0.7658
 7578SOL     OW34195   1.914   2.920   7.708 -0.5465 -0.4432  0.4360
 7578SOL    HW134196   1.927   2.849   7.771 -0.5140  0.0952  1.0362
 7578SOL    HW234197   1.885   2.990   7.767  1.8136 -1.1363  2.4107
 7579SOL     OW34198   0.061   1.588   4.323  0.4276 -0.4271 -0.2144
 7579SOL    HW134199   4.721   1.584   4.396  1.4923 -0.1416  0.6946
 7579SOL    HW234200   0.148   1.594   4.362 -0.0157  1.7595  0.4564
 7580SOL     OW34201   2.437   3.674   7.522 -0.0324  0.7511 -0.0502
 7580SOL    HW134202   2.407   3.644   7.607 -0.9246  0.1793 -0.5616
 7580SOL    HW234203   2.496   3.606   7.488 -2.0918 -0.5759 -0.9166
 7581SOL     OW34204   2.287   0.203   5.824 -0.0939 -0.4266 -0.4977
 7581SOL    HW134205   2.364   0.259   5.814 -0.4313  0.3742  1.4325
 7581SOL    HW234206   2.257   0.226   5.912 -2.2575 -1.3806 -0.9835
 7582SOL     OW34207   3.959   1.800   5.371  0.0492  0.2726 -0.1412
 7582SOL    HW134208   3.880   1.850   5.349 -1.8103 -2.7002 -0.2036
 7582SOL    HW234209   3.999   1.871   5.421 -1.0410  2.0681 -1.8182
 7583SOL     OW34210   0.244   2.754   4.477  0.2299 -0.1877 -0.1988
 7583SOL    HW134211   0.305   2.731   4.407  0.3875 -0.7456  0.1287
 7583SOL    HW234212   0.164   2.705   4.459 -1.0085  1.4150  0.9517
 7584SOL     OW34213   3.413   0.478  16.037  0.0353  0.0030 -0.1664
 7584SOL    HW134214   3.444   0.568  16.046  0.3279 -0.2438  1.2197
 7584SOL    HW234215   3.495   0.430  16.024  0.4654  0.5670  0.4322
 7585SOL     OW34216   4.213   3.499   5.880  0.1220 -0.3638 -0.2280
 7585SOL    HW134217   4.273   3.441   5.928 -0.2686  1.1173  2.0429
 7585SOL    HW234218   4.262   3.580   5.870  0.0054 -0.2642  0.0020
 7586SOL     OW34219   2.816   4.421   0.359  0.3178  0.2894  0.0718
 7586SOL    HW134220   2.806   4.380   0.444  1.2545 -0.0639  0.0133
 7586SOL    HW234221   2.768   4.499   0.387 -0.5303 -0.6772  1.3166
 7587SOL     OW34222   0.538   1.579  12.520 -0.2755 -0.3198  0.2536
 7587SOL    HW134223   0.452   1.546  12.495  0.6398 -0.9410 -2.0585
 7587SOL    HW234224   0.601   1.552  12.454  0.1160  2.4125 -0.4954
 7588SOL     OW34225   3.149   1.286   3.764 -0.2306 -0.2661  0.3222
 7588SOL    HW134226   3.177   1.265   3.674 -1.7138 -0.5849 -0.0614
 7588SOL    HW234227   3.228   1.336   3.787 -1.1456  0.3189  2.0998
 7589SOL     OW34228   1.397   2.146  12.691 -0.2794  0.3608  0.0402
 7589SOL    HW134229   1.357   2.169  12.776 -0.3553  2.5224 -0.5726
 7589SOL    HW234230   1.339   2.193  12.631  2.4300  2.9863 -0.5207
 7590SOL     OW34231   1.041   3.377   3.384 -0.0579  0.2949  0.5808
 7590SOL    HW134232   0.968   3.424   3.342 -0.4819 -2.3709 -1.6128
 7590SOL    HW234233   1.052   3.428   3.465  0.3295 -0.5341  1.0407
 7591SOL     OW34234   2.596   3.123   0.009  0.7049  0.2948 -0.0266
 7591SOL    HW134235   2.639   3.195  17.653  0.5223  1.3230  1.4146
 7591SOL    HW234236   2.520   3.100  17.646  0.4723  0.3894  0.2698
 7592SOL     OW34237   3.086   2.162   5.221 -0.3228  0.1292 -0.1231
 7592SOL    HW134238   3.143   2.187   5.148  1.6041 -1.9600  0.6925
 7592SOL    HW234239   3.153   2.127   5.280 -0.3531  0.5134  0.1350
 7593SOL     OW34240   2.414   1.601  16.768  0.5327 -0.3408 -0.1424
 7593SOL    HW134241   2.357   1.534  16.807 -0.1619 -0.1453 -0.8252
 7593SOL    HW234242   2.426   1.563  16.682  0.4508 -1.1093  0.1866
 7594SOL     OW34243   2.272   3.173   6.789  0.1837  0.5372  0.4717
 7594SOL    HW134244   2.199   3.125   6.753  0.4125  0.2160  0.4389
 7594SOL    HW234245   2.244   3.264   6.780 -1.1084 -0.1099 -1.8406
 7595SOL     OW34246   0.834   4.614  10.218  1.2421 -0.0291  0.4899
 7595SOL    HW134247   0.783   4.658  10.285  0.6208 -0.0964  0.0557
 7595SOL    HW234248   0.914   4.634  10.266  2.0374 -1.2387 -0.3024
 7596SOL     OW34249   2.924   4.605  16.147 -0.0046  0.0846  0.2521
 7596SOL    HW134250   2.926   4.689  16.101 -0.1817  0.7519  1.4658
 7596SOL    HW234251   2.875   4.552  16.084 -0.5062  0.0933  0.6302
 7597SOL     OW34252   1.322   1.726   3.471 -0.1122 -0.2794 -0.1327
 7597SOL    HW134253   1.296   1.792   3.408  2.1141 -0.2516 -1.0154
 7597SOL    HW234254   1.293   1.651   3.419  0.2270 -0.3102 -0.2766
 7598SOL     OW34255   1.965   1.057   2.851 -0.3615 -0.5022 -0.3040
 7598SOL    HW134256   1.985   1.049   2.758 -0.3899  0.7818 -0.4136
 7598SOL    HW234257   1.940   1.149   2.850  0.4444 -0.2487  2.6132
 7599SOL     OW34258   2.512   4.356   7.459  0.3030  0.2991 -0.3018
 7599SOL    HW134259   2.515   4.436   7.513  0.8998 -1.6456  2.5352
 7599SOL    HW234260   2.607   4.348   7.452  0.4931  2.0839  0.0766
 7600SOL     OW34261   2.573   3.372  13.812 -0.3362  1.2625 -0.3056
 7600SOL    HW134262   2.629   3.313  13.760  1.0148  2.1599  0.1170
 7600SOL    HW234263   2.623   3.454  13.814  3.4832 -1.0854  1.3921
 7601SOL     OW34264   1.230   4.045   4.261 -0.7433  0.0148  0.3690
 7601SOL    HW134265   1.299   4.061   4.326  0.7401  0.1941 -1.2285
 7601SOL    HW234266   1.232   4.126   4.211  0.9811 -0.7030 -0.7452
 7602SOL     OW34267   1.332   2.295   8.475 -0.2921  0.6848 -0.2781
 7602SOL    HW134268   1.421   2.302   8.510 -0.2335  1.7399 -0.6680
 7602SOL    HW234269   1.330   2.202   8.449  1.8968  0.8646 -1.1150
 7603SOL     OW34270   1.573   1.553   3.741  0.2085 -0.0178 -0.2271
 7603SOL    HW134271   1.571   1.592   3.829  0.9267  0.8368 -0.5847
 7603SOL    HW234272   1.630   1.612   3.692 -0.7693  0.2299 -1.0461
 7604SOL     OW34273   0.642   4.175   1.520 -0.3729 -0.2718  0.2247
 7604SOL    HW134274   0.667   4.258   1.560  0.7711 -0.9849  0.9655
 7604SOL    HW234275   0.547   4.167   1.531 -0.2598  1.3950  2.4123
 7605SOL     OW34276   1.947   1.449   5.724  0.1368 -0.2027  0.0368
 7605SOL    HW134277   1.865   1.444   5.773 -1.4877 -1.7897 -2.8467
 7605SOL    HW234278   1.963   1.361   5.691 -1.8587 -0.5349 -0.0113
 7606SOL     OW34279   2.713   2.492   4.104 -0.5843  0.0787  0.2926
 7606SOL    HW134280   2.760   2.455   4.178 -0.3295  1.5973  0.8931
 7606SOL    HW234281   2.773   2.483   4.030 -1.2316  0.2029 -0.2559
 7607SOL     OW34282   2.926   2.469  17.319  0.2042 -0.3205  0.3658
 7607SOL    HW134283   2.915   2.376  17.302  0.9319 -0.2322 -0.5952
 7607SOL    HW234284   2.877   2.477  17.401 -0.8066 -1.5032 -0.1226
 7608SOL     OW34285   0.995   1.204  15.944  0.1941 -0.3340 -0.3770
 7608SOL    HW134286   0.937   1.271  15.909 -0.6837 -1.5203 -1.2136
 7608SOL    HW234287   0.973   1.201  16.037 -0.5445  2.7397 -0.4698
 7609SOL     OW34288   0.228   1.636   3.954 -0.2294  0.0271 -0.0526
 7609SOL    HW134289   0.218   1.587   3.873 -2.5305 -0.0268  0.2782
 7609SOL    HW234290   0.137   1.655   3.975 -0.8073 -3.3610  0.4740
 7610SOL     OW34291   1.201   4.207   5.232 -0.4195 -0.3088 -0.1804
 7610SOL    HW134292   1.188   4.190   5.326 -2.4987 -0.0903 -0.4103
 7610SOL    HW234293   1.200   4.115   5.204  2.1262 -0.6652  0.8959
 7611SOL     OW34294   1.109   2.799  16.009  0.1548 -0.5320 -0.1127
 7611SOL    HW134295   1.031   2.847  16.039  1.4119  1.9574 -0.8100
 7611SOL    HW234296   1.177   2.866  16.005 -0.9809  0.6290 -0.0390
 7612SOL     OW34297   2.989   2.945   7.748  0.9745  0.5661  0.2783
 7612SOL    HW134298   3.067   2.912   7.703 -0.3661 -2.0793 -0.0852
 7612SOL    HW234299   3.006   2.920   7.839  0.2508 -3.8063 -0.8052
 7613SOL     OW34300   1.192   1.928   1.593 -0.1474  0.4322  0.0693
 7613SOL    HW134301   1.208   1.881   1.676  0.7433  0.7948  0.1013
 7613SOL    HW234302   1.158   1.865   1.530  0.0694  0.8467 -0.4567
 7614SOL     OW34303   0.195   4.268   3.109  0.4767 -0.5163  0.1202
 7614SOL    HW134304   0.289   4.280   3.109  0.1570  1.9120 -0.0018
 7614SOL    HW234305   0.161   4.346   3.066  1.6035  0.5430  1.1466
 7615SOL     OW34306   4.702   4.460   0.335 -0.2967  0.1136 -0.1816
 7615SOL    HW134307   0.022   4.416   0.409 -1.4874  3.3908  2.4291
 7615SOL    HW234308   0.029   4.406   0.273  1.2120 -0.4415  1.5026
 7616SOL     OW34309   2.172   0.588   4.009  0.4523 -0.3643 -0.2959
 7616SOL    HW134310   2.163   0.568   3.916  1.3662  0.2137 -0.5106
 7616SOL    HW234311   2.238   0.521   4.023  0.7556 -1.0986 -5.2756
 7617SOL     OW34312   0.417   1.196   8.053 -0.1537 -0.5614  0.5831
 7617SOL    HW134313   0.423   1.292   8.050 -0.5668 -0.5978 -1.4111
 7617SOL    HW234314   0.326   1.183   8.078 -0.4744 -2.1908 -1.3943
 7618SOL     OW34315   4.069   1.879   8.320  0.5431 -0.0718  0.2779
 7618SOL    HW134316   3.988   1.851   8.363  0.4537  0.4886  0.4806
 7618SOL    HW234317   4.077   1.973   8.338 -1.9128  0.2015 -0.0065
 7619SOL     OW34318   4.309   3.525   4.118  0.0493  0.1414  0.2700
 7619SOL    HW134319   4.377   3.559   4.060  1.7681 -2.9388  0.4914
 7619SOL    HW234320   4.238   3.573   4.075 -0.3414 -1.5784 -1.0124
 7620SOL     OW34321   0.496   2.562  14.267  0.6766  0.4653  0.4999
 7620SOL    HW134322   0.525   2.653  14.259  2.8076 -0.3695 -1.4655
 7620SOL    HW234323   0.482   2.546  14.360  0.7937  2.3960  0.8636
 7621SOL     OW34324   2.085   3.783   2.466  0.1580 -0.2502  1.0909
 7621SOL    HW134325   2.031   3.849   2.508 -0.0620  0.9026 -0.9952
 7621SOL    HW234326   2.166   3.831   2.448  1.5504 -1.9679  2.7186
 7622SOL     OW34327   1.566   0.710   1.215  0.0865 -0.5445  0.5411
 7622SOL    HW134328   1.647   0.761   1.221 -0.8809  1.1245 -0.3572
 7622SOL    HW234329   1.592   0.622   1.243  0.2982 -0.7821 -0.4226
 7623SOL     OW34330   1.292   1.800  12.195 -0.0245 -0.7013  0.1757
 7623SOL    HW134331   1.242   1.836  12.122 -0.8367  1.9107  2.0240
 7623SOL    HW234332   1.337   1.879  12.222 -0.0916 -0.7341  0.3882
 7624SOL     OW34333   0.542   4.111  11.767 -0.5348  0.0903 -0.9448
 7624SOL    HW134334   0.574   4.031  11.727 -0.9728 -0.7622  0.3906
 7624SOL    HW234335   0.459   4.127  11.722 -0.6909  0.7334 -0.4337
 7625SOL     OW34336   3.871   1.392  15.784 -0.2643 -0.1383 -0.6424
 7625SOL    HW134337   3.869   1.407  15.879  0.1951  0.0440 -0.6650
 7625SOL    HW234338   3.813   1.459  15.748 -1.1476 -0.7483 -0.3549
 7626SOL     OW34339   4.615   0.652   5.009  0.1566 -0.4554  0.0583
 7626SOL    HW134340   4.540   0.707   5.035  0.0560  0.4152 -2.0460
 7626SOL    HW234341   4.617   0.583   5.075 -1.6596  0.1618  0.7675
 7627SOL     OW34342   3.202   3.545   8.998 -0.3366  0.5290  0.5207
 7627SOL    HW134343   3.203   3.535   9.093  2.8513 -1.2888  0.2973
 7627SOL    HW234344   3.186   3.458   8.960 -0.8702  1.3139 -1.0755
 7628SOL     OW34345   3.842   1.700   6.234  0.6592  0.2903  0.0522
 7628SOL    HW134346   3.809   1.782   6.271 -1.2743  0.0226 -1.0785
 7628SOL    HW234347   3.847   1.712   6.139  1.0118 -0.7287 -0.0523
 7629SOL     OW34348   2.225   3.299  16.563 -0.5181 -0.4550 -0.2131
 7629SOL    HW134349   2.149   3.268  16.612 -0.8307  2.6723  1.3067
 7629SOL    HW234350   2.197   3.288  16.472 -0.1234 -1.8853 -0.1546
 7630SOL     OW34351   0.171   4.034   2.999 -0.1484  0.3931  0.5028
 7630SOL    HW134352   0.178   3.964   3.063 -1.4499 -0.7444 -0.6026
 7630SOL    HW234353   0.168   4.113   3.054  1.8535  1.1159 -0.4074
 7631SOL     OW34354   4.298   2.807   9.790 -0.3713 -0.2123 -0.0368
 7631SOL    HW134355   4.309   2.712   9.802 -2.2574 -0.2857  1.1269
 7631SOL    HW234356   4.296   2.844   9.879  1.3059 -0.4025  0.0756
 7632SOL     OW34357   3.455   2.758   5.944 -0.3447 -0.2337  0.1102
 7632SOL    HW134358   3.365   2.740   5.917  0.0176  1.4425 -2.3441
 7632SOL    HW234359   3.493   2.794   5.863 -0.5111 -1.4338 -0.4906
 7633SOL     OW34360   3.164   1.580  11.183 -0.1062 -0.0952  0.5282
 7633SOL    HW134361   3.194   1.511  11.242 -2.2626  0.1386  1.9093
 7633SOL    HW234362   3.079   1.546  11.158  0.3801 -2.9746  2.8033
 7634SOL     OW34363   0.438   4.570   3.164 -0.4305 -0.4756 -0.5468
 7634SOL    HW134364   0.503   4.595   3.098 -0.4508 -2.6888 -1.4043
 7634SOL    HW234365   0.448   4.475   3.157 -2.6335 -0.8391  1.2887
 7635SOL     OW34366   0.749   0.415  11.156 -0.0583 -1.0479 -0.1245
 7635SOL    HW134367   0.714   0.337  11.113 -1.0800 -0.0523 -1.0885
 7635SOL    HW234368   0.768   0.464  11.076 -1.4368 -1.1526 -0.5304
 7636SOL     OW34369   1.473   1.644  16.665 -0.3199 -0.0955 -0.1570
 7636SOL    HW134370   1.426   1.657  16.583 -0.9773 -1.7172 -0.0257
 7636SOL    HW234371   1.560   1.617  16.636  1.0688  0.7879  3.1819
 7637SOL     OW34372   4.029   2.610  13.903  0.0381 -0.5139 -0.1738
 7637SOL    HW134373   4.055   2.686  13.851  0.7493  0.4376  1.5671
 7637SOL    HW234374   4.048   2.539  13.842  1.2063 -0.5275  0.1906
 7638SOL     OW34375   4.293   3.858   3.676  1.1019 -0.3856 -0.5182
 7638SOL    HW134376   4.267   3.949   3.689 -2.2424 -1.4135  0.1943
 7638SOL    HW234377   4.384   3.863   3.705  0.4167  0.5383  1.4570
 7639SOL     OW34378   2.791   3.788   4.059 -0.5353 -0.4357  0.7781
 7639SOL    HW134379   2.861   3.767   4.121 -0.6542  1.5315  1.5699
 7639SOL    HW234380   2.735   3.710   4.064 -1.7596  0.4988  1.6277
 7640SOL     OW34381   1.993   0.998   2.594 -0.7074  0.1988  0.0482
 7640SOL    HW134382   1.899   1.014   2.587 -0.9076 -1.0090 -0.0692
 7640SOL    HW234383   2.004   0.915   2.546  1.1561 -0.6169  1.9242
 7641SOL     OW34384   3.503   1.087   0.931  0.5366  0.1240  0.7760
 7641SOL    HW134385   3.517   1.017   0.867 -0.8279 -0.3130  0.9467
 7641SOL    HW234386   3.422   1.121   0.891  0.3298 -1.6193 -0.2678
 7642SOL     OW34387   4.070   2.947  16.056  0.1747  0.6328 -0.3040
 7642SOL    HW134388   3.977   2.966  16.054  0.3550  1.7980  2.7493
 7642SOL    HW234389   4.109   3.010  15.995  1.0711 -0.3664 -0.7661
 7643SOL     OW34390   4.719   1.229   3.318  0.8639  0.2706  0.1904
 7643SOL    HW134391   4.645   1.232   3.258  1.0914  1.8120 -0.0127
 7643SOL    HW234392   0.046   1.163   3.270  0.8481  0.8955 -0.6823
 7644SOL     OW34393   2.992   1.143  16.209  0.3136  0.0481 -0.1827
 7644SOL    HW134394   3.007   1.073  16.145 -2.7613 -1.6768  0.9661
 7644SOL    HW234395   2.909   1.112  16.245  0.0979  0.8896  0.0417
 7645SOL     OW34396   3.134   0.418  16.927  0.5071  0.2850 -1.3707
 7645SOL    HW134397   3.130   0.400  16.833 -2.7918  2.0502 -1.5597
 7645SOL    HW234398   3.228   0.422  16.942  0.2946 -0.3147  0.1873
 7646SOL     OW34399   1.833   0.248   6.080  0.0400  0.1264  0.1643
 7646SOL    HW134400   1.798   0.300   6.008 -0.6688 -0.0840  0.3570
 7646SOL    HW234401   1.879   0.177   6.036 -0.1521 -0.0926  0.3178
 7647SOL     OW34402   2.672   0.615   0.498  0.0398  0.0718  0.5233
 7647SOL    HW134403   2.692   0.526   0.528 -1.8135 -0.6752 -0.4333
 7647SOL    HW234404   2.577   0.617   0.512 -0.3626 -1.4993 -1.9120
 7648SOL     OW34405   4.180   2.035   9.084  0.2724  0.5257  0.4447
 7648SOL    HW134406   4.252   2.098   9.090  0.8579 -0.2416  1.5278
 7648SOL    HW234407   4.185   2.014   8.990  0.5807 -1.2998  0.8597
 7649SOL     OW34408   0.307   4.135   7.154 -0.0646  0.0026  0.2434
 7649SOL    HW134409   0.339   4.079   7.083 -0.4221 -2.3587  1.9260
 7649SOL    HW234410   0.329   4.071   7.222  1.0939 -0.5249 -0.6231
 7650SOL     OW34411   0.117   4.574   7.174  0.0458 -0.0818  0.3646
 7650SOL    HW134412   0.042   4.633   7.168  0.8182  0.6489 -2.2299
 7650SOL    HW234413   0.088   4.495   7.218 -0.0720 -0.4358 -0.3591
 7651SOL     OW34414   3.307   2.637  15.071 -0.1268 -0.5903 -0.2287
 7651SOL    HW134415   3.228   2.679  15.106 -0.7818 -2.5040  0.5844
 7651SOL    HW234416   3.273   2.586  14.997 -0.5984 -2.3263  1.1686
 7652SOL     OW34417   1.298   2.006   6.182 -0.8595  0.0699  0.7349
 7652SOL    HW134418   1.388   1.977   6.197 -0.4177 -0.0616 -2.0290
 7652SOL    HW234419   1.257   1.922   6.201  1.3928 -0.4388  3.3598
 7653SOL     OW34420   3.690   1.019   8.157  0.9378  0.4208 -0.0976
 7653SOL    HW134421   3.602   1.007   8.122  1.2077  0.7926 -0.9366
 7653SOL    HW234422   3.721   1.095   8.107  2.7265 -0.3134 -0.1057
 7654SOL     OW34423   0.906   2.150   7.336  0.6018 -0.0879  0.1306
 7654SOL    HW134424   0.944   2.237   7.325  0.7109 -0.0302  0.9518
 7654SOL    HW234425   0.850   2.168   7.412  2.0170 -0.5164  1.2590
 7655SOL     OW34426   4.014   3.831   7.116  0.7177 -0.1930  0.1759
 7655SOL    HW134427   4.105   3.804   7.105  0.3096 -0.5169 -2.2816
 7655SOL    HW234428   3.966   3.749   7.102 -1.8146  1.4928 -0.9566
 7656SOL     OW34429   0.997   4.600   8.005  0.7889  1.1330 -0.4479
 7656SOL    HW134430   0.939   4.654   7.951  0.0149  1.8380  1.1029
 7656SOL    HW234431   0.935   4.561   8.066  1.7468 -0.3338 -0.3971
 7657SOL     OW34432   4.210   2.480   2.308  0.1955 -0.5123 -0.2914
 7657SOL    HW134433   4.238   2.438   2.389  0.1139  0.6554  0.3552
 7657SOL    HW234434   4.257   2.564   2.300 -2.4508  1.0264  0.2221
 7658SOL     OW34435   3.047   1.781   7.528  0.2525 -0.3385  0.8952
 7658SOL    HW134436   2.977   1.718   7.547  1.1393 -0.7887  2.6833
 7658SOL    HW234437   3.083   1.807   7.613  1.4604  0.9157 -0.0078
 7659SOL     OW34438   0.955   3.759   6.445  0.0748 -0.2356 -0.4577
 7659SOL    HW134439   0.997   3.840   6.415 -0.9700  0.4934  0.0543
 7659SOL    HW234440   1.014   3.701   6.396  0.5205  0.2552 -0.5024
 7660SOL     OW34441   1.124   4.432  12.586  0.5326 -0.6358 -0.3375
 7660SOL    HW134442   1.077   4.348  12.583 -0.0286 -0.2993 -1.0348
 7660SOL    HW234443   1.140   4.446  12.679 -1.6539 -0.5134  0.0148
 7661SOL     OW34444   0.814   0.078   2.959  0.2204 -0.0265 -0.1485
 7661SOL    HW134445   0.851   0.069   2.871 -1.1186 -0.9583 -0.6191
 7661SOL    HW234446   0.891   0.083   3.015  1.7905  2.6516 -2.5856
 7662SOL     OW34447   3.309   0.941  10.495 -0.2162 -0.0396  0.1314
 7662SOL    HW134448   3.362   0.943  10.574  0.7982  1.8249 -0.5946
 7662SOL    HW234449   3.359   0.880  10.440 -1.0979  2.5023 -3.4854
 7663SOL     OW34450   0.740   1.196   9.078 -0.2721  0.2486 -0.1921
 7663SOL    HW134451   0.784   1.171   8.997 -1.1137  2.2994 -1.2768
 7663SOL    HW234452   0.779   1.135   9.141  0.1037  1.9031  1.1690
 7664SOL     OW34453   4.277   1.581   3.667  0.5147  0.0255  0.0667
 7664SOL    HW134454   4.288   1.491   3.636 -0.4656  0.4717 -1.5522
 7664SOL    HW234455   4.237   1.619   3.589 -1.5614  0.2246  1.2365
 7665SOL     OW34456   4.567   3.926   5.163 -0.1895 -0.0070 -0.6504
 7665SOL    HW134457   4.642   3.875   5.193 -0.4885  0.9538  1.7506
 7665SOL    HW234458   4.614   3.994   5.115 -0.3935  0.5529 -0.0640
 7666SOL     OW34459   4.439   2.583   2.651  0.1488  0.1577 -0.1781
 7666SOL    HW134460   4.503   2.625   2.709  2.3743 -0.3496 -2.2319
 7666SOL    HW234461   4.458   2.490   2.663 -1.8240  0.2843  3.8475
 7667SOL     OW34462   4.146   1.860  15.693 -0.3577  0.0834  0.4360
 7667SOL    HW134463   4.187   1.813  15.765 -0.1396  0.5492  0.6222
 7667SOL    HW234464   4.066   1.892  15.733 -0.1493  1.3678 -0.1483
 7668SOL     OW34465   1.061   2.671  11.441  0.2556  0.2735 -0.0899
 7668SOL    HW134466   1.131   2.642  11.382  2.1831 -1.1520  2.8680
 7668SOL    HW234467   1.096   2.634  11.523  1.0075  0.1897 -0.4522
 7669SOL     OW34468   3.156   2.481   5.745 -0.0319 -0.2020 -0.6678
 7669SOL    HW134469   3.075   2.509   5.704  0.7259  1.1894 -1.2213
 7669SOL    HW234470   3.215   2.492   5.670  0.5212  0.5747 -0.1178
 7670SOL     OW34471   3.307   0.670   4.521  0.0062 -0.3785 -0.1713
 7670SOL    HW134472   3.246   0.621   4.576 -0.7169  2.3972  1.5290
 7670SOL    HW234473   3.240   0.696   4.458 -0.0955 -2.3458 -0.8736
 7671SOL     OW34474   2.527   3.293   7.863 -0.7330  0.0719 -0.2456
 7671SOL    HW134475   2.523   3.205   7.902 -1.6154  0.4776  0.5685
 7671SOL    HW234476   2.434   3.312   7.860 -0.5664  0.6961 -1.2726
 7672SOL     OW34477   3.667   2.611   0.944 -0.1374 -0.5277 -0.1212
 7672SOL    HW134478   3.754   2.602   0.906 -0.4095 -0.3384 -0.7825
 7672SOL    HW234479   3.673   2.623   1.039  0.8161 -0.9979 -0.1248
 7673SOL     OW34480   0.230   4.247   8.199 -0.4536 -0.1123 -0.4187
 7673SOL    HW134481   0.142   4.210   8.199  0.2316 -1.7702 -1.2767
 7673SOL    HW234482   0.249   4.255   8.105 -1.6339  2.3598 -0.4548
 7674SOL     OW34483   3.386   3.686   3.051  0.2188  0.4474  0.0695
 7674SOL    HW134484   3.464   3.635   3.074  0.6447  0.4190 -1.4342
 7674SOL    HW234485   3.336   3.625   2.998  0.4876  0.7814 -0.5694
 7675SOL     OW34486   3.307   1.940  11.223  0.3073  0.4265 -0.4886
 7675SOL    HW134487   3.298   1.865  11.165  0.0931 -1.6546  2.2134
 7675SOL    HW234488   3.315   1.900  11.310  1.5991  1.3189 -0.1909
 7676SOL     OW34489   0.081   2.252   4.201  0.0127 -0.2726  0.6118
 7676SOL    HW134490   0.008   2.286   4.254 -0.5379  1.1647 -1.0626
 7676SOL    HW234491   0.118   2.176   4.244  0.0317 -1.0166 -0.7157
 7677SOL     OW34492   0.082   2.015   6.857  0.1498  0.6008 -0.2901
 7677SOL    HW134493   0.174   2.008   6.883  0.3022 -0.5104 -1.1447
 7677SOL    HW234494   0.033   1.960   6.918  0.8100  0.3228 -0.0079
 7678SOL     OW34495   1.748   0.285   3.790  0.4063  0.3095  0.0774
 7678SOL    HW134496   1.842   0.268   3.780  0.3313 -1.2849  2.2117
 7678SOL    HW234497   1.757   0.348   3.861 -1.8119 -0.0499  0.6543
 7679SOL     OW34498   2.119   0.879   8.612 -0.5822 -0.1600  0.7517
 7679SOL    HW134499   2.065   0.909   8.686 -0.8133 -0.1587  0.5821
 7679SOL    HW234500   2.077   0.919   8.536 -0.1067  0.8851  1.0392
 7680SOL     OW34501   0.330   4.076  12.490 -0.0647  0.6795  0.4566
 7680SOL    HW134502   0.411   4.067  12.439 -0.6053  0.1996 -0.3103
 7680SOL    HW234503   0.364   4.093  12.578  1.8433  0.9513 -0.3262
 7681SOL     OW34504   0.782   2.984   3.146 -0.1993 -0.1668 -0.2459
 7681SOL    HW134505   0.807   2.953   3.059 -1.7252  1.5305 -1.2845
 7681SOL    HW234506   0.857   3.040   3.166 -0.7729  0.5309 -0.0659
 7682SOL     OW34507   3.866   2.573  16.882 -0.6662 -0.6032  0.5517
 7682SOL    HW134508   3.820   2.583  16.965  0.3390  0.4541  0.9836
 7682SOL    HW234509   3.844   2.651  16.831 -0.6967 -1.1247 -0.2352
 7683SOL     OW34510   4.078   2.904   3.637 -0.0609 -1.0500 -0.4102
 7683SOL    HW134511   4.003   2.957   3.664  0.6049  0.1893 -0.9895
 7683SOL    HW234512   4.052   2.883   3.547  0.2284 -1.0434 -0.4941
 7684SOL     OW34513   4.088   3.303   2.035 -0.1811 -0.2468  0.3137
 7684SOL    HW134514   4.104   3.367   2.104  1.5580  0.7890 -1.0543
 7684SOL    HW234515   4.091   3.366   1.963 -0.0346 -0.4059  0.1805
 7685SOL     OW34516   1.280   1.414  17.082  0.2152  0.6080 -0.0771
 7685SOL    HW134517   1.273   1.507  17.059  0.0214  0.6132  0.0022
 7685SOL    HW234518   1.372   1.410  17.106 -0.2243 -0.7193  1.3504
 7686SOL     OW34519   2.868   0.499   3.277 -0.1313  0.1387 -0.4152
 7686SOL    HW134520   2.837   0.582   3.241 -1.9292 -0.4585 -0.2352
 7686SOL    HW234521   2.807   0.437   3.238 -0.9586  1.2227 -0.8307
 7687SOL     OW34522   0.531   4.097   5.258 -0.6384 -0.1209 -0.0759
 7687SOL    HW134523   0.576   4.180   5.273 -1.5152  0.2267  0.6433
 7687SOL    HW234524   0.455   4.100   5.317 -1.1633  1.9037 -0.8575
 7688SOL     OW34525   0.615   1.036   6.678 -0.5091 -0.3451 -0.1900
 7688SOL    HW134526   0.687   1.017   6.737  1.0587  1.6527 -1.4382
 7688SOL    HW234527   0.622   1.132   6.673  0.0637 -0.3037  1.3144
 7689SOL     OW34528   2.583   2.172   4.094  0.1046 -0.0856  0.0164
 7689SOL    HW134529   2.610   2.188   4.004  1.6705  2.2263  0.8846
 7689SOL    HW234530   2.561   2.260   4.124 -2.5186 -0.8968  0.4610
 7690SOL     OW34531   3.533   0.750   6.897  0.2713 -0.6155 -0.4860
 7690SOL    HW134532   3.542   0.755   6.992  0.2025  0.2240 -0.5157
 7690SOL    HW234533   3.516   0.658   6.880 -1.9276  0.0076 -1.6680
 7691SOL     OW34534   2.327   0.910   7.702  0.5403  0.1976 -0.6666
 7691SOL    HW134535   2.281   0.865   7.631  0.5683  0.0803 -0.6091
 7691SOL    HW234536   2.269   0.884   7.773 -1.2801  1.3499 -1.7093
 7692SOL     OW34537   3.366   0.692   0.898  0.2754  0.2297  0.2716
 7692SOL    HW134538   3.363   0.719   0.990 -2.0427  1.0634 -0.0538
 7692SOL    HW234539   3.341   0.600   0.897 -0.4557  0.4097  2.6796
 7693SOL     OW34540   1.960   2.742   2.171 -0.1083  0.0607 -0.3980
 7693SOL    HW134541   1.963   2.787   2.255  0.4069 -1.8831  0.6075
 7693SOL    HW234542   2.015   2.667   2.194 -2.4816 -1.3880  0.5529
 7694SOL     OW34543   4.172   3.713  14.940  0.1763 -0.6631 -0.5128
 7694SOL    HW134544   4.248   3.731  14.996  0.7120 -3.2055 -0.3944
 7694SOL    HW234545   4.107   3.770  14.981 -0.5360 -1.6736 -0.2382
 7695SOL     OW34546   2.994   3.689  11.722 -0.2192 -0.6762  0.7821
 7695SOL    HW134547   2.952   3.770  11.692 -0.6958 -1.6230 -1.1285
 7695SOL    HW234548   3.067   3.698  11.660  0.7747  1.3089  2.2392
 7696SOL     OW34549   4.542   4.330   6.120  0.3206  0.2275 -0.4912
 7696SOL    HW134550   4.619   4.274   6.121 -1.4774 -2.2437 -1.3346
 7696SOL    HW234551   4.503   4.312   6.205  0.7606  0.5133 -0.2264
 7697SOL     OW34552   4.361   3.205   9.919  0.3260  0.5382  0.5364
 7697SOL    HW134553   4.428   3.203   9.987  0.8721  2.8808  0.0449
 7697SOL    HW234554   4.334   3.113   9.913  1.7767  0.0881  0.8746
 7698SOL     OW34555   3.437   2.257   9.559  0.3896 -0.8462 -0.2526
 7698SOL    HW134556   3.347   2.231   9.537 -0.1848  0.7816  0.1736
 7698SOL    HW234557   3.475   2.303   9.484  0.9822  0.1093  0.6459
 7699SOL     OW34558   0.544   1.692   8.068  0.2943  0.1653  0.4154
 7699SOL    HW134559   0.612   1.743   8.113 -0.0654  1.2344 -0.2609
 7699SOL    HW234560   0.479   1.762   8.063 -0.7315 -0.9128 -1.4176
 7700SOL     OW34561   4.331   1.635   9.089  0.0182 -0.2592  0.0109
 7700SOL    HW134562   4.295   1.581   9.019  0.9524 -0.2541 -0.4601
 7700SOL    HW234563   4.395   1.685   9.039  1.1745 -1.0240  0.7395
 7701SOL     OW34564   0.139   0.734   5.632  0.2260  0.5626 -0.0321
 7701SOL    HW134565   0.071   0.683   5.588  1.2624 -0.3686 -0.5808
 7701SOL    HW234566   0.166   0.789   5.558 -2.3621  1.1303 -0.5231
 7702SOL     OW34567   3.967   4.583   5.796  0.2047  0.2769  0.2951
 7702SOL    HW134568   3.904   4.623   5.735 -1.8864 -1.6304  1.2071
 7702SOL    HW234569   3.956   4.644   5.869  1.4795  1.7679 -0.7626
 7703SOL     OW34570   4.545   0.885   3.576  0.3038 -0.2635 -0.0688
 7703SOL    HW134571   4.492   0.837   3.512  0.9388  0.6981 -1.3056
 7703SOL    HW234572   4.567   0.815   3.638  0.9512 -0.9080 -1.0274
 7704SOL     OW34573   3.672   1.719   5.549  0.4281 -0.2040  0.2518
 7704SOL    HW134574   3.598   1.691   5.602 -0.1829 -1.3903 -1.2482
 7704SOL    HW234575   3.628   1.744   5.467  0.0920 -1.9412 -0.0880
 7705SOL     OW34576   2.851   3.738   5.995  0.2207 -0.1882 -0.8205
 7705SOL    HW134577   2.854   3.823   5.950 -2.1818  0.7272  0.7214
 7705SOL    HW234578   2.778   3.767   6.050  0.7984 -2.5492  1.1723
 7706SOL     OW34579   1.616   3.334  12.816  0.6777 -0.2245 -0.5345
 7706SOL    HW134580   1.642   3.313  12.726 -3.5349 -0.6578 -1.6276
 7706SOL    HW234581   1.685   3.312  12.878  1.5378 -0.0735 -1.4339
 7707SOL     OW34582   4.247   1.616   6.004  0.0631 -0.5883  0.1662
 7707SOL    HW134583   4.309   1.545   5.989 -1.0506 -1.8891  1.7649
 7707SOL    HW234584   4.300   1.693   5.982 -2.2153  0.4565 -1.6905
 7708SOL     OW34585   2.273   3.955   1.788 -0.3847 -0.0047 -0.5714
 7708SOL    HW134586   2.292   3.883   1.727  0.4843 -1.8863  1.9003
 7708SOL    HW234587   2.180   3.959   1.768 -0.1694  0.2443 -1.5539
 7709SOL     OW34588   4.471   2.019   8.785 -0.3047 -0.0871  0.3776
 7709SOL    HW134589   4.476   1.949   8.850  0.3159 -0.3310  0.0600
 7709SOL    HW234590   4.381   2.052   8.784 -0.6042 -0.8743  1.5226
 7710SOL     OW34591   2.110   3.317  10.117  0.1738  0.5770  0.6487
 7710SOL    HW134592   2.153   3.339  10.200  1.4843 -1.3876  0.4954
 7710SOL    HW234593   2.052   3.245  10.142 -0.1221  1.2328  1.8481
 7711SOL     OW34594   0.386   3.023   6.354 -0.7029 -0.6048 -0.0981
 7711SOL    HW134595   0.461   2.964   6.356 -0.8235 -0.8266 -1.8222
 7711SOL    HW234596   0.398   3.067   6.438  1.2934 -4.1944  1.4776
 7712SOL     OW34597   4.546   1.870   3.148  0.0381 -0.4288 -0.6765
 7712SOL    HW134598   4.613   1.936   3.128 -0.5579 -0.0869 -1.5293
 7712SOL    HW234599   4.574   1.807   3.081  0.5473 -0.0002 -0.8668
 7713SOL     OW34600   2.420   3.142   3.391 -0.6259 -0.1136 -0.2209
 7713SOL    HW134601   2.458   3.188   3.316 -2.7456  1.0682 -0.5786
 7713SOL    HW234602   2.363   3.207   3.433  0.3439 -0.0981  1.0725
 7714SOL     OW34603   2.861   2.041  12.627 -0.2208  0.1265  0.0774
 7714SOL    HW134604   2.916   2.017  12.553  2.6832  1.3917  1.8452
 7714SOL    HW234605   2.921   2.010  12.695  0.2821  1.0204  0.0407
 7715SOL     OW34606   0.063   0.589   2.342 -0.5053  1.0706 -0.4234
 7715SOL    HW134607   0.075   0.516   2.281 -1.9553 -1.2938  2.0981
 7715SOL    HW234608   4.700   0.626   2.317 -0.1298  2.3611  0.2369
 7716SOL     OW34609   0.797   0.187  14.724  0.1674  0.1474 -0.1348
 7716SOL    HW134610   0.742   0.192  14.802  0.0681  1.6887 -0.2950
 7716SOL    HW234611   0.731   0.200  14.655  1.1485  1.6027 -0.8057
 7717SOL     OW34612   2.460   2.865  10.306 -0.4936 -0.2846  0.2577
 7717SOL    HW134613   2.527   2.900  10.364 -1.1813  0.9288  0.3042
 7717SOL    HW234614   2.466   2.770  10.316 -0.4034 -0.3177 -0.1060
 7718SOL     OW34615   3.843   4.622   6.738  0.1008  0.1781 -0.9376
 7718SOL    HW134616   3.803   4.558   6.797 -0.3597 -0.9747 -2.4981
 7718SOL    HW234617   3.929   4.586   6.719 -0.4105 -1.2076 -0.6668
 7719SOL     OW34618   3.261   4.692   5.239 -0.0616  0.1462 -0.2778
 7719SOL    HW134619   3.318   0.033   5.194 -1.3289  1.7715  0.3657
 7719SOL    HW234620   3.218   4.643   5.169  1.5090  0.0287 -1.1446
 7720SOL     OW34621   4.253   2.672   6.814 -0.6179  0.2597  0.3171
 7720SOL    HW134622   4.287   2.662   6.903 -2.1316  2.8409  1.1643
 7720SOL    HW234623   4.189   2.602   6.807 -0.4231 -0.3551  4.6901
 7721SOL     OW34624   4.701   3.316   1.436  0.7085  0.6031 -0.0319
 7721SOL    HW134625   4.649   3.332   1.515  1.6243  1.0713  0.4785
 7721SOL    HW234626   4.660   3.244   1.388 -1.0316  1.3920  0.2780
 7722SOL     OW34627   2.283   3.574  11.834  0.0968 -0.1680  0.0353
 7722SOL    HW134628   2.349   3.530  11.780  0.2206 -0.5350  0.4857
 7722SOL    HW234629   2.316   3.564  11.923 -1.0479 -0.6204  0.4054
 7723SOL     OW34630   4.049   2.558   4.843 -0.0713  0.3618 -0.2113
 7723SOL    HW134631   4.113   2.624   4.868  1.0651 -1.1508  0.8292
 7723SOL    HW234632   3.981   2.567   4.909 -1.4606  1.2935 -1.7600
 7724SOL     OW34633   0.710   0.474  13.496  0.1354  0.2155 -0.0875
 7724SOL    HW134634   0.654   0.549  13.478  1.2120  1.4562  1.8573
 7724SOL    HW234635   0.692   0.469  13.590  0.2317 -0.5902 -0.1069
 7725SOL     OW34636   1.542   0.435   1.555 -0.1611 -0.4301  0.0125
 7725SOL    HW134637   1.570   0.526   1.543 -0.4445 -0.4994 -1.1421
 7725SOL    HW234638   1.589   0.404   1.478 -2.4680 -1.9848 -0.7336
 7726SOL     OW34639   2.622   2.917   5.603 -0.7374  0.6659 -0.2962
 7726SOL    HW134640   2.664   2.865   5.535  0.0810  2.9774 -1.5594
 7726SOL    HW234641   2.573   2.852   5.653  1.3945  0.3841  1.4292
 7727SOL     OW34642   3.237   3.174  14.348 -0.4404  0.1002  0.3779
 7727SOL    HW134643   3.146   3.204  14.358 -1.1761 -1.8287 -0.5455
 7727SOL    HW234644   3.263   3.151  14.437 -0.8372  1.4151  0.8319
 7728SOL     OW34645   0.461   2.715   3.905  0.4663 -0.5484 -0.2390
 7728SOL    HW134646   0.550   2.695   3.934  0.1121 -0.0773  1.1543
 7728SOL    HW234647   0.439   2.750   3.991 -0.2864 -3.5057  0.7867
 7729SOL     OW34648   2.782   3.226   8.511  0.3641 -0.3438 -0.2913
 7729SOL    HW134649   2.853   3.286   8.491  0.1935 -0.0601 -0.0361
 7729SOL    HW234650   2.712   3.271   8.464 -0.3224 -1.9340 -0.8021
 7730SOL     OW34651   3.400   0.527   5.367  0.3412  0.0472 -0.7228
 7730SOL    HW134652   3.325   0.486   5.325  1.4407 -2.1821 -0.5432
 7730SOL    HW234653   3.380   0.519   5.460 -0.2514 -2.9868 -1.0817
 7731SOL     OW34654   2.802   4.441   2.180  0.3956 -0.2215  0.3576
 7731SOL    HW134655   2.788   4.369   2.242 -1.8136 -0.1097 -0.0040
 7731SOL    HW234656   2.751   4.402   2.109  1.1004  1.8249 -1.2600
 7732SOL     OW34657   3.131   4.426   6.980 -0.0703 -0.0060 -0.1038
 7732SOL    HW134658   3.159   4.362   6.914  0.0435 -1.7158  1.6216
 7732SOL    HW234659   3.037   4.412   6.986  0.0362  0.8207  3.0449
 7733SOL     OW34660   2.664   0.482   3.475  0.9474  0.1533  0.2239
 7733SOL    HW134661   2.736   0.487   3.412 -2.3783 -0.3092 -3.6044
 7733SOL    HW234662   2.667   0.389   3.494 -0.8137 -0.3617 -2.0051
 7734SOL     OW34663   1.414   1.269  13.640  0.3619  0.1614 -0.6981
 7734SOL    HW134664   1.430   1.176  13.652  0.9193  0.2715 -0.5590
 7734SOL    HW234665   1.398   1.271  13.546 -1.2136 -0.8182 -0.4419
 7735SOL     OW34666   1.054   4.088   2.881 -0.3098  0.6458 -0.1548
 7735SOL    HW134667   1.031   4.010   2.929  1.2427  0.5848  0.5080
 7735SOL    HW234668   0.976   4.105   2.829  0.6856  0.7712 -1.6212
 7736SOL     OW34669   2.848   3.181   4.763  0.4674 -0.1172 -0.5216
 7736SOL    HW134670   2.910   3.237   4.716  1.4682 -1.7402 -1.1525
 7736SOL    HW234671   2.816   3.119   4.698  2.0045  0.8848 -2.2442
 7737SOL     OW34672   2.859   0.915   1.053 -0.3359  1.0148  0.0027
 7737SOL    HW134673   2.944   0.947   1.022  0.5161 -2.7405 -1.6556
 7737SOL    HW234674   2.860   0.822   1.030  1.1793  0.4709  2.2152
 7738SOL     OW34675   2.948   1.383   4.739 -0.2537 -0.3378 -0.4908
 7738SOL    HW134676   2.875   1.427   4.782  3.1673  2.6139  2.2709
 7738SOL    HW234677   3.005   1.455   4.712  0.6631 -0.0955  2.1226
 7739SOL     OW34678   1.845   1.392   4.663 -0.4043 -0.0814 -0.0674
 7739SOL    HW134679   1.926   1.341   4.667 -1.7713 -2.2245 -0.0008
 7739SOL    HW234680   1.805   1.362   4.581 -0.4613 -0.1128 -0.0279
 7740SOL     OW34681   0.143   2.534   2.969 -0.5437 -0.3960 -0.2096
 7740SOL    HW134682   0.178   2.619   2.996 -0.2633 -0.3456 -0.7463
 7740SOL    HW234683   0.091   2.558   2.893 -0.2088  1.3692  0.1101
 7741SOL     OW34684   4.451   3.565   5.016  0.0175 -0.1685  0.0101
 7741SOL    HW134685   4.541   3.595   5.007  0.7765 -2.0505  1.0833
 7741SOL    HW234686   4.427   3.586   5.106  1.9219  0.7576  0.2920
 7742SOL     OW34687   1.863   3.313  10.279  0.1348 -0.0575 -0.8270
 7742SOL    HW134688   1.857   3.239  10.339 -3.8612  0.6503 -0.3702
 7742SOL    HW234689   1.873   3.385  10.342  1.7126  0.4953 -1.7198
 7743SOL     OW34690   2.690   4.589  16.986 -0.6091  0.0433  0.5305
 7743SOL    HW134691   2.645   4.661  16.942  0.1120  1.3852  1.9772
 7743SOL    HW234692   2.693   4.521  16.919  0.7393 -0.6334  1.2760
 7744SOL     OW34693   3.393   0.069  16.167  0.4699  0.8271  0.0556
 7744SOL    HW134694   3.421   0.002  16.230 -2.2364  0.8150  1.2450
 7744SOL    HW234695   3.437   0.040  16.087  2.0156 -0.7598  1.4663
 7745SOL     OW34696   2.322   2.149   7.610  0.6037  0.0383  0.4517
 7745SOL    HW134697   2.382   2.086   7.651  0.8552 -0.5989 -0.9016
 7745SOL    HW234698   2.271   2.180   7.685  2.4635  1.5560  1.1071
 7746SOL     OW34699   1.486   4.220   5.655  0.1222 -0.2022  0.2721
 7746SOL    HW134700   1.491   4.258   5.567  2.2297  2.2926  1.4796
 7746SOL    HW234701   1.392   4.207   5.666 -0.4639  1.3505 -2.9579
 7747SOL     OW34702   0.968   1.949   3.181 -0.1148 -0.1183 -0.0793
 7747SOL    HW134703   1.045   1.969   3.128 -0.6395  0.6544 -0.5561
 7747SOL    HW234704   0.944   1.869   3.133 -2.0403  0.2417  0.2664
 7748SOL     OW34705   1.937   3.523  14.736  0.1161  0.1167 -0.3373
 7748SOL    HW134706   1.950   3.448  14.678  1.1372 -0.1695  0.2689
 7748SOL    HW234707   1.852   3.506  14.778  0.3992 -0.9667 -0.2017
 7749SOL     OW34708   3.157   2.677   3.769 -0.2398  0.1042 -0.2480
 7749SOL    HW134709   3.151   2.710   3.679  1.7410  1.1951  0.0269
 7749SOL    HW234710   3.207   2.598   3.749 -0.1292  0.5687 -1.8112
 7750SOL     OW34711   3.913   3.980   2.742  0.6060  0.2807 -0.4155
 7750SOL    HW134712   3.918   4.070   2.772 -0.8040  0.6263 -1.1926
 7750SOL    HW234713   3.818   3.988   2.734  0.3510 -2.3282 -0.0659
 7751SOL     OW34714   3.394   0.280  16.645  0.1895  0.0831  0.3249
 7751SOL    HW134715   3.369   0.193  16.614 -1.4100  0.5447  0.3060
 7751SOL    HW234716   3.473   0.306  16.598  0.4779  0.0388  0.7865
 7752SOL     OW34717   2.261   0.798   8.957  0.1105 -0.1145 -0.0734
 7752SOL    HW134718   2.193   0.863   8.944 -2.2465 -2.8157 -1.1486
 7752SOL    HW234719   2.231   0.756   9.037  2.2268  0.3741  0.9901
 7753SOL     OW34720   3.002   0.384  13.717 -0.1007 -0.3859  0.6417
 7753SOL    HW134721   3.047   0.435  13.784  0.8241 -1.5602  0.9204
 7753SOL    HW234722   3.073   0.347  13.665 -0.3338 -0.5526  0.4419
 7754SOL     OW34723   1.109   4.244   8.062 -0.4548 -0.2526 -0.0421
 7754SOL    HW134724   1.144   4.318   8.012 -0.4753 -0.9720 -1.1121
 7754SOL    HW234725   1.082   4.287   8.143 -4.1553 -0.7624 -1.0057
 7755SOL     OW34726   0.387   2.237  16.280 -0.4730 -0.0119 -0.3204
 7755SOL    HW134727   0.333   2.293  16.223 -0.4520  2.9474  2.5527
 7755SOL    HW234728   0.375   2.283  16.363  0.2407  2.4461 -1.5590
 7756SOL     OW34729   4.268   4.691   6.016 -0.1466 -0.3577  0.6240
 7756SOL    HW134730   4.267   4.655   6.105 -1.1712  0.6867  1.0163
 7756SOL    HW234731   4.361   4.685   5.994 -0.8524  1.2247 -2.7558
 7757SOL     OW34732   4.200   2.553   6.006 -0.4217 -0.6623 -1.3761
 7757SOL    HW134733   4.202   2.560   5.910 -1.8266  0.0971 -1.3408
 7757SOL    HW234734   4.140   2.481   6.023  2.3611 -2.5377  0.4917
 7758SOL     OW34735   1.265   0.129   2.499  0.6512  0.3841  0.2689
 7758SOL    HW134736   1.247   0.150   2.591 -1.6605  0.9070 -0.3027
 7758SOL    HW234737   1.267   0.034   2.501  2.3837  0.4280  0.6841
 7759SOL     OW34738   3.705   0.991   8.486  0.2021 -0.2651 -0.5713
 7759SOL    HW134739   3.701   0.900   8.516  0.2818 -0.4744 -1.2096
 7759SOL    HW234740   3.769   0.980   8.416  2.2966  0.6931  1.1921
 7760SOL     OW34741   4.239   2.219   7.313  0.3594 -0.7342  0.2037
 7760SOL    HW134742   4.264   2.127   7.321 -0.4828 -0.9491  0.2968
 7760SOL    HW234743   4.147   2.221   7.340  0.1295  2.0806 -0.7934
 7761SOL     OW34744   1.947   4.569  10.712 -0.2160 -0.3120 -0.2390
 7761SOL    HW134745   1.976   4.635  10.774 -0.2765 -0.6690  0.1688
 7761SOL    HW234746   2.006   4.499  10.739  0.0817  0.8181  1.9980
 7762SOL     OW34747   0.563   3.003  12.323 -0.2519  0.6069  0.1525
 7762SOL    HW134748   0.639   2.971  12.373  1.5756  4.2519 -0.2761
 7762SOL    HW234749   0.493   3.005  12.388  1.6144 -0.2641  2.1933
 7763SOL     OW34750   2.759   3.864  11.736 -0.1126  0.0852 -0.6872
 7763SOL    HW134751   2.787   3.939  11.788 -1.1932 -0.0255  0.0794
 7763SOL    HW234752   2.699   3.901  11.672  0.9525  1.9054 -0.6096
 7764SOL     OW34753   4.380   0.708   8.160  0.5540  0.1854 -0.1853
 7764SOL    HW134754   4.415   0.797   8.162  1.9520 -0.3421 -1.2328
 7764SOL    HW234755   4.448   0.652   8.121 -0.0451 -1.1679  0.7303
 7765SOL     OW34756   2.984   3.084  11.318 -0.1691  0.4718 -0.2338
 7765SOL    HW134757   3.039   3.162  11.309  0.0372  0.4936  1.1111
 7765SOL    HW234758   3.014   3.060  11.406  1.9775  0.8163 -0.8509
 7766SOL     OW34759   0.780   3.951   8.316  0.2719  0.2172  0.1115
 7766SOL    HW134760   0.860   3.984   8.356  1.7511 -0.6895 -2.1445
 7766SOL    HW234761   0.746   4.038   8.294  0.3014  0.3394  0.5474
 7767SOL     OW34762   2.529   0.085   7.724 -0.0673 -0.3697 -0.0135
 7767SOL    HW134763   2.514   0.026   7.798  1.1516  0.3065  0.7819
 7767SOL    HW234764   2.460   0.147   7.745 -0.1371 -0.2239 -0.6956
 7768SOL     OW34765   3.185   3.292   3.315 -0.1444 -0.3355  0.3865
 7768SOL    HW134766   3.236   3.278   3.235 -0.8792 -1.5216  0.1256
 7768SOL    HW234767   3.100   3.313   3.277  1.0996  0.3089 -2.0359
 7769SOL     OW34768   3.775   1.728   4.502  0.6876  0.0285 -0.7756
 7769SOL    HW134769   3.845   1.758   4.444  1.5371  0.5517  0.5257
 7769SOL    HW234770   3.710   1.689   4.443 -0.3420 -0.5399  0.7247
 7770SOL     OW34771   2.374   4.231  16.172 -0.1931 -0.5857  0.4051
 7770SOL    HW134772   2.404   4.145  16.143  0.6125 -0.0706 -0.2632
 7770SOL    HW234773   2.387   4.228  16.266  0.5648  1.1876  0.3622
 7771SOL     OW34774   4.527   3.907   3.458  0.2790  0.2273  0.0102
 7771SOL    HW134775   4.527   3.983   3.515  3.1094 -0.7970  1.4221
 7771SOL    HW234776   4.501   3.848   3.528  3.0128 -0.7873  0.1700
 7772SOL     OW34777   2.124   0.877  13.798  0.2733 -0.1864  0.5236
 7772SOL    HW134778   2.076   0.932  13.735 -1.8249  1.4505  3.5931
 7772SOL    HW234779   2.146   0.940  13.867 -0.6619 -0.2629  0.8804
 7773SOL     OW34780   2.785   1.073  12.445  0.4265  0.4276  0.4716
 7773SOL    HW134781   2.732   1.133  12.497  1.1691  1.2803  0.2416
 7773SOL    HW234782   2.722   1.003  12.429  1.9398 -0.8177  0.0182
 7774SOL     OW34783   2.393   0.051   1.538  0.0511  0.2620  0.0171
 7774SOL    HW134784   2.452   0.126   1.535  0.5603 -0.0861  1.0547
 7774SOL    HW234785   2.357   0.046   1.449  0.5631 -0.4392 -0.1528
 7775SOL     OW34786   1.983   3.124  17.234  0.1248  0.0394 -0.1608
 7775SOL    HW134787   1.963   3.204  17.187  1.0191  0.8243  0.7996
 7775SOL    HW234788   1.917   3.118  17.303 -0.1735  3.2460 -0.1823
 7776SOL     OW34789   0.242   3.512   4.049 -0.0771 -0.2395  0.1793
 7776SOL    HW134790   0.221   3.427   4.088 -0.2647  0.0404  0.6921
 7776SOL    HW234791   0.234   3.490   3.956 -0.9400  1.1302 -0.0712
 7777SOL     OW34792   4.055   2.010  17.446  0.2718  0.2333 -0.5791
 7777SOL    HW134793   4.018   1.930  17.484  1.7768  0.0234  0.4558
 7777SOL    HW234794   4.119   2.027  17.514  0.7993  0.0728 -1.0409
 7778SOL     OW34795   4.220   1.186  11.092  0.8406 -0.2746  0.2856
 7778SOL    HW134796   4.289   1.250  11.107 -0.2596  0.4445  2.2861
 7778SOL    HW234797   4.167   1.175  11.172 -2.0051  0.4460 -1.4927
 7779SOL     OW34798   1.863   2.286   6.722 -0.3279 -0.8804  0.5346
 7779SOL    HW134799   1.831   2.209   6.675 -0.5526  0.5952 -1.6869
 7779SOL    HW234800   1.873   2.343   6.646 -2.2009 -0.8200  0.3407
 7780SOL     OW34801   1.887   1.863   1.360  0.1916 -0.2851  0.5126
 7780SOL    HW134802   1.820   1.867   1.292 -1.4933 -0.9933  2.1411
 7780SOL    HW234803   1.838   1.812   1.424  0.9717  0.1557  1.4615
 7781SOL     OW34804   3.326   3.034   7.705 -0.3766 -0.1612  0.2365
 7781SOL    HW134805   3.313   2.939   7.698  0.1394 -0.3913  2.6667
 7781SOL    HW234806   3.289   3.049   7.618  0.3526  1.8588  0.2747
 7782SOL     OW34807   4.121   4.138   5.031  0.2675 -0.1905  0.4524
 7782SOL    HW134808   4.181   4.087   5.085  2.2743 -1.0115 -2.5880
 7782SOL    HW234809   4.085   4.065   4.981  0.6567 -0.7339  0.9525
 7783SOL     OW34810   4.553   0.986   7.091 -0.0479 -0.5018 -0.2340
 7783SOL    HW134811   4.528   1.077   7.078 -0.2770 -0.3120  1.4989
 7783SOL    HW234812   4.599   0.959   7.012  0.4930  0.5931 -0.2895
 7784SOL     OW34813   3.094   1.685   7.833 -0.1783  0.2660  0.1670
 7784SOL    HW134814   3.017   1.731   7.800 -0.4047  1.1400  1.9237
 7784SOL    HW234815   3.070   1.661   7.922  1.5579  0.0088  0.5625
 7785SOL     OW34816   3.555   2.567   7.624 -0.3332 -0.1415 -0.0445
 7785SOL    HW134817   3.566   2.653   7.666  0.3114  0.4538 -1.4290
 7785SOL    HW234818   3.633   2.571   7.570 -0.3311 -0.8916 -0.0953
 7786SOL     OW34819   2.609   2.273   5.519  0.1374 -0.5481 -0.4478
 7786SOL    HW134820   2.516   2.265   5.539 -0.2224  2.0056 -1.1088
 7786SOL    HW234821   2.649   2.190   5.545  0.1406 -0.1596  0.7572
 7787SOL     OW34822   2.832   4.409   2.546 -0.0021  0.1768 -0.1601
 7787SOL    HW134823   2.778   4.360   2.485 -1.4911 -0.1847  1.4483
 7787SOL    HW234824   2.810   4.369   2.631  1.5630  0.9292  0.6057
 7788SOL     OW34825   1.493   2.267  14.654  0.5300  0.1765 -0.6362
 7788SOL    HW134826   1.555   2.203  14.618 -0.7999 -1.7207  0.4549
 7788SOL    HW234827   1.543   2.345  14.630  0.0238  1.0713  1.2217
 7789SOL     OW34828   1.768   1.252   4.330  0.0057 -1.0678 -1.0321
 7789SOL    HW134829   1.718   1.233   4.251  0.2962  0.9388 -1.6874
 7789SOL    HW234830   1.849   1.213   4.296  0.7847 -0.3276 -0.0051
 7790SOL     OW34831   2.322   4.204   6.933 -0.2211  0.2713  0.1980
 7790SOL    HW134832   2.298   4.297   6.937 -2.6460 -0.3203 -1.3051
 7790SOL    HW234833   2.293   4.175   7.019  0.3292 -0.1524  0.2398
 7791SOL     OW34834   2.580   4.413   5.773  0.3058 -0.0871  0.2071
 7791SOL    HW134835   2.528   4.365   5.837  0.8077 -0.5762  0.2504
 7791SOL    HW234836   2.547   4.370   5.694 -0.3003 -1.1487  1.0385
 7792SOL     OW34837   3.154   1.546   3.053 -0.4593 -0.2168  1.0318
 7792SOL    HW134838   3.222   1.491   3.015  0.1834  1.1510  0.2497
 7792SOL    HW234839   3.076   1.490   3.059  0.5535 -1.9676 -2.0762
 7793SOL     OW34840   0.072   4.218   0.165  0.0043  0.3376  0.2512
 7793SOL    HW134841   4.708   4.224   0.122  0.5463 -1.9945 -1.1662
 7793SOL    HW234842   0.105   4.132   0.138  0.7394  1.1518 -1.4979
 7794SOL     OW34843   4.319   0.141  12.525  0.4071  0.3534 -0.4173
 7794SOL    HW134844   4.387   0.145  12.593  1.4846  2.1153 -1.5936
 7794SOL    HW234845   4.278   0.058  12.548 -0.6665  1.4205  1.4965
 7795SOL     OW34846   4.610   1.740  15.460 -0.1620  0.4209  0.2134
 7795SOL    HW134847   4.633   1.833  15.456 -1.9240  0.8570  0.3054
 7795SOL    HW234848   4.580   1.726  15.550  0.2929  0.8375  0.4349
 7796SOL     OW34849   1.597   0.044   8.635 -0.1849 -0.2976  0.0206
 7796SOL    HW134850   1.660   0.086   8.693  1.4057 -1.2644 -1.0016
 7796SOL    HW234851   1.601   4.676   8.666  1.5355  0.4393  1.9164
 7797SOL     OW34852   0.656   3.202   8.914  0.9008  0.0746 -0.5001
 7797SOL    HW134853   0.642   3.107   8.915 -2.5151  0.5869 -0.6248
 7797SOL    HW234854   0.657   3.220   9.007 -1.0528  1.2419 -0.7001
 7798SOL     OW34855   2.077   0.955   4.532  0.0552  0.1379 -0.2574
 7798SOL    HW134856   1.992   0.933   4.495  0.1544 -2.2556  0.9872
 7798SOL    HW234857   2.094   1.029   4.473  0.0635  0.2340 -0.1341
 7799SOL     OW34858   0.016   4.144   5.095 -0.0663 -0.0601  0.1157
 7799SOL    HW134859   0.018   4.196   5.175  1.2657  1.4584 -0.8980
 7799SOL    HW234860   0.076   4.193   5.038 -0.3210  1.5228  1.2335
 7800SOL     OW34861   3.130   0.907   9.635 -0.0602 -0.9606  0.0014
 7800SOL    HW134862   3.047   0.945   9.607 -0.7137 -1.2378  1.5239
 7800SOL    HW234863   3.154   0.974   9.700  1.6644  0.8369 -2.5150
 7801SOL     OW34864   1.027   1.333  16.943  0.3413 -0.1840 -0.1615
 7801SOL    HW134865   1.101   1.376  16.985  0.2910 -1.7874  1.5532
 7801SOL    HW234866   1.011   1.402  16.878  1.5909 -0.7957 -1.1426
 7802SOL     OW34867   4.355   1.119   2.003 -0.8972  0.2209  0.3679
 7802SOL    HW134868   4.337   1.172   1.925 -1.1093 -0.9087 -0.3522
 7802SOL    HW234869   4.433   1.158   2.043  1.1995 -2.3373 -1.2010
 7803SOL     OW34870   2.074   2.533   4.160 -0.2689 -0.0256 -0.0524
 7803SOL    HW134871   1.997   2.562   4.209  0.2299 -0.5622  1.0524
 7803SOL    HW234872   2.047   2.567   4.075 -0.2763  1.7989  0.6670
 7804SOL     OW34873   3.032   3.208   7.804 -0.2355 -0.2873  0.1158
 7804SOL    HW134874   3.014   3.255   7.723  0.1940 -0.2414  0.0486
 7804SOL    HW234875   3.015   3.117   7.777 -1.2129 -0.2448  0.5865
 7805SOL     OW34876   1.857   2.829   6.018  0.3587 -0.3016  0.4194
 7805SOL    HW134877   1.831   2.913   6.057  2.3141 -0.1658  1.4037
 7805SOL    HW234878   1.814   2.828   5.932  1.3874  0.7527 -0.1147
 7806SOL     OW34879   3.131   3.996   5.042  0.0062 -0.4187  0.0320
 7806SOL    HW134880   3.090   3.985   4.956 -1.5288 -0.6312  0.7764
 7806SOL    HW234881   3.080   3.938   5.099 -0.5073 -0.3205 -0.3189
 7807SOL     OW34882   1.368   0.017   1.000  0.0962 -0.6397  0.1731
 7807SOL    HW134883   1.297   0.041   1.059 -0.7001 -2.4292 -0.0495
 7807SOL    HW234884   1.319   4.721   0.920 -1.0950  1.2118  0.4906
 7808SOL     OW34885   1.629   3.956   0.987 -0.7996  0.2110 -0.2526
 7808SOL    HW134886   1.699   3.892   0.973  0.8584  1.5143  2.0125
 7808SOL    HW234887   1.614   3.933   1.079 -1.1846 -2.2150 -0.9242
 7809SOL     OW34888   2.627   1.874   3.816  0.1156  0.4006 -0.7125
 7809SOL    HW134889   2.572   1.851   3.741  0.1304  2.9404 -1.4794
 7809SOL    HW234890   2.564   1.840   3.880  1.8138  1.0661  1.3221
 7810SOL     OW34891   1.235   3.274   2.146  0.3651  0.3551  0.1263
 7810SOL    HW134892   1.171   3.234   2.087 -0.4567  0.7941  0.7088
 7810SOL    HW234893   1.200   3.362   2.132  1.5684  1.0602  1.5578
 7811SOL     OW34894   0.323   3.941   4.211 -0.0086  0.4226  0.0783
 7811SOL    HW134895   0.399   3.899   4.252 -0.2969 -0.1649  0.0101
 7811SOL    HW234896   0.336   3.928   4.117 -0.9247 -1.3709  0.1871
 7812SOL     OW34897   4.573   3.031   8.942 -0.3817  0.0919  0.3697
 7812SOL    HW134898   4.545   3.000   9.029 -2.6953 -0.2236 -0.4668
 7812SOL    HW234899   4.643   3.092   8.965 -1.1155  1.7379 -1.8029
 7813SOL     OW34900   3.711   3.004   4.499  0.4652  0.4854  0.5654
 7813SOL    HW134901   3.770   3.074   4.527  3.1681 -1.0064 -1.3300
 7813SOL    HW234902   3.641   3.021   4.562  0.5635  1.3591  0.4395
 7814SOL     OW34903   1.682   1.761  15.706  0.0054  0.5510 -0.3850
 7814SOL    HW134904   1.686   1.851  15.738  2.0882  0.1504  0.4871
 7814SOL    HW234905   1.595   1.731  15.733 -0.0267 -0.1883 -1.3098
 7815SOL     OW34906   1.285   0.783   8.519 -0.4594 -0.1905 -0.0835
 7815SOL    HW134907   1.372   0.778   8.481 -0.9061  0.2347 -1.1537
 7815SOL    HW234908   1.237   0.742   8.448 -0.2616  0.0885 -0.3773
 7816SOL     OW34909   2.677   4.053   7.471 -0.5630 -0.0026  0.2982
 7816SOL    HW134910   2.590   4.015   7.462 -0.0510 -1.2722  0.6900
 7816SOL    HW234911   2.685   4.078   7.563  1.5902 -1.4948  0.5316
 7817SOL     OW34912   0.029   1.632  16.311  0.3368  0.8566  0.4314
 7817SOL    HW134913   0.098   1.623  16.245 -0.0058 -1.5153  0.4138
 7817SOL    HW234914   0.076   1.638  16.394  1.2186 -0.9503  0.0690
 7818SOL     OW34915   3.800   4.303   3.428 -0.1624  0.4112 -0.3283
 7818SOL    HW134916   3.752   4.226   3.395  1.0902 -0.7552  0.5710
 7818SOL    HW234917   3.891   4.291   3.403 -0.4503 -2.2735 -0.1122
 7819SOL     OW34918   3.871   2.615   8.169  0.1838 -0.4220  0.0699
 7819SOL    HW134919   3.952   2.642   8.127 -0.7825  3.5591  0.7805
 7819SOL    HW234920   3.868   2.520   8.164  0.7328 -0.4965  1.1948
 7820SOL     OW34921   3.403   1.522   6.444 -0.1631 -0.7928 -0.2785
 7820SOL    HW134922   3.433   1.558   6.528 -1.2911  0.0393 -0.2277
 7820SOL    HW234923   3.488   1.526   6.401  0.7057  2.5197  1.7486
 7821SOL     OW34924   1.411   3.863   1.383 -0.3865 -0.2462 -0.0483
 7821SOL    HW134925   1.404   3.813   1.301  0.5133  1.6769 -1.2903
 7821SOL    HW234926   1.491   3.913   1.367 -0.1767 -0.8720 -0.9339
 7822SOL     OW34927   2.091   2.410   7.123  0.0138  0.1548 -0.2399
 7822SOL    HW134928   2.156   2.470   7.159  1.3396 -1.7504  0.5501
 7822SOL    HW234929   2.071   2.356   7.199  0.1974 -0.2906 -0.5053
 7823SOL     OW34930   2.613   4.453   3.413  0.0642  0.2065 -0.3242
 7823SOL    HW134931   2.656   4.526   3.458 -2.7351  1.3702  0.4559
 7823SOL    HW234932   2.687   4.399   3.384 -0.3799  1.2455 -3.3866
 7824SOL     OW34933   4.303   4.602   2.840 -0.0264 -0.1537  0.0741
 7824SOL    HW134934   4.387   4.565   2.869  0.2119  1.2948  1.2551
 7824SOL    HW234935   4.285   4.671   2.904  3.3787 -0.5138  1.4240
 7825SOL     OW34936   0.629   1.415   3.326 -0.1859  0.6099  0.2639
 7825SOL    HW134937   0.649   1.509   3.326  0.9530  0.3635  0.7298
 7825SOL    HW234938   0.536   1.411   3.303 -0.3637 -0.5482  1.1705
 7826SOL     OW34939   0.243   1.174   9.060  0.0427 -0.0699 -0.0715
 7826SOL    HW134940   0.230   1.239   8.991 -1.2259  0.1346  0.3532
 7826SOL    HW234941   0.177   1.211   9.120 -0.9235 -0.3985 -0.9372
 7827SOL     OW34942   2.872   1.332   2.810 -0.0989 -0.7042 -0.3649
 7827SOL    HW134943   2.838   1.398   2.749  2.2205  0.5811 -0.2635
 7827SOL    HW234944   2.851   1.255   2.757 -0.8930 -1.1121  0.5306
 7828SOL     OW34945   1.735   2.143   5.908  0.8033  0.5818 -0.3232
 7828SOL    HW134946   1.708   2.053   5.893 -0.2314  1.0128 -1.0875
 7828SOL    HW234947   1.762   2.136   5.999 -0.0907 -1.4768 -0.2225
 7829SOL     OW34948   2.811   2.401   2.937  0.1848  0.2462 -0.2599
 7829SOL    HW134949   2.763   2.466   2.885 -1.6334  0.9409  2.2671
 7829SOL    HW234950   2.810   2.325   2.880  1.0303 -0.1539  0.2571
 7830SOL     OW34951   3.121   0.623   5.749  0.0176 -0.0346 -0.1053
 7830SOL    HW134952   3.077   0.675   5.816 -0.1302  0.7327 -0.8052
 7830SOL    HW234953   3.077   0.538   5.757  1.9043 -0.8115  2.1324
 7831SOL     OW34954   0.625   1.077   3.439 -0.0480  0.8489  0.3852
 7831SOL    HW134955   0.679   1.008   3.478  0.1021  1.5052  1.3422
 7831SOL    HW234956   0.540   1.036   3.427  0.8936 -0.9806  0.0149
 7832SOL     OW34957   0.669   2.616  12.647 -0.1455  0.1143 -0.4646
 7832SOL    HW134958   0.583   2.577  12.659 -0.5846  0.9594 -0.8668
 7832SOL    HW234959   0.704   2.559  12.578  0.4908  1.0620 -0.9272
 7833SOL     OW34960   1.934   0.583  14.441  0.5875 -0.0636 -0.4871
 7833SOL    HW134961   1.891   0.532  14.509 -2.2299  0.9795 -1.4814
 7833SOL    HW234962   1.970   0.506  14.396 -0.6833 -0.9102 -0.0512
 7834SOL     OW34963   1.034   0.489   3.808  0.2668 -0.0527  0.1538
 7834SOL    HW134964   0.951   0.443   3.825 -1.6936  3.1738 -0.6203
 7834SOL    HW234965   1.002   0.579   3.822  0.2360  0.2360 -1.7901
 7835SOL     OW34966   3.837   1.532  15.483  0.0375  0.2156 -0.0612
 7835SOL    HW134967   3.921   1.539  15.529 -0.7742  1.9847  1.1300
 7835SOL    HW234968   3.812   1.624  15.480 -1.0099 -0.0588  0.2427
 7836SOL     OW34969   2.925   4.300  16.308  0.1068  0.5259  0.1610
 7836SOL    HW134970   2.918   4.370  16.243 -0.5777  1.2509  1.0158
 7836SOL    HW234971   2.920   4.219  16.257  0.6966  0.6137 -0.0318
 7837SOL     OW34972   2.184   0.426   2.869  0.4814  0.0817  0.2900
 7837SOL    HW134973   2.161   0.517   2.890  0.4423  0.3787 -1.0147
 7837SOL    HW234974   2.278   0.419   2.886  0.2352  0.8820  1.9742
 7838SOL     OW34975   3.754   4.264   2.793  0.4078 -0.2832  0.3973
 7838SOL    HW134976   3.809   4.253   2.871  1.1170 -1.5994 -0.2882
 7838SOL    HW234977   3.678   4.211   2.817  0.2039  1.0307  2.7924
 7839SOL     OW34978   1.941   0.591  11.933  0.1144  0.3185  0.0959
 7839SOL    HW134979   1.886   0.519  11.966  0.1345  0.8341  1.2463
 7839SOL    HW234980   1.999   0.549  11.869 -0.2979  1.1360 -0.8149
 7840SOL     OW34981   4.334   1.476   4.055 -0.0763 -1.1336 -0.4574
 7840SOL    HW134982   4.374   1.402   4.008 -0.4943 -0.6132 -1.6338
 7840SOL    HW234983   4.416   1.511   4.089  0.4814 -3.3913  0.5183
 7841SOL     OW34984   0.570   2.649   9.007  0.4724  0.5952  0.2717
 7841SOL    HW134985   0.628   2.594   8.953  1.9638  1.3630  1.0911
 7841SOL    HW234986   0.637   2.659   9.075 -0.3905  1.4354  0.9880
 7842SOL     OW34987   3.987   2.741   0.012 -0.1912  0.3247  0.1810
 7842SOL    HW134988   3.912   2.744   0.073 -0.5390  0.7562 -0.2684
 7842SOL    HW234989   4.021   2.658   0.046  0.2472 -0.2881 -1.7955
 7843SOL     OW34990   0.448   0.122   2.030 -0.0010 -0.1214  0.0440
 7843SOL    HW134991   0.492   0.123   1.944  1.5316 -0.5128  0.8181
 7843SOL    HW234992   0.517   0.137   2.094 -0.5039 -1.2579  0.8516
 7844SOL     OW34993   2.259   1.192   6.410 -0.4453  0.5748 -0.0593
 7844SOL    HW134994   2.174   1.165   6.374 -0.6278 -2.4886  2.6939
 7844SOL    HW234995   2.286   1.119   6.466  1.8487  0.3295 -1.4811
 7845SOL     OW34996   0.891   4.582   4.894 -0.6484  0.3786  0.0260
 7845SOL    HW134997   0.865   4.504   4.941 -1.1611  0.2213 -0.5186
 7845SOL    HW234998   0.976   4.601   4.934  0.3590 -1.4279 -1.2482
 7846SOL     OW34999   1.638   1.577   3.127  0.4449 -0.2097  0.2311
 7846SOL    HW135000   1.589   1.561   3.047 -0.0346  0.0941  0.4654
 7846SOL    HW235001   1.689   1.656   3.106  0.8982 -0.5370  0.0908
 7847SOL     OW35002   3.631   3.132   2.110 -0.2810  0.0845  0.1629
 7847SOL    HW135003   3.555   3.108   2.058  1.1147 -0.5957 -1.5610
 7847SOL    HW235004   3.647   3.052   2.160  0.6805 -1.0107 -1.9097
 7848SOL     OW35005   2.942   0.149   3.478 -0.3391  0.4767  0.2808
 7848SOL    HW135006   2.875   0.082   3.468  1.8654 -1.9261  1.5526
 7848SOL    HW235007   2.900   0.208   3.540  0.6705 -0.6150  2.0043
 7849SOL     OW35008   1.933   4.378   6.596  0.0701 -0.0871 -0.2996
 7849SOL    HW135009   1.998   4.375   6.666  0.5886  1.1066 -0.7304
 7849SOL    HW235010   1.983   4.420   6.525  1.1838 -1.3255 -0.2399
 7850SOL     OW35011   4.658   4.391  14.807  0.1910 -0.4262 -0.0003
 7850SOL    HW135012   4.687   4.306  14.843 -0.3852 -0.5129  0.2543
 7850SOL    HW235013   4.610   4.433  14.878 -2.4561 -3.2265 -0.1511
 7851SOL     OW35014   0.661   2.973  15.334 -0.2926  0.3209 -0.0466
 7851SOL    HW135015   0.717   2.922  15.277 -0.0472 -1.5791  1.9131
 7851SOL    HW235016   0.599   2.904  15.358  0.9310 -0.8985 -0.4235
 7852SOL     OW35017   2.975   3.968   2.865  0.1653 -0.3106 -0.4943
 7852SOL    HW135018   2.917   4.006   2.931 -1.0818 -2.1963 -0.5194
 7852SOL    HW235019   3.049   4.027   2.880  0.3359 -1.0641  1.5127
 7853SOL     OW35020   0.625   1.507   6.121  0.2879 -0.1979  0.0974
 7853SOL    HW135021   0.589   1.444   6.059  1.0752 -1.9771  1.4551
 7853SOL    HW235022   0.605   1.591   6.079  1.0892  0.6512  1.4220
 7854SOL     OW35023   2.606   0.144  14.666 -0.2690  0.4605 -0.1218
 7854SOL    HW135024   2.578   0.054  14.648  1.6181 -0.2188  0.3439
 7854SOL    HW235025   2.536   0.174  14.723 -1.2966 -2.9003  0.3245
 7855SOL     OW35026   3.073   3.531   2.419 -0.0665  0.0638 -0.0541
 7855SOL    HW135027   3.016   3.606   2.432 -2.2631 -1.5281 -0.5933
 7855SOL    HW235028   3.154   3.583   2.416 -0.2337  0.2505 -1.3208
 7856SOL     OW35029   1.403   1.191   1.139 -0.4228  0.1569 -0.4844
 7856SOL    HW135030   1.377   1.265   1.084 -1.0983 -0.0942 -0.4992
 7856SOL    HW235031   1.486   1.219   1.180 -0.0753 -1.2691 -0.2215
 7857SOL     OW35032   1.263   3.258  12.574  0.0802 -0.1518  0.0235
 7857SOL    HW135033   1.245   3.338  12.623 -1.3666 -0.8126  0.5691
 7857SOL    HW235034   1.295   3.200  12.643  0.9223  3.1847  2.3935
 7858SOL     OW35035   1.499   3.641  17.670  0.3130 -0.1604 -0.0405
 7858SOL    HW135036   1.588   3.657  17.638  0.5126  1.1898  1.1768
 7858SOL    HW235037   1.443   3.636  17.593  3.3533  1.5167 -2.3207
 7859SOL     OW35038   0.216   4.667   0.714  0.4240  0.1565  0.4330
 7859SOL    HW135039   0.296   4.628   0.752  0.7423  0.4246  0.0379
 7859SOL    HW235040   0.243   4.657   0.623 -0.3811  1.2088  0.0874
 7860SOL     OW35041   1.765   1.274   4.913  0.4278  0.2567  0.1172
 7860SOL    HW135042   1.797   1.203   4.857  1.5755  2.5361 -2.1067
 7860SOL    HW235043   1.825   1.342   4.885  0.5413  1.0177  2.2611
 7861SOL     OW35044   0.353   2.325   0.632  1.3173  0.5443 -0.4672
 7861SOL    HW135045   0.446   2.317   0.653  1.0747 -0.8275  0.0898
 7861SOL    HW235046   0.345   2.269   0.555 -1.6649  1.8588 -1.1336
 7862SOL     OW35047   0.084   3.183   7.555  0.3466 -0.4131  0.1698
 7862SOL    HW135048   0.154   3.181   7.620  0.0564 -0.2863  0.4854
 7862SOL    HW235049   0.009   3.191   7.613  1.4403  0.1514  1.5006
 7863SOL     OW35050   3.471   2.736   6.611  0.0781  0.2957 -0.2863
 7863SOL    HW135051   3.554   2.727   6.565 -1.2404 -0.5738 -2.4903
 7863SOL    HW235052   3.425   2.804   6.563  0.1694  0.8760  0.4539
 7864SOL     OW35053   3.558   2.428   8.999 -0.0325 -0.0288  0.2426
 7864SOL    HW135054   3.510   2.382   8.931 -2.2789  0.2509  1.6307
 7864SOL    HW235055   3.629   2.460   8.944  1.4240 -0.0092  2.1128
 7865SOL     OW35056   3.808   3.113   1.476 -0.2390 -0.0617  0.5310
 7865SOL    HW135057   3.743   3.178   1.446 -1.9039 -1.8074  0.3781
 7865SOL    HW235058   3.846   3.155   1.553 -0.1094  0.8580 -0.0241
 7866SOL     OW35059   4.291   1.047   3.975 -0.2370 -0.2247 -0.0116
 7866SOL    HW135060   4.324   1.057   3.885  0.8370 -0.8000  0.3112
 7866SOL    HW235061   4.197   1.054   3.959 -0.2644  0.2995  0.3699
 7867SOL     OW35062   2.930   2.403   4.875  0.4409  0.7377  0.7288
 7867SOL    HW135063   2.853   2.371   4.922  0.6346  1.5376  1.6034
 7867SOL    HW235064   2.964   2.465   4.941 -0.5454 -1.0899  2.9634
 7868SOL     OW35065   2.049   3.202  12.644  0.5091  0.0152  0.8759
 7868SOL    HW135066   2.036   3.296  12.652 -1.6436 -0.4295  2.5813
 7868SOL    HW235067   1.987   3.180  12.574 -0.5604  1.3648  1.4265
 7869SOL     OW35068   3.747   3.024  11.663 -0.3013  0.0166 -0.1415
 7869SOL    HW135069   3.673   3.055  11.715 -1.4215 -0.5266 -1.4033
 7869SOL    HW235070   3.807   3.099  11.658  1.6448 -1.4209  2.0845
 7870SOL     OW35071   1.964   2.713   4.933  0.2113 -0.1175  0.4383
 7870SOL    HW135072   2.025   2.785   4.919 -0.7876  0.4743 -0.8684
 7870SOL    HW235073   1.881   2.753   4.958  0.3196  0.9830 -0.9400
 7871SOL     OW35074   0.856   3.109  12.611  0.5481  0.2839 -0.1092
 7871SOL    HW135075   0.795   3.180  12.595  0.2116 -0.0918 -0.4928
 7871SOL    HW235076   0.833   3.034  12.557  1.9535 -0.8850  0.9050
 7872SOL     OW35077   2.638   3.340   4.819  0.1774  0.1732  0.1114
 7872SOL    HW135078   2.606   3.286   4.746  0.2485  0.0561  0.1682
 7872SOL    HW235079   2.719   3.294   4.841  1.1069  2.1781  0.8821
 7873SOL     OW35080   0.732   4.003   1.849 -0.1756  0.3900  0.3933
 7873SOL    HW135081   0.638   3.984   1.846 -0.1940  0.3641  1.2947
 7873SOL    HW235082   0.757   3.992   1.757 -0.0375  1.8753  0.2571
 7874SOL     OW35083   2.216   0.553   1.832 -0.2019 -0.5323  0.3755
 7874SOL    HW135084   2.156   0.527   1.762  0.2805  0.0644 -0.2616
 7874SOL    HW235085   2.295   0.520   1.790 -0.0830 -0.0005  0.1830
 7875SOL     OW35086   1.583   4.590   9.694 -0.1882 -0.0291  0.0459
 7875SOL    HW135087   1.534   4.616   9.772  0.5559 -2.1099  1.2343
 7875SOL    HW235088   1.584   4.674   9.649  0.7090  1.0825  2.1064
 7876SOL     OW35089   4.586   1.764   8.078 -0.1248  0.3128 -0.1522
 7876SOL    HW135090   4.552   1.793   8.163  2.0706 -1.6214  1.4134
 7876SOL    HW235091   4.637   1.839   8.049 -0.4435  0.8912  0.7763
 7877SOL     OW35092   3.094   1.432  14.607 -0.6913 -0.1582 -0.2878
 7877SOL    HW135093   2.999   1.441  14.615 -0.7996 -0.3738 -1.3787
 7877SOL    HW235094   3.117   1.525  14.615  0.2822 -0.3212 -1.2143
 7878SOL     OW35095   1.421   2.802   3.653  0.1826  0.2171  0.3606
 7878SOL    HW135096   1.430   2.844   3.568 -1.9939 -0.0139  0.0164
 7878SOL    HW235097   1.337   2.840   3.678  1.4362  2.3912  1.2587
 7879SOL     OW35098   1.867   2.696  16.966  0.5122  0.2347 -0.0832
 7879SOL    HW135099   1.885   2.726  16.877 -0.0002 -1.2812 -0.6973
 7879SOL    HW235100   1.899   2.767  17.022  0.3750 -0.2940  0.6681
 7880SOL     OW35101   4.690   3.466   2.630 -0.2855 -0.4029 -0.0420
 7880SOL    HW135102   0.010   3.383   2.650  0.0160 -0.2599 -0.0717
 7880SOL    HW235103   0.040   3.528   2.615 -1.4418  0.5733 -1.5157
 7881SOL     OW35104   3.798   3.721  15.711 -1.1736  0.3179 -0.1456
 7881SOL    HW135105   3.887   3.714  15.676 -1.2833  1.1163 -0.5804
 7881SOL    HW235106   3.807   3.794  15.773  1.0815  0.0174 -0.0911
 7882SOL     OW35107   0.994   0.636  15.162 -0.4594 -0.0396  0.5436
 7882SOL    HW135108   1.033   0.655  15.248  0.2280 -1.4497  0.5448
 7882SOL    HW235109   0.907   0.674  15.171 -0.1793  1.2484 -2.3142
 7883SOL     OW35110   2.301   0.336   7.184  0.1942 -0.1558  0.0844
 7883SOL    HW135111   2.229   0.278   7.161 -2.2169  2.5556  0.7155
 7883SOL    HW235112   2.356   0.330   7.106 -1.0035 -0.8643 -0.7116
 7884SOL     OW35113   1.390   0.956   8.803  0.3052  0.2984  0.3608
 7884SOL    HW135114   1.343   0.931   8.883 -0.1687  1.8577  0.5767
 7884SOL    HW235115   1.482   0.939   8.822 -0.5420 -1.7670  2.5927
 7885SOL     OW35116   2.602   1.205   3.221 -0.0136 -0.5251 -0.0629
 7885SOL    HW135117   2.695   1.201   3.202 -0.0893 -0.8197 -0.3684
 7885SOL    HW235118   2.559   1.221   3.136 -1.7595 -0.8311  0.7581
 7886SOL     OW35119   0.072   4.017   6.532  0.4598  0.3731  0.1808
 7886SOL    HW135120   4.715   3.970   6.559  0.0075 -0.1233 -1.9965
 7886SOL    HW235121   0.115   4.036   6.615  0.0580 -2.2387  0.9752
 7887SOL     OW35122   2.265   1.178   1.793  0.0949  0.1312  0.6108
 7887SOL    HW135123   2.258   1.214   1.882 -1.2216 -0.8404  0.8902
 7887SOL    HW235124   2.225   1.093   1.809 -0.6579  0.6533  1.5183
 7888SOL     OW35125   3.982   2.232   7.367 -0.2443  0.1642  0.2458
 7888SOL    HW135126   3.896   2.252   7.404 -0.3390  0.0446  0.0912
 7888SOL    HW235127   3.957   2.223   7.275 -0.0291 -0.0516  0.2060
 7889SOL     OW35128   0.772   0.856   3.608  0.4563  0.2000 -0.3670
 7889SOL    HW135129   0.839   0.821   3.550 -2.2643  0.0526 -3.3852
 7889SOL    HW235130   0.707   0.788   3.590  0.8981 -0.8962  2.1070
 7890SOL     OW35131   3.796   3.273  14.412 -0.5375  0.0558 -0.6542
 7890SOL    HW135132   3.786   3.363  14.379 -0.2315  0.4893  0.4131
 7890SOL    HW235133   3.704   3.247  14.417 -0.6570  0.3039 -1.5722
 7891SOL     OW35134   3.310   2.871   4.617 -0.3397 -0.7325 -0.0648
 7891SOL    HW135135   3.308   2.855   4.523  1.6511  1.4096 -0.4385
 7891SOL    HW235136   3.377   2.810   4.646  0.3943  0.0794 -0.0738
 7892SOL     OW35137   0.734   0.228   6.885  0.6727 -0.1463 -0.2149
 7892SOL    HW135138   0.728   0.323   6.872 -1.3999 -0.0156  1.7829
 7892SOL    HW235139   0.737   0.198   6.794  1.2815 -0.2200 -0.1732
 7893SOL     OW35140   2.527   0.043   8.261  0.5797  0.7737 -0.4807
 7893SOL    HW135141   2.578   4.687   8.240 -1.5426 -1.3989  2.4574
 7893SOL    HW235142   2.601   0.084   8.306  1.6966 -1.5778 -0.1681
 7894SOL     OW35143   3.903   1.360   8.946 -0.1722  0.5572  0.5761
 7894SOL    HW135144   3.888   1.342   9.038  3.2769  1.7275  1.3648
 7894SOL    HW235145   3.829   1.310   8.911  1.4413 -1.3521 -0.0753
 7895SOL     OW35146   0.460   1.461   7.962 -0.1661  0.3272  0.1705
 7895SOL    HW135147   0.494   1.546   7.989 -0.8040  1.0475 -1.2980
 7895SOL    HW235148   0.395   1.488   7.898  0.3495  1.9558  0.3337
 7896SOL     OW35149   1.998   3.439   7.898  0.0018  0.6312  0.1406
 7896SOL    HW135150   2.000   3.460   7.992 -0.0797  0.3979  0.1949
 7896SOL    HW235151   1.931   3.371   7.887  0.1441  0.6823 -0.9836
 7897SOL     OW35152   3.418   2.847  10.240 -0.2001  0.2142 -0.1845
 7897SOL    HW135153   3.391   2.844  10.332  0.5000  0.7352  0.0346
 7897SOL    HW235154   3.334   2.865  10.197  1.0152  0.2419 -2.5333
 7898SOL     OW35155   2.747   0.625  17.650 -0.2322  0.2093 -0.0576
 7898SOL    HW135156   2.835   0.636  17.613 -0.5254  1.8348 -0.2783
 7898SOL    HW235157   2.755   0.547   0.013  1.6673  1.1892  1.0801
 7899SOL     OW35158   1.223   1.167   2.557  0.6045 -0.1320  0.1824
 7899SOL    HW135159   1.198   1.103   2.624 -0.3019  0.5464  0.4865
 7899SOL    HW235160   1.137   1.209   2.553  0.1699 -0.9715  0.5694
 7900SOL     OW35161   0.083   0.644   0.302  0.1493 -0.3580 -0.2401
 7900SOL    HW135162   0.157   0.600   0.260 -0.0413  0.4520 -1.4198
 7900SOL    HW235163   0.069   0.585   0.376  1.2542 -1.0814 -0.5974
 7901SOL     OW35164   2.903   0.353   1.853 -0.1905  0.5166 -0.5604
 7901SOL    HW135165   2.880   0.328   1.942 -0.7989  2.7347 -0.1168
 7901SOL    HW235166   2.821   0.378   1.811 -0.2063  0.8116 -0.3494
 7902SOL     OW35167   1.421   3.831   9.214  0.7008 -0.5333  0.2590
 7902SOL    HW135168   1.491   3.770   9.236  1.5298  0.7852  1.3092
 7902SOL    HW235169   1.346   3.777   9.190  2.1568 -2.1076 -0.6982
 7903SOL     OW35170   2.208   1.597  13.324 -0.0601 -0.6863 -0.3225
 7903SOL    HW135171   2.191   1.518  13.375 -0.4254 -1.3377 -1.4694
 7903SOL    HW235172   2.246   1.551  13.249 -0.6494 -2.0561  0.2193
 7904SOL     OW35173   1.769   4.365  12.877  0.5771  0.1110 -0.1570
 7904SOL    HW135174   1.730   4.360  12.790 -0.3212 -0.1082  0.2553
 7904SOL    HW235175   1.858   4.388  12.850  0.7195  3.3711  3.1055
 7905SOL     OW35176   1.895   1.337  14.479 -0.8095 -0.2873 -0.4417
 7905SOL    HW135177   1.959   1.345  14.408 -0.6358 -1.9621 -0.4659
 7905SOL    HW235178   1.954   1.322  14.552 -1.5692 -0.9688  0.0306
 7906SOL     OW35179   0.289   2.643   5.283 -0.6085  0.2441 -0.6590
 7906SOL    HW135180   0.278   2.573   5.347  2.0358  1.3173  0.9739
 7906SOL    HW235181   0.198   2.666   5.262 -0.3335  1.4604 -0.5377
 7907SOL     OW35182   2.453   4.063   9.102 -0.2027 -0.3213  0.0553
 7907SOL    HW135183   2.545   4.077   9.127  0.0197 -2.3179  0.3499
 7907SOL    HW235184   2.418   4.096   9.185  0.6053 -0.4631  0.4575
 7908SOL     OW35185   0.945   2.354  11.510  0.1334 -0.4098  0.6644
 7908SOL    HW135186   0.886   2.429  11.520  0.4139 -0.0233 -0.6582
 7908SOL    HW235187   0.967   2.343  11.603 -2.1135 -0.8657  1.1550
 7909SOL     OW35188   1.763   2.485   2.359  0.4231 -1.0020 -0.0202
 7909SOL    HW135189   1.738   2.572   2.329 -0.4832 -1.0491  0.6042
 7909SOL    HW235190   1.703   2.423   2.317  0.2681  0.1098 -1.4189
 7910SOL     OW35191   1.027   3.533  11.806 -0.3044 -0.0538 -0.3991
 7910SOL    HW135192   1.069   3.452  11.777 -1.3464 -1.1591  1.1824
 7910SOL    HW235193   0.940   3.501  11.830 -0.8688  1.6694 -0.2004
 7911SOL     OW35194   3.238   2.962   8.354 -0.5178 -0.6200 -0.4344
 7911SOL    HW135195   3.161   3.019   8.356  1.1125  1.4863  2.6965
 7911SOL    HW235196   3.298   3.000   8.289  1.0870 -1.7753  0.3499
 7912SOL     OW35197   4.480   0.976   8.193  0.1335  0.0795 -0.1131
 7912SOL    HW135198   4.403   1.012   8.149  1.1131  0.9761 -1.0874
 7912SOL    HW235199   4.446   0.947   8.278 -1.3674  2.3262  0.0813
 7913SOL     OW35200   0.953   0.387   2.985  0.5623 -0.5018  0.0676
 7913SOL    HW135201   0.890   0.434   2.931  2.0479  1.1342 -0.2348
 7913SOL    HW235202   1.031   0.433   2.955  1.0471 -1.3970 -0.0579
 7914SOL     OW35203   2.976   4.674   4.041 -0.3762  0.2057  0.3314
 7914SOL    HW135204   2.905   4.652   4.101 -1.3904  1.0880 -0.5511
 7914SOL    HW235205   2.990   4.595   3.988  0.1595  1.0910 -0.8610
 7915SOL     OW35206   3.230   2.307   3.998 -0.0763 -0.0116 -0.3136
 7915SOL    HW135207   3.136   2.322   3.994 -0.1389 -0.2449  0.2733
 7915SOL    HW235208   3.217   2.212   4.000  1.6827 -0.2741 -1.4260
 7916SOL     OW35209   1.314   2.232  12.921  0.4674  0.0039 -0.3202
 7916SOL    HW135210   1.259   2.294  12.968 -0.6044  0.1469 -1.7506
 7916SOL    HW235211   1.353   2.173  12.986 -0.0855 -0.8078 -0.7181
 7917SOL     OW35212   2.739   1.049  16.300  0.4938 -0.0180  0.0055
 7917SOL    HW135213   2.699   1.044  16.213  1.8060  1.4066 -0.6913
 7917SOL    HW235214   2.756   0.957  16.320  1.1411 -0.7281 -3.6717
 7918SOL     OW35215   2.111   4.228   2.946 -0.5434  1.2102  0.5830
 7918SOL    HW135216   2.035   4.185   2.985 -0.2969 -0.1714 -0.4342
 7918SOL    HW235217   2.169   4.234   3.022  2.8831 -3.0468 -1.6760
 7919SOL     OW35218   1.656   0.398  12.392  0.1302 -0.4957  0.1818
 7919SOL    HW135219   1.675   0.304  12.394  0.2928 -0.5043 -1.1931
 7919SOL    HW235220   1.704   0.422  12.313  1.6564 -0.7763  1.0221
 7920SOL     OW35221   4.220   0.857  11.061 -0.2067  0.4176  0.5673
 7920SOL    HW135222   4.149   0.886  11.004  0.9137  0.1508 -0.9530
 7920SOL    HW235223   4.179   0.856  11.148 -0.5679  2.9774  0.4172
 7921SOL     OW35224   2.892   4.458   7.319  0.1764 -0.4804 -0.4591
 7921SOL    HW135225   2.840   4.523   7.272  0.8498  0.8656  0.6509
 7921SOL    HW235226   2.877   4.379   7.267  3.0308 -1.0568 -0.4079
 7922SOL     OW35227   1.119   2.464   8.107 -0.5032 -0.1883 -0.0015
 7922SOL    HW135228   1.203   2.477   8.150 -0.2604 -0.1472 -0.4829
 7922SOL    HW235229   1.144   2.492   8.019  0.8468 -1.5037 -0.0261
 7923SOL     OW35230   3.698   2.573   0.114  0.4850 -0.0063  0.0693
 7923SOL    HW135231   3.659   2.499   0.068  0.8087  1.2076 -2.1837
 7923SOL    HW235232   3.782   2.543   0.147  0.3237  1.2319  1.6151
 7924SOL     OW35233   0.516   0.835   8.443 -0.9626 -0.1255 -0.0889
 7924SOL    HW135234   0.550   0.925   8.448  1.0074 -0.9037  0.5945
 7924SOL    HW235235   0.450   0.830   8.375 -1.2295  1.4705  0.0622
 7925SOL     OW35236   0.437   3.924   9.000  0.1240 -0.0293 -0.3057
 7925SOL    HW135237   0.383   3.996   8.968  3.2916  2.0380 -0.9433
 7925SOL    HW235238   0.431   3.941   9.095 -0.0182 -0.1375 -0.2955
 7926SOL     OW35239   1.066   2.191  14.924  0.1676  0.1237 -0.4031
 7926SOL    HW135240   1.088   2.281  14.901 -0.3623  0.2266 -0.4952
 7926SOL    HW235241   1.018   2.193  15.007  0.1039  3.3463 -0.5334
 7927SOL     OW35242   0.708   2.263   7.498  0.2063 -0.5372  1.1972
 7927SOL    HW135243   0.720   2.317   7.576  1.4542  0.5382  0.2637
 7927SOL    HW235244   0.627   2.219   7.523 -0.3793  1.2680  2.5303
 7928SOL     OW35245   0.502   1.087   9.120  0.3737 -0.5863  0.3384
 7928SOL    HW135246   0.574   1.139   9.086 -0.8811  1.0617  0.1982
 7928SOL    HW235247   0.421   1.119   9.080  0.9431  0.9511  0.4182
 7929SOL     OW35248   0.124   4.124   8.910  0.0038 -0.1853 -0.3267
 7929SOL    HW135249   0.137   4.205   8.959 -0.5709  0.6342 -1.5198
 7929SOL    HW235250   0.046   4.086   8.950  0.7877  1.1030  2.4438
 7930SOL     OW35251   4.053   1.530   2.823  0.3340 -0.5185  0.1546
 7930SOL    HW135252   3.993   1.511   2.752 -0.1447 -0.6423  0.5936
 7930SOL    HW235253   4.106   1.595   2.776  0.4181 -0.3021  0.5477
 7931SOL     OW35254   1.856   3.378  16.588 -0.6487  0.2567  0.4358
 7931SOL    HW135255   1.823   3.463  16.618  0.6564  1.0868 -0.5270
 7931SOL    HW235256   1.922   3.360  16.654  0.4889  1.5149 -0.3758
 7932SOL     OW35257   3.042   0.799   6.670  0.1719  0.0651 -0.3464
 7932SOL    HW135258   3.096   0.724   6.646 -1.3672 -0.5329 -1.9552
 7932SOL    HW235259   3.076   0.806   6.759  0.5658 -1.1587 -0.4080
 7933SOL     OW35260   2.098   4.520   5.978 -0.0389  0.3376  0.4900
 7933SOL    HW135261   2.106   4.603   5.931  2.1264 -0.7131 -0.9877
 7933SOL    HW235262   2.056   4.458   5.918 -0.6181  2.0645 -0.9110
 7934SOL     OW35263   0.132   0.861   2.281  0.3307  0.0697  0.7493
 7934SOL    HW135264   0.123   0.768   2.301 -0.8396 -0.2674 -1.2809
 7934SOL    HW235265   0.067   0.899   2.340  1.1618  2.7313 -0.0485
 7935SOL     OW35266   2.359   0.013   2.914  0.1714  0.4451 -0.2685
 7935SOL    HW135267   2.307   0.066   2.974  1.6093 -1.3056  2.4784
 7935SOL    HW235268   2.283   4.681   2.891 -0.0972  0.7277 -0.0461
 7936SOL     OW35269   0.987   4.612   6.236 -0.1665 -0.4948  0.5999
 7936SOL    HW135270   0.909   4.615   6.291 -0.4514  1.0240  0.1294
 7936SOL    HW235271   1.011   4.704   6.226 -2.0451 -0.0404  0.2180
 7937SOL     OW35272   1.792   4.263   7.135 -0.0938  0.4881  0.2924
 7937SOL    HW135273   1.700   4.275   7.110 -0.4299 -3.2232 -0.2231
 7937SOL    HW235274   1.777   4.265   7.230 -1.5088 -0.2174  0.0948
 7938SOL     OW35275   3.492   2.913  15.744 -0.2940 -0.5529 -0.4029
 7938SOL    HW135276   3.412   2.943  15.788 -0.3228 -0.4993 -0.4917
 7938SOL    HW235277   3.453   2.853  15.680  1.5092 -1.6311 -0.4725
 7939SOL     OW35278   2.464   2.738   7.562 -0.5569  0.1292 -0.5099
 7939SOL    HW135279   2.552   2.776   7.565 -0.4816 -0.1043  0.1984
 7939SOL    HW235280   2.413   2.816   7.541  0.6339  1.3169  0.9722
 7940SOL     OW35281   4.383   3.015  14.686 -0.0270 -0.5042 -0.2069
 7940SOL    HW135282   4.397   2.921  14.675 -0.1971 -0.3214 -1.9420
 7940SOL    HW235283   4.356   3.040  14.597  0.3930 -1.4205 -0.5888
 7941SOL     OW35284   1.947   2.303   4.538  0.5029  0.2850  0.4876
 7941SOL    HW135285   1.912   2.254   4.613 -1.1395  1.6441  0.6150
 7941SOL    HW235286   1.904   2.268   4.460  2.0695 -0.8334  0.1342
 7942SOL     OW35287   4.106   0.314   1.892  0.0973  0.5143  0.1251
 7942SOL    HW135288   4.103   0.242   1.955  0.7553  0.3086 -0.0780
 7942SOL    HW235289   4.200   0.329   1.902  0.9215 -3.6549 -1.3015
 7943SOL     OW35290   0.073   3.776   5.237  0.3284  0.5573  0.0799
 7943SOL    HW135291   0.128   3.779   5.158  0.0396 -0.1562 -0.1520
 7943SOL    HW235292   0.082   3.685   5.265 -2.2710  1.1510  2.7281
 7944SOL     OW35293   1.732   3.110   7.109  0.1760 -0.5200 -0.3283
 7944SOL    HW135294   1.677   3.187   7.124 -0.0304 -0.3443 -1.9915
 7944SOL    HW235295   1.784   3.130   7.031  0.9703 -1.2165  0.0224
 7945SOL     OW35296   4.044   0.002   0.807  0.0287 -0.1093 -0.2446
 7945SOL    HW135297   4.004   0.089   0.810  0.7367  0.2064  0.2674
 7945SOL    HW235298   4.120   0.013   0.865  0.9637 -0.4206 -1.3998
 7946SOL     OW35299   3.511   0.031   5.782  0.0323  0.1028 -0.1294
 7946SOL    HW135300   3.521   4.684   5.717  1.4206 -0.1318  0.3298
 7946SOL    HW235301   3.486   0.099   5.719 -0.2495  0.3739  0.2732
 7947SOL     OW35302   0.907   4.091   7.390 -0.1323  0.0341 -0.1864
 7947SOL    HW135303   0.963   4.155   7.345  2.0450 -2.3998 -0.9860
 7947SOL    HW235304   0.907   4.029   7.317  0.5083  0.5339 -0.6169
 7948SOL     OW35305   2.545   4.066   2.636  0.1053  0.6268  0.1500
 7948SOL    HW135306   2.612   4.014   2.592  0.3587 -0.1823  1.4734
 7948SOL    HW235307   2.555   4.142   2.579 -2.7576  2.6377  2.3216
 7949SOL     OW35308   0.629   0.841  14.806  0.0094  0.0357  0.1225
 7949SOL    HW135309   0.567   0.892  14.857  2.3251  0.6963  2.2922
 7949SOL    HW235310   0.622   0.879  14.718 -1.9539 -0.4053  0.0971
 7950SOL     OW35311   2.279   3.916  12.266 -0.1077  0.1414  0.0676
 7950SOL    HW135312   2.244   3.990  12.315 -0.0257  0.4789 -0.3807
 7950SOL    HW235313   2.310   3.857  12.334  2.4002 -0.1208 -1.3248
 7951SOL     OW35314   4.361   1.157   4.220 -0.2380  0.7890 -0.0815
 7951SOL    HW135315   4.287   1.204   4.258 -0.5208 -1.0470  1.6505
 7951SOL    HW235316   4.325   1.131   4.136  2.0514 -0.6183 -0.6225
 7952SOL     OW35317   0.120   3.243   9.815  0.7752 -0.3074 -0.6912
 7952SOL    HW135318   0.052   3.176   9.816  1.5668 -1.0925  1.4456
 7952SOL    HW235319   0.178   3.206   9.750  1.9765 -2.8942  1.8752
 7953SOL     OW35320   0.651   1.227   1.250  0.5092  0.3332 -0.0255
 7953SOL    HW135321   0.634   1.139   1.282 -1.0046  0.8583  0.6133
 7953SOL    HW235322   0.617   1.277   1.324 -0.2919 -1.6571  0.9239
 7954SOL     OW35323   0.753   4.262   9.304  0.2139 -0.7471 -0.5956
 7954SOL    HW135324   0.764   4.345   9.351 -3.6278 -0.5992  0.0504
 7954SOL    HW235325   0.704   4.288   9.227 -2.0095 -2.2119  0.3152
 7955SOL     OW35326   3.958   2.834  17.215 -0.0582  0.9306  0.3966
 7955SOL    HW135327   3.981   2.780  17.291  0.5526  0.3412 -0.2130
 7955SOL    HW235328   3.924   2.912  17.260  1.5082  1.2010  1.0947
 7956SOL     OW35329   0.221   3.975   2.385  0.5118 -0.7620 -0.1796
 7956SOL    HW135330   0.305   3.958   2.428 -0.0400 -0.7311  0.9289
 7956SOL    HW235331   0.236   3.918   2.310  0.3820 -0.3331 -0.5301
 7957SOL     OW35332   2.935   2.085   6.814 -0.2256 -0.5345 -0.0714
 7957SOL    HW135333   3.005   2.020   6.803  1.2394  1.4141 -2.3135
 7957SOL    HW235334   2.922   2.099   6.720  1.3405  0.4043 -0.1486
 7958SOL     OW35335   1.559   1.183   5.660 -0.1835 -0.5765  0.7631
 7958SOL    HW135336   1.592   1.093   5.655 -2.7692 -1.6214  2.4007
 7958SOL    HW235337   1.616   1.207   5.732  0.0610  1.4062 -0.0956
 7959SOL     OW35338   2.831   4.115   5.051 -0.0063 -0.5724 -0.2433
 7959SOL    HW135339   2.828   4.204   5.014 -1.3189 -0.1064  0.9545
 7959SOL    HW235340   2.802   4.064   4.976  0.0216 -0.3551 -0.4031
 7960SOL     OW35341   1.383   3.829  16.288 -0.0468  0.1641 -0.3302
 7960SOL    HW135342   1.384   3.849  16.194 -0.0989 -1.1138 -0.6118
 7960SOL    HW235343   1.460   3.876  16.320  0.5875 -0.8298 -0.3819
 7961SOL     OW35344   4.283   3.774  10.086 -0.3259  0.0762 -0.1240
 7961SOL    HW135345   4.249   3.792   9.998  2.6404 -0.1956 -1.3477
 7961SOL    HW235346   4.310   3.683  10.085  2.0230  0.7755 -0.9731
 7962SOL     OW35347   3.609   4.646   3.231 -0.1609  0.9262 -0.6446
 7962SOL    HW135348   3.534   4.668   3.177 -0.3935 -0.7799 -1.0149
 7962SOL    HW235349   3.664   4.603   3.166  0.9975  0.3658  0.6888
 7963SOL     OW35350   1.758   0.688   0.919 -0.3835  0.2770  0.2461
 7963SOL    HW135351   1.755   0.776   0.956  0.4908 -0.3446  1.8113
 7963SOL    HW235352   1.676   0.646   0.944  1.3099 -2.4413  1.2161
 7964SOL     OW35353   4.175   1.287   7.429 -0.2799  0.2826  0.2950
 7964SOL    HW135354   4.113   1.331   7.487 -0.4773 -0.2904  0.5073
 7964SOL    HW235355   4.262   1.319   7.455 -0.5025  1.2492 -0.1190
 7965SOL     OW35356   0.468   4.131   5.614  0.1628  0.2084  0.3259
 7965SOL    HW135357   0.404   4.108   5.546 -0.3781  0.8912  0.6027
 7965SOL    HW235358   0.424   4.098   5.692 -3.5117  3.7476 -0.2495
 7966SOL     OW35359   3.584   2.981   8.468  0.1627  0.1260 -0.3897
 7966SOL    HW135360   3.510   2.948   8.416 -0.8564  2.8309 -0.6444
 7966SOL    HW235361   3.654   2.942   8.415  0.4836 -0.2296  0.3005
 7967SOL     OW35362   2.272   4.699   6.248 -0.3503 -0.0472  0.1991
 7967SOL    HW135363   2.368   4.699   6.247 -0.4026 -0.0876 -2.5709
 7967SOL    HW235364   2.259   4.683   6.342  1.3667 -0.1344  0.4203
 7968SOL     OW35365   3.620   2.140  14.271 -0.3120 -0.6525  0.6983
 7968SOL    HW135366   3.666   2.108  14.194  1.2161 -0.0421  1.3573
 7968SOL    HW235367   3.532   2.102  14.272 -0.6190  0.0848  1.8455
 7969SOL     OW35368   2.026   4.658  13.720  0.0483  0.1274 -0.1479
 7969SOL    HW135369   1.973   0.008  13.754 -2.9129 -2.2611  0.2671
 7969SOL    HW235370   2.094   4.636  13.784 -0.7795 -1.4009  0.2030
 7970SOL     OW35371   3.057   1.645   4.541  0.1076  0.6079 -0.0270
 7970SOL    HW135372   2.964   1.657   4.560  0.1397 -1.0220  1.1355
 7970SOL    HW235373   3.101   1.706   4.600 -1.3040  1.4947  0.1032
 7971SOL     OW35374   4.649   1.905  12.741 -0.2507  0.0970  0.0473
 7971SOL    HW135375   4.683   1.895  12.652 -1.1605 -1.7183 -0.0969
 7971SOL    HW235376   4.577   1.842  12.736 -0.4985  0.4351 -0.8020
 7972SOL     OW35377   2.077   1.772   8.675 -0.1192 -0.1806 -0.1553
 7972SOL    HW135378   2.128   1.704   8.632 -3.3930 -3.2754  0.8270
 7972SOL    HW235379   2.144   1.839   8.688  1.1460 -1.4959  0.0733
 7973SOL     OW35380   3.517   1.268   3.584 -0.0767  0.6516 -0.6949
 7973SOL    HW135381   3.524   1.350   3.634 -0.2848  0.9694 -1.1916
 7973SOL    HW235382   3.544   1.211   3.656 -0.7419  1.6811  0.3742
 7974SOL     OW35383   0.926   4.246   3.804  0.1069  0.0675 -0.2153
 7974SOL    HW135384   0.983   4.307   3.757 -1.5704 -0.4282 -2.8879
 7974SOL    HW235385   0.988   4.181   3.837  1.4841  1.2356 -0.5124
 7975SOL     OW35386   1.759   1.443   1.996  0.9713  0.2944 -0.5843
 7975SOL    HW135387   1.752   1.508   2.066 -0.8320 -0.8590  0.3107
 7975SOL    HW235388   1.825   1.476   1.935  1.5160 -0.7658 -0.5734
 7976SOL     OW35389   4.189   4.426   5.810  0.4569  0.2911 -0.0456
 7976SOL    HW135390   4.171   4.393   5.898 -0.7382 -1.0897 -0.7990
 7976SOL    HW235391   4.116   4.486   5.796  0.9911  0.6719 -1.2236
 7977SOL     OW35392   0.704   1.124   8.113 -0.0615 -0.6409  0.3626
 7977SOL    HW135393   0.614   1.092   8.122 -0.4876  0.0249 -1.5469
 7977SOL    HW235394   0.691   1.218   8.126 -0.0003 -0.6147  0.2336
 7978SOL     OW35395   2.178   1.517   9.623  1.0079 -0.0554  0.1521
 7978SOL    HW135396   2.192   1.596   9.571  0.5029 -1.5782 -2.2839
 7978SOL    HW235397   2.108   1.467   9.580  0.1151  1.4346 -0.1228
 7979SOL     OW35398   2.496   1.427   3.314  0.0847  0.1058  0.5615
 7979SOL    HW135399   2.536   1.348   3.278  0.5090 -0.0958  1.4740
 7979SOL    HW235400   2.573   1.479   3.291 -0.2659  0.0183 -0.8455
 7980SOL     OW35401   4.648   1.437  12.376  0.1503 -0.0813 -0.1778
 7980SOL    HW135402   4.603   1.520  12.362  0.7012  0.0667 -1.0995
 7980SOL    HW235403   4.693   1.424  12.292 -1.3062  0.2714 -1.0136
 7981SOL     OW35404   2.180   4.101   4.709 -0.3424 -0.2867  0.1790
 7981SOL    HW135405   2.166   4.073   4.618 -1.1017 -0.9006  0.4779
 7981SOL    HW235406   2.227   4.183   4.697  1.5515 -1.0274  2.4069
 7982SOL     OW35407   1.739   1.628   8.145  0.3442 -0.3822 -0.2944
 7982SOL    HW135408   1.702   1.551   8.101  1.8718 -1.7796  0.8773
 7982SOL    HW235409   1.811   1.646   8.085 -1.4428  1.9467 -1.7558
 7983SOL     OW35410   1.103   3.346   6.595  0.8493 -0.1485 -0.0892
 7983SOL    HW135411   1.177   3.352   6.655  0.5729 -3.4054  0.5680
 7983SOL    HW235412   1.083   3.439   6.587 -0.7351 -0.5258 -0.4212
 7984SOL     OW35413   1.574   2.019  16.938  0.6065  0.3886  0.2197
 7984SOL    HW135414   1.649   1.991  16.886  0.3260 -2.0113  1.1124
 7984SOL    HW235415   1.502   1.970  16.898 -0.2624 -0.5540  2.9725
 7985SOL     OW35416   0.677   4.711  15.259  0.2991  0.2839 -0.5193
 7985SOL    HW135417   0.708   4.638  15.313  0.6027  1.1028  0.4169
 7985SOL    HW235418   0.584   4.715  15.278  0.4452  1.1899 -0.0306
 7986SOL     OW35419   0.255   1.764   6.524 -0.3673 -0.3896  0.6552
 7986SOL    HW135420   0.238   1.753   6.430  0.3212 -0.2287  0.5184
 7986SOL    HW235421   0.350   1.765   6.526 -0.3956 -0.1734  1.6647
 7987SOL     OW35422   0.415   4.120   6.357  0.3128 -0.1470 -0.0390
 7987SOL    HW135423   0.403   4.172   6.277  0.3632 -2.5328 -1.5956
 7987SOL    HW235424   0.336   4.068   6.368 -0.0222  0.2611 -0.5311
 7988SOL     OW35425   4.160   3.639  12.541 -0.7530  0.6166  0.3017
 7988SOL    HW135426   4.131   3.643  12.450 -0.2022  1.1173  0.1476
 7988SOL    HW235427   4.112   3.711  12.582 -1.5077 -0.0274  0.5370
 7989SOL     OW35428   1.667   4.357  12.612 -0.1587  0.6020 -0.0521
 7989SOL    HW135429   1.589   4.303  12.627 -0.1657  0.0043 -2.2945
 7989SOL    HW235430   1.638   4.436  12.568 -1.0173 -0.3792 -1.2623
 7990SOL     OW35431   0.210   0.265   1.943 -0.7329  0.1333  0.0610
 7990SOL    HW135432   0.226   0.266   1.848 -0.4768 -0.5354  0.0925
 7990SOL    HW235433   0.291   0.226   1.975 -0.7168  0.7650  0.7635
 7991SOL     OW35434   2.190   4.364   6.411  0.1765  0.3879 -0.6749
 7991SOL    HW135435   2.210   4.452   6.442  2.0747 -0.5152  0.6705
 7991SOL    HW235436   2.281   4.335   6.401 -0.1408 -0.5961 -0.7925
 7992SOL     OW35437   3.099   0.471   7.186 -0.4228 -1.2536  0.0873
 7992SOL    HW135438   3.191   0.496   7.184 -0.7450  0.0690  2.2396
 7992SOL    HW235439   3.059   0.555   7.207  1.2482 -0.6690  0.9145
 7993SOL     OW35440   0.386   3.444  11.156  0.2173 -0.0656 -0.0223
 7993SOL    HW135441   0.392   3.407  11.069  2.5876 -1.2480  0.6607
 7993SOL    HW235442   0.325   3.517  11.143  1.3275  0.9067  0.1782
 7994SOL     OW35443   2.289   2.786  13.461  0.3283 -0.1781  0.1594
 7994SOL    HW135444   2.309   2.861  13.405 -0.9185  0.4785  0.5917
 7994SOL    HW235445   2.327   2.718  13.405 -1.7548 -1.0336 -0.2124
 7995SOL     OW35446   2.989   3.196  14.438 -0.2568  0.0829 -0.0538
 7995SOL    HW135447   3.015   3.111  14.474 -0.1587  0.5867  1.0666
 7995SOL    HW235448   2.894   3.189  14.440 -0.2023  0.1763  2.8604
 7996SOL     OW35449   2.924   2.884   1.260 -0.3348 -0.0371  0.1544
 7996SOL    HW135450   2.899   2.825   1.188 -1.9938 -0.5696  1.1586
 7996SOL    HW235451   2.869   2.955   1.227 -0.5016 -0.5435 -0.6824
 7997SOL     OW35452   0.361   2.561   2.687  0.1188 -0.5277 -0.0622
 7997SOL    HW135453   0.291   2.529   2.630 -1.2375  1.8837  0.2315
 7997SOL    HW235454   0.360   2.501   2.762  0.4636 -1.1146 -0.5322
 7998SOL     OW35455   2.148   3.722  15.724  0.1631  0.1801 -0.5530
 7998SOL    HW135456   2.069   3.685  15.685 -0.2391  1.1615 -0.6709
 7998SOL    HW235457   2.129   3.683  15.809  4.0791  0.9731  0.6892
 7999SOL     OW35458   3.085   2.278   3.229 -0.0665 -0.1467 -0.4977
 7999SOL    HW135459   3.010   2.221   3.210 -0.2247  0.4141 -1.5722
 7999SOL    HW235460   3.074   2.352   3.169 -0.3916  0.1674 -0.0428
 8000SOL     OW35461   3.727   3.466   4.564  0.2159 -0.2063  0.1026
 8000SOL    HW135462   3.744   3.557   4.589 -0.2593 -0.2990  0.7502
 8000SOL    HW235463   3.707   3.471   4.470 -1.4040  0.2639  0.4783
 8001SOL     OW35464   1.023   3.832  16.460  0.3666 -0.2685  0.2133
 8001SOL    HW135465   1.065   3.768  16.402 -0.0749 -0.7110  0.3859
 8001SOL    HW235466   1.095   3.871  16.509  0.4013  0.4214 -0.3856
 8002SOL     OW35467   0.781   2.512   8.600  0.6118 -0.2118  0.3158
 8002SOL    HW135468   0.702   2.550   8.563  1.4291  0.7768 -0.4034
 8002SOL    HW235469   0.851   2.544   8.543  1.6993  0.9931  2.3090
 8003SOL     OW35470   2.874   0.160   4.945 -0.1221  0.0174 -0.0025
 8003SOL    HW135471   2.834   0.123   5.024 -0.2585 -0.3884 -0.2576
 8003SOL    HW235472   2.950   0.102   4.938 -0.6832 -1.1539  3.7854
 8004SOL     OW35473   1.320   1.721  16.197  0.8693  0.1181 -0.1191
 8004SOL    HW135474   1.393   1.781  16.184  0.5982  0.3059 -0.7747
 8004SOL    HW235475   1.314   1.679  16.111  3.6599  2.6992 -1.5957
 8005SOL     OW35476   4.024   0.338   1.519 -0.5425  0.0328 -0.2691
 8005SOL    HW135477   4.109   0.319   1.557 -1.4006  1.8465  2.5501
 8005SOL    HW235478   3.988   0.256   1.554  1.4709 -0.7127  0.0597
 8006SOL     OW35479   2.362   4.658  12.182 -0.8111  0.4081  0.4901
 8006SOL    HW135480   2.279   4.610  12.177 -0.0564 -0.5025 -3.1669
 8006SOL    HW235481   2.424   4.624  12.117 -0.4392 -0.3359  1.2281
 8007SOL     OW35482   3.487   0.643  16.308  0.5536  0.1153 -0.4321
 8007SOL    HW135483   3.524   0.729  16.330 -0.3932  0.8020 -1.5314
 8007SOL    HW235484   3.402   0.646  16.353  1.2359  1.1122  0.7833
 8008SOL     OW35485   3.065   2.884  14.794 -0.3498 -0.1494 -0.7186
 8008SOL    HW135486   3.034   2.968  14.827  3.1880  1.8215 -2.4112
 8008SOL    HW235487   3.084   2.831  14.871  0.7366  0.7899 -0.3323
 8009SOL     OW35488   0.835   2.368   2.863 -0.1357 -0.4842 -0.3598
 8009SOL    HW135489   0.870   2.335   2.780  0.0841  1.1743 -0.9234
 8009SOL    HW235490   0.794   2.289   2.899  1.2615 -0.1737  1.9086
 8010SOL     OW35491   3.234   4.646   9.226 -0.3850 -0.6705  0.0785
 8010SOL    HW135492   3.308   4.684   9.274  0.1624 -1.3281 -0.2491
 8010SOL    HW235493   3.240   4.554   9.250  0.9396 -0.3088  1.1579
 8011SOL     OW35494   3.710   1.138   3.310  0.0151  0.5566  0.4768
 8011SOL    HW135495   3.793   1.166   3.273 -0.2608 -1.8907 -1.9946
 8011SOL    HW235496   3.726   1.143   3.404 -2.0463 -0.8912  0.9231
 8012SOL     OW35497   4.720   4.126   8.142 -0.2039 -0.0432  0.1753
 8012SOL    HW135498   4.684   4.037   8.137 -0.8007  0.1111  1.8475
 8012SOL    HW235499   4.668   4.157   8.216  0.2339  2.7356 -0.7005
 8013SOL     OW35500   0.313   2.960   1.372 -0.2440 -0.5138 -0.4901
 8013SOL    HW135501   0.339   2.882   1.323  1.3945  0.2286 -0.8032
 8013SOL    HW235502   0.231   2.985   1.330 -0.3757 -1.0391 -0.5448
 8014SOL     OW35503   1.849   1.058   7.139  0.0256 -0.2850  0.6788
 8014SOL    HW135504   1.771   1.032   7.189  0.7714 -0.2236  1.8625
 8014SOL    HW235505   1.866   1.148   7.167  0.1519  0.6726 -2.4073
 8015SOL     OW35506   4.563   4.234   7.528 -0.7330  0.0373 -0.1749
 8015SOL    HW135507   4.563   4.144   7.497  0.1471 -0.3444  0.9447
 8015SOL    HW235508   4.617   4.217   7.606  1.2128  1.6152 -1.1679
 8016SOL     OW35509   4.547   4.291   1.975  0.3032 -0.4605 -0.4357
 8016SOL    HW135510   4.585   4.301   1.887 -0.6625 -3.1761 -1.1531
 8016SOL    HW235511   4.527   4.384   1.988 -0.1204 -0.4295 -1.3079
 8017SOL     OW35512   0.022   2.844   8.382  0.4011  0.0260 -0.1060
 8017SOL    HW135513   4.720   2.756   8.355  1.0768 -0.8313  2.0791
 8017SOL    HW235514   4.685   2.903   8.335 -1.5968 -1.4549  0.5546
 8018SOL     OW35515   1.757   4.128   2.398  0.5268 -0.0228 -0.4602
 8018SOL    HW135516   1.718   4.121   2.485  0.5374 -1.5972 -0.5947
 8018SOL    HW235517   1.706   4.196   2.353  0.5047  0.4649  0.3017
 8019SOL     OW35518   0.090   0.982   7.995 -0.2760  0.2531 -0.2814
 8019SOL    HW135519   0.106   0.910   8.056  1.4042  1.1560  0.3474
 8019SOL    HW235520   0.046   1.044   8.054 -0.0571  0.0092  0.1359
 8020SOL     OW35521   1.479   1.687   7.991  0.4918 -0.8152 -0.1878
 8020SOL    HW135522   1.501   1.669   8.082 -0.5054 -1.5235 -0.0863
 8020SOL    HW235523   1.401   1.635   7.971  1.2654 -2.3353  0.7565
 8021SOL     OW35524   1.062   3.067   6.632  0.0952  0.1110 -0.5028
 8021SOL    HW135525   1.065   3.161   6.616  1.3183 -0.2474 -2.5538
 8021SOL    HW235526   1.108   3.071   6.716  0.0982  1.1360 -0.5559
 8022SOL     OW35527   1.706   0.689   3.592  0.2880 -0.0357 -0.1342
 8022SOL    HW135528   1.796   0.663   3.574  0.0182  0.1913 -1.8377
 8022SOL    HW235529   1.664   0.603   3.584  0.8972 -0.3675  0.2736
 8023SOL     OW35530   1.074   3.428   9.062  0.2371  0.5554 -0.5299
 8023SOL    HW135531   1.027   3.440   8.979 -2.4089 -0.8260  0.7638
 8023SOL    HW235532   1.009   3.386   9.118  2.5518 -1.0458  0.9388
 8024SOL     OW35533   4.048   4.550  16.351 -0.3934  0.0706 -0.2311
 8024SOL    HW135534   3.994   4.487  16.304  0.9236 -0.3250 -1.2012
 8024SOL    HW235535   4.039   4.631  16.301  0.3895 -1.0708 -2.2094
 8025SOL     OW35536   3.478   0.388   2.743 -0.1528  0.0898  0.0717
 8025SOL    HW135537   3.551   0.326   2.746 -0.4000 -0.2035  0.0249
 8025SOL    HW235538   3.459   0.405   2.836  0.3623 -0.6304  0.3084
 8026SOL     OW35539   0.522   1.241   2.548  0.5072  0.4626  0.2454
 8026SOL    HW135540   0.539   1.251   2.642 -1.3480 -2.5295  0.8846
 8026SOL    HW235541   0.455   1.309   2.535  0.0710 -0.1267 -0.5825
 8027SOL     OW35542   2.945   3.995  10.753 -0.0889 -0.0621 -0.3903
 8027SOL    HW135543   2.984   4.016  10.838  0.7309  0.0470 -0.7889
 8027SOL    HW235544   3.002   3.920  10.736 -2.3241 -1.3010 -2.4142
 8028SOL     OW35545   3.070   0.008   7.025  0.1407 -0.4235  0.5512
 8028SOL    HW135546   3.005   4.708   7.092  0.8386 -1.0740  1.0110
 8028SOL    HW235547   3.069   4.655   6.966  1.5757  1.1305 -1.4487
 8029SOL     OW35548   3.300   0.955  14.019 -0.5463  0.0874  0.1404
 8029SOL    HW135549   3.292   1.041  14.061  0.4351 -1.1189  2.7943
 8029SOL    HW235550   3.360   0.986  13.951 -2.4312  2.6951 -0.3435
 8030SOL     OW35551   1.574   3.512   0.244 -0.3628 -0.1284 -0.3483
 8030SOL    HW135552   1.500   3.542   0.191 -0.6360 -2.3986 -1.2632
 8030SOL    HW235553   1.551   3.422   0.267  2.9482 -0.4788  1.6813
 8031SOL     OW35554   0.488   0.257  13.273  0.4913  0.5374  0.4357
 8031SOL    HW135555   0.413   0.258  13.332 -0.2274 -0.6198 -0.4488
 8031SOL    HW235556   0.443   0.218  13.197 -0.3557  0.2973  1.0652
 8032SOL     OW35557   1.530   4.309   4.578 -0.1147 -0.1578  0.1118
 8032SOL    HW135558   1.563   4.336   4.663  0.3327  0.8974 -0.3971
 8032SOL    HW235559   1.436   4.297   4.596 -0.5966  0.2976 -2.1186
 8033SOL     OW35560   3.799   3.567   9.090 -0.3556  0.2232 -0.8174
 8033SOL    HW135561   3.793   3.474   9.069 -1.3784  0.4528 -1.5440
 8033SOL    HW235562   3.755   3.607   9.016 -2.3923 -0.4497  0.0483
 8034SOL     OW35563   2.230   3.973  10.602 -0.8615 -0.5365  0.1116
 8034SOL    HW135564   2.208   4.064  10.619  0.8424 -0.7866  3.7332
 8034SOL    HW235565   2.320   3.983  10.572 -1.0754 -0.1089 -0.3744
 8035SOL     OW35566   1.668   3.233   2.927  0.2372  0.7148  0.3206
 8035SOL    HW135567   1.614   3.248   2.849  0.6848 -0.1388 -0.1517
 8035SOL    HW235568   1.701   3.143   2.923 -1.2367  0.2455 -1.4387
 8036SOL     OW35569   0.387   4.361   8.614 -0.5389  0.0360 -0.0933
 8036SOL    HW135570   0.357   4.350   8.524 -1.0431 -1.4277  0.2626
 8036SOL    HW235571   0.360   4.276   8.649 -0.1008 -0.7085 -1.5540
 8037SOL     OW35572   4.412   0.815  12.209  0.2685 -0.0286  0.4385
 8037SOL    HW135573   4.472   0.854  12.144 -0.5214  0.2188 -0.1350
 8037SOL    HW235574   4.412   0.722  12.185 -1.4269 -0.0538  0.5998
 8038SOL     OW35575   2.081   2.993   6.703  0.2827 -0.2213 -0.4564
 8038SOL    HW135576   2.061   2.900   6.718  0.5058 -0.4739 -1.7230
 8038SOL    HW235577   2.069   3.013   6.610  1.3055  1.1165 -0.2949
 8039SOL     OW35578   3.622   0.115  12.005 -0.1909  0.0943  0.1806
 8039SOL    HW135579   3.635   0.190  11.947 -2.9293 -1.1547 -2.0642
 8039SOL    HW235580   3.632   0.042  11.942  1.3106  0.5875 -0.1544
 8040SOL     OW35581   2.312   3.915  13.183 -0.0827 -0.6885  0.1171
 8040SOL    HW135582   2.285   3.997  13.225  1.7783 -0.4238  0.8047
 8040SOL    HW235583   2.392   3.936  13.136 -1.3680  0.3411 -1.5933
 8041SOL     OW35584   1.338   2.047  12.290  0.1894 -0.4080  0.2506
 8041SOL    HW135585   1.404   2.062  12.222  2.3586 -1.5681  2.0821
 8041SOL    HW235586   1.309   2.133  12.321 -1.0224 -0.3893 -0.9517
 8042SOL     OW35587   2.677   1.153  14.206  0.0096 -0.4746 -0.1893
 8042SOL    HW135588   2.607   1.088  14.197 -0.7983  0.1088  1.9988
 8042SOL    HW235589   2.665   1.206  14.285  1.2039  0.3280 -0.5415
 8043SOL     OW35590   3.036   3.359   6.423 -0.0498  0.0799  0.3703
 8043SOL    HW135591   3.006   3.319   6.505 -2.4197 -0.3662 -0.7169
 8043SOL    HW235592   3.081   3.285   6.383 -0.4362 -0.1410  0.3460
 8044SOL     OW35593   4.474   1.705   7.410 -0.3674 -0.1185  0.2492
 8044SOL    HW135594   4.480   1.791   7.369 -0.0038 -0.8706 -1.2655
 8044SOL    HW235595   4.559   1.705   7.452 -0.0676 -0.8790 -0.3641
 8045SOL     OW35596   3.225   3.433  14.806  0.1707  0.0986  0.1505
 8045SOL    HW135597   3.187   3.442  14.718 -1.9074  1.6285  1.1964
 8045SOL    HW235598   3.301   3.485  14.779 -0.2852  0.8385  0.2735
 8046SOL     OW35599   3.014   1.208   6.946  0.7425  0.4836  0.6257
 8046SOL    HW135600   2.991   1.164   7.027 -1.7529 -1.5949 -1.1954
 8046SOL    HW235601   3.079   1.269   6.979  0.9813 -0.4554  1.8622
 8047SOL     OW35602   4.219   2.621   7.330 -0.2558  0.0758  0.5246
 8047SOL    HW135603   4.282   2.554   7.358 -0.7537 -0.0235  1.3917
 8047SOL    HW235604   4.173   2.654   7.407  1.0148  3.6275 -0.2514
 8048SOL     OW35605   3.184   0.273   5.904  0.2308 -0.4607  0.3780
 8048SOL    HW135606   3.278   0.292   5.908 -0.4349  1.9536  3.9658
 8048SOL    HW235607   3.152   0.308   5.820  0.0823  1.1159  1.1064
 8049SOL     OW35608   2.582   2.196   6.948  1.0509  0.5122  0.1187
 8049SOL    HW135609   2.615   2.115   6.909 -1.4059 -0.9720  1.1499
 8049SOL    HW235610   2.523   2.170   7.019 -1.8518 -0.3838 -2.6052
 8050SOL     OW35611   4.379   0.902   4.337  0.3453  0.0576 -0.9139
 8050SOL    HW135612   4.458   0.922   4.388 -0.5791  0.4674  0.3246
 8050SOL    HW235613   4.365   0.986   4.294  1.5891  1.3177  1.1392
 8051SOL     OW35614   2.356   2.783   5.945  0.3905  0.1099 -0.4089
 8051SOL    HW135615   2.343   2.850   5.877 -1.0814 -2.2980 -2.5254
 8051SOL    HW235616   2.269   2.759   5.975  0.5018 -0.6327 -0.6681
 8052SOL     OW35617   0.088   3.301   2.846 -0.2326  0.2943  0.0031
 8052SOL    HW135618   0.137   3.248   2.783  1.3620 -1.0030  2.3321
 8052SOL    HW235619   0.003   3.259   2.860 -1.0832  1.9969 -0.0402
 8053SOL     OW35620   4.611   0.720  15.049  0.2256 -0.2171  0.0770
 8053SOL    HW135621   4.596   0.802  15.096  2.1618  1.1453 -1.7122
 8053SOL    HW235622   4.626   0.752  14.961  1.0126 -0.7207  0.0262
 8054SOL     OW35623   3.649   0.341  15.976 -0.4792 -0.3944 -0.5380
 8054SOL    HW135624   3.670   0.248  15.977 -1.9002 -0.7026  0.7659
 8054SOL    HW235625   3.721   0.362  16.036 -2.8378  2.3205  1.3612
 8055SOL     OW35626   2.104   0.577   8.059 -0.1445 -0.1880 -0.3531
 8055SOL    HW135627   2.035   0.623   8.011 -0.9054 -0.9945 -0.0421
 8055SOL    HW235628   2.174   0.641   8.050  0.2248 -0.7292 -1.4333
 8056SOL     OW35629   1.818   2.584  12.926 -0.1403 -0.1441 -0.3946
 8056SOL    HW135630   1.851   2.671  12.903  0.2109 -0.4561 -1.0363
 8056SOL    HW235631   1.727   2.601  12.953  0.5230  0.2895  1.6002
 8057SOL     OW35632   3.709   2.632   6.035 -0.0776  0.2241 -0.1655
 8057SOL    HW135633   3.756   2.656   5.955  0.8757 -2.6326 -0.4573
 8057SOL    HW235634   3.619   2.641   6.004 -0.9813 -1.4341  2.0437
 8058SOL     OW35635   2.917   2.280   7.444  0.1496 -0.1708  0.0869
 8058SOL    HW135636   2.931   2.187   7.428 -2.1169 -0.1955 -1.8198
 8058SOL    HW235637   2.939   2.327   7.363  1.5296  1.4630  1.4084
 8059SOL     OW35638   3.144   4.389  16.497 -0.3260 -0.1348  0.1660
 8059SOL    HW135639   3.134   4.317  16.434 -2.3581 -1.0096  1.5106
 8059SOL    HW235640   3.136   4.462  16.435 -0.8418  0.4119  0.8827
 8060SOL     OW35641   4.589   4.316   4.890  0.0494  0.2114  0.5307
 8060SOL    HW135642   4.684   4.310   4.885 -0.0013 -0.0983 -0.0796
 8060SOL    HW235643   4.588   4.384   4.957  1.0789  0.9596 -0.2199
 8061SOL     OW35644   3.635   1.010   6.656  0.0456  0.1741  0.2608
 8061SOL    HW135645   3.553   0.972   6.687  1.3589 -3.7209 -1.0576
 8061SOL    HW235646   3.642   0.972   6.568  1.3150  0.5228  0.2119
 8062SOL     OW35647   3.939   1.251  16.479  0.2467  0.7731 -0.9067
 8062SOL    HW135648   3.915   1.326  16.534 -2.9482 -1.1327  0.2943
 8062SOL    HW235649   3.996   1.299  16.419  2.0082  1.2145  1.1336
 8063SOL     OW35650   0.864   2.065   4.209 -0.3451  0.4550  0.3286
 8063SOL    HW135651   0.845   1.983   4.254  1.0004 -1.1210 -1.9507
 8063SOL    HW235652   0.959   2.059   4.197 -0.0668 -1.1686  3.4850
 8064SOL     OW35653   1.154   1.740   8.857 -0.2642  0.0999 -0.1649
 8064SOL    HW135654   1.157   1.758   8.763  1.0142 -0.3124 -0.2016
 8064SOL    HW235655   1.246   1.743   8.884 -0.3054  0.1189 -0.0262
 8065SOL     OW35656   3.628   3.590   3.147  0.2623  0.6429 -0.5507
 8065SOL    HW135657   3.675   3.574   3.229  0.7808 -0.4360 -1.0727
 8065SOL    HW235658   3.698   3.600   3.084 -0.0193 -1.4025 -1.1815
 8066SOL     OW35659   1.367   1.436   0.964  0.0101  0.1731 -0.2958
 8066SOL    HW135660   1.338   1.447   0.873 -1.0994 -0.6013 -0.0265
 8066SOL    HW235661   1.284   1.421   1.008  0.9114  3.0495  2.3466
 8067SOL     OW35662   4.255   2.538   5.422  0.2738 -0.1588  0.2743
 8067SOL    HW135663   4.181   2.598   5.414  1.4799  1.4368  1.0115
 8067SOL    HW235664   4.325   2.597   5.395  1.6676 -1.4436  1.0699
 8068SOL     OW35665   0.227   1.854   1.678 -0.2766 -0.5046  0.8521
 8068SOL    HW135666   0.308   1.810   1.654 -0.9577 -1.1960 -0.2042
 8068SOL    HW235667   0.191   1.862   1.589  1.5272  2.2426  0.3748
 8069SOL     OW35668   1.781   4.691  16.451  0.8831 -0.1166 -0.8328
 8069SOL    HW135669   1.794   0.064  16.452 -0.1107  0.0023  2.1429
 8069SOL    HW235670   1.752   4.669  16.362  0.1518 -0.5078 -0.4998
 8070SOL     OW35671   1.772   0.596   9.823 -0.2354  0.0236  0.1724
 8070SOL    HW135672   1.770   0.691   9.809 -0.8401  0.0011  0.0848
 8070SOL    HW235673   1.722   0.591   9.904  0.7635 -2.1501  0.6386
 8071SOL     OW35674   3.677   3.852  17.087  0.3870  0.1677 -0.3141
 8071SOL    HW135675   3.711   3.926  17.038 -0.2250 -0.3462 -1.4982
 8071SOL    HW235676   3.682   3.777  17.028  0.0281  0.6433 -0.9495
 8072SOL     OW35677   0.674   1.133   1.908  0.6887  0.7095 -0.3666
 8072SOL    HW135678   0.727   1.151   1.985  0.1204  0.4518  0.0896
 8072SOL    HW235679   0.593   1.178   1.934  1.0481  1.4485 -0.5414
 8073SOL     OW35680   3.352   4.109   4.724 -1.0062  0.4734  0.5623
 8073SOL    HW135681   3.347   4.015   4.739 -2.1215  0.3212 -0.7801
 8073SOL    HW235682   3.309   4.110   4.638  0.3627 -0.7159 -0.1314
 8074SOL     OW35683   1.577   3.985  13.432  0.0318  0.0861  0.2917
 8074SOL    HW135684   1.511   4.044  13.468  0.0381  0.0290  0.3983
 8074SOL    HW235685   1.640   4.055  13.413  0.7191 -0.6883 -0.2720
 8075SOL     OW35686   3.326   1.397   2.254  0.2734 -0.0610  0.2341
 8075SOL    HW135687   3.239   1.427   2.227  0.2641 -1.1880 -0.9752
 8075SOL    HW235688   3.376   1.476   2.233  0.3878 -0.2315 -0.1301
 8076SOL     OW35689   1.703   0.465   9.030  0.3931 -0.3286  0.5360
 8076SOL    HW135690   1.628   0.431   8.981 -0.0127 -0.6344  1.3722
 8076SOL    HW235691   1.665   0.550   9.055  1.0068 -0.0485  0.5220
 8077SOL     OW35692   3.126   3.009  15.425 -0.5307  0.0390  0.2184
 8077SOL    HW135693   3.205   3.062  15.412 -1.0475  0.4169 -1.4377
 8077SOL    HW235694   3.067   3.067  15.375  1.5410  2.1862  0.2694
 8078SOL     OW35695   1.431   2.127  17.289  0.2035  0.1103 -0.7395
 8078SOL    HW135696   1.373   2.194  17.325 -0.1158  0.3001 -1.6224
 8078SOL    HW235697   1.508   2.174  17.258  0.9329 -1.2050 -0.9262
 8079SOL     OW35698   0.803   3.120   8.257 -0.1398  0.0801 -0.1319
 8079SOL    HW135699   0.750   3.055   8.211  2.1036  0.3912 -3.1228
 8079SOL    HW235700   0.892   3.086   8.249  0.4272  1.3308  0.7168
 8080SOL     OW35701   3.387   0.072  11.697  0.5474 -0.4504  0.3016
 8080SOL    HW135702   3.401   0.160  11.661  0.4375 -1.7041 -2.7938
 8080SOL    HW235703   3.353   0.099  11.783 -0.4913  0.2617 -0.3247
 8081SOL     OW35704   1.035   2.186   5.983  0.0900 -0.3586 -0.6451
 8081SOL    HW135705   1.095   2.222   6.049 -0.9921  1.7529 -0.8374
 8081SOL    HW235706   1.093   2.150   5.915 -0.3311 -1.1407 -0.5888
 8082SOL     OW35707   4.456   3.716   6.760  0.7285 -0.2992 -0.7202
 8082SOL    HW135708   4.407   3.647   6.714  0.8564 -0.2508 -0.9280
 8082SOL    HW235709   4.389   3.744   6.822  1.4743 -0.5590  0.2178
 8083SOL     OW35710   4.370   2.017  10.914  0.3254 -0.0346  0.4342
 8083SOL    HW135711   4.427   2.080  10.957  1.3183 -0.2431 -0.5788
 8083SOL    HW235712   4.291   2.009  10.968  0.7369  1.7842  1.3086
 8084SOL     OW35713   1.848   0.448  15.872 -0.5476 -0.6651  0.2172
 8084SOL    HW135714   1.869   0.355  15.871  1.3242 -0.2432  0.2336
 8084SOL    HW235715   1.828   0.464  15.780  2.1398 -0.5576 -0.3476
 8085SOL     OW35716   4.485   1.658   9.351 -0.0057  0.2055  0.0275
 8085SOL    HW135717   4.429   1.584   9.376  0.5593 -0.5084 -0.8000
 8085SOL    HW235718   4.422   1.730   9.346 -1.2585 -0.8287  0.9549
 8086SOL     OW35719   4.535   3.944   9.341  0.2061  0.1338  0.2373
 8086SOL    HW135720   4.562   4.017   9.285 -1.0067  0.5762  0.2197
 8086SOL    HW235721   4.495   3.879   9.284  1.5910  0.9680 -1.6985
 8087SOL     OW35722   1.804   1.601  14.598 -0.0086 -0.2625  0.2433
 8087SOL    HW135723   1.722   1.569  14.637 -1.5845  2.0756 -1.1510
 8087SOL    HW235724   1.842   1.520  14.564 -0.9402 -0.9158  0.7599
 8088SOL     OW35725   4.709   3.598   4.967 -0.7982 -0.0420  0.0011
 8088SOL    HW135726   0.006   3.657   4.895 -2.3499  0.4613  0.0028
 8088SOL    HW235727   0.078   3.570   4.980 -0.9033 -1.2876 -1.9190
 8089SOL     OW35728   4.229   0.903   7.034  0.2180  0.2030  0.2294
 8089SOL    HW135729   4.267   0.818   7.013 -0.7612 -0.2082  0.1120
 8089SOL    HW235730   4.298   0.940   7.089  2.0165 -0.6439 -1.4962
 8090SOL     OW35731   1.145   2.514   1.344  0.1210  0.0074  0.0785
 8090SOL    HW135732   1.084   2.566   1.397  0.6427 -1.9498  2.5875
 8090SOL    HW235733   1.103   2.494   1.260 -1.1938 -0.1333  0.7696
 8091SOL     OW35734   4.145   2.724   8.528  0.2673 -0.1951  0.1366
 8091SOL    HW135735   4.134   2.819   8.523  2.2118  0.0548  0.8397
 8091SOL    HW235736   4.236   2.719   8.556  1.2138 -0.3286 -2.8624
 8092SOL     OW35737   3.936   2.115   4.278 -0.0759  0.1596 -0.2558
 8092SOL    HW135738   3.915   2.208   4.272 -1.5435 -0.1394  0.0804
 8092SOL    HW235739   3.911   2.095   4.188 -1.6818  1.4206 -0.0852
 8093SOL     OW35740   4.240   3.854   4.181 -0.2429  0.0574  1.1682
 8093SOL    HW135741   4.236   3.827   4.089  1.7335 -0.8738  1.3619
 8093SOL    HW235742   4.333   3.835   4.190 -0.4067 -1.0977  0.3338
 8094SOL     OW35743   3.707   4.295  11.318 -0.5582 -0.3019 -0.0337
 8094SOL    HW135744   3.719   4.264  11.408  2.1144  0.7513 -0.0199
 8094SOL    HW235745   3.682   4.387  11.329 -0.7271 -0.3033 -0.4002
 8095SOL     OW35746   3.820   0.246   4.330 -0.2137 -0.2912  1.1245
 8095SOL    HW135747   3.911   0.218   4.340 -0.5325 -1.2809  1.2399
 8095SOL    HW235748   3.826   0.303   4.253 -2.7630 -2.3665 -0.6219
 8096SOL     OW35749   0.151   1.516   3.629 -0.0991  0.0081 -0.3296
 8096SOL    HW135750   0.117   1.500   3.541 -1.2548 -0.1663  0.1455
 8096SOL    HW235751   0.104   1.597   3.648 -0.5623  0.0747 -1.7516
 8097SOL     OW35752   3.616   2.107   3.931  0.1173  0.0685  0.2422
 8097SOL    HW135753   3.606   2.074   3.841 -1.9858 -1.9589  1.2138
 8097SOL    HW235754   3.532   2.082   3.969 -0.9387  1.9805 -0.7672
 8098SOL     OW35755   2.532   3.547  15.669 -0.2393  0.3662  0.4972
 8098SOL    HW135756   2.477   3.616  15.631  0.8057 -0.1605 -1.9758
 8098SOL    HW235757   2.541   3.488  15.594  0.0249 -0.5585  1.2628
 8099SOL     OW35758   4.192   0.175   5.311 -0.1797 -0.0561  0.5748
 8099SOL    HW135759   4.257   0.107   5.327 -0.0738 -0.1255 -0.1763
 8099SOL    HW235760   4.248   0.249   5.333  1.2691 -1.2695  0.9370
 8100SOL     OW35761   0.455   4.451   8.837 -0.1435  0.0186  0.3394
 8100SOL    HW135762   0.511   4.373   8.833  1.1837  1.0887 -1.6862
 8100SOL    HW235763   0.411   4.434   8.754 -1.6202 -1.8290  1.5227
 8101SOL     OW35764   3.533   0.354   7.107  0.6703  0.4006  0.0466
 8101SOL    HW135765   3.627   0.365   7.091  0.5334  0.5089 -0.6622
 8101SOL    HW235766   3.513   0.277   7.054 -0.9917 -0.4963  1.9989
 8102SOL     OW35767   4.242   0.822   5.701  0.0149  0.3907  0.4991
 8102SOL    HW135768   4.227   0.906   5.746 -0.9731  0.0955  0.7209
 8102SOL    HW235769   4.172   0.831   5.637 -1.5926 -1.1186  2.0530
 8103SOL     OW35770   3.483   0.755  13.331  0.1533  0.3246  0.3072
 8103SOL    HW135771   3.399   0.751  13.286 -0.1407  2.5989  0.6286
 8103SOL    HW235772   3.466   0.715  13.416 -0.1880  0.2569  0.2038
 8104SOL     OW35773   2.397   0.854   8.719  0.2599  0.2367  0.3260
 8104SOL    HW135774   2.373   0.836   8.810  0.5795  0.4500  0.4517
 8104SOL    HW235775   2.311   0.861   8.679  0.1048  1.1864  0.8358
 8105SOL     OW35776   3.723   4.175  11.059 -0.2720  0.2689  0.6828
 8105SOL    HW135777   3.731   4.229  11.137  0.0889  1.3347 -0.0863
 8105SOL    HW235778   3.805   4.126  11.065 -0.5691 -0.2172  0.7649
 8106SOL     OW35779   3.967   3.738   3.729  0.2350  0.1032 -0.2016
 8106SOL    HW135780   3.991   3.825   3.761 -0.3906 -0.3484  1.5255
 8106SOL    HW235781   4.010   3.737   3.643 -0.2936  0.7626 -0.4692
 8107SOL     OW35782   2.120   1.222  10.855  0.0832  0.0433  0.4064
 8107SOL    HW135783   2.034   1.235  10.815  0.4729  0.7360 -0.1972
 8107SOL    HW235784   2.138   1.130  10.837  0.4004  0.8247 -3.3566
 8108SOL     OW35785   4.549   0.735   3.143  0.2180 -0.5023 -0.3237
 8108SOL    HW135786   4.638   0.726   3.108  1.4020  2.1478  2.0525
 8108SOL    HW235787   4.493   0.752   3.068 -1.4570  0.9674  1.2824
 8109SOL     OW35788   4.693   1.096   5.675 -0.2458 -0.3166 -0.6859
 8109SOL    HW135789   4.704   1.015   5.725  0.6709 -0.3630 -0.9613
 8109SOL    HW235790   4.599   1.090   5.663 -0.1965  0.7829 -1.6685
 8110SOL     OW35791   0.650   1.690   0.555  0.2749 -0.0211  0.0926
 8110SOL    HW135792   0.562   1.659   0.576 -0.0895  1.2270  0.4155
 8110SOL    HW235793   0.661   1.657   0.466 -0.9231  0.8174 -0.3659
 8111SOL     OW35794   0.715   2.538   5.850 -0.4282 -0.0895 -0.0387
 8111SOL    HW135795   0.674   2.506   5.930 -1.3632 -0.4804 -0.6700
 8111SOL    HW235796   0.647   2.593   5.812  0.7798  1.5798  0.2127
 8112SOL     OW35797   4.093   0.131  12.017  0.3148 -0.7632  0.4317
 8112SOL    HW135798   4.079   0.037  12.013  0.8292 -0.8581  0.8335
 8112SOL    HW235799   4.025   0.146  12.082  0.7167  0.4241  0.5982
 8113SOL     OW35800   3.022   4.420   0.903  0.1659 -0.0037 -0.2227
 8113SOL    HW135801   3.023   4.505   0.948  2.5564  0.1314 -0.5103
 8113SOL    HW235802   3.059   4.356   0.964 -1.1792 -1.4920 -0.9628
 8114SOL     OW35803   3.568   0.444   4.703  0.1861  0.2316 -0.0893
 8114SOL    HW135804   3.501   0.376   4.712 -0.2646  0.8204  0.9549
 8114SOL    HW235805   3.646   0.394   4.678  0.2785 -1.6222  3.8642
 8115SOL     OW35806   0.259   2.023   9.028  0.1930  0.1526  0.3712
 8115SOL    HW135807   0.226   1.975   9.104 -1.2998 -0.7917 -0.8788
 8115SOL    HW235808   0.349   2.029   9.062  0.8046  0.9680 -1.3688
 8116SOL     OW35809   3.781   1.082  11.151  0.1852  0.0253 -0.1351
 8116SOL    HW135810   3.729   1.141  11.206 -1.8288 -0.3378 -1.6555
 8116SOL    HW235811   3.800   1.004  11.204  0.1089  0.0518 -0.0687
 8117SOL     OW35812   3.523   2.614   5.095  0.4234 -0.0694 -0.5797
 8117SOL    HW135813   3.559   2.645   5.178 -2.0040  2.5981 -0.4864
 8117SOL    HW235814   3.575   2.680   5.049  2.0274 -2.1825 -1.7916
 8118SOL     OW35815   1.183   0.732  10.000  0.3193 -0.4440  0.0440
 8118SOL    HW135816   1.182   0.640  10.028  1.1526  0.1051  1.8695
 8118SOL    HW235817   1.160   0.773  10.083  1.2045  2.4945 -1.1544
 8119SOL     OW35818   2.356   1.258   4.735 -0.4708 -0.5709  0.2524
 8119SOL    HW135819   2.450   1.272   4.746 -0.8434  1.2568  1.0978
 8119SOL    HW235820   2.352   1.268   4.640 -0.4555 -1.9088  0.1202
 8120SOL     OW35821   3.882   2.699  14.147  0.1955 -0.2339 -0.3513
 8120SOL    HW135822   3.795   2.672  14.179  0.0990  0.3525 -0.1225
 8120SOL    HW235823   3.936   2.702  14.226 -1.5439  1.6486  0.7870
 8121SOL     OW35824   1.617   2.492   1.477  0.3663 -0.2063 -0.4647
 8121SOL    HW135825   1.594   2.561   1.414 -2.3818  0.1710  0.9764
 8121SOL    HW235826   1.540   2.440   1.457 -1.8471  3.2977 -1.1220
 8122SOL     OW35827   0.759   2.501   8.865 -0.4900 -0.0350 -0.3090
 8122SOL    HW135828   0.796   2.412   8.868  0.1909  0.3011  1.2987
 8122SOL    HW235829   0.758   2.507   8.769 -0.9328  0.6290 -0.2574
 8123SOL     OW35830   3.963   2.855  14.843 -0.4072 -0.0937 -0.7944
 8123SOL    HW135831   3.903   2.905  14.787 -0.4797  0.3735 -0.3035
 8123SOL    HW235832   3.902   2.804  14.897 -0.8432  0.8796 -0.3677
 8124SOL     OW35833   4.101   2.675  12.999  0.8442  0.5541 -0.0631
 8124SOL    HW135834   4.060   2.596  12.965 -0.0780  0.4919  1.1815
 8124SOL    HW235835   4.151   2.697  12.921  2.4511 -0.8154  0.5811
 8125SOL     OW35836   0.672   2.833   6.497  0.3241 -0.3807 -0.2688
 8125SOL    HW135837   0.633   2.900   6.552  0.3402 -1.3174  0.8618
 8125SOL    HW235838   0.762   2.862   6.480 -0.0087  1.4078  1.1641
 8126SOL     OW35839   2.339   0.220   2.637 -0.2539  0.3236  0.4024
 8126SOL    HW135840   2.339   0.230   2.732 -1.3666  0.3705  0.4042
 8126SOL    HW235841   2.360   0.305   2.597  1.5077 -0.6237 -0.6447
 8127SOL     OW35842   1.072   2.952  10.869 -0.5374  0.1751  1.0178
 8127SOL    HW135843   1.136   2.996  10.814 -0.2988 -0.3854  0.8444
 8127SOL    HW235844   1.041   2.879  10.815  0.0444  1.0008 -0.4219
 8128SOL     OW35845   1.165   3.361   9.850 -0.2298  0.1828  0.0779
 8128SOL    HW135846   1.077   3.342   9.819  0.3722 -0.2742 -1.3479
 8128SOL    HW235847   1.159   3.341   9.943 -1.0922 -0.5534 -0.1374
 8129SOL     OW35848   3.473   2.833   8.231 -0.3444  0.1069 -0.4722
 8129SOL    HW135849   3.488   2.926   8.214 -1.7320  0.6769  1.4279
 8129SOL    HW235850   3.402   2.830   8.167 -0.3581  2.1536 -0.5490
 8130SOL     OW35851   2.861   1.522  14.738  0.6382  0.3343 -0.1096
 8130SOL    HW135852   2.795   1.590  14.722  0.2567  0.2618  1.1565
 8130SOL    HW235853   2.848   1.512  14.832 -2.1687  0.7914 -0.4374
 8131SOL     OW35854   2.678   2.753   7.895 -0.5106 -0.0531  0.0494
 8131SOL    HW135855   2.632   2.677   7.930  0.5019 -1.0672 -0.8293
 8131SOL    HW235856   2.708   2.793   7.976  0.0051  1.7153 -1.0280
 8132SOL     OW35857   1.368   1.376   8.754 -0.7366  0.4254  0.1851
 8132SOL    HW135858   1.330   1.422   8.829  2.4022  0.7232  1.6080
 8132SOL    HW235859   1.444   1.330   8.789  0.4814  1.3960 -1.1943
 8133SOL     OW35860   4.032   1.898   2.440 -0.0378 -0.2810 -0.1626
 8133SOL    HW135861   4.036   1.847   2.359 -2.3237 -0.6047 -0.0587
 8133SOL    HW235862   3.962   1.960   2.419  0.5901 -0.7085 -3.5381
 8134SOL     OW35863   3.398   2.007   4.069 -0.0395 -0.2607  0.2926
 8134SOL    HW135864   3.411   2.029   4.161  2.5709 -2.0411  0.3295
 8134SOL    HW235865   3.413   1.913   4.079 -1.5666 -0.5685 -0.2154
 8135SOL     OW35866   1.915   4.137   5.379 -0.2207  0.1353  0.2342
 8135SOL    HW135867   1.855   4.118   5.306 -0.1858 -2.7102  0.9549
 8135SOL    HW235868   1.849   4.140   5.448  0.1239 -0.7371  0.5873
 8136SOL     OW35869   1.645   2.699   6.332 -0.1811 -0.3686  0.8034
 8136SOL    HW135870   1.620   2.776   6.280  1.0725 -0.7543 -0.3587
 8136SOL    HW235871   1.638   2.755   6.409 -2.0050  2.4150 -1.3450
 8137SOL     OW35872   3.955   0.883   4.639 -0.5841  0.4513 -0.6006
 8137SOL    HW135873   3.964   0.873   4.545  1.4255 -1.4907 -0.1899
 8137SOL    HW235874   3.861   0.890   4.659 -0.0178  0.7929  2.0282
 8138SOL     OW35875   3.839   2.040   6.160 -0.2253 -0.5567  0.1696
 8138SOL    HW135876   3.915   2.006   6.207 -0.0492  1.2820  1.1786
 8138SOL    HW235877   3.773   2.016   6.225  0.9435  0.5237  1.7289
 8139SOL     OW35878   1.188   1.808   6.655  0.0948  0.4576 -0.2484
 8139SOL    HW135879   1.114   1.781   6.602  1.8239 -0.7181 -2.0559
 8139SOL    HW235880   1.149   1.764   6.731  0.2612  1.7970  0.6121
 8140SOL     OW35881   4.581   4.626   0.128  0.2396 -0.7039 -0.2534
 8140SOL    HW135882   4.617   4.574   0.200  1.2735 -0.3837 -0.5297
 8140SOL    HW235883   4.516   4.679   0.174  2.0575  0.2404  1.1981
 8141SOL     OW35884   4.362   3.093   6.479  0.2828  0.3036 -0.3258
 8141SOL    HW135885   4.427   3.121   6.415  2.7728 -0.6307  1.8082
 8141SOL    HW235886   4.417   3.025   6.516  1.3982  0.9039 -0.9036
 8142SOL     OW35887   3.419   3.157   0.165  0.0504 -0.0825  0.0478
 8142SOL    HW135888   3.445   3.202   0.086 -1.6099  1.1599  0.2071
 8142SOL    HW235889   3.342   3.207   0.194 -0.4893 -1.2864  0.7177
 8143SOL     OW35890   3.171   2.123   8.914  0.0185 -0.5549  0.3315
 8143SOL    HW135891   3.240   2.080   8.863  0.0161 -1.3181  0.9593
 8143SOL    HW235892   3.223   2.176   8.974 -0.2049  0.3345 -0.2628
 8144SOL     OW35893   1.385   4.013   4.485  0.4735  0.0518  0.0687
 8144SOL    HW135894   1.473   3.983   4.460 -0.7413 -2.2668 -1.3673
 8144SOL    HW235895   1.402   4.107   4.481  1.9494 -0.2290 -0.2387
 8145SOL     OW35896   0.332   0.041   8.004  0.0743  0.2199  0.4168
 8145SOL    HW135897   0.246   0.027   8.043  0.0284 -3.1843 -0.9116
 8145SOL    HW235898   0.385   0.031   8.083 -0.7102  1.1917  1.0675
 8146SOL     OW35899   2.380   1.664   7.135 -0.1494 -0.1664  0.0408
 8146SOL    HW135900   2.325   1.647   7.059 -0.7503 -0.7044  0.5945
 8146SOL    HW235901   2.442   1.592   7.122 -1.8394 -1.2995 -1.7528
 8147SOL     OW35902   4.043   0.337   0.575 -0.1781  0.0244  0.0868
 8147SOL    HW135903   4.034   0.430   0.597 -3.9059 -0.3573  0.1733
 8147SOL    HW235904   4.096   0.354   0.498  0.4956  2.2162  1.0288
 8148SOL     OW35905   3.261   2.640   5.230  0.0456  0.5463  0.0318
 8148SOL    HW135906   3.232   2.730   5.244 -1.9552  0.3633 -3.0211
 8148SOL    HW235907   3.303   2.655   5.145  0.7046  1.3462  0.5109
 8149SOL     OW35908   2.031   2.884   4.018  0.1303 -0.0429  0.2355
 8149SOL    HW135909   1.947   2.839   4.026 -0.4252  0.6712 -1.5987
 8149SOL    HW235910   2.022   2.924   3.931 -0.7991 -1.4278 -0.3100
 8150SOL     OW35911   1.362   1.462  16.080  0.6168 -0.3032  0.1546
 8150SOL    HW135912   1.302   1.433  16.011  2.1166 -1.5612 -0.6063
 8150SOL    HW235913   1.321   1.437  16.163  1.2336 -0.6857  0.3405
 8151SOL     OW35914   4.099   4.193   7.200  0.0111  0.4768 -0.4508
 8151SOL    HW135915   4.108   4.280   7.240  0.7432 -0.3409  1.1436
 8151SOL    HW235916   4.125   4.214   7.111 -0.6830  2.1920 -0.2492
 8152SOL     OW35917   2.716   2.826   4.372 -0.0555  0.1075 -0.2861
 8152SOL    HW135918   2.637   2.775   4.352 -0.0878  0.6163 -1.4564
 8152SOL    HW235919   2.777   2.813   4.299 -1.0439 -1.4197 -0.8366
 8153SOL     OW35920   0.335   1.817   2.816 -0.5398 -0.5382 -0.4275
 8153SOL    HW135921   0.256   1.854   2.777 -0.8336 -2.6293 -1.7554
 8153SOL    HW235922   0.404   1.843   2.755 -1.9970  0.9989 -1.4221
 8154SOL     OW35923   3.791   3.139  16.140  0.2399  0.4109  0.0615
 8154SOL    HW135924   3.725   3.093  16.192  1.6272  0.3617  1.7982
 8154SOL    HW235925   3.746   3.222  16.127 -0.0268  0.0916 -1.0487
 8155SOL     OW35926   0.641   2.000   1.680 -0.5466  0.0773 -0.0562
 8155SOL    HW135927   0.731   2.022   1.657 -0.6074  1.7850  1.3802
 8155SOL    HW235928   0.650   1.905   1.674  2.5945  0.6301 -4.3241
 8156SOL     OW35929   3.126   4.570  16.312 -0.0884  0.0033  0.2890
 8156SOL    HW135930   3.195   4.547  16.249  0.3943  0.4519  0.6518
 8156SOL    HW235931   3.058   4.595  16.251 -1.6693 -1.4010  1.4734
 8157SOL     OW35932   3.623   0.307  12.522  0.6263 -0.1969  0.2574
 8157SOL    HW135933   3.670   0.225  12.537 -0.5461 -0.7659  0.7917
 8157SOL    HW235934   3.697   0.368  12.523  1.1834 -0.8593  0.2827
 8158SOL     OW35935   3.053   2.074   0.624 -0.3534  0.4425 -0.2973
 8158SOL    HW135936   3.140   2.114   0.618  0.7877 -1.7363  1.8407
 8158SOL    HW235937   3.005   2.156   0.635 -0.8819  0.1514 -0.4215
 8159SOL     OW35938   0.603   2.530   1.211 -0.3083  0.1960  0.5227
 8159SOL    HW135939   0.620   2.461   1.275 -2.1203 -0.9902 -0.2536
 8159SOL    HW235940   0.575   2.477   1.136  1.1599 -3.2561  2.4200
 8160SOL     OW35941   3.162   1.793   4.186  0.0296  0.0457 -0.1796
 8160SOL    HW135942   3.157   1.771   4.093  1.7070  2.6999 -0.8967
 8160SOL    HW235943   3.076   1.833   4.196 -0.1001 -0.7090  1.6481
 8161SOL     OW35944   0.771   1.155   1.653 -0.1419  0.2985 -0.0479
 8161SOL    HW135945   0.698   1.101   1.622 -1.9271  1.2610  2.5162
 8161SOL    HW235946   0.756   1.147   1.747  1.6867  1.5237  0.3521
 8162SOL     OW35947   0.702   3.749   9.425 -0.3810 -0.0458  0.8063
 8162SOL    HW135948   0.741   3.685   9.364  0.7784  0.5599  0.9121
 8162SOL    HW235949   0.724   3.833   9.384  0.5318 -0.3472  0.6736
 8163SOL     OW35950   4.449   0.534   1.499  0.0622  0.0013  0.7002
 8163SOL    HW135951   4.534   0.549   1.459  1.4338 -0.7335  3.3582
 8163SOL    HW235952   4.384   0.559   1.433  0.0358 -1.2909  0.2385
 8164SOL     OW35953   3.494   1.394   8.397 -0.3925  0.1601  0.5350
 8164SOL    HW135954   3.515   1.304   8.374 -0.4392  0.3851 -0.4001
 8164SOL    HW235955   3.421   1.403   8.335 -0.1230  1.7278  0.4463
 8165SOL     OW35956   4.273   1.450   7.160 -0.4669 -0.1002  0.1490
 8165SOL    HW135957   4.229   1.493   7.234 -1.2763 -0.3783 -0.1703
 8165SOL    HW235958   4.313   1.529   7.122 -0.4646  0.5435  1.4899
 8166SOL     OW35959   2.391   0.189  14.816  0.6102 -0.6844 -0.6061
 8166SOL    HW135960   2.373   0.277  14.846  2.0438  0.1783 -2.2353
 8166SOL    HW235961   2.330   0.176  14.743 -1.8290  1.2236  1.1433
 8167SOL     OW35962   0.286   4.635   0.426 -0.3993 -0.3005 -0.5404
 8167SOL    HW135963   0.306   4.680   0.344  1.0876 -1.2268 -0.6759
 8167SOL    HW235964   0.268   4.545   0.400  1.6665 -0.2167 -2.1800
 8168SOL     OW35965   4.030   4.009   3.306  0.3421 -0.1369  0.0933
 8168SOL    HW135966   4.011   3.927   3.260  1.1816  0.3409 -1.1310
 8168SOL    HW235967   3.974   3.988   3.380 -0.5353 -3.3857 -1.4709
 8169SOL     OW35968   1.653   1.889   7.529  0.0182  0.5795  0.4984
 8169SOL    HW135969   1.636   1.953   7.598 -0.4180  1.6910 -0.6231
 8169SOL    HW235970   1.657   1.809   7.581  0.5605 -0.6012 -1.3434
 8170SOL     OW35971   4.339   4.105   7.324  0.4283  0.0977 -0.1386
 8170SOL    HW135972   4.359   4.037   7.388  0.9039  0.0716 -0.3134
 8170SOL    HW235973   4.243   4.097   7.323  0.4663 -0.3872  0.0533
 8171SOL     OW35974   1.658   0.053  10.652 -0.2730  0.0155 -0.7175
 8171SOL    HW135975   1.693   0.124  10.598 -0.6146 -1.7945 -3.3446
 8171SOL    HW235976   1.703   0.086  10.730 -0.3153 -2.9522  0.5381
 8172SOL     OW35977   0.370   3.061   0.730 -0.2756  0.0074  0.3418
 8172SOL    HW135978   0.357   3.047   0.824  1.1164  1.4951  0.7582
 8172SOL    HW235979   0.282   3.082   0.698 -0.3754 -0.2215  0.4628
 8173SOL     OW35980   2.871   2.955   8.382  0.8556  0.2288 -0.2833
 8173SOL    HW135981   2.912   3.041   8.377  2.5506 -0.6900 -2.4752
 8173SOL    HW235982   2.794   2.982   8.431  0.4184 -0.7082 -0.4473
 8174SOL     OW35983   3.848   2.852  16.247 -0.5115  0.1431 -0.1813
 8174SOL    HW135984   3.936   2.815  16.249 -1.2374 -1.5188  1.3852
 8174SOL    HW235985   3.855   2.927  16.189  2.2938 -0.2671 -0.3411
 8175SOL     OW35986   3.373   2.035   4.860 -0.0918 -0.1550  0.3247
 8175SOL    HW135987   3.461   2.014   4.892 -0.1758 -2.1132 -0.7195
 8175SOL    HW235988   3.350   1.955   4.812  0.8353  0.3264 -0.9318
 8176SOL     OW35989   4.138   4.401   2.732 -0.0112 -0.6049 -0.2196
 8176SOL    HW135990   4.199   4.327   2.727 -1.8977 -2.2356  0.6443
 8176SOL    HW235991   4.194   4.469   2.769  0.2079  1.2112 -3.8995
 8177SOL     OW35992   2.555   0.005   6.823 -0.2678  0.3355 -0.4139
 8177SOL    HW135993   2.521   0.001   6.733  0.6887 -0.6913 -0.7336
 8177SOL    HW235994   2.619   0.075   6.810 -0.0421  0.2709  0.3711
 8178SOL     OW35995   2.978   2.326  15.829  0.5965 -0.4033  0.2779
 8178SOL    HW135996   2.892   2.289  15.849 -1.5766  3.5208 -1.6957
 8178SOL    HW235997   3.030   2.253  15.797  0.8446 -0.3824  0.6304
 8179SOL     OW35998   4.151   3.545  12.804 -0.0229  0.2749 -0.2525
 8179SOL    HW135999   4.071   3.597  12.809  0.1389  0.3014  1.9531
 8179SOL    HW236000   4.174   3.560  12.713 -1.0757  0.6613 -0.4569
 8180SOL     OW36001   0.773   1.219  14.531  0.1909  0.1866  0.0940
 8180SOL    HW136002   0.834   1.287  14.559 -0.2676  1.0922 -1.1338
 8180SOL    HW236003   0.781   1.143  14.590  0.4075 -1.8104 -2.5177
 8181SOL     OW36004   2.274   3.856  11.797  0.4967 -0.1060 -1.1075
 8181SOL    HW136005   2.263   3.768  11.832  0.0939  0.0975 -0.7140
 8181SOL    HW236006   2.190   3.893  11.822  1.0411  0.4452 -0.0690
 8182SOL     OW36007   1.266   0.402   8.529 -0.3264  0.3194  0.1845
 8182SOL    HW136008   1.183   0.400   8.577  0.4798 -2.3200  1.4996
 8182SOL    HW236009   1.241   0.464   8.461  1.4487  1.8977  0.9417
 8183SOL     OW36010   0.657   4.323   6.218  1.0347 -0.0547  0.3926
 8183SOL    HW136011   0.723   4.373   6.266 -0.1436  2.8523 -1.0285
 8183SOL    HW236012   0.601   4.282   6.284 -0.6927  1.6413 -0.0158
 8184SOL     OW36013   1.669   3.366  17.049 -0.3504 -0.1776 -0.3972
 8184SOL    HW136014   1.644   3.351  16.958 -2.5614  1.1280 -0.0159
 8184SOL    HW236015   1.756   3.326  17.051  0.4066  1.5314  1.8065
 8185SOL     OW36016   0.950   3.566   1.469  0.3263  0.2218 -0.1771
 8185SOL    HW136017   1.023   3.554   1.408  1.7034  2.7630  0.9889
 8185SOL    HW236018   0.869   3.568   1.417  0.4760 -2.1049 -0.5034
 8186SOL     OW36019   0.803   2.754   4.222  0.2274  1.0832 -0.0186
 8186SOL    HW136020   0.866   2.739   4.293  0.5492 -0.7761 -0.6907
 8186SOL    HW236021   0.723   2.773   4.271  1.0497 -2.4950  2.6900
 8187SOL     OW36022   4.094   0.037   8.651 -0.3818 -0.1845 -0.0760
 8187SOL    HW136023   4.187   0.045   8.671  0.1453 -0.3676 -2.4755
 8187SOL    HW236024   4.101   0.073   8.562 -0.0582  0.0512  0.0479
 8188SOL     OW36025   1.624   1.722   7.761  0.5824 -0.2860  0.1973
 8188SOL    HW136026   1.578   1.655   7.711 -1.0318  1.1074 -0.1748
 8188SOL    HW236027   1.577   1.716   7.845 -0.6342  1.2734 -0.3749
 8189SOL     OW36028   2.971   4.236  12.067 -0.2165  0.3724 -0.4143
 8189SOL    HW136029   3.022   4.307  12.028  0.5615 -0.0421 -0.1432
 8189SOL    HW236030   2.913   4.278  12.131 -0.0864 -0.6292  0.3574
 8190SOL     OW36031   1.588   2.606   6.746 -0.5153  0.0452  0.1088
 8190SOL    HW136032   1.529   2.675   6.776  0.3820  0.4312  1.0001
 8190SOL    HW236033   1.536   2.568   6.675  0.7430 -0.6928 -0.4059
 8191SOL     OW36034   1.432   3.811   8.605 -0.1415  0.6525  0.0259
 8191SOL    HW136035   1.395   3.795   8.692 -0.2996 -0.5683 -0.2667
 8191SOL    HW236036   1.478   3.729   8.590  0.6446  1.2958 -1.0701
 8192SOL     OW36037   1.297   2.194   6.535 -0.2852  0.3561  0.4247
 8192SOL    HW136038   1.208   2.211   6.505 -0.6765  0.7079  1.8109
 8192SOL    HW236039   1.282   2.146   6.616 -1.4964  0.4279  0.2333
 8193SOL     OW36040   3.559   0.621   5.162 -0.3085  0.5708 -0.5647
 8193SOL    HW136041   3.492   0.630   5.094  1.4371 -0.0373 -2.3627
 8193SOL    HW236042   3.499   0.595   5.232  1.1690  0.3723  0.6235
 8194SOL     OW36043   4.373   2.232   9.047  0.7712 -0.4105 -0.3156
 8194SOL    HW136044   4.344   2.321   9.068  3.2407 -0.2401  2.3134
 8194SOL    HW236045   4.464   2.235   9.074  1.0939  0.0007 -1.4514
 8195SOL     OW36046   0.781   3.709  13.391  0.4453  0.1915  0.3123
 8195SOL    HW136047   0.813   3.799  13.384  1.3084 -0.0992  0.4779
 8195SOL    HW236048   0.862   3.659  13.380 -0.0994 -0.4555 -0.7043
 8196SOL     OW36049   0.047   2.882  11.536  0.0959 -0.0874 -0.3114
 8196SOL    HW136050   4.680   2.849  11.524  0.2320 -0.1401 -1.1950
 8196SOL    HW236051   0.061   2.907  11.444  1.1190  2.7050  0.5825
 8197SOL     OW36052   4.639   1.856   7.008  0.3087 -0.2647 -0.1329
 8197SOL    HW136053   4.627   1.763   6.991 -1.1676  0.3432 -2.4498
 8197SOL    HW236054   4.667   1.859   7.100 -0.6985  0.7585  0.1373
 8198SOL     OW36055   1.965   0.347  15.437 -0.8629 -0.0857 -0.0190
 8198SOL    HW136056   1.976   0.400  15.357 -5.5999  0.2221 -0.4411
 8198SOL    HW236057   2.023   0.273  15.418 -1.4781 -0.5939  0.0906
 8199SOL     OW36058   3.735   2.284   7.103 -0.4667 -0.2283  0.6513
 8199SOL    HW136059   3.799   2.305   7.036 -1.1825  0.2103  0.0981
 8199SOL    HW236060   3.670   2.234   7.053 -0.9991  2.1028 -0.9856
 8200SOL     OW36061   1.083   0.704  13.832  0.2736 -0.3697 -0.0673
 8200SOL    HW136062   1.124   0.789  13.850 -2.3399  0.3035  2.6112
 8200SOL    HW236063   0.998   0.722  13.871  0.7375 -2.6286  1.9374
 8201SOL     OW36064   1.219   1.972  11.439  0.2905 -0.6286 -0.0674
 8201SOL    HW136065   1.242   2.025  11.516 -0.8281  1.9344 -1.5110
 8201SOL    HW236066   1.172   2.039  11.389  1.2538 -0.0357 -0.1692
 8202SOL     OW36067   4.230   2.519  11.505 -0.1958 -0.1115  0.6854
 8202SOL    HW136068   4.191   2.440  11.468 -0.6842  0.9501 -1.1192
 8202SOL    HW236069   4.215   2.502  11.598 -2.4326  0.8572  0.5064
 8203SOL     OW36070   0.528   3.561   8.665 -0.2189  0.4736 -0.2434
 8203SOL    HW136071   0.512   3.596   8.753  0.3133 -1.4263  0.6039
 8203SOL    HW236072   0.604   3.610   8.634  1.2130 -1.9531 -0.4905
 8204SOL     OW36073   3.876   4.167  13.781  0.4497 -0.4856 -0.1432
 8204SOL    HW136074   3.915   4.255  13.782  1.5125 -0.9608 -0.9308
 8204SOL    HW236075   3.903   4.132  13.866  0.5739 -0.3687 -0.1355
 8205SOL     OW36076   2.015   1.360   7.830 -0.5058 -0.8442 -0.4604
 8205SOL    HW136077   1.962   1.359   7.750 -0.0322 -0.1836 -0.7796
 8205SOL    HW236078   2.080   1.291   7.814 -0.5201 -1.0756  0.4882
 8206SOL     OW36079   4.481   3.509  12.250  0.2529  0.7665 -0.1884
 8206SOL    HW136080   4.503   3.600  12.269  1.6718  0.4332 -0.1987
 8206SOL    HW236081   4.475   3.511  12.155  2.2159 -1.2904 -0.3587
 8207SOL     OW36082   3.061   3.889  14.637 -0.2792  0.4528 -0.4039
 8207SOL    HW136083   3.155   3.906  14.646 -0.1678  0.1798 -1.0282
 8207SOL    HW236084   3.064   3.810  14.582  2.0715  1.6516 -2.0333
 8208SOL     OW36085   0.150   4.446   9.897 -0.6525 -0.3982 -0.5828
 8208SOL    HW136086   0.104   4.463   9.980 -0.3076  1.4156 -0.7629
 8208SOL    HW236087   0.123   4.355   9.885 -3.1283  0.2439  0.1380
 8209SOL     OW36088   0.535   0.454   7.139  0.1914  0.7896 -0.1258
 8209SOL    HW136089   0.462   0.392   7.139  0.9338 -0.0879 -0.7165
 8209SOL    HW236090   0.500   0.532   7.096 -0.0194  1.2117  0.8164
 8210SOL     OW36091   3.155   3.265  16.210  0.3614  0.0860  0.0791
 8210SOL    HW136092   3.100   3.338  16.181  1.0331  0.4267 -0.3449
 8210SOL    HW236093   3.127   3.201  16.144  0.3509  1.9112 -1.6984
 8211SOL     OW36094   1.118   0.255   4.250 -0.4592  0.0613  0.1176
 8211SOL    HW136095   1.110   0.299   4.166 -1.1491 -0.1021  0.0999
 8211SOL    HW236096   1.150   0.168   4.225  0.1678  0.3253  0.0017
 8212SOL     OW36097   1.139   0.848   5.215 -0.5361  0.3936  0.5829
 8212SOL    HW136098   1.052   0.826   5.182 -0.2368  0.2773 -0.1407
 8212SOL    HW236099   1.122   0.902   5.292  4.4707  0.7041  1.4566
 8213SOL     OW36100   1.326   4.203   3.836  0.5256  0.1897 -0.0197
 8213SOL    HW136101   1.256   4.196   3.901  0.8807  3.2364  0.6878
 8213SOL    HW236102   1.282   4.147   3.772 -0.6820  1.4634 -0.2926
 8214SOL     OW36103   2.750   1.986   3.420  0.7736  0.4307 -0.1305
 8214SOL    HW136104   2.664   1.953   3.393  0.0516  2.7984 -0.7516
 8214SOL    HW236105   2.809   1.953   3.352  1.1558 -1.4738  1.1515
 8215SOL     OW36106   0.165   4.383   9.003 -0.0114  0.0651  0.0180
 8215SOL    HW136107   0.236   4.447   8.991  1.3882 -1.3636  0.8031
 8215SOL    HW236108   0.114   4.422   9.074  0.3268 -0.2605  0.4387
 8216SOL     OW36109   0.138   2.226   8.914  0.3233 -0.3034  0.1847
 8216SOL    HW136110   0.206   2.291   8.893 -0.1383 -0.1072 -0.7015
 8216SOL    HW236111   0.171   2.145   8.953 -0.4926  0.1193  1.7525
 8217SOL     OW36112   3.633   2.613  12.786 -0.5180  0.3890  0.3586
 8217SOL    HW136113   3.712   2.595  12.734 -0.8299 -0.8271  0.2995
 8217SOL    HW236114   3.613   2.520  12.801  0.0398  0.6032  2.3725
 8218SOL     OW36115   1.383   2.766   8.398 -0.6318 -0.2016 -0.5214
 8218SOL    HW136116   1.339   2.842   8.360  0.9774  0.5616 -0.8295
 8218SOL    HW236117   1.311   2.743   8.457 -1.6087  0.3126 -1.4981
 8219SOL     OW36118   4.281   3.389   7.167 -0.3009 -0.4143 -0.4390
 8219SOL    HW136119   4.291   3.416   7.259 -0.1625 -0.3180 -0.4825
 8219SOL    HW236120   4.271   3.294   7.175 -1.4851 -0.5206 -3.3988
 8220SOL     OW36121   2.210   3.889   3.662 -0.3777  0.3387  0.1784
 8220SOL    HW136122   2.156   3.958   3.623 -0.5615  1.0075  1.6094
 8220SOL    HW236123   2.193   3.816   3.602 -0.6026 -0.9595  1.8018
 8221SOL     OW36124   4.381   3.736   5.819 -0.5609 -0.5288  0.2118
 8221SOL    HW136125   4.407   3.667   5.758 -1.7289  0.7976 -1.7781
 8221SOL    HW236126   4.322   3.789   5.765  1.0023  0.5912 -0.4029
 8222SOL     OW36127   2.533   2.255  13.615 -0.2104  0.3394  0.3026
 8222SOL    HW136128   2.439   2.265  13.631 -0.4978  0.4565 -1.4651
 8222SOL    HW236129   2.555   2.344  13.587  0.2154 -0.0076 -0.4776
 8223SOL     OW36130   4.119   1.289   8.792 -0.6001 -0.2408  0.3455
 8223SOL    HW136131   4.144   1.210   8.838 -0.9794 -0.9954 -0.7447
 8223SOL    HW236132   4.056   1.335   8.847 -1.8792  0.8815 -2.0765
 8224SOL     OW36133   4.447   1.828   1.280  0.0537  0.1794 -0.3703
 8224SOL    HW136134   4.394   1.907   1.289 -0.9963 -0.6167  0.4202
 8224SOL    HW236135   4.387   1.775   1.228 -1.4856 -0.3770  1.9810
 8225SOL     OW36136   0.700   0.982   7.448  0.1614  0.1637  0.2628
 8225SOL    HW136137   0.658   1.062   7.478  1.7815  1.0718  0.1089
 8225SOL    HW236138   0.697   0.922   7.522  0.7014 -0.9623 -0.6090
 8226SOL     OW36139   3.577   2.214   6.853 -0.1900 -0.1717 -0.3670
 8226SOL    HW136140   3.509   2.242   6.914 -0.0551  0.5105 -0.5310
 8226SOL    HW236141   3.584   2.286   6.790  0.0441  2.0735  2.2388
 8227SOL     OW36142   2.440   3.354  14.981 -0.3401  0.4935 -0.2870
 8227SOL    HW136143   2.434   3.359  14.885 -0.0617 -0.7458 -0.3702
 8227SOL    HW236144   2.419   3.262  15.000  0.3588  0.1388 -1.2370
 8228SOL     OW36145   0.502   3.833   7.806  0.2892 -0.3237  0.4053
 8228SOL    HW136146   0.477   3.902   7.867 -1.0110 -2.0388  1.8272
 8228SOL    HW236147   0.516   3.883   7.726  0.7472  1.6163  1.7050
 8229SOL     OW36148   0.371   1.481   3.302  0.0064  0.4023  0.2593
 8229SOL    HW136149   0.289   1.456   3.260 -0.0402 -1.2879  1.3829
 8229SOL    HW236150   0.345   1.554   3.358 -0.3343 -0.2097  0.8914
 8230SOL     OW36151   2.418   4.257   5.225 -0.1247 -0.7245 -0.2131
 8230SOL    HW136152   2.337   4.269   5.175 -0.8010  2.1836  1.5101
 8230SOL    HW236153   2.446   4.346   5.248  3.0210 -2.2571  1.8853
 8231SOL     OW36154   4.494   1.748   8.889  0.6291  0.2518  0.2250
 8231SOL    HW136155   4.560   1.692   8.848  0.3823 -0.1471  0.3670
 8231SOL    HW236156   4.433   1.744   8.816 -0.2234 -0.0352  0.9466
 8232SOL     OW36157   3.475   1.719   9.067  0.0063  0.2729 -0.3630
 8232SOL    HW136158   3.521   1.793   9.107 -1.3559  1.3525 -0.8098
 8232SOL    HW236159   3.556   1.677   9.036  0.7684  1.1505  0.4167
 8233SOL     OW36160   4.613   1.185  10.154  0.6301  0.2131 -0.1454
 8233SOL    HW136161   4.643   1.253  10.214 -0.6383  0.3328  0.3446
 8233SOL    HW236162   4.520   1.178  10.178  0.7253 -0.4252  0.0418
 8234SOL     OW36163   3.511   3.751   5.866 -0.0214 -0.4214 -0.9542
 8234SOL    HW136164   3.417   3.736   5.857 -0.2081 -1.3713  2.2274
 8234SOL    HW236165   3.526   3.845   5.872 -1.4639 -0.3978  2.3466
 8235SOL     OW36166   0.174   4.570   3.130  0.4168  0.0742  0.6052
 8235SOL    HW136167   0.133   4.647   3.168  1.5033 -0.2496  2.4425
 8235SOL    HW236168   0.269   4.581   3.138  0.1589  1.1042  2.1369
 8236SOL     OW36169   1.465   0.444   2.102 -0.2213 -0.3714  0.0027
 8236SOL    HW136170   1.485   0.508   2.171  0.9427 -0.1102 -0.5833
 8236SOL    HW236171   1.370   0.448   2.113 -0.3277 -0.2093 -1.0127
 8237SOL     OW36172   2.779   0.717   1.289 -0.7008 -0.4802 -0.0768
 8237SOL    HW136173   2.827   0.702   1.208 -1.2107 -1.0882 -0.2660
 8237SOL    HW236174   2.698   0.760   1.262 -1.2951 -1.1834  0.5911
 8238SOL     OW36175   1.946   2.187   6.998 -0.5882  0.7965 -0.2204
 8238SOL    HW136176   1.989   2.181   7.084  1.3425  0.8349 -1.1988
 8238SOL    HW236177   2.000   2.118   6.961 -0.6779  0.7329 -0.2345
 8239SOL     OW36178   3.860   1.556   4.733  0.1509  0.2427 -0.0349
 8239SOL    HW136179   3.815   1.500   4.670  2.3246  0.5425 -1.8141
 8239SOL    HW236180   3.865   1.636   4.682 -0.1554 -1.2038 -2.3158
 8240SOL     OW36181   3.706   3.204   7.841 -0.4074 -0.3608  0.3027
 8240SOL    HW136182   3.789   3.248   7.823 -0.9186  0.7181  0.5786
 8240SOL    HW236183   3.646   3.277   7.857  0.6586  0.1081  2.1175
 8241SOL     OW36184   1.081   2.662  12.926 -0.0055 -0.2290  0.2810
 8241SOL    HW136185   1.079   2.665  12.830  3.0471 -1.6559  0.1955
 8241SOL    HW236186   1.017   2.730  12.947  0.9880  1.3639 -1.8061
 8242SOL     OW36187   4.666   3.636  11.483 -0.3277 -0.2689 -0.3818
 8242SOL    HW136188   4.600   3.705  11.475  0.2442  0.2724 -0.3511
 8242SOL    HW236189   4.694   3.609  11.395  1.8016 -0.5001  0.3645
 8243SOL     OW36190   4.307   3.366   2.601  0.3897  0.1992 -0.2808
 8243SOL    HW136191   4.329   3.413   2.520  0.3526  1.4825  0.4611
 8243SOL    HW236192   4.352   3.425   2.661  1.7835  0.6721 -1.8081
 8244SOL     OW36193   0.252   0.156   1.632 -0.0466  0.0680  0.0018
 8244SOL    HW136194   0.184   0.098   1.597 -0.7049 -1.0934  3.2391
 8244SOL    HW236195   0.245   0.233   1.577  0.6131  0.1670  0.0489
 8245SOL     OW36196   2.672   2.542  15.128  0.3821  0.7568  0.0317
 8245SOL    HW136197   2.711   2.468  15.081  1.9298  0.1503  2.2886
 8245SOL    HW236198   2.695   2.618  15.075  0.5359  2.2163  2.1887
 8246SOL     OW36199   2.874   4.068   3.965 -0.3201 -0.2037 -0.0948
 8246SOL    HW136200   2.830   4.060   3.880 -1.5841  3.2181  0.2306
 8246SOL    HW236201   2.933   3.993   3.975 -2.0795 -1.7804 -1.6118
 8247SOL     OW36202   0.028   1.548   8.341  0.1736  0.8708  0.0353
 8247SOL    HW136203   0.081   1.468   8.345 -0.6068  0.3554  0.1242
 8247SOL    HW236204   0.037   1.583   8.430 -0.7474  0.8573  0.1317
 8248SOL     OW36205   2.743   2.230   6.257  0.0760 -0.0342 -0.3736
 8248SOL    HW136206   2.719   2.137   6.246 -0.1166 -0.1007  0.6459
 8248SOL    HW236207   2.674   2.262   6.314  0.9057  2.7752 -0.9727
 8249SOL     OW36208   1.803   0.085   4.536  0.2598  0.0325  0.2897
 8249SOL    HW136209   1.813   0.139   4.615  0.2663 -1.2432  1.1592
 8249SOL    HW236210   1.726   0.118   4.490  2.3940  3.0969 -1.0608
 8250SOL     OW36211   2.707   0.202   5.329  0.0939  0.6836 -0.1872
 8250SOL    HW136212   2.718   0.151   5.249 -0.9404  1.1039 -0.6013
 8250SOL    HW236213   2.617   0.234   5.324 -0.3451 -0.7253 -1.3231
 8251SOL     OW36214   3.149   0.219   2.102 -0.4811 -0.0497 -0.2350
 8251SOL    HW136215   3.169   0.189   2.013  0.1073 -0.1361 -0.0721
 8251SOL    HW236216   3.191   0.305   2.111  0.2789 -0.2769 -1.6166
 8252SOL     OW36217   3.987   3.763   2.473  0.1137  0.1809  0.0576
 8252SOL    HW136218   4.017   3.780   2.384 -0.5111 -2.0835 -0.5570
 8252SOL    HW236219   3.955   3.673   2.472 -1.8346  0.9154 -2.2856
 8253SOL     OW36220   1.754   3.630   3.669  0.4744 -0.3034 -0.0428
 8253SOL    HW136221   1.668   3.588   3.662  1.1686 -1.8063  0.4221
 8253SOL    HW236222   1.721   3.719   3.662  0.2919 -0.1770  2.3145
 8254SOL     OW36223   0.436   3.422  12.307  0.1058  0.3862 -0.4581
 8254SOL    HW136224   0.410   3.362  12.377 -1.1204  0.5096 -0.8064
 8254SOL    HW236225   0.372   3.411  12.237  0.6653 -0.1194 -0.8829
 8255SOL     OW36226   4.538   1.848   3.442 -0.1682 -0.2029  0.2933
 8255SOL    HW136227   4.511   1.845   3.350  1.4367 -0.9228 -0.1444
 8255SOL    HW236228   4.482   1.785   3.488 -2.2986  0.7592 -0.9629
 8256SOL     OW36229   4.327   3.388  14.381  0.2061  0.5949 -0.2563
 8256SOL    HW136230   4.315   3.347  14.467 -0.5071 -0.5075 -0.8977
 8256SOL    HW236231   4.403   3.339  14.350 -0.5491  0.7163 -2.2535
 8257SOL     OW36232   4.586   4.172   5.440 -0.4721  0.3535 -0.1888
 8257SOL    HW136233   4.566   4.080   5.423 -1.0241  0.0854  1.8959
 8257SOL    HW236234   4.565   4.169   5.533 -1.2951  2.0205 -0.3371
 8258SOL     OW36235   3.793   2.147   7.757  0.2532  0.0060 -0.4488
 8258SOL    HW136236   3.743   2.066   7.764  1.1491 -0.5816 -0.9084
 8258SOL    HW236237   3.881   2.112   7.771 -0.5706 -1.0271  2.2148
 8259SOL     OW36238   1.877   1.357   7.211 -0.3780  0.3257  0.0981
 8259SOL    HW136239   1.798   1.353   7.264 -0.3575 -1.8636 -0.0237
 8259SOL    HW236240   1.924   1.427   7.255 -0.0987  0.1161  0.1286
 8260SOL     OW36241   2.523   0.056   4.434 -0.1388  0.5012  0.7237
 8260SOL    HW136242   2.495   0.083   4.522  4.6668 -0.8364  2.6819
 8260SOL    HW236243   2.443   0.043   4.383  0.8910 -0.0283 -0.7500
 8261SOL     OW36244   4.089   1.807   3.046  0.7906  0.2977  0.5937
 8261SOL    HW136245   4.021   1.740   3.047 -0.0076  1.0893 -0.3060
 8261SOL    HW236246   4.050   1.864   2.979  0.6265  0.3074  0.6983
 8262SOL     OW36247   1.283   2.919  15.835  0.6635  0.1721  0.0128
 8262SOL    HW136248   1.315   2.851  15.776  0.3743  0.1498 -0.1191
 8262SOL    HW236249   1.227   2.968  15.775 -0.3563 -0.3385  0.5481
 8263SOL     OW36250   2.698   1.312   9.720  0.1089  0.3010  0.1802
 8263SOL    HW136251   2.779   1.279   9.758  0.4613  1.5123  0.4833
 8263SOL    HW236252   2.709   1.277   9.632 -0.6105 -3.1587  1.4631
 8264SOL     OW36253   2.818   3.522   6.497  0.0031 -0.0386  0.2903
 8264SOL    HW136254   2.840   3.486   6.583  1.7612  1.0858  0.3150
 8264SOL    HW236255   2.899   3.500   6.451 -0.2291  0.0624 -0.1590
 8265SOL     OW36256   1.257   2.843   6.215 -0.0822 -0.0394  0.0526
 8265SOL    HW136257   1.341   2.840   6.168  0.0253 -0.8886  0.3098
 8265SOL    HW236258   1.283   2.874   6.302  0.8719  1.1436 -0.6516
 8266SOL     OW36259   1.027   4.069   6.454 -0.6450 -0.6207  0.6747
 8266SOL    HW136260   1.069   4.081   6.369 -0.2362 -0.5922  0.8823
 8266SOL    HW236261   1.085   4.104   6.522  1.9777 -1.7167 -1.0153
 8267SOL     OW36262   0.940   3.299   4.834  0.4246  0.2223 -0.2290
 8267SOL    HW136263   0.916   3.360   4.904 -1.2656 -0.1624 -0.4697
 8267SOL    HW236264   0.992   3.349   4.771 -0.7775  1.6699 -0.0812
 8268SOL     OW36265   1.886   0.568   9.338  0.0702 -0.5529  0.6255
 8268SOL    HW136266   1.900   0.583   9.431 -1.4951 -0.4846  0.8481
 8268SOL    HW236267   1.858   0.477   9.329 -1.0886 -0.2651  1.3038
 8269SOL     OW36268   1.704   3.193   4.377  0.3798 -0.4300  0.2699
 8269SOL    HW136269   1.758   3.134   4.430  0.6475  0.9588  1.5669
 8269SOL    HW236270   1.693   3.145   4.295 -3.3209  0.2279  0.3692
 8270SOL     OW36271   3.390   4.528   7.441  0.1475 -0.3698 -0.4489
 8270SOL    HW136272   3.313   4.584   7.428 -0.5356 -0.6625  2.4642
 8270SOL    HW236273   3.349   4.450   7.403 -1.8362 -0.2650  1.4502
 8271SOL     OW36274   1.510   0.659   8.749  0.0172  0.4408  0.1058
 8271SOL    HW136275   1.442   0.615   8.799 -2.1221  1.2200 -2.1210
 8271SOL    HW236276   1.457   0.696   8.679  0.6185  1.3071  0.1075
 8272SOL     OW36277   1.742   3.789   8.513 -0.9583 -0.3446  0.2951
 8272SOL    HW136278   1.757   3.733   8.437  0.6834  1.2516 -0.5552
 8272SOL    HW236279   1.673   3.737   8.554  0.9018 -0.9325  2.6908
 8273SOL     OW36280   1.066   1.275   5.419  0.5325 -0.4628  0.2395
 8273SOL    HW136281   1.020   1.198   5.386 -0.5024  0.2482  0.0249
 8273SOL    HW236282   1.148   1.241   5.455 -0.2626 -1.2849  1.2710
 8274SOL     OW36283   3.960   2.092   7.126  0.8449 -0.2354  0.4183
 8274SOL    HW136284   3.926   2.117   7.040  0.1472 -0.9995  0.4710
 8274SOL    HW236285   3.881   2.075   7.178  2.0185 -0.8638  1.9726
 8275SOL     OW36286   4.135   1.565   4.590  0.0160 -0.2001  0.2647
 8275SOL    HW136287   4.158   1.472   4.593 -0.5503 -0.3269  0.9935
 8275SOL    HW236288   4.095   1.569   4.503 -1.5592 -1.4489  0.9172
 8276SOL     OW36289   0.170   3.896  16.967 -0.5529 -0.1596 -0.0916
 8276SOL    HW136290   0.123   3.975  16.940 -1.9853 -1.1714 -0.5215
 8276SOL    HW236291   0.094   3.840  16.977  0.0314 -1.3490 -2.4180
 8277SOL     OW36292   0.754   0.078   9.293 -0.3010  0.4008  0.0687
 8277SOL    HW136293   0.822   0.031   9.341  0.9417  0.8686 -1.2217
 8277SOL    HW236294   0.803   0.141   9.240  1.8814  0.1003  1.7043
 8278SOL     OW36295   1.501   2.598   3.307  0.6150 -0.0302  0.4544
 8278SOL    HW136296   1.558   2.658   3.355  1.7496 -0.4663 -0.3507
 8278SOL    HW236297   1.566   2.554   3.252  0.3884 -2.0832  1.8350
 8279SOL     OW36298   4.175   1.220   3.006 -0.4894  0.6935 -0.4713
 8279SOL    HW136299   4.164   1.164   2.929 -1.2506 -0.4333  0.4553
 8279SOL    HW236300   4.237   1.287   2.979  2.1306 -0.7345  2.0910
 8280SOL     OW36301   0.168   0.170   3.238  0.1616 -0.3123 -0.2687
 8280SOL    HW136302   0.199   0.256   3.207 -0.0451  0.9938  3.1018
 8280SOL    HW236303   0.084   0.169   3.192  0.5189  0.7562 -0.9547
 8281SOL     OW36304   2.252   0.674   7.129 -0.6453  0.2966  0.0705
 8281SOL    HW136305   2.307   0.745   7.097 -0.5112  1.0490  2.0137
 8281SOL    HW236306   2.319   0.605   7.133 -0.5655  0.4512  1.2508
 8282SOL     OW36307   1.363   1.298  15.102 -0.5332 -0.2419 -0.2577
 8282SOL    HW136308   1.453   1.328  15.116 -0.7143  0.4187 -0.5161
 8282SOL    HW236309   1.317   1.352  15.166 -0.2086 -1.3062  0.8577
 8283SOL     OW36310   3.076   4.661   0.386  0.0609 -0.1896 -0.3022
 8283SOL    HW136311   3.032   4.676   0.470 -0.4401  1.6887 -0.9039
 8283SOL    HW236312   3.019   4.704   0.322 -0.7457 -0.9572 -0.1062
 8284SOL     OW36313   2.798   3.318   3.988  0.0698 -0.0069 -0.2149
 8284SOL    HW136314   2.800   3.244   4.049  1.8687 -1.7655 -2.4193
 8284SOL    HW236315   2.853   3.284   3.917 -1.0020 -0.5846 -0.7758
 8285SOL     OW36316   0.188   2.186   7.179  0.1835  0.2997  0.6457
 8285SOL    HW136317   0.211   2.102   7.139 -1.1248 -0.1538  0.8357
 8285SOL    HW236318   0.139   2.234   7.112 -1.1768  0.7572  1.9706
 8286SOL     OW36319   0.188   2.711   2.457  0.2988  0.1743  0.0212
 8286SOL    HW136320   0.168   2.634   2.510  1.3496 -0.0982  0.0355
 8286SOL    HW236321   0.284   2.705   2.453  0.4809  1.0203  2.6417
 8287SOL     OW36322   4.553   3.042   8.300  0.1300  0.0536 -0.4204
 8287SOL    HW136323   4.571   3.127   8.260 -1.9815  0.8385  0.3274
 8287SOL    HW236324   4.612   3.050   8.376  0.6891  1.1695 -0.9701
 8288SOL     OW36325   0.135   3.460   4.711 -0.1400 -0.0163 -0.0702
 8288SOL    HW136326   0.206   3.497   4.658 -0.4034 -0.1229 -0.4884
 8288SOL    HW236327   0.180   3.391   4.760 -3.6743 -1.4591  1.1554
 8289SOL     OW36328   3.257   3.728   2.519  0.3709  0.2106 -0.3232
 8289SOL    HW136329   3.236   3.817   2.547 -0.6292  0.1615 -0.9487
 8289SOL    HW236330   3.299   3.690   2.596  0.1499 -0.9175 -0.7583
 8290SOL     OW36331   4.381   4.440  14.870  0.7669  0.0846 -0.1357
 8290SOL    HW136332   4.320   4.507  14.901 -0.9917 -1.2127 -0.8459
 8290SOL    HW236333   4.342   4.404  14.791  1.7493  0.4157 -0.7777
 8291SOL     OW36334   3.957   2.917   2.384  0.4927 -0.9942 -0.2761
 8291SOL    HW136335   3.975   3.002   2.425 -0.5566 -1.7597  1.7527
 8291SOL    HW236336   4.043   2.900   2.344 -0.0934 -0.5615 -1.7359
 8292SOL     OW36337   4.537   1.585   0.656  0.0255 -0.3090 -0.3397
 8292SOL    HW136338   4.631   1.568   0.656 -0.0254 -0.6400  2.2568
 8292SOL    HW236339   4.517   1.534   0.735 -0.9492  1.7275  0.7280
 8293SOL     OW36340   3.695   4.131   6.271 -0.7625 -0.2019  0.3584
 8293SOL    HW136341   3.738   4.087   6.344  1.9942  1.5127 -0.2358
 8293SOL    HW236342   3.615   4.079   6.270  0.2204 -1.7007 -1.4484
 8294SOL     OW36343   2.707   2.129  13.307 -0.7177 -0.1836 -0.3930
 8294SOL    HW136344   2.742   2.074  13.377 -1.4200  0.6205  0.6016
 8294SOL    HW236345   2.766   2.202  13.290  2.5404 -1.7943  3.9355
 8295SOL     OW36346   2.540   3.449   9.557  0.3352  0.8288 -0.0480
 8295SOL    HW136347   2.515   3.441   9.649 -0.0493 -1.6889 -0.3657
 8295SOL    HW236348   2.601   3.522   9.563 -2.3222  3.1276 -1.4682
 8296SOL     OW36349   1.381   0.013  12.375 -0.6303  0.4148 -0.0655
 8296SOL    HW136350   1.318   4.721  12.305 -1.3190  0.5210  0.5355
 8296SOL    HW236351   1.409   0.103  12.358 -0.3321  0.1108 -1.1945
 8297SOL     OW36352   2.858   0.638   1.001  0.1821  0.1527  0.0062
 8297SOL    HW136353   2.943   0.639   0.956  1.4251 -0.7285  2.3441
 8297SOL    HW236354   2.847   0.544   1.015  0.4981  0.1219  0.0452
 8298SOL     OW36355   4.210   4.098  17.373  0.2956 -0.0046  0.0919
 8298SOL    HW136356   4.146   4.134  17.436  0.2270 -2.2246  1.3061
 8298SOL    HW236357   4.287   4.069  17.422 -1.1296 -2.1360  1.0878
 8299SOL     OW36358   1.234   2.059   6.752  0.1061  0.1460  0.4923
 8299SOL    HW136359   1.151   2.091   6.788  0.3342  1.2969 -0.0248
 8299SOL    HW236360   1.205   1.976   6.715 -0.0681  0.8821 -1.0145
 8300SOL     OW36361   0.911   1.214   0.845 -0.3896  0.3666 -0.2849
 8300SOL    HW136362   0.943   1.290   0.797 -1.8704 -0.3136 -2.3432
 8300SOL    HW236363   0.997   1.185   0.877  0.1530  1.4924 -0.7285
 8301SOL     OW36364   2.664   4.096  16.295 -0.0264  0.1979  0.1847
 8301SOL    HW136365   2.734   4.152  16.260 -0.8706  0.8218 -0.4853
 8301SOL    HW236366   2.705   4.012  16.274  3.0449  1.3392  1.5712
 8302SOL     OW36367   2.227   0.974  14.372 -0.4312  0.1032  0.4460
 8302SOL    HW136368   2.152   0.926  14.407  0.1587 -1.6299 -0.7085
 8302SOL    HW236369   2.239   1.040  14.441  1.6742 -1.3864  1.5120
 8303SOL     OW36370   4.373   4.069   5.663 -0.2534 -0.7503 -0.0334
 8303SOL    HW136371   4.291   4.030   5.696 -1.7025  2.5279  0.1940
 8303SOL    HW236372   4.395   4.141   5.722  3.1090 -0.6702 -1.4347
 8304SOL     OW36373   0.438   2.260   8.587 -0.5902 -0.4191  0.3573
 8304SOL    HW136374   0.519   2.209   8.584 -0.7795 -0.8346  2.2482
 8304SOL    HW236375   0.444   2.323   8.515 -1.7258  0.0751  0.7017
 8305SOL     OW36376   2.996   4.223  10.595 -0.3295  0.5680  0.3064
 8305SOL    HW136377   2.974   4.141  10.639  3.8128 -0.1399  1.1237
 8305SOL    HW236378   3.084   4.206  10.562 -0.4927 -0.0871  0.2289
 8306SOL     OW36379   2.780   2.076   5.869 -0.2338  0.5040 -0.0242
 8306SOL    HW136380   2.846   2.132   5.828 -0.3600 -0.1829 -1.1465
 8306SOL    HW236381   2.823   2.014   5.928 -0.7288 -1.8827 -2.1834
 8307SOL     OW36382   1.262   2.407   3.711 -0.0923  0.2647 -0.2007
 8307SOL    HW136383   1.259   2.441   3.621 -2.0744 -1.1573 -0.6574
 8307SOL    HW236384   1.349   2.370   3.697  0.0391 -0.2589  2.0637
 8308SOL     OW36385   1.275   0.860   6.214 -0.1847  0.0825  0.4048
 8308SOL    HW136386   1.226   0.834   6.136  0.0500  2.3318 -0.4840
 8308SOL    HW236387   1.231   0.805   6.279 -0.1024 -1.3542 -0.7560
 8309SOL     OW36388   3.714   1.906   6.366 -0.4037  0.0261 -0.1472
 8309SOL    HW136389   3.719   1.822   6.412  3.8773  0.0294 -0.6079
 8309SOL    HW236390   3.652   1.951   6.424 -0.3059  0.0433 -0.0555
 8310SOL     OW36391   4.451   2.450   3.583 -0.7876  0.4504 -0.3241
 8310SOL    HW136392   4.530   2.483   3.625 -0.3405 -1.1776  0.1380
 8310SOL    HW236393   4.400   2.531   3.591  1.4410  1.7870  0.3575
 8311SOL     OW36394   2.056   2.043   0.441 -0.0223 -0.1416  0.6158
 8311SOL    HW136395   2.102   2.108   0.495  0.8372  0.5122 -0.8830
 8311SOL    HW236396   2.041   1.976   0.508 -2.2992 -0.5049 -0.2597
 8312SOL     OW36397   1.555   3.008   8.259  0.2696 -0.5081 -0.7794
 8312SOL    HW136398   1.625   2.987   8.321 -0.2594 -2.3176 -0.8044
 8312SOL    HW236399   1.482   3.028   8.318  0.0556 -1.6931 -0.6324
 8313SOL     OW36400   1.652   3.531  15.577  0.1156 -0.0615 -0.4720
 8313SOL    HW136401   1.664   3.474  15.500 -2.1615  1.7867 -2.1892
 8313SOL    HW236402   1.575   3.484  15.609 -0.0409 -0.5169 -1.4889
 8314SOL     OW36403   3.132   1.327  11.607  0.1435  0.0599 -0.1778
 8314SOL    HW136404   3.122   1.418  11.634  0.3468  0.0718 -0.1428
 8314SOL    HW236405   3.133   1.274  11.686 -0.5271 -1.5252 -1.2221
 8315SOL     OW36406   0.736   4.104   9.813  0.0333  0.4792  0.1925
 8315SOL    HW136407   0.792   4.053   9.871  0.3793  2.4372  1.5809
 8315SOL    HW236408   0.787   4.091   9.733  0.5331 -0.9603  0.7552
 8316SOL     OW36409   1.724   3.594  16.715  0.2188 -0.1982  0.2737
 8316SOL    HW136410   1.673   3.593  16.796  2.1726 -1.5465  1.4862
 8316SOL    HW236411   1.654   3.613  16.652  2.9207  0.4656 -2.4789
 8317SOL     OW36412   3.075   0.353   0.141  0.5969  0.4459  0.4045
 8317SOL    HW136413   3.138   0.401   0.195 -2.5648  3.1583  1.7406
 8317SOL    HW236414   3.088   0.376   0.050  0.8343 -1.2686  0.0107
 8318SOL     OW36415   3.467   0.884   1.403  0.2026 -0.3185 -0.4957
 8318SOL    HW136416   3.464   0.889   1.499 -0.3724 -2.2465 -0.4279
 8318SOL    HW236417   3.392   0.829   1.383  0.4342 -0.6571 -0.4419
 8319SOL     OW36418   3.774   0.706   4.852 -0.8515 -0.4834 -0.3570
 8319SOL    HW136419   3.816   0.708   4.766  1.9239  0.7630  1.0388
 8319SOL    HW236420   3.742   0.796   4.862  2.1057  0.5037  0.1741
 8320SOL     OW36421   2.100   2.100   8.051 -0.0230 -0.1298 -0.5592
 8320SOL    HW136422   2.043   2.143   8.115  0.4137  0.2780 -0.4415
 8320SOL    HW236423   2.072   2.015   8.084  2.0068  0.8049  3.6288
 8321SOL     OW36424   2.995   2.072   4.358 -0.9145 -0.1134 -0.1738
 8321SOL    HW136425   2.959   2.010   4.422 -2.7787  0.6314 -0.4989
 8321SOL    HW236426   3.090   2.062   4.362 -0.9274 -0.0750  0.2002
 8322SOL     OW36427   3.513   3.387   2.935 -0.1459  0.0579  0.0164
 8322SOL    HW136428   3.555   3.441   3.002  0.1783  1.2417 -1.1449
 8322SOL    HW236429   3.583   3.324   2.915  0.9619  1.6782 -1.1537
 8323SOL     OW36430   0.454   0.068   4.810  0.0835 -0.2630  0.4449
 8323SOL    HW136431   0.489   0.156   4.794  2.0769 -0.9049  1.3017
 8323SOL    HW236432   0.534   0.017   4.811 -0.7240 -1.5009  1.9721
 8324SOL     OW36433   1.303   2.659   2.030  0.1533  0.5419 -0.1122
 8324SOL    HW136434   1.385   2.636   1.988 -0.0557 -1.0047  0.3167
 8324SOL    HW236435   1.325   2.619   2.115  1.3533 -1.0083 -1.1512
 8325SOL     OW36436   2.007   4.133   0.987 -0.4956  0.0543  0.3971
 8325SOL    HW136437   1.978   4.175   1.068  3.6288  0.0520  1.8526
 8325SOL    HW236438   2.094   4.172   0.975 -0.7255  0.6307  0.5772
 8326SOL     OW36439   4.382   1.548  13.254  0.1148 -0.6274  0.5092
 8326SOL    HW136440   4.346   1.471  13.210 -1.8469  0.9406 -0.6393
 8326SOL    HW236441   4.352   1.548  13.345  0.7127 -0.8986  0.7035
 8327SOL     OW36442   4.053   3.327   5.456 -0.5717 -0.5266 -0.3735
 8327SOL    HW136443   4.001   3.392   5.407 -0.5498  0.3469  0.7777
 8327SOL    HW236444   4.137   3.340   5.413 -0.2519  0.4003  0.5251
 8328SOL     OW36445   4.109   0.305  13.992 -0.1113  0.3262 -0.5109
 8328SOL    HW136446   4.042   0.295  13.924 -1.3159 -2.2264  1.0605
 8328SOL    HW236447   4.181   0.355  13.955  0.0661  1.5424  1.4299
 8329SOL     OW36448   1.239   3.903  15.030 -0.5140 -0.5736 -0.2039
 8329SOL    HW136449   1.292   3.868  15.101  0.6557  2.6589  0.5283
 8329SOL    HW236450   1.153   3.925  15.065 -1.0821 -3.5678  0.2922
 8330SOL     OW36451   3.333   3.230   6.586  0.2351  0.6116 -0.3114
 8330SOL    HW136452   3.279   3.255   6.661  0.2274  0.5980 -0.3125
 8330SOL    HW236453   3.397   3.300   6.597 -2.7671  3.1760  0.7363
 8331SOL     OW36454   3.718   2.921   2.514 -0.0524  0.2428  0.3753
 8331SOL    HW136455   3.800   2.945   2.471 -0.8058  0.3979 -0.9607
 8331SOL    HW236456   3.747   2.852   2.574  0.3615  0.5413  0.5235
 8332SOL     OW36457   3.584   4.331   0.141 -0.0954 -0.9650  0.3704
 8332SOL    HW136458   3.670   4.367   0.165 -1.7366  3.7060 -0.7483
 8332SOL    HW236459   3.529   4.361   0.213  0.2448 -1.7565  0.9578
 8333SOL     OW36460   4.273   3.332   6.288  0.3726  0.4147 -0.3156
 8333SOL    HW136461   4.239   3.338   6.377 -0.5029 -3.0640 -0.4233
 8333SOL    HW236462   4.189   3.297   6.260 -0.3875  0.8431  1.4026
 8334SOL     OW36463   2.682   0.591   5.716 -0.2008  0.4435  0.2965
 8334SOL    HW136464   2.595   0.629   5.726 -0.0910  0.8826 -0.4329
 8334SOL    HW236465   2.735   0.670   5.716 -0.5083  0.6341 -3.0052
 8335SOL     OW36466   0.387   1.963   3.422  1.0512  0.0363 -0.6160
 8335SOL    HW136467   0.381   1.892   3.486  1.1721  0.9697  0.4392
 8335SOL    HW236468   0.344   2.035   3.468  1.4644 -1.6923  2.4688
 8336SOL     OW36469   3.127   0.488   3.772  0.5969 -0.0345  0.3297
 8336SOL    HW136470   3.090   0.400   3.761  0.4769  0.3028 -2.0694
 8336SOL    HW236471   3.047   0.540   3.772  1.2109  0.9102 -0.5782
 8337SOL     OW36472   2.775   3.066   6.654 -0.8405  0.0047 -0.0522
 8337SOL    HW136473   2.697   3.119   6.641  0.2924  1.3285 -1.5277
 8337SOL    HW236474   2.851   3.119   6.629 -0.5422 -0.0243  0.7744
 8338SOL     OW36475   3.059   4.360   3.663  0.0586 -0.6100  0.3611
 8338SOL    HW136476   3.064   4.396   3.575 -2.6210  1.9903  1.2869
 8338SOL    HW236477   3.144   4.317   3.651  0.3246  0.0031  0.0363
 8339SOL     OW36478   0.123   1.101   2.794  0.4855 -0.1172 -0.7398
 8339SOL    HW136479   0.035   1.139   2.799  0.5802  0.1557 -1.1935
 8339SOL    HW236480   0.149   1.128   2.706 -1.0246 -1.8377 -1.7053
 8340SOL     OW36481   2.496   1.541  13.099  0.4579  0.2276  0.4685
 8340SOL    HW136482   2.437   1.600  13.052  1.6080 -0.3865 -1.7333
 8340SOL    HW236483   2.442   1.462  13.108 -0.7521  0.8607 -1.1119
 8341SOL     OW36484   4.004   2.759   8.823 -0.2521 -0.1246  0.1562
 8341SOL    HW136485   3.997   2.811   8.903 -0.0994 -2.8625  1.9569
 8341SOL    HW236486   4.094   2.777   8.797 -1.3958  0.2184 -3.5038
 8342SOL     OW36487   3.099   4.446  10.447 -0.7039 -0.3451 -0.1684
 8342SOL    HW136488   3.121   4.402  10.529 -0.6176  0.3720  0.1941
 8342SOL    HW236489   3.124   4.373  10.391  0.8212 -0.0296  0.1152
 8343SOL     OW36490   1.100   2.826   0.793  0.1241 -0.0161 -0.3965
 8343SOL    HW136491   1.148   2.780   0.724  1.8928  0.8199  0.2616
 8343SOL    HW236492   1.174   2.848   0.850 -0.8380 -2.1026  1.6458
 8344SOL     OW36493   0.031   2.644   2.732  0.2885 -0.3129  0.0097
 8344SOL    HW136494   0.061   2.578   2.669 -1.3174 -0.5265 -0.5343
 8344SOL    HW236495   0.075   2.723   2.701  0.2364  0.5240  2.0790
 8345SOL     OW36496   3.660   0.633  16.549 -0.5091 -0.2039  0.0487
 8345SOL    HW136497   3.670   0.649  16.643 -2.2863  0.2133  0.1651
 8345SOL    HW236498   3.567   0.611  16.545 -0.7151  0.6034  0.4418
 8346SOL     OW36499   0.763   0.560   8.029 -0.3475 -0.8867 -0.4853
 8346SOL    HW136500   0.691   0.620   8.009  1.2150  1.1383  0.0336
 8346SOL    HW236501   0.716   0.477   8.041  1.4811 -1.8577 -0.0036
 8347SOL     OW36502   1.145   0.422   9.721 -0.3707 -0.2677  0.0513
 8347SOL    HW136503   1.110   0.356   9.779 -0.1473 -0.3132  0.1350
 8347SOL    HW236504   1.217   0.462   9.770  1.1576 -0.4722 -1.9920
 8348SOL     OW36505   1.739   0.464   3.990  0.1078  0.4542  0.0279
 8348SOL    HW136506   1.656   0.481   4.033 -0.2747 -0.6408 -0.2998
 8348SOL    HW236507   1.800   0.497   4.057 -1.6093  2.2656  0.6999
 8349SOL     OW36508   2.411   1.906  17.214  0.0871  0.5218 -0.2258
 8349SOL    HW136509   2.431   1.836  17.151  2.5676  2.1067 -1.2085
 8349SOL    HW236510   2.383   1.866  17.296  1.2708 -2.3424 -1.2096
 8350SOL     OW36511   0.542   3.553   5.976  0.2158 -0.8620 -0.0212
 8350SOL    HW136512   0.617   3.585   6.026  0.5676 -1.7252 -0.0112
 8350SOL    HW236513   0.501   3.640   5.966 -0.1931 -1.1215 -0.6225
 8351SOL     OW36514   0.762   0.258   4.633 -0.3713 -0.4401  0.7526
 8351SOL    HW136515   0.741   0.349   4.653  2.7339 -0.0611  2.2195
 8351SOL    HW236516   0.783   0.265   4.540  2.6252 -1.5078  1.3374
 8352SOL     OW36517   0.101   1.732   4.877  0.0582 -0.1665  0.0969
 8352SOL    HW136518   0.142   1.650   4.849 -1.5951  0.6289 -4.5178
 8352SOL    HW236519   0.177   1.787   4.896  0.6351 -1.3282  1.1694
 8353SOL     OW36520   2.555   3.045   9.103 -0.3721 -0.4434  0.0441
 8353SOL    HW136521   2.505   3.007   9.031 -1.1598  2.2641 -0.8520
 8353SOL    HW236522   2.502   3.041   9.183  1.4656 -1.4309  1.2068
 8354SOL     OW36523   1.233   0.307  17.208  0.0085 -0.6414  0.3833
 8354SOL    HW136524   1.146   0.334  17.178  0.1691 -0.6834 -0.1271
 8354SOL    HW236525   1.249   0.377  17.271  1.0660 -1.5508  1.1147
 8355SOL     OW36526   3.224   0.906  16.004  0.0895 -0.8246  0.4076
 8355SOL    HW136527   3.282   0.961  15.951 -1.5366 -0.3630 -0.9117
 8355SOL    HW236528   3.253   0.819  15.978 -0.9703 -0.8525 -0.6842
 8356SOL     OW36529   0.565   1.514   8.607 -0.3216 -0.5461 -0.1621
 8356SOL    HW136530   0.607   1.464   8.537  3.3418  2.2770  0.0430
 8356SOL    HW236531   0.497   1.557   8.556  0.5195  0.8886 -0.0871
 8357SOL     OW36532   1.100   3.090   8.269 -0.2634  0.1296  0.5665
 8357SOL    HW136533   1.096   3.105   8.363  3.2783  1.9938  0.4387
 8357SOL    HW236534   1.169   3.150   8.241 -0.8947  0.0276 -1.2169
 8358SOL     OW36535   4.569   0.318   8.212  0.1667  0.2472  0.0959
 8358SOL    HW136536   4.491   0.267   8.233  1.2544 -1.3801  0.1753
 8358SOL    HW236537   4.627   0.274   8.274  0.1132  2.0994  1.4543
 8359SOL     OW36538   0.547   2.265  12.462 -1.0240 -0.3911  0.2886
 8359SOL    HW136539   0.578   2.349  12.429  0.5357 -0.8059  0.7149
 8359SOL    HW236540   0.535   2.277  12.556  0.8127  0.0908  0.4617
 8360SOL     OW36541   3.021   3.519   3.946 -0.0676 -0.1600 -0.5706
 8360SOL    HW136542   2.978   3.502   3.863 -0.4094 -2.0268 -0.0126
 8360SOL    HW236543   2.953   3.494   4.009  1.0441  1.1200  1.1315
 8361SOL     OW36544   3.783   1.481   8.125 -0.3503 -0.3068 -0.7926
 8361SOL    HW136545   3.857   1.530   8.090  0.2860  1.4022  2.9339
 8361SOL    HW236546   3.753   1.521   8.207 -0.8707 -2.5435  0.1128
 8362SOL     OW36547   3.375   1.684   4.910 -0.0599  0.6070  0.1065
 8362SOL    HW136548   3.309   1.711   4.847  0.1092 -2.1445 -1.2171
 8362SOL    HW236549   3.452   1.682   4.854  0.6818  1.2407  1.0945
 8363SOL     OW36550   1.654   1.743   8.639  0.2624  0.3209 -0.0370
 8363SOL    HW136551   1.625   1.755   8.729 -4.8696  0.8149 -1.7362
 8363SOL    HW236552   1.571   1.711   8.605 -0.1603  1.6342 -0.2615
 8364SOL     OW36553   1.432   1.702  15.784 -0.0674  0.0055 -0.0383
 8364SOL    HW136554   1.405   1.773  15.843 -1.0897 -0.0082 -0.4884
 8364SOL    HW236555   1.351   1.650  15.780  0.1903 -0.3667 -0.3668
 8365SOL     OW36556   2.071   3.900  11.420  0.1521 -0.3063 -0.5070
 8365SOL    HW136557   1.991   3.850  11.402  0.7643 -2.4585  2.7228
 8365SOL    HW236558   2.123   3.884  11.342 -0.4254 -0.9986 -0.7410
 8366SOL     OW36559   2.381   3.871   8.196 -0.1761 -0.2528  0.1432
 8366SOL    HW136560   2.412   3.798   8.142  0.4470  1.5038 -1.8532
 8366SOL    HW236561   2.461   3.898   8.240 -0.8400  1.0821  0.5170
 8367SOL     OW36562   2.849   4.366  15.033 -0.0650  0.6034  0.4649
 8367SOL    HW136563   2.934   4.322  15.035  0.0661  0.8152 -0.5861
 8367SOL    HW236564   2.870   4.448  15.076 -1.6311  2.3532 -2.1328
 8368SOL     OW36565   4.119   2.399   7.652 -0.2418  0.2512  0.5171
 8368SOL    HW136566   4.080   2.407   7.739 -3.4198 -0.0188 -0.8500
 8368SOL    HW236567   4.036   2.381   7.608 -0.3675 -4.1537  2.6103
 8369SOL     OW36568   4.509   2.251   6.016  0.2582  0.0589 -0.4282
 8369SOL    HW136569   4.554   2.201   6.084  0.0012 -0.6929 -0.8083
 8369SOL    HW236570   4.499   2.332   6.066 -2.1011 -1.9559  2.3764
 8370SOL     OW36571   1.660   0.129   7.806 -0.1653  0.1354 -0.2544
 8370SOL    HW136572   1.625   0.172   7.884  0.9623  0.8165 -0.1445
 8370SOL    HW236573   1.620   0.179   7.734  1.8676  1.3040 -0.5515
 8371SOL     OW36574   1.778   0.848  14.949 -0.7176 -0.1324 -0.3642
 8371SOL    HW136575   1.820   0.783  15.005 -1.1052 -1.5543 -1.7315
 8371SOL    HW236576   1.830   0.826  14.871  0.2265  0.5760  0.0600
 8372SOL     OW36577   2.859   3.396   8.159  0.1350  0.3612  0.3835
 8372SOL    HW136578   2.773   3.418   8.124  0.7442  0.9963 -0.7210
 8372SOL    HW236579   2.844   3.438   8.243  3.5309 -2.2424  2.2988
 8373SOL     OW36580   0.025   2.699   5.208 -0.0740  0.2323 -0.0698
 8373SOL    HW136581   4.697   2.777   5.230  0.3243  0.4643  0.0152
 8373SOL    HW236582   0.021   2.715   5.113  2.8765  3.1774  0.2955
 8374SOL     OW36583   1.509   4.319   5.382 -0.3050  0.1606  0.2821
 8374SOL    HW136584   1.598   4.354   5.391 -0.0343 -0.3555 -0.3533
 8374SOL    HW236585   1.462   4.399   5.360 -1.6483 -0.6324  0.3137
 8375SOL     OW36586   2.398   0.373  10.640  0.0154  0.2637  0.0657
 8375SOL    HW136587   2.345   0.294  10.637 -2.0151  1.5947  0.6077
 8375SOL    HW236588   2.483   0.342  10.609 -0.6751 -1.3470 -0.1928
 8376SOL     OW36589   0.574   3.224   1.216  0.4475  0.2464 -0.4354
 8376SOL    HW136590   0.614   3.168   1.149  0.6871  1.3027 -1.1803
 8376SOL    HW236591   0.514   3.286   1.174 -0.0042 -1.2175 -1.9861
 8377SOL     OW36592   1.096   4.429   3.635 -0.4723  0.7326  0.4947
 8377SOL    HW136593   1.127   4.371   3.565 -0.4978 -0.2128  1.2700
 8377SOL    HW236594   1.184   4.445   3.669  0.6190 -3.1661 -0.4132
 8378SOL     OW36595   0.956   4.615   8.512  0.2864  0.7909 -0.2843
 8378SOL    HW136596   0.895   4.684   8.487 -1.3814 -1.6907 -3.1051
 8378SOL    HW236597   0.994   4.657   8.590  2.4100  0.9139 -1.3938
 8379SOL     OW36598   2.760   0.592   2.754 -0.2850 -0.4923  0.0094
 8379SOL    HW136599   2.768   0.533   2.829 -1.1293 -0.4210  0.1487
 8379SOL    HW236600   2.810   0.669   2.783  0.8310 -0.3928 -2.1772
 8380SOL     OW36601   4.344   1.343   7.788  0.0503 -0.6045  0.5638
 8380SOL    HW136602   4.404   1.395   7.842  1.0810 -0.3020 -0.8834
 8380SOL    HW236603   4.364   1.368   7.698 -3.1459 -2.5829 -0.6700
 8381SOL     OW36604   3.776   0.105   8.768  0.2082 -0.2641 -0.2093
 8381SOL    HW136605   3.699   0.161   8.761  0.4880 -0.0360 -1.5876
 8381SOL    HW236606   3.749   0.034   8.826 -2.1167 -0.3163 -1.3571
 8382SOL     OW36607   2.024   0.184   1.390 -0.1895 -0.1132  0.4345
 8382SOL    HW136608   2.078   0.189   1.469 -0.0989 -0.7794  0.4195
 8382SOL    HW236609   2.098   0.162   1.334  1.4056  2.8267  1.3754
 8383SOL     OW36610   1.230   2.862  15.113  0.4798 -0.0998 -0.2196
 8383SOL    HW136611   1.232   2.778  15.160 -0.3831 -0.2944 -0.5411
 8383SOL    HW236612   1.300   2.865  15.047 -2.1415  0.4877 -2.9467
 8384SOL     OW36613   3.219   1.268  14.788 -0.8348  0.6829  0.0024
 8384SOL    HW136614   3.172   1.331  14.734  1.9688  1.3249 -1.7191
 8384SOL    HW236615   3.277   1.241  14.717  0.4289 -0.6097  1.5329
 8385SOL     OW36616   0.314   4.593  15.091  0.2024  0.0300 -0.3604
 8385SOL    HW136617   0.339   4.627  15.177  1.2677 -0.4882 -0.4639
 8385SOL    HW236618   0.321   4.498  15.103 -0.9531  0.2490  2.0097
 8386SOL     OW36619   1.951   4.431   4.336  0.5802 -0.2900  0.3687
 8386SOL    HW136620   1.856   4.438   4.321  0.2903 -1.5474  1.5540
 8386SOL    HW236621   1.987   4.520   4.335  1.8152 -0.8177 -1.0554
 8387SOL     OW36622   2.552   1.132  10.233  0.0554  0.0366 -0.1216
 8387SOL    HW136623   2.597   1.049  10.219  1.7990  1.1287 -1.0922
 8387SOL    HW236624   2.586   1.201  10.176 -0.3845 -0.8365 -1.4580
 8388SOL     OW36625   1.195   1.338   3.650 -0.2551  0.0858  0.2870
 8388SOL    HW136626   1.217   1.431   3.657  0.8134 -0.0769 -0.7527
 8388SOL    HW236627   1.211   1.300   3.736 -2.1065 -1.2310  0.0497
 8389SOL     OW36628   4.419   1.514   4.404  0.1393 -0.0717  0.2751
 8389SOL    HW136629   4.452   1.425   4.410 -0.2645 -0.2558 -0.3059
 8389SOL    HW236630   4.341   1.508   4.349 -1.6166  0.1830  2.7384
 8390SOL     OW36631   2.222   1.840   6.453  0.2699 -0.1871  0.0010
 8390SOL    HW136632   2.276   1.835   6.532  1.2094 -1.3516 -0.7129
 8390SOL    HW236633   2.135   1.847   6.493  0.7047  0.4941  0.8203
 8391SOL     OW36634   4.138   4.323   7.621 -0.0300 -0.0627 -0.3234
 8391SOL    HW136635   4.052   4.358   7.644  0.0578  0.1890 -0.3788
 8391SOL    HW236636   4.195   4.379   7.674 -0.9999  1.7459 -1.1965
 8392SOL     OW36637   4.663   2.504   7.097  0.2738  0.5843  0.6118
 8392SOL    HW136638   4.590   2.483   7.038  0.8835 -1.2083  0.5017
 8392SOL    HW236639   0.006   2.438   7.074  1.9986  2.0840  1.2429
 8393SOL     OW36640   0.289   3.705   6.982 -0.0685  0.4157  0.6080
 8393SOL    HW136641   0.347   3.639   7.020 -3.0847 -1.1524  2.4692
 8393SOL    HW236642   0.214   3.666   7.028 -0.2836 -3.1397 -2.7028
 8394SOL     OW36643   4.576   2.076   4.016  0.4133 -0.0236  0.3010
 8394SOL    HW136644   4.660   2.075   3.971  0.2682  3.0973 -0.0284
 8394SOL    HW236645   4.602   2.042   4.102  1.1998  1.3780  0.6067
 8395SOL     OW36646   0.709   3.723   6.136  0.5997  0.3975  0.3885
 8395SOL    HW136647   0.751   3.801   6.099 -1.9033  1.3993 -0.3569
 8395SOL    HW236648   0.656   3.761   6.206 -1.2133 -0.7955 -0.3260
 8396SOL     OW36649   2.201   2.723   5.571 -1.0458 -0.0812  0.1839
 8396SOL    HW136650   2.163   2.774   5.642  0.5194 -1.4351  1.9918
 8396SOL    HW236651   2.250   2.655   5.617 -0.6797  0.0427 -0.0201
 8397SOL     OW36652   4.086   4.044   1.958  0.2313 -0.2051  0.0031
 8397SOL    HW136653   4.034   3.965   1.975 -0.6441  0.3448 -0.1420
 8397SOL    HW236654   4.149   4.042   2.030 -0.1407  0.1100  0.3345
 8398SOL     OW36655   0.614   3.916   6.300 -0.3522  0.1262 -0.0833
 8398SOL    HW136656   0.692   3.963   6.271  1.2842 -1.6754  1.4076
 8398SOL    HW236657   0.559   3.989   6.329 -1.1951 -1.1612  1.5573
 8399SOL     OW36658   3.144   1.155  10.356 -0.9153  0.1578  0.3743
 8399SOL    HW136659   3.223   1.121  10.399 -1.3290 -1.6791 -0.3392
 8399SOL    HW236660   3.153   1.250  10.366 -1.2017  0.4121 -1.7502
 8400SOL     OW36661   0.949   1.747  11.305 -0.0458 -0.1825 -0.1535
 8400SOL    HW136662   0.940   1.652  11.303 -1.5577 -0.0049 -2.4411
 8400SOL    HW236663   0.907   1.756  11.391  4.5008 -0.7820  2.0850
 8401SOL     OW36664   3.836   3.293   3.158  0.3098  0.3658 -0.1193
 8401SOL    HW136665   3.865   3.322   3.071  0.3223  1.7499  0.3489
 8401SOL    HW236666   3.918   3.299   3.206 -0.3451 -0.1750  1.0623
 8402SOL     OW36667   2.404   2.043  13.449 -0.0171  0.6392  0.3209
 8402SOL    HW136668   2.487   2.068  13.489 -0.1579 -0.2632  1.1739
 8402SOL    HW236669   2.402   1.949  13.428  0.9297  0.9843 -1.3221
 8403SOL     OW36670   0.864   3.750   8.119 -0.0021  0.1743 -0.2389
 8403SOL    HW136671   0.848   3.819   8.184 -1.4905 -0.8420  0.4710
 8403SOL    HW236672   0.915   3.685   8.168 -0.8953 -0.5274 -0.2399
 8404SOL     OW36673   4.266   0.116   2.372  0.5206  0.0895 -0.2908
 8404SOL    HW136674   4.217   0.039   2.403 -1.9950  2.0522  0.6131
 8404SOL    HW236675   4.352   0.094   2.407 -0.3634 -1.5681  0.8590
 8405SOL     OW36676   1.366   3.274  15.271 -0.4344  0.0922 -0.2384
 8405SOL    HW136677   1.445   3.231  15.305 -1.3749  1.1173  3.2310
 8405SOL    HW236678   1.319   3.201  15.232 -1.1751  0.5255 -0.1536
 8406SOL     OW36679   3.636   2.692  14.315 -0.2123  0.3473  0.1435
 8406SOL    HW136680   3.652   2.607  14.356 -0.6355  0.1715 -0.0533
 8406SOL    HW236681   3.544   2.707  14.338 -1.2203 -2.1556 -2.2722
 8407SOL     OW36682   2.045   1.741  12.605 -0.2519  0.3978  0.5360
 8407SOL    HW136683   2.104   1.814  12.625 -0.8313  0.5286  1.8264
 8407SOL    HW236684   2.085   1.673  12.659  0.4899 -0.1995 -0.7828
 8408SOL     OW36685   1.406   1.415   8.392  0.0897 -0.2122  0.4394
 8408SOL    HW136686   1.371   1.376   8.312 -0.9802  1.2456  0.2069
 8408SOL    HW236687   1.496   1.442   8.375  0.2832 -0.6768  0.7125
 8409SOL     OW36688   4.721   1.209   8.227  0.1366  0.6459  0.0548
 8409SOL    HW136689   4.655   1.212   8.297  0.9788 -0.7513  0.9138
 8409SOL    HW236690   0.073   1.263   8.255  0.2713  0.4608  0.0556
 8410SOL     OW36691   1.923   1.246   3.719  0.4339  0.4662 -0.4430
 8410SOL    HW136692   1.948   1.212   3.633  0.1219 -2.0246  0.4509
 8410SOL    HW236693   1.834   1.278   3.701 -0.6741 -1.6853  1.2173
 8411SOL     OW36694   4.175   1.754  15.425  0.0394 -0.6453  0.2135
 8411SOL    HW136695   4.192   1.805  15.504  1.7352  0.1995 -0.7091
 8411SOL    HW236696   4.140   1.673  15.462 -1.6577  1.3897  3.1439
 8412SOL     OW36697   2.164   0.881  16.944 -0.2766 -0.7904  0.2800
 8412SOL    HW136698   2.162   0.785  16.935 -2.7116 -0.6872 -0.3586
 8412SOL    HW236699   2.080   0.893  16.988 -0.3520  1.4126 -0.4757
 8413SOL     OW36700   1.319   2.238  13.424  0.2788 -0.2859 -0.5422
 8413SOL    HW136701   1.320   2.147  13.395  0.8411 -0.3502 -0.3185
 8413SOL    HW236702   1.410   2.262  13.405 -0.0362  1.3553  0.0159
 8414SOL     OW36703   4.329   3.112   7.174 -0.7191 -0.4555  0.1500
 8414SOL    HW136704   4.373   3.098   7.258  0.3368 -0.5130 -0.4163
 8414SOL    HW236705   4.243   3.076   7.198 -1.2380  0.2990 -0.5908
 8415SOL     OW36706   4.343   4.156   2.642  0.8236  0.2408  0.4611
 8415SOL    HW136707   4.304   4.179   2.558  0.7073  0.5510  0.6011
 8415SOL    HW236708   4.302   4.069   2.650 -0.3192  0.9138  1.9647
 8416SOL     OW36709   2.718   4.239   4.489  0.1219 -0.2592 -0.1076
 8416SOL    HW136710   2.648   4.220   4.427  0.5926 -0.3219 -0.6156
 8416SOL    HW236711   2.796   4.261   4.439 -0.4859 -2.5946 -2.1040
 8417SOL     OW36712   0.171   2.348  11.876 -0.1672  0.3206  0.1208
 8417SOL    HW136713   0.109   2.277  11.891 -1.3167  1.2244 -0.3949
 8417SOL    HW236714   0.210   2.360  11.963 -0.2461  1.4262  0.0056
 8418SOL     OW36715   3.425   4.460  10.913 -0.4290 -0.4656 -0.5741
 8418SOL    HW136716   3.381   4.542  10.891  0.6409  0.4618  0.8263
 8418SOL    HW236717   3.501   4.460  10.856 -0.9727 -2.1770 -1.3146
 8419SOL     OW36718   4.671   3.132  15.514  0.2166  0.2857 -0.7357
 8419SOL    HW136719   4.698   3.181  15.592  2.3999 -0.2381 -1.1519
 8419SOL    HW236720   4.586   3.090  15.526 -0.4931  1.6948 -0.8118
 8420SOL     OW36721   2.132   0.950   0.943 -0.5372 -0.0379  0.5190
 8420SOL    HW136722   2.161   0.914   1.027 -1.0066  1.1632  1.1868
 8420SOL    HW236723   2.155   1.042   0.952  0.0214 -0.0993 -0.2933
 8421SOL     OW36724   3.942   3.430   8.101  0.0400  0.3538 -0.4732
 8421SOL    HW136725   3.867   3.466   8.149 -0.9464 -1.7812 -0.4091
 8421SOL    HW236726   3.928   3.335   8.097 -1.4451  0.4217  2.5177
 8422SOL     OW36727   0.813   2.920   4.512 -0.1607 -0.4963 -0.5787
 8422SOL    HW136728   0.821   2.999   4.565  0.8907  0.0109 -1.4993
 8422SOL    HW236729   0.863   2.862   4.569  0.1815 -0.3508 -0.7313
 8423SOL     OW36730   1.037   2.679  15.752  0.5753 -0.6912 -0.5742
 8423SOL    HW136731   1.068   2.716  15.834 -2.4471  0.2844  0.1179
 8423SOL    HW236732   1.110   2.711  15.698  1.3253 -1.6560 -0.1150
 8424SOL     OW36733   2.103   3.602  15.153 -0.0551 -0.4381 -1.1310
 8424SOL    HW136734   2.190   3.610  15.191 -0.0509 -0.8764 -1.0409
 8424SOL    HW236735   2.118   3.558  15.069 -1.6867 -0.7902 -1.2415
 8425SOL     OW36736   0.238   2.911   4.986 -0.1669 -0.0435 -0.9331
 8425SOL    HW136737   0.313   2.856   4.963 -1.5283 -2.5511  0.5876
 8425SOL    HW236738   0.162   2.861   4.957 -0.4246 -1.6355  2.4883
 8426SOL     OW36739   3.733   2.291  13.500  0.3203 -0.1452  0.5646
 8426SOL    HW136740   3.696   2.211  13.538 -2.0737  0.0084 -1.4767
 8426SOL    HW236741   3.820   2.255  13.484  0.6909  0.3128  1.5370
 8427SOL     OW36742   1.997   3.092   4.492  0.3460 -0.0199 -0.2912
 8427SOL    HW136743   2.089   3.069   4.507  0.4534 -1.2717 -2.7411
 8427SOL    HW236744   1.991   3.100   4.396 -0.9443 -1.9924 -0.3895
 8428SOL     OW36745   2.053   1.789  13.206  0.4266  0.0726 -0.0494
 8428SOL    HW136746   2.115   1.746  13.264  1.2197 -0.6427 -1.4414
 8428SOL    HW236747   2.075   1.742  13.125 -0.9309  1.7992 -1.4249
 8429SOL     OW36748   0.010   3.303  16.665 -0.0980 -0.0773 -0.0032
 8429SOL    HW136749   4.717   3.220  16.712  1.3077 -0.7781 -0.8068
 8429SOL    HW236750   0.093   3.276  16.626 -0.3166 -0.5903 -0.1157
 8430SOL     OW36751   4.011   4.040  15.402 -0.1140 -0.4061  0.4633
 8430SOL    HW136752   3.975   3.958  15.436  0.3995 -0.5156  0.7549
 8430SOL    HW236753   3.969   4.036  15.316  1.4595 -0.3263 -0.3141
 8431SOL     OW36754   1.487   0.203   2.345  0.1805  0.2658 -0.3641
 8431SOL    HW136755   1.493   0.118   2.302 -0.0233  1.3968 -2.6321
 8431SOL    HW236756   1.392   0.202   2.357  0.3337  3.7543  1.2642
 8432SOL     OW36757   1.203   1.412   2.197  0.5264 -0.1340 -0.0548
 8432SOL    HW136758   1.270   1.382   2.136  0.5159 -0.8300  0.2803
 8432SOL    HW236759   1.248   1.476   2.252 -0.2982  1.2143 -0.9213
 8433SOL     OW36760   1.765   3.276  13.262 -0.2623 -0.6296  0.2907
 8433SOL    HW136761   1.745   3.356  13.215 -0.9047  0.3496  2.2077
 8433SOL    HW236762   1.735   3.211  13.199 -1.2174  0.7715 -0.6873
 8434SOL     OW36763   0.388   1.183   3.702  0.6425  0.8603  0.2487
 8434SOL    HW136764   0.473   1.153   3.734  0.2763  0.7083  1.0840
 8434SOL    HW236765   0.348   1.199   3.788 -2.7088 -0.5441 -1.0328
 8435SOL     OW36766   0.910   1.432   7.876  0.0885  0.2200 -0.4902
 8435SOL    HW136767   0.889   1.523   7.853  2.7325  0.8827 -0.2292
 8435SOL    HW236768   0.989   1.419   7.825  0.6160  0.3681  0.2979
 8436SOL     OW36769   1.281   3.703   3.751  0.2734 -0.2522 -0.0569
 8436SOL    HW136770   1.240   3.750   3.679  0.9304 -0.6174 -0.6744
 8436SOL    HW236771   1.360   3.756   3.763  0.4144 -0.6100  0.6196
 8437SOL     OW36772   3.466   3.741   7.579 -0.4978  0.1761  0.0758
 8437SOL    HW136773   3.528   3.728   7.508  0.3830 -1.3235  1.0941
 8437SOL    HW236774   3.486   3.668   7.639  0.0402  0.1400 -0.1457
 8438SOL     OW36775   4.520   0.703   7.565 -0.6825 -0.5969 -0.6726
 8438SOL    HW136776   4.488   0.618   7.535 -1.0306 -0.1230 -1.6593
 8438SOL    HW236777   4.445   0.756   7.538  1.1463  2.7367  0.8535
 8439SOL     OW36778   1.133   4.326  17.671 -0.2336 -0.6154 -0.0280
 8439SOL    HW136779   1.049   4.369  17.658 -0.2922 -1.0792 -1.2618
 8439SOL    HW236780   1.110   4.253  17.613  0.5154 -0.6646 -0.2667
 8440SOL     OW36781   3.299   2.758   9.035 -0.3182  0.0761  0.1935
 8440SOL    HW136782   3.376   2.813   9.023 -0.5886  0.5934  0.8791
 8440SOL    HW236783   3.280   2.722   8.948  2.7957  1.9791 -1.2460
 8441SOL     OW36784   3.255   3.336   7.435 -0.5223  0.4783  0.1661
 8441SOL    HW136785   3.331   3.329   7.376  0.6406  1.1249  1.5734
 8441SOL    HW236786   3.240   3.246   7.464 -2.1562  1.5346  2.5892
 8442SOL     OW36787   1.879   4.630  12.094 -0.2685  0.8343 -0.5749
 8442SOL    HW136788   1.921   4.638  12.009 -2.4039  0.4685 -1.6413
 8442SOL    HW236789   1.955   4.594  12.141 -0.3292 -1.9319 -2.6149
 8443SOL     OW36790   4.453   3.149   7.973 -0.9320  0.2519  0.2181
 8443SOL    HW136791   4.406   3.084   8.025  2.6129 -1.5605  1.2226
 8443SOL    HW236792   4.525   3.177   8.031 -0.3777  1.4470 -1.0417
 8444SOL     OW36793   2.272   4.658   4.345  0.1183 -0.0178  0.2164
 8444SOL    HW136794   2.279   4.563   4.351  0.3480  0.0340  0.8767
 8444SOL    HW236795   2.178   4.677   4.342  0.5534  2.2365  0.4932
 8445SOL     OW36796   2.985   2.278   8.773 -0.0723  0.1848 -0.1399
 8445SOL    HW136797   3.017   2.223   8.844  1.1813  0.0280 -0.8200
 8445SOL    HW236798   2.898   2.245   8.751 -0.2259  1.5729 -1.6517
 8446SOL     OW36799   3.776   0.557   7.350  1.1532  0.3622  0.1081
 8446SOL    HW136800   3.722   0.501   7.294  1.0495 -0.3054  0.8932
 8446SOL    HW236801   3.841   0.587   7.286  0.4389  0.4767 -0.5745
 8447SOL     OW36802   1.735   4.208  13.103  0.5592 -0.5078 -0.2606
 8447SOL    HW136803   1.759   4.261  13.027 -1.5933  0.4563 -0.2579
 8447SOL    HW236804   1.736   4.276  13.170 -2.6204 -0.7402  0.0423
 8448SOL     OW36805   1.207   4.592   3.320  0.0797 -0.2588 -0.0306
 8448SOL    HW136806   1.222   4.512   3.268 -1.4192 -1.3176  1.1768
 8448SOL    HW236807   1.241   4.660   3.263  3.6766 -1.6272  0.4866
 8449SOL     OW36808   2.550   2.924   3.510  0.0826  0.2377 -0.5430
 8449SOL    HW136809   2.513   3.005   3.474 -0.5062 -0.1994 -0.9388
 8449SOL    HW236810   2.514   2.864   3.444 -0.9930  1.6280 -1.2272
 8450SOL     OW36811   1.059   0.122  10.203 -0.0374 -0.2764 -0.5305
 8450SOL    HW136812   1.042   0.199  10.256 -0.1244  0.0643 -1.0492
 8450SOL    HW236813   1.099   0.068  10.272  2.1878 -0.0626 -1.6366
 8451SOL     OW36814   3.389   3.991   5.841 -0.6633 -0.1986  0.4922
 8451SOL    HW136815   3.368   4.008   5.933 -1.1526  0.8476  0.1810
 8451SOL    HW236816   3.320   4.030   5.788  0.3028 -0.8198 -1.2085
 8452SOL     OW36817   0.890   4.593  12.951  0.1071  0.0832  0.0332
 8452SOL    HW136818   0.883   4.626  13.040  1.0175  1.9516 -0.5822
 8452SOL    HW236819   0.846   4.509  12.957  1.1410 -0.5912 -1.7178
 8453SOL     OW36820   2.353   0.670   2.327 -0.1538  0.1909  0.0744
 8453SOL    HW136821   2.346   0.658   2.422  3.4580  1.4871  0.5161
 8453SOL    HW236822   2.376   0.579   2.309  1.3217  0.3180  1.3335
 8454SOL     OW36823   3.793   3.063   3.717 -0.1965  0.0934 -0.0105
 8454SOL    HW136824   3.803   3.148   3.760 -1.1391 -0.0693  0.5362
 8454SOL    HW236825   3.749   3.009   3.783 -1.1546  0.3273 -0.4552
 8455SOL     OW36826   2.842   1.546   5.268 -0.3500 -0.3797  0.0692
 8455SOL    HW136827   2.903   1.495   5.215 -0.6787 -0.0075 -0.6832
 8455SOL    HW236828   2.905   1.581   5.331 -0.8503 -0.7145  0.7464
 8456SOL     OW36829   2.974   3.624   6.982  0.1581  0.3374  0.7601
 8456SOL    HW136830   2.893   3.673   6.997 -0.1824 -0.9106  3.0380
 8456SOL    HW236831   2.992   3.589   7.070  1.6284 -0.5124  0.1101
 8457SOL     OW36832   4.494   4.488   2.290  0.0520  0.2267 -0.4042
 8457SOL    HW136833   4.482   4.512   2.381  1.3811  0.5555 -0.3214
 8457SOL    HW236834   4.575   4.441   2.309 -0.7478 -1.3886 -0.9688
 8458SOL     OW36835   2.597   0.885   3.339  0.4328 -0.5512 -0.5223
 8458SOL    HW136836   2.601   0.865   3.433 -2.6452  2.3635  0.2129
 8458SOL    HW236837   2.567   0.976   3.340  2.2253  0.0308 -0.2428
 8459SOL     OW36838   0.789   4.452   2.782  0.1317 -0.5352  0.2485
 8459SOL    HW136839   0.770   4.392   2.710  2.4366 -0.9792  0.0351
 8459SOL    HW236840   0.863   4.506   2.755 -0.0462  0.4160  1.6629
 8460SOL     OW36841   0.474   0.050   8.600  0.4803  0.3195 -0.5554
 8460SOL    HW136842   0.492   0.056   8.694 -4.3622  1.3107  0.3122
 8460SOL    HW236843   0.519   0.124   8.559 -1.1377  1.7574  0.2616
 8461SOL     OW36844   3.686   3.985  12.913 -0.3793  0.7970 -0.5600
 8461SOL    HW136845   3.630   4.033  12.975 -0.3612  1.0392 -0.7313
 8461SOL    HW236846   3.675   3.891  12.931  2.9659  0.1217 -2.1676
 8462SOL     OW36847   3.201   3.334   6.828 -0.1402  0.5640  0.0147
 8462SOL    HW136848   3.224   3.426   6.812 -0.2722  0.2739 -1.8406
 8462SOL    HW236849   3.178   3.338   6.921 -0.7789  2.1777 -0.2185
 8463SOL     OW36850   4.695   2.740   7.234 -0.5792  0.1801 -0.3390
 8463SOL    HW136851   4.702   2.658   7.186  3.2501  0.2295  0.2129
 8463SOL    HW236852   4.670   2.702   7.318 -2.2952  1.1034 -0.4211
 8464SOL     OW36853   2.469   1.370   1.915  0.3447 -0.0346  0.0657
 8464SOL    HW136854   2.504   1.433   1.851 -0.2837  1.3669  1.1110
 8464SOL    HW236855   2.538   1.341   1.974  0.1031  1.0176  0.8475
 8465SOL     OW36856   2.819   0.941   6.035 -0.0277 -0.2395  0.3649
 8465SOL    HW136857   2.840   1.027   5.999  0.0351  0.0818  1.1581
 8465SOL    HW236858   2.778   0.972   6.116 -0.6959  0.8029 -0.3764
 8466SOL     OW36859   1.296   0.270  10.127 -0.3145 -0.3352  0.1280
 8466SOL    HW136860   1.378   0.230  10.097  0.6593  0.1524  2.1025
 8466SOL    HW236861   1.239   0.194  10.135 -0.3095 -0.3698 -0.1563
 8467SOL     OW36862   2.007   3.206   7.001  0.4612  0.3331 -0.8345
 8467SOL    HW136863   1.990   3.149   7.076 -0.1465  0.8335 -0.5903
 8467SOL    HW236864   2.074   3.154   6.956 -0.2573 -0.3257 -1.1363
 8468SOL     OW36865   1.401   0.896   1.420  0.2400 -0.1081 -0.4185
 8468SOL    HW136866   1.366   0.905   1.331 -0.2617 -0.8820 -0.3042
 8468SOL    HW236867   1.470   0.837   1.390  0.9887 -0.5755  2.2324
 8469SOL     OW36868   3.880   4.653  11.822 -0.1138  0.3293 -0.0162
 8469SOL    HW136869   3.923   4.635  11.739 -0.5482  0.2332 -0.2181
 8469SOL    HW236870   3.792   4.638  11.788 -1.0323 -1.5316  3.0911
 8470SOL     OW36871   0.553   4.287   6.915 -0.2303  0.5004  0.0158
 8470SOL    HW136872   0.511   4.232   6.848  0.6442  0.4875 -0.5086
 8470SOL    HW236873   0.607   4.223   6.962 -1.1128 -1.1126 -1.1633
 8471SOL     OW36874   3.290   3.962  10.037 -0.1030 -0.5715  0.3693
 8471SOL    HW136875   3.265   3.964   9.945 -2.6646 -1.7518  1.0553
 8471SOL    HW236876   3.297   4.056  10.055  0.5262 -0.7842  1.2555
 8472SOL     OW36877   0.095   0.573   9.275  0.1043  0.1175 -0.1087
 8472SOL    HW136878   0.181   0.609   9.253  0.9499 -1.1408  1.1514
 8472SOL    HW236879   0.047   0.656   9.284  0.3468  0.2263  0.1930
 8473SOL     OW36880   3.044   1.282  17.426  0.6272 -0.1335 -0.7612
 8473SOL    HW136881   2.982   1.308  17.494 -1.2364 -1.8105 -1.8318
 8473SOL    HW236882   3.055   1.366  17.381 -2.8581 -0.1238 -1.5894
 8474SOL     OW36883   0.613   4.701   3.505 -0.6164  0.1026 -0.3479
 8474SOL    HW136884   0.683   0.023   3.457  1.1275  1.1337  3.1564
 8474SOL    HW236885   0.663   4.631   3.548  1.2767  2.4641  1.2692
 8475SOL     OW36886   2.018   1.993   4.946 -0.1502 -0.4286 -0.5513
 8475SOL    HW136887   2.113   1.999   4.941 -0.1472  1.8097  2.5309
 8475SOL    HW236888   1.997   1.924   4.882  0.7523  0.6045 -1.9504
 8476SOL     OW36889   2.323   3.740  12.896  0.1071 -0.1516  1.0035
 8476SOL    HW136890   2.310   3.749  12.991 -0.2220  0.2194  0.9232
 8476SOL    HW236891   2.316   3.645  12.889 -0.7478 -0.0959  1.0525
 8477SOL     OW36892   2.605   3.436   8.103 -0.2743 -0.1536  0.4015
 8477SOL    HW136893   2.534   3.500   8.111 -0.0517  0.2725 -1.0952
 8477SOL    HW236894   2.574   3.400   8.020 -3.0961  2.0749  0.4696
 8478SOL     OW36895   3.631   2.546   5.721  0.4526 -0.0107 -0.7266
 8478SOL    HW136896   3.656   2.605   5.650  2.8801 -1.1135 -0.8068
 8478SOL    HW236897   3.695   2.476   5.703  1.7646  1.3155 -1.1688
 8479SOL     OW36898   1.003   4.692   2.285  0.2166 -0.1119 -0.1540
 8479SOL    HW136899   0.952   4.651   2.215 -0.1560  1.1600 -0.6314
 8479SOL    HW236900   1.078   4.719   2.232 -0.3391  0.1648 -0.7996
 8480SOL     OW36901   1.911   3.642   4.162 -0.4445  0.1049  0.0093
 8480SOL    HW136902   1.898   3.564   4.214  1.5969 -0.2882 -0.0477
 8480SOL    HW236903   1.956   3.602   4.087 -0.2322 -0.1798  0.2914
 8481SOL     OW36904   2.844   2.861  15.589  0.7382 -0.1381  0.0761
 8481SOL    HW136905   2.763   2.842  15.542  0.4466  2.1405 -0.3462
 8481SOL    HW236906   2.818   2.886  15.677  1.9676  0.0160  0.4049
 8482SOL     OW36907   1.991   2.382  12.634 -0.0906  0.1934 -0.6320
 8482SOL    HW136908   2.010   2.341  12.550  1.2389  0.3450 -0.3973
 8482SOL    HW236909   2.025   2.469  12.616 -1.1095  0.4623 -1.2681
 8483SOL     OW36910   3.202   1.758   5.992  0.3048  1.0910  0.2677
 8483SOL    HW136911   3.168   1.784   5.907 -2.6518 -1.1808  0.7614
 8483SOL    HW236912   3.170   1.832   6.044  0.0568  0.0329  1.6088
 8484SOL     OW36913   1.415   2.485   3.063  0.1835  0.9141  0.1035
 8484SOL    HW136914   1.407   2.534   3.145  2.3228  0.7330  0.4098
 8484SOL    HW236915   1.345   2.524   3.010  1.2501  0.6623 -1.4895
 8485SOL     OW36916   3.390   0.356  16.889  0.3455  0.1853  0.1340
 8485SOL    HW136917   3.416   0.272  16.927  1.0744 -0.4279 -1.7043
 8485SOL    HW236918   3.399   0.336  16.796 -0.1996  2.1701 -0.3536
 8486SOL     OW36919   1.211   0.586  11.967  0.2002 -0.1769  0.3126
 8486SOL    HW136920   1.242   0.576  11.877 -0.7868  1.2795 -0.1806
 8486SOL    HW236921   1.170   0.501  11.982 -1.3975  0.8298  1.5707
 8487SOL     OW36922   3.155   3.765   9.225  0.5121 -0.2791 -0.1769
 8487SOL    HW136923   3.169   3.671   9.238 -1.5536 -0.5842 -0.2176
 8487SOL    HW236924   3.232   3.795   9.274 -0.4389  1.5005  0.2129
 8488SOL     OW36925   4.421   3.668  10.425 -0.4577  0.1322  0.2867
 8488SOL    HW136926   4.471   3.684  10.345 -0.9993 -2.0443 -0.5074
 8488SOL    HW236927   4.443   3.576  10.440 -2.8835 -0.8879 -2.1828
 8489SOL     OW36928   3.760   3.013   8.993  0.2168 -1.2346  0.6913
 8489SOL    HW136929   3.743   3.000   8.900 -0.8590  3.7606  0.2209
 8489SOL    HW236930   3.682   2.970   9.027 -1.4993  0.0317 -1.7308
 8490SOL     OW36931   4.131   0.506   9.808 -0.7368 -0.5025 -0.2607
 8490SOL    HW136932   4.223   0.480   9.801 -0.2849  1.1839 -0.6714
 8490SOL    HW236933   4.118   0.563   9.731  1.0212 -0.4018 -0.4992
 8491SOL     OW36934   1.386   1.208  11.296  0.0606 -0.1772  0.0376
 8491SOL    HW136935   1.375   1.231  11.204 -1.2023  0.6432  0.4085
 8491SOL    HW236936   1.421   1.286  11.338 -0.1190  1.0092 -1.9798
 8492SOL     OW36937   0.133   2.953   7.428  0.2393  0.3426 -0.4653
 8492SOL    HW136938   0.155   3.037   7.467 -1.0162  0.0841  0.8210
 8492SOL    HW236939   0.145   2.953   7.333  0.6335  0.1305 -0.4120
 8493SOL     OW36940   4.672   2.393  13.339 -0.0372  0.6662  0.2841
 8493SOL    HW136941   4.693   2.308  13.378 -0.8450 -0.6515 -2.0907
 8493SOL    HW236942   4.607   2.427  13.400 -1.1547  0.9922 -1.0857
 8494SOL     OW36943   1.739   3.670   0.408  0.1158  0.0218  0.0110
 8494SOL    HW136944   1.689   3.609   0.353 -2.4998  2.4167 -0.2474
 8494SOL    HW236945   1.754   3.740   0.345 -1.8049  0.8947  0.5061
 8495SOL     OW36946   0.505   3.131   2.273 -0.2598  0.4997 -0.2478
 8495SOL    HW136947   0.482   3.126   2.180 -1.9217 -0.5504  0.2125
 8495SOL    HW236948   0.426   3.121   2.326 -0.2014 -0.8290 -0.4215
 8496SOL     OW36949   1.713   2.961   1.057 -0.2991  0.1678 -0.7088
 8496SOL    HW136950   1.735   3.017   1.131  0.2312 -1.1410  0.1338
 8496SOL    HW236951   1.623   2.977   1.030 -0.4733 -0.4437 -0.4956
 8497SOL     OW36952   3.107   4.027   5.784  0.0778 -0.0287 -0.2275
 8497SOL    HW136953   3.049   4.073   5.846  2.0173  1.2469  0.6451
 8497SOL    HW236954   3.043   4.002   5.718 -2.4819  0.5225  2.0111
 8498SOL     OW36955   1.044   4.587   2.553  0.4547  0.2643 -0.2398
 8498SOL    HW136956   1.060   4.633   2.471 -3.9216 -0.5518 -1.5572
 8498SOL    HW236957   0.962   4.628   2.580  0.4444 -1.4407  2.4306
 8499SOL     OW36958   1.195   1.876  11.947 -0.1255  0.4575 -0.0406
 8499SOL    HW136959   1.210   1.835  11.862  2.1159  1.7861 -0.3075
 8499SOL    HW236960   1.103   1.898  11.958 -0.2655 -0.3641  0.4337
 8500SOL     OW36961   0.572   1.013   1.378  0.3752  0.1923 -0.6152
 8500SOL    HW136962   0.643   0.950   1.395  1.2090  1.5801  1.0224
 8500SOL    HW236963   0.539   1.019   1.468  1.1432  0.9103 -0.3858
 8501SOL     OW36964   1.367   2.642   7.545  0.1465 -0.1942  0.0269
 8501SOL    HW136965   1.359   2.608   7.456 -1.1484 -0.3243  0.1884
 8501SOL    HW236966   1.407   2.569   7.592  0.7820 -0.9520 -1.7073
 8502SOL     OW36967   0.670   0.825  12.810  0.2127 -0.2457 -0.4267
 8502SOL    HW136968   0.584   0.786  12.795 -0.9754  1.1282  2.8335
 8502SOL    HW236969   0.694   0.769  12.883 -1.8184  0.0470  0.4670
 8503SOL     OW36970   1.491   3.618   2.634 -0.0145 -0.2796 -0.1788
 8503SOL    HW136971   1.467   3.637   2.543  0.5852  1.4772  0.0304
 8503SOL    HW236972   1.406   3.616   2.677  0.2904 -1.4227  0.3808
 8504SOL     OW36973   2.440   2.252   4.419  0.1490 -0.0242  0.0302
 8504SOL    HW136974   2.513   2.313   4.425  0.5072 -0.2429 -2.0377
 8504SOL    HW236975   2.380   2.288   4.353  0.0972 -1.8818 -0.9419
 8505SOL     OW36976   0.681   0.828   8.159 -0.1678  0.1612  0.0383
 8505SOL    HW136977   0.603   0.832   8.104 -1.6447  1.0220  2.1492
 8505SOL    HW236978   0.704   0.920   8.166  0.9784 -0.1873  0.7744
 8506SOL     OW36979   2.131   4.179   7.511  0.0284  0.0509  0.3364
 8506SOL    HW136980   2.112   4.087   7.529  1.4446  0.0301  1.7407
 8506SOL    HW236981   2.176   4.203   7.592 -0.9995 -0.2780  1.0066
 8507SOL     OW36982   4.007   0.366   5.999 -0.0933 -0.5257 -0.1177
 8507SOL    HW136983   4.101   0.349   5.996 -0.6833 -3.0359 -3.5029
 8507SOL    HW236984   4.018   0.447   6.050 -4.5314  0.0978 -0.1128
 8508SOL     OW36985   4.283   2.269   3.714 -0.2744 -0.4550  0.3666
 8508SOL    HW136986   4.354   2.329   3.691 -0.3154 -1.0408 -1.2817
 8508SOL    HW236987   4.227   2.324   3.770 -1.2817 -1.2159  0.1028
 8509SOL     OW36988   4.279   1.229  17.039 -0.9335 -0.0382  0.0775
 8509SOL    HW136989   4.191   1.193  17.046 -0.0299 -2.7155 -2.0899
 8509SOL    HW236990   4.262   1.321  17.058  1.2422  0.0512  1.6213
 8510SOL     OW36991   1.162   0.381   9.253  0.2701 -0.4547 -0.5845
 8510SOL    HW136992   1.072   0.355   9.233 -1.2842  3.1503  1.7145
 8510SOL    HW236993   1.219   0.317   9.210  0.5131  1.2575 -2.7963
 8511SOL     OW36994   1.072   1.912  15.223  0.1338  0.2743 -0.1567
 8511SOL    HW136995   1.077   1.820  15.197 -1.5498  0.6546 -1.7842
 8511SOL    HW236996   0.989   1.937  15.182  0.3886 -0.0656 -0.8889
 8512SOL     OW36997   1.627   0.270   7.139  0.8415 -0.4232 -0.0808
 8512SOL    HW136998   1.648   0.204   7.205 -0.2038 -1.0090 -0.3231
 8512SOL    HW236999   1.582   0.328   7.201  1.2310  0.4802 -0.6571
 8513SOL     OW37000   1.687   3.238   5.521  0.0078  0.4615 -0.1996
 8513SOL    HW137001   1.611   3.199   5.479  1.0210 -0.6029 -1.0293
 8513SOL    HW237002   1.757   3.174   5.509 -1.3589 -0.9152 -0.8093
 8514SOL     OW37003   2.237   3.578   5.345  0.6093 -0.3426  0.3109
 8514SOL    HW137004   2.326   3.572   5.310  0.9234 -4.9056  1.8292
 8514SOL    HW237005   2.243   3.527   5.426 -0.5953 -1.3250 -0.2183
 8515SOL     OW37006   0.501   4.249   1.936 -0.6412 -0.7590 -0.0424
 8515SOL    HW137007   0.552   4.246   1.855 -0.4668 -1.3931  0.0844
 8515SOL    HW237008   0.410   4.226   1.915 -1.4410  0.2978  2.3193
 8516SOL     OW37009   1.419   3.063   5.784  0.0673  0.0209  0.3385
 8516SOL    HW137010   1.377   3.112   5.713  1.5120 -2.0803 -1.9480
 8516SOL    HW237011   1.348   3.068   5.847  0.2172 -1.7030  0.6377
 8517SOL     OW37012   1.920   4.070   3.083 -0.1953 -0.4692  0.0372
 8517SOL    HW137013   1.875   4.004   3.136 -0.2720  0.7470  1.4715
 8517SOL    HW237014   1.908   4.147   3.138  1.4449 -2.1675  2.7575
 8518SOL     OW37015   2.729   0.027   0.220 -0.4765 -0.0576 -0.6447
 8518SOL    HW137016   2.688   0.016   0.306  0.3351  0.8216 -0.1476
 8518SOL    HW237017   2.690   4.681   0.165 -0.6585 -0.8821  0.5052
 8519SOL     OW37018   2.673   0.991  16.020  0.2342 -0.7775  0.4329
 8519SOL    HW137019   2.639   0.945  15.943  1.7855 -1.6347  0.2373
 8519SOL    HW237020   2.767   0.973  16.009 -0.1206 -3.4049  1.5573
 8520SOL     OW37021   3.281   1.474   5.395  0.1252 -0.3071 -0.2483
 8520SOL    HW137022   3.190   1.503   5.408  0.7622  2.2237 -1.3784
 8520SOL    HW237023   3.265   1.385   5.364 -3.6967 -0.0908  1.0751
 8521SOL     OW37024   4.331   4.520  15.760  0.3598  0.3502 -0.5234
 8521SOL    HW137025   4.410   4.563  15.791  1.9342 -0.8782 -2.8780
 8521SOL    HW237026   4.325   4.557  15.672  1.6358 -3.9537 -2.4449
 8522SOL     OW37027   2.421   1.022  14.193 -0.0411 -0.1117 -0.3587
 8522SOL    HW137028   2.362   0.993  14.263 -1.3268 -1.1544 -1.8844
 8522SOL    HW237029   2.371   1.017  14.112  1.6395 -2.1703 -1.2850
 8523SOL     OW37030   3.182   3.781   5.677 -0.5441  0.2515  0.1900
 8523SOL    HW137031   3.184   3.824   5.592 -0.9349  0.4096  0.2600
 8523SOL    HW237032   3.179   3.862   5.728  3.0973  0.6034 -0.1484
 8524SOL     OW37033   0.298   1.148   9.555  0.0035 -0.9182 -0.4025
 8524SOL    HW137034   0.380   1.129   9.508  0.3501  0.4864 -0.3696
 8524SOL    HW237035   0.231   1.169   9.490  0.0499  0.7135  0.0945
 8525SOL     OW37036   3.186   4.327   7.246  0.3244  0.8701  0.1651
 8525SOL    HW137037   3.163   4.408   7.201  0.1906  0.7335 -0.0148
 8525SOL    HW237038   3.258   4.306   7.188  2.2018 -1.7881  3.4208
 8526SOL     OW37039   3.258   1.239   9.370 -0.7785  0.3301  0.1366
 8526SOL    HW137040   3.346   1.257   9.337 -0.4779  1.0027  1.3127
 8526SOL    HW237041   3.224   1.324   9.343 -1.7113  0.4621  1.7454
 8527SOL     OW37042   1.455   3.150  16.479  0.0089  0.0676  0.2817
 8527SOL    HW137043   1.414   3.173  16.563  0.8766  1.3461  0.3545
 8527SOL    HW237044   1.547   3.148  16.503  0.2102 -1.9889 -0.7275
 8528SOL     OW37045   0.005   0.039  17.260 -0.0782 -0.6069  0.5953
 8528SOL    HW137046   0.045   0.115  17.218  3.0267 -1.4164  2.0697
 8528SOL    HW237047   4.678   0.070  17.336 -0.8753  1.7383 -0.9063
 8529SOL     OW37048   3.840   3.334   2.166 -0.0732  0.1750 -0.2509
 8529SOL    HW137049   3.915   3.294   2.123  0.1397  0.4719 -0.1495
 8529SOL    HW237050   3.778   3.263   2.147  0.9658 -0.3738 -1.5638
 8530SOL     OW37051   1.826   1.236   3.121  0.1952 -0.1776  0.5910
 8530SOL    HW137052   1.771   1.282   3.058  1.0980  0.3238  0.1725
 8530SOL    HW237053   1.770   1.190   3.184 -1.3357 -0.3680 -0.9198
 8531SOL     OW37054   4.153   1.657   8.473 -0.0609  0.1092 -0.2779
 8531SOL    HW137055   4.072   1.606   8.481  1.8959 -2.8868  0.1643
 8531SOL    HW237056   4.138   1.693   8.386 -1.2089  0.2783 -0.0172
 8532SOL     OW37057   2.877   4.368   4.936  0.2962  0.6131 -0.0466
 8532SOL    HW137058   2.964   4.340   4.907 -0.9389 -2.1765 -1.1126
 8532SOL    HW237059   2.835   4.365   4.850  0.8518  0.0897 -0.3027
 8533SOL     OW37060   0.930   2.637   1.501  0.2015 -0.4383 -0.3722
 8533SOL    HW137061   0.931   2.627   1.596  2.1582 -2.1736 -0.5636
 8533SOL    HW237062   0.841   2.610   1.480  1.5929 -3.3298 -2.6683
 8534SOL     OW37063   3.459   2.362   3.282  0.2568 -0.2593  0.6445
 8534SOL    HW137064   3.451   2.348   3.188 -0.6071 -1.0265  0.8270
 8534SOL    HW237065   3.389   2.426   3.301  2.0099  1.5377  1.0281
 8535SOL     OW37066   3.669   2.224   5.615 -0.1286 -0.7099  0.0485
 8535SOL    HW137067   3.617   2.163   5.668  0.1070 -0.6151  0.3937
 8535SOL    HW237068   3.629   2.204   5.531 -1.7888  0.9662  0.4496
 8536SOL     OW37069   2.393   1.134   4.178  0.3552 -0.0390  0.3565
 8536SOL    HW137070   2.303   1.145   4.145  0.1283 -0.6959  0.7651
 8536SOL    HW237071   2.432   1.155   4.093  2.0748 -3.1544  0.3691
 8537SOL     OW37072   3.004   0.246   3.772  0.2119  0.1991 -0.1176
 8537SOL    HW137073   2.921   0.228   3.815  1.2106 -1.7737  0.9916
 8537SOL    HW237074   3.036   0.163   3.739 -0.7515  0.5036 -1.8103
 8538SOL     OW37075   4.617   2.611   5.651  0.2581  0.3630  0.6058
 8538SOL    HW137076   4.532   2.636   5.685  0.0829  1.1172 -0.4072
 8538SOL    HW237077   4.652   2.537   5.701  0.6371 -0.2058 -0.4929
 8539SOL     OW37078   3.533   2.410  13.202 -0.0021  0.1501  0.6416
 8539SOL    HW137079   3.570   2.474  13.264 -1.0759 -0.7426  2.2056
 8539SOL    HW237080   3.508   2.476  13.138 -0.6550  0.4224  1.1793
 8540SOL     OW37081   1.855   3.942   4.729  0.0050  0.1890 -0.2177
 8540SOL    HW137082   1.881   3.850   4.719  1.7765  0.6377  0.1232
 8540SOL    HW237083   1.918   3.992   4.676 -0.0537  1.3672  0.8493
 8541SOL     OW37084   3.143   4.080  11.280  0.4016  0.2480  0.0626
 8541SOL    HW137085   3.219   4.118  11.235 -1.5885  0.6753 -2.8990
 8541SOL    HW237086   3.191   4.029  11.345 -0.8363 -1.7979 -0.6218
 8542SOL     OW37087   3.531   2.206   7.696 -0.3459  0.0784  0.5711
 8542SOL    HW137088   3.496   2.279   7.747  3.3148  1.2193  1.3865
 8542SOL    HW237089   3.614   2.193   7.741 -0.6624  1.6464  1.6015
 8543SOL     OW37090   2.253   3.705   1.662  0.8599  0.6248 -0.2343
 8543SOL    HW137091   2.317   3.634   1.659  0.1154  0.0312 -2.1634
 8543SOL    HW237092   2.201   3.684   1.740  0.5255 -3.6105 -1.6253
 8544SOL     OW37093   3.361   4.213  14.321  0.7097 -0.3004  0.3940
 8544SOL    HW137094   3.341   4.180  14.233 -0.5272  0.3813  0.4167
 8544SOL    HW237095   3.359   4.309  14.323 -0.7316 -0.3495  1.6309
 8545SOL     OW37096   4.207   4.640  13.022  0.1609  0.1607 -0.1366
 8545SOL    HW137097   4.164   4.697  12.958  1.9447  0.1515 -1.3474
 8545SOL    HW237098   4.192   4.551  12.990  1.3174  0.3501 -1.2565
 8546SOL     OW37099   2.578   1.007  15.732 -0.3627 -0.4888 -0.1253
 8546SOL    HW137100   2.541   0.919  15.738 -1.4736  0.1006  1.6080
 8546SOL    HW237101   2.627   1.000  15.650 -0.3457 -0.3915 -0.1238
 8547SOL     OW37102   1.556   2.058   7.190  0.1780  0.0054 -0.1087
 8547SOL    HW137103   1.617   2.062   7.116  2.0887 -2.0101  1.3553
 8547SOL    HW237104   1.485   2.000   7.162  0.4205 -0.5706  0.4584
 8548SOL     OW37105   2.867   2.983  15.311 -0.1103 -0.4420  0.4753
 8548SOL    HW137106   2.798   3.020  15.367 -1.0886  0.3746 -1.2544
 8548SOL    HW237107   2.821   2.982  15.226  0.1470 -1.0184  0.3467
 8549SOL     OW37108   2.295   2.690   2.458  0.3831 -0.1933  0.1545
 8549SOL    HW137109   2.309   2.785   2.459 -0.7274 -0.0403  1.0985
 8549SOL    HW237110   2.246   2.669   2.379 -0.2306 -0.8622  0.7194
 8550SOL     OW37111   1.478   3.414  17.513 -0.2381  0.2129  0.2044
 8550SOL    HW137112   1.572   3.431  17.516 -0.6611  2.7234 -0.8187
 8550SOL    HW237113   1.482   3.327  17.474  0.3376  0.1774  0.3354
 8551SOL     OW37114   4.413   3.803   9.134  0.1009 -0.2982 -0.4962
 8551SOL    HW137115   4.320   3.804   9.114  0.4273 -1.6586 -2.2002
 8551SOL    HW237116   4.441   3.725   9.086  1.4609 -0.7317  1.0090
 8552SOL     OW37117   0.249   3.393  16.373  0.1671  0.5767 -0.1260
 8552SOL    HW137118   0.182   3.444  16.420 -1.0486  0.3278 -1.6065
 8552SOL    HW237119   0.315   3.462  16.363  0.6973 -0.0692 -0.9790
 8553SOL     OW37120   0.395   3.514   0.728 -0.1251  0.1328 -0.4606
 8553SOL    HW137121   0.399   3.449   0.798 -1.8657  1.2799  0.6973
 8553SOL    HW237122   0.443   3.584   0.772  0.3615 -0.0023 -0.7760
 8554SOL     OW37123   0.356   1.335   0.669  0.1578  0.1078  0.4711
 8554SOL    HW137124   0.285   1.334   0.734  1.1525  0.0715  1.5651
 8554SOL    HW237125   0.356   1.242   0.649  1.6163  0.2275 -0.0857
 8555SOL     OW37126   1.166   4.181   0.711  0.1712  0.0105  0.3950
 8555SOL    HW137127   1.080   4.182   0.669  0.0262  0.4356  0.7093
 8555SOL    HW237128   1.230   4.200   0.642  0.7412 -2.9928  0.0632
 8556SOL     OW37129   0.255   3.580   7.428 -0.5914 -0.5521 -0.1907
 8556SOL    HW137130   0.202   3.574   7.349 -0.8191 -0.7732 -0.0203
 8556SOL    HW237131   0.187   3.590   7.494 -0.6272  0.4718 -0.3890
 8557SOL     OW37132   2.612   2.879   8.483 -0.1412  0.1515  0.5687
 8557SOL    HW137133   2.643   2.806   8.537 -0.6110  0.0724  0.7284
 8557SOL    HW237134   2.578   2.844   8.401  2.7908 -2.3672  0.4168
 8558SOL     OW37135   1.589   4.583  14.150 -0.1456  0.2174  0.2488
 8558SOL    HW137136   1.599   4.674  14.122 -0.7767  0.7018  1.6076
 8558SOL    HW237137   1.604   4.531  14.070  0.3903  0.9371 -0.1206
 8559SOL     OW37138   3.246   2.087   3.351  0.2359 -0.2670 -0.4500
 8559SOL    HW137139   3.204   2.144   3.287  2.5606  1.2202 -0.6677
 8559SOL    HW237140   3.224   2.134   3.431  0.4382  0.0719 -0.5930
 8560SOL     OW37141   3.792   2.928  15.918 -0.1550 -0.3200 -0.1665
 8560SOL    HW137142   3.770   2.892  15.832 -0.7992  0.9926 -0.5482
 8560SOL    HW237143   3.793   3.023  15.903 -2.1528 -0.2465  0.1212
 8561SOL     OW37144   0.264   0.701   8.041 -0.1819  0.1696  0.5100
 8561SOL    HW137145   0.197   0.711   7.973 -1.9000 -0.3341  2.1324
 8561SOL    HW237146   0.300   0.614   8.025  1.1121  0.5720  1.1818
 8562SOL     OW37147   0.973   3.457  16.306 -0.4768  0.2267  0.2557
 8562SOL    HW137148   1.038   3.525  16.322  0.1299 -0.1834 -0.4361
 8562SOL    HW237149   1.030   3.389  16.270 -0.7815  0.9063 -1.5081
 8563SOL     OW37150   2.154   2.744  10.282  0.2089 -0.6130  0.4522
 8563SOL    HW137151   2.217   2.671  10.287 -0.4320 -1.2056 -0.1907
 8563SOL    HW237152   2.080   2.712  10.334 -1.0550  1.2690 -0.2232
 8564SOL     OW37153   0.742   0.218   1.669 -0.0537  0.3221  0.0463
 8564SOL    HW137154   0.814   0.240   1.610  0.6112  1.7686  1.4122
 8564SOL    HW237155   0.794   0.168   1.731  0.1738  0.1731 -0.2642
 8565SOL     OW37156   3.237   1.131   0.848 -0.1615 -0.4550  0.1056
 8565SOL    HW137157   3.204   1.050   0.887  1.1997 -1.7983 -1.5328
 8565SOL    HW237158   3.270   1.085   0.771 -0.1865 -0.6240  0.1954
 8566SOL     OW37159   4.708   1.712   7.609  0.2894  0.6666  0.5546
 8566SOL    HW137160   0.015   1.629   7.646  2.7652  0.5471 -1.6778
 8566SOL    HW237161   0.048   1.732   7.539 -1.1923 -1.5660 -1.4307
 8567SOL     OW37162   3.794   4.491   0.620  0.2565  0.0971  0.3474
 8567SOL    HW137163   3.735   4.517   0.549 -0.9806  1.2099  1.7909
 8567SOL    HW237164   3.809   4.397   0.610  1.7403  0.2569  0.9619
 8568SOL     OW37165   2.280   0.209   8.251  0.0915 -0.0139 -0.7982
 8568SOL    HW137166   2.233   0.132   8.220 -1.1068  0.3029  0.1920
 8568SOL    HW237167   2.367   0.169   8.249 -0.0934 -0.4691 -0.0228
 8569SOL     OW37168   1.567   2.174   2.836 -0.0507  0.0080 -0.1205
 8569SOL    HW137169   1.476   2.196   2.855  0.1761  0.5900  0.2795
 8569SOL    HW237170   1.556   2.079   2.848  1.3882 -0.0895  0.4322
 8570SOL     OW37171   3.879   4.359  11.618  0.3873 -0.3872 -0.3162
 8570SOL    HW137172   3.911   4.274  11.586  2.0165 -0.4331  1.4533
 8570SOL    HW237173   3.844   4.345  11.705 -0.1532 -1.3921 -0.6920
 8571SOL     OW37174   0.548   1.513   6.687 -0.3384 -0.1156  0.2086
 8571SOL    HW137175   0.484   1.457   6.732 -1.7580  0.6301 -0.8951
 8571SOL    HW237176   0.614   1.455   6.648 -1.7998 -0.4014 -1.8046
 8572SOL     OW37177   0.957   4.549   0.460 -0.2022  0.3086 -0.4927
 8572SOL    HW137178   0.928   4.462   0.433 -2.2503  0.0007  2.7343
 8572SOL    HW237179   1.052   4.539   0.463 -0.2668  0.5985  2.4659
 8573SOL     OW37180   1.560   4.219   3.995  0.0205 -0.6398  0.7189
 8573SOL    HW137181   1.535   4.290   4.054 -0.0620 -0.0916  0.0221
 8573SOL    HW237182   1.508   4.248   3.920  0.7638 -1.6963 -0.1948
 8574SOL     OW37183   1.643   4.621   4.167 -0.3116 -0.0162  0.5360
 8574SOL    HW137184   1.708   4.559   4.134  0.7506  0.7916  1.1227
 8574SOL    HW237185   1.659   4.687   4.099  3.2650 -1.3177  0.1391
 8575SOL     OW37186   2.553   0.824   8.303  0.1544  0.4523  0.2123
 8575SOL    HW137187   2.613   0.889   8.339 -0.0383  1.7587 -1.8164
 8575SOL    HW237188   2.531   0.779   8.384  0.1227  0.2044  0.0641
 8576SOL     OW37189   0.293   2.512   7.106  0.0801  0.5233 -0.2066
 8576SOL    HW137190   0.382   2.543   7.124  0.5071 -0.3934 -0.7817
 8576SOL    HW237191   0.252   2.556   7.181 -0.5559  1.2651 -0.9899
 8577SOL     OW37192   3.207   1.884   9.791 -0.3906 -0.0519  0.1489
 8577SOL    HW137193   3.193   1.803   9.742 -0.5753 -1.1993  2.0892
 8577SOL    HW237194   3.296   1.905   9.761 -0.1813 -0.3389  0.5729
 8578SOL     OW37195   3.942   0.462   7.544  0.5199 -0.8452 -0.4406
 8578SOL    HW137196   3.989   0.544   7.526  2.7507 -1.7118  1.4165
 8578SOL    HW237197   3.858   0.471   7.499  1.0043  3.4500 -0.5701
 8579SOL     OW37198   0.193   0.343  17.330 -0.2573 -0.0123 -0.0899
 8579SOL    HW137199   0.111   0.342  17.281 -0.6605 -0.6609  0.5957
 8579SOL    HW237200   0.213   0.435  17.314  0.5266  0.1140  1.6100
 8580SOL     OW37201   0.629   3.079   6.631 -0.3853 -0.8420  0.3750
 8580SOL    HW137202   0.550   3.132   6.626 -0.5081 -1.0360  0.2423
 8580SOL    HW237203   0.688   3.138   6.679  1.4791 -1.6819 -0.8853
 8581SOL     OW37204   0.045   2.287   6.969  0.0442 -0.1470  0.0695
 8581SOL    HW137205   0.035   2.202   6.926 -1.6714 -0.0934  0.3863
 8581SOL    HW237206   0.031   2.336   6.888  0.8536  1.9005  1.1795
 8582SOL     OW37207   2.176   0.401   2.357  0.3468 -0.6185 -0.5747
 8582SOL    HW137208   2.154   0.443   2.274 -1.0388 -0.1702  0.0123
 8582SOL    HW237209   2.103   0.429   2.413  0.6977 -0.1524 -0.3473
 8583SOL     OW37210   3.982   3.270  14.742 -0.2427 -0.1813 -0.6471
 8583SOL    HW137211   4.028   3.346  14.777 -0.6959 -1.7308  3.2439
 8583SOL    HW237212   4.042   3.202  14.773 -1.6260 -0.7950  0.6592
 8584SOL     OW37213   0.726   3.033   6.034 -0.1876  0.4055  0.0622
 8584SOL    HW137214   0.734   2.970   6.106 -1.2659 -1.7375 -1.6971
 8584SOL    HW237215   0.652   3.083   6.068  2.0972  2.2309  2.3545
 8585SOL     OW37216   2.019   0.662   0.858 -0.4191  0.6797 -0.7912
 8585SOL    HW137217   2.068   0.668   0.940 -2.0804 -0.4123  0.2838
 8585SOL    HW237218   1.930   0.687   0.884 -1.3210 -1.1729 -2.0375
 8586SOL     OW37219   4.418   3.470   9.709 -0.8460 -0.3054  0.1396
 8586SOL    HW137220   4.431   3.513   9.625  1.8340 -1.8583 -0.2197
 8586SOL    HW237221   4.490   3.408   9.714 -0.2608  0.1479 -2.9015
 8587SOL     OW37222   2.596   2.658  11.622  0.1601 -0.2474 -0.1935
 8587SOL    HW137223   2.566   2.634  11.710 -3.8203 -0.8354 -1.7012
 8587SOL    HW237224   2.670   2.711  11.651  1.0503 -1.5139 -0.1105
 8588SOL     OW37225   2.935   2.006   4.053  0.2108  0.4789 -0.3034
 8588SOL    HW137226   3.011   2.059   4.030  1.9224 -1.9937 -0.2065
 8588SOL    HW237227   2.925   1.952   3.975 -2.5699  0.2150  0.2269
 8589SOL     OW37228   3.839   4.302   6.108 -0.7789 -0.6406  0.5871
 8589SOL    HW137229   3.793   4.363   6.166 -1.0219  1.2263 -1.5969
 8589SOL    HW237230   3.830   4.225   6.165  0.5965  0.0339  1.7440
 8590SOL     OW37231   1.691   1.293   8.489 -0.2793 -0.6540 -0.1322
 8590SOL    HW137232   1.683   1.293   8.585  1.3194 -1.8867 -0.0092
 8590SOL    HW237233   1.693   1.386   8.465 -1.8710 -0.7703 -0.6963
 8591SOL     OW37234   3.882   2.934   4.054  0.5097  0.3938  0.2816
 8591SOL    HW137235   3.963   2.972   4.019  0.2854 -0.6477 -1.3537
 8591SOL    HW237236   3.849   2.868   3.994  1.6850 -0.0576  0.1151
 8592SOL     OW37237   4.617   1.605   6.925 -0.4108 -0.5297 -0.2310
 8592SOL    HW137238   4.654   1.517   6.922 -0.1507 -0.5431  2.7136
 8592SOL    HW237239   4.540   1.596   6.870 -0.6924 -0.1204  0.1017
 8593SOL     OW37240   2.756   1.272   7.869 -0.0743  0.1969 -0.5953
 8593SOL    HW137241   2.730   1.278   7.777 -0.7474 -1.5396 -0.5169
 8593SOL    HW237242   2.844   1.310   7.870 -0.1905  0.4803 -1.2179
 8594SOL     OW37243   0.523   0.953  17.550 -0.0048 -0.8684 -0.3625
 8594SOL    HW137244   0.438   0.990  17.572  0.9905  0.9572  0.3978
 8594SOL    HW237245   0.575   1.031  17.529 -3.3972  2.0673  2.1196
 8595SOL     OW37246   3.650   3.677  13.796  0.2220  0.2173 -0.4739
 8595SOL    HW137247   3.738   3.714  13.800 -0.1041  1.0712 -1.0634
 8595SOL    HW237248   3.618   3.754  13.749  1.3254  1.3119  0.5570
 8596SOL     OW37249   4.123   1.731   3.486 -0.2731 -0.4849 -0.1974
 8596SOL    HW137250   4.105   1.825   3.491 -0.3975 -0.4924 -0.4646
 8596SOL    HW237251   4.055   1.703   3.425 -0.5324  1.4043 -0.7633
 8597SOL     OW37252   0.169   0.973   2.021 -0.4224  0.1988  0.1512
 8597SOL    HW137253   0.170   0.982   2.116  1.2500 -0.9320  0.2329
 8597SOL    HW237254   0.081   0.938   2.010 -1.0421  1.8373 -0.2252
 8598SOL     OW37255   4.374   1.539   6.828  0.1526  0.2971  0.0768
 8598SOL    HW137256   4.293   1.538   6.777  0.7781 -3.4178 -0.8750
 8598SOL    HW237257   4.347   1.574   6.913 -1.6913 -1.9962  0.4292
 8599SOL     OW37258   1.135   4.567   4.422  0.6657  0.0246  0.0639
 8599SOL    HW137259   1.137   4.620   4.342  1.9195  1.4463  1.0461
 8599SOL    HW237260   1.178   4.624   4.484  3.0797 -0.5396 -1.1063
 8600SOL     OW37261   1.197   0.772   4.853 -0.0511  0.3178  0.2143
 8600SOL    HW137262   1.269   0.710   4.864 -0.6048 -0.5853 -1.2131
 8600SOL    HW237263   1.123   0.725   4.891  0.4872  1.5986  2.8227
 8601SOL     OW37264   4.121   2.134  10.999 -1.2321 -0.3967  0.0355
 8601SOL    HW137265   4.154   2.223  11.015 -0.1941 -0.9990  1.2146
 8601SOL    HW237266   4.045   2.152  10.944 -1.3567 -1.9898 -0.2941
 8602SOL     OW37267   4.527   0.661   8.656  0.5269 -0.2271 -0.0028
 8602SOL    HW137268   4.605   0.665   8.600 -0.1060 -0.2090 -0.8850
 8602SOL    HW237269   4.461   0.629   8.595 -2.6592  3.5435  1.5002
 8603SOL     OW37270   0.381   2.574  16.244 -0.5737 -0.0103 -0.3324
 8603SOL    HW137271   0.328   2.630  16.301  1.2389  2.3883 -1.0222
 8603SOL    HW237272   0.319   2.509  16.212 -0.8067  0.1140 -0.1323
 8604SOL     OW37273   4.171   0.587   6.435 -0.0503 -0.3397  0.2944
 8604SOL    HW137274   4.097   0.592   6.496 -0.2257 -1.0811  0.1430
 8604SOL    HW237275   4.196   0.679   6.427  0.7361 -0.5964 -0.1878
 8605SOL     OW37276   0.963   1.461  11.604 -0.4967 -0.4884  0.3074
 8605SOL    HW137277   1.042   1.419  11.571 -0.1084  1.4163 -1.1942
 8605SOL    HW237278   0.990   1.476  11.695  0.6421 -0.3460 -0.0534
 8606SOL     OW37279   2.034   4.208  12.802  0.1550  0.0386  0.3582
 8606SOL    HW137280   2.018   4.209  12.897 -3.1791 -1.1667 -0.1671
 8606SOL    HW237281   1.974   4.135  12.783  2.9019 -2.0822 -0.2356
 8607SOL     OW37282   2.096   3.118   5.568 -0.7941 -0.4884  0.1556
 8607SOL    HW137283   2.020   3.066   5.540 -0.8170  0.5363 -1.6521
 8607SOL    HW237284   2.086   3.114   5.663  0.3327  1.1682  0.3407
 8608SOL     OW37285   2.868   4.108  16.117  0.7292 -0.7447 -0.2592
 8608SOL    HW137286   2.835   4.028  16.077 -2.8846  1.8149 -2.4025
 8608SOL    HW237287   2.960   4.108  16.090  0.9204  2.4822  0.3687
 8609SOL     OW37288   1.050   2.680  13.286  0.0516  0.0042  0.0259
 8609SOL    HW137289   1.119   2.673  13.220  1.2614  0.1602  1.2852
 8609SOL    HW237290   1.019   2.766  13.259 -0.8419  0.2407  1.7719
 8610SOL     OW37291   3.069   1.869   0.783  0.4108  0.0311 -0.4930
 8610SOL    HW137292   3.066   1.931   0.710 -1.8615  0.7922  0.2202
 8610SOL    HW237293   3.033   1.914   0.860  0.9414  1.0671 -0.8546
 8611SOL     OW37294   3.587   4.499   7.102  0.4100  0.5055 -0.1519
 8611SOL    HW137295   3.544   4.562   7.160  0.5036 -0.7118  1.2279
 8611SOL    HW237296   3.636   4.443   7.161  1.9366  0.7822 -1.1655
 8612SOL     OW37297   2.890   4.477   0.050  0.0420  0.2659  0.6547
 8612SOL    HW137298   2.891   4.491   0.144  0.4134 -1.0424  0.8553
 8612SOL    HW237299   2.844   4.394   0.038 -0.5045  0.4104  1.8509
 8613SOL     OW37300   2.561   2.648   2.562 -0.1765  0.4117  0.1394
 8613SOL    HW137301   2.550   2.553   2.572  2.0813  0.0933 -0.4021
 8613SOL    HW237302   2.488   2.672   2.505  0.5982 -1.2721 -1.5585
 8614SOL     OW37303   1.755   0.051  15.576  0.5948 -0.1853  0.2519
 8614SOL    HW137304   1.674   0.000  15.573 -0.0987  0.8517  1.2987
 8614SOL    HW237305   1.767   0.049  15.481  1.8273  0.0592  0.3993
 8615SOL     OW37306   0.350   3.713  10.865 -0.3609  0.1104 -0.6131
 8615SOL    HW137307   0.278   3.692  10.925  0.7824 -0.3850  0.5918
 8615SOL    HW237308   0.423   3.669  10.909 -0.4355  2.2170  1.6315
 8616SOL     OW37309   2.227   2.001   1.711  0.4913  0.2490 -0.0479
 8616SOL    HW137310   2.157   2.027   1.771  2.3524  2.9582  0.9380
 8616SOL    HW237311   2.188   1.996   1.624  0.4289  0.1994 -0.0168
 8617SOL     OW37312   2.562   2.970   2.125 -0.9745 -0.1061 -0.6620
 8617SOL    HW137313   2.577   3.064   2.121 -0.8586 -0.0216  1.8433
 8617SOL    HW237314   2.560   2.945   2.033 -0.5735 -0.7824 -0.4938
 8618SOL     OW37315   3.736   4.414  15.066  0.1241 -0.1339  0.2671
 8618SOL    HW137316   3.788   4.342  15.102  1.7720  0.2569 -1.3268
 8618SOL    HW237317   3.661   4.361  15.039 -0.9623  0.5806  1.8857
 8619SOL     OW37318   0.619   3.479   4.237  0.5302 -0.4083 -0.0140
 8619SOL    HW137319   0.685   3.466   4.306 -0.9893  0.3848  1.5760
 8619SOL    HW237320   0.608   3.395   4.192 -1.4501 -0.5330  0.7294
 8620SOL     OW37321   4.578   2.168   9.336 -0.1335 -0.7878 -0.3010
 8620SOL    HW137322   4.622   2.177   9.252  1.4693 -0.2009  0.6065
 8620SOL    HW237323   4.578   2.072   9.334  0.6606 -0.8414  1.9160
 8621SOL     OW37324   3.247   1.252   8.474  0.2534  0.1617  0.1776
 8621SOL    HW137325   3.335   1.228   8.444 -0.2143 -0.9001 -0.3198
 8621SOL    HW237326   3.192   1.274   8.399 -0.4820 -1.7354  0.1750
 8622SOL     OW37327   1.417   0.522   6.420 -0.3926  0.4529  0.0528
 8622SOL    HW137328   1.455   0.485   6.499  0.9740 -0.7017 -1.1447
 8622SOL    HW237329   1.484   0.500   6.356 -0.9783  0.2897 -0.5122
 8623SOL     OW37330   2.207   0.770   8.376  0.1035  0.4207 -0.5089
 8623SOL    HW137331   2.156   0.784   8.456 -1.9078  1.3147 -1.9690
 8623SOL    HW237332   2.249   0.687   8.400 -2.3758 -1.0432 -1.3279
 8624SOL     OW37333   2.550   2.403   7.706  0.2231 -0.8374  0.2775
 8624SOL    HW137334   2.565   2.441   7.793 -2.8295  1.2774 -0.1375
 8624SOL    HW237335   2.462   2.427   7.678  1.7779 -0.0374 -4.0660
 8625SOL     OW37336   4.498   2.563   3.963  0.7970 -0.2538 -0.0883
 8625SOL    HW137337   4.540   2.502   3.902  0.1205 -1.7819  0.9800
 8625SOL    HW237338   4.413   2.520   3.963  1.2219 -1.0924  0.8798
 8626SOL     OW37339   0.829   3.659   8.963 -0.1222 -0.2464 -0.1806
 8626SOL    HW137340   0.837   3.564   8.968 -0.4807 -0.2542  0.3092
 8626SOL    HW237341   0.736   3.673   8.945 -0.4968  0.5502  2.2731
 8627SOL     OW37342   2.674   0.212  12.558  0.3700  0.5745 -0.0145
 8627SOL    HW137343   2.703   0.184  12.472  0.5202  0.0616  0.2015
 8627SOL    HW237344   2.582   0.189  12.544  0.2436  2.7051 -2.5386
 8628SOL     OW37345   2.305   4.510   6.928 -0.1188  0.0118 -0.6964
 8628SOL    HW137346   2.393   4.534   6.899 -0.7125  2.8985 -0.1477
 8628SOL    HW237347   2.289   4.579   6.992  1.5068 -0.7105  0.5254
 8629SOL     OW37348   1.947   3.903   2.237 -0.2520  0.2122  0.0094
 8629SOL    HW137349   1.953   3.838   2.308 -0.5751  0.4037  0.2127
 8629SOL    HW237350   1.957   3.986   2.283 -0.3308 -0.1740  0.7252
 8630SOL     OW37351   3.995   2.307   8.603  0.0824 -0.6269  0.3445
 8630SOL    HW137352   3.929   2.247   8.636 -0.4478 -0.3748 -0.2548
 8630SOL    HW237353   3.945   2.372   8.554 -1.1320 -1.6305  0.2342
 8631SOL     OW37354   0.902   0.961   6.244  0.0746 -0.0757 -0.5514
 8631SOL    HW137355   0.915   0.868   6.228  3.3191  0.3025 -0.0116
 8631SOL    HW237356   0.855   0.953   6.327  0.5643  1.1008 -0.1724
 8632SOL     OW37357   2.232   4.013  13.704  0.7009 -0.0541 -0.5168
 8632SOL    HW137358   2.252   4.064  13.783  0.8828  0.7601 -1.0857
 8632SOL    HW237359   2.146   3.986  13.734  0.9246 -0.4355 -0.2158
 8633SOL     OW37360   2.933   3.125   2.086 -0.1520 -0.0579 -0.3299
 8633SOL    HW137361   2.888   3.194   2.037  2.8222  0.9907 -1.5740
 8633SOL    HW237362   3.003   3.173   2.131  0.8665 -1.3582 -0.5115
 8634SOL     OW37363   1.497   3.200   3.960  0.0807 -0.2399  0.8361
 8634SOL    HW137364   1.443   3.271   3.995  0.1149  0.0245  0.3402
 8634SOL    HW237365   1.546   3.177   4.039 -0.8312 -0.2130  1.4208
 8635SOL     OW37366   1.114   3.241  11.352 -0.3777  0.2112 -1.0712
 8635SOL    HW137367   1.064   3.270  11.428 -1.5810  0.2955 -1.9000
 8635SOL    HW237368   1.193   3.233  11.406 -0.7304 -1.8498 -0.8949
 8636SOL     OW37369   3.031   1.411  12.888  0.3803 -0.0469 -0.0798
 8636SOL    HW137370   2.942   1.402  12.922 -0.0558 -1.4412 -1.6431
 8636SOL    HW237371   3.018   1.361  12.808 -1.2505 -0.7638  0.6353
 8637SOL     OW37372   1.938   0.985   0.769  0.0111  0.3732  0.0421
 8637SOL    HW137373   2.002   0.972   0.838 -1.3944 -2.4857  0.7946
 8637SOL    HW237374   1.993   0.989   0.690 -0.1454  1.7320 -0.0095
 8638SOL     OW37375   3.639   3.693   0.321  0.4615  0.6143  0.2113
 8638SOL    HW137376   3.607   3.643   0.396  1.7277  1.1864  1.1462
 8638SOL    HW237377   3.732   3.672   0.333  0.4365  1.8283  2.5560
 8639SOL     OW37378   4.641   2.554   6.508 -0.2537 -0.5586 -0.3690
 8639SOL    HW137379   4.566   2.607   6.533  1.8499  0.2459  4.1446
 8639SOL    HW237380   4.683   2.601   6.436 -1.3676  1.1007  0.0612
 8640SOL     OW37381   0.577   1.766   4.195 -0.0772 -0.1439 -0.1094
 8640SOL    HW137382   0.626   1.688   4.170 -0.6419  0.2896 -2.5816
 8640SOL    HW237383   0.503   1.747   4.252  0.7111 -0.6956  0.7296
 8641SOL     OW37384   0.371   2.761   8.874  0.7103 -0.1522  0.0725
 8641SOL    HW137385   0.352   2.854   8.864 -0.9301 -0.3680  1.2055
 8641SOL    HW237386   0.447   2.740   8.929  0.2952  1.6330  1.2948
 8642SOL     OW37387   3.189   3.500   1.666  0.2765 -0.7039  0.0254
 8642SOL    HW137388   3.244   3.433   1.626  2.0807 -0.2856  1.8088
 8642SOL    HW237389   3.251   3.562   1.704  2.2070 -3.2995  1.0786
 8643SOL     OW37390   0.087   0.711   3.069 -0.2592  0.2486  0.6652
 8643SOL    HW137391   0.147   0.664   3.011  1.2965  1.9096  0.9295
 8643SOL    HW237392   0.130   0.697   3.153  1.2060  2.0686  0.2217
 8644SOL     OW37393   2.719   4.581   2.880 -0.2090 -0.9491  0.0702
 8644SOL    HW137394   2.629   4.553   2.864  0.8747 -3.7977 -1.0342
 8644SOL    HW237395   2.732   4.628   2.798 -1.8043 -0.7833 -0.0735
 8645SOL     OW37396   3.462   1.753   6.137  0.2235 -0.1855 -0.1608
 8645SOL    HW137397   3.436   1.837   6.176 -2.7048 -0.8978 -0.5921
 8645SOL    HW237398   3.382   1.725   6.094 -0.4965 -0.1782  1.1915
 8646SOL     OW37399   0.446   3.233   3.778  0.4474 -0.2859  0.2635
 8646SOL    HW137400   0.473   3.268   3.693 -2.6481  0.3584 -0.4848
 8646SOL    HW237401   0.473   3.143   3.760  1.2678 -0.1507  0.8129
 8647SOL     OW37402   0.403   2.475  15.742 -0.6553 -0.7171  0.3005
 8647SOL    HW137403   0.445   2.561  15.735 -1.8667 -0.0193  1.7175
 8647SOL    HW237404   0.342   2.474  15.816 -1.4413  1.1471 -0.3309
 8648SOL     OW37405   0.039   2.895   3.432 -0.5442 -0.3600  0.4739
 8648SOL    HW137406   0.050   2.870   3.524 -0.2970 -0.1053  0.5141
 8648SOL    HW237407   0.125   2.874   3.397 -0.4512  1.4732 -0.4206
 8649SOL     OW37408   1.250   4.295  10.346 -0.4972  0.1932 -0.3410
 8649SOL    HW137409   1.302   4.362  10.390 -0.0087  2.1582 -3.9427
 8649SOL    HW237410   1.318   4.242  10.304  2.1160  0.8626  3.0340
 8650SOL     OW37411   1.403   3.376   4.725  0.4665  0.3857 -0.2530
 8650SOL    HW137412   1.420   3.371   4.630 -0.4847  1.8028 -0.4987
 8650SOL    HW237413   1.489   3.403   4.758 -0.2034  1.2537  0.7427
 8651SOL     OW37414   1.464   3.355   4.444 -0.3586  0.3875  0.4336
 8651SOL    HW137415   1.539   3.303   4.415 -0.9164  0.0842 -0.4662
 8651SOL    HW237416   1.386   3.333   4.393  1.2839 -0.2394 -1.8187
 8652SOL     OW37417   2.316   0.222   3.625 -0.4437  0.0906  0.2534
 8652SOL    HW137418   2.400   0.227   3.671 -1.9167  1.0071  2.8128
 8652SOL    HW237419   2.271   0.158   3.681 -1.4974  0.0750 -0.6137
 8653SOL     OW37420   1.142   0.369  17.571  0.2122  0.6093  0.3674
 8653SOL    HW137421   1.117   0.278  17.558  0.7975  0.3045  1.3941
 8653SOL    HW237422   1.068   0.394  17.626 -0.2903  0.1804 -0.1187
 8654SOL     OW37423   2.978   2.557   8.658 -0.0911 -0.8562 -0.1759
 8654SOL    HW137424   3.057   2.605   8.684  0.1693 -0.7929 -1.0752
 8654SOL    HW237425   2.997   2.472   8.697  0.9853 -0.4602  0.1550
 8655SOL     OW37426   0.776   2.132   5.900 -0.1287 -0.3769  0.0886
 8655SOL    HW137427   0.867   2.156   5.916 -0.4395 -0.3709  1.9207
 8655SOL    HW237428   0.729   2.212   5.923 -0.0224 -0.5984  1.0696
 8656SOL     OW37429   0.534   3.432   6.734  0.1568  0.0106 -0.2167
 8656SOL    HW137430   0.548   3.403   6.824 -1.4376  0.2155  0.0940
 8656SOL    HW237431   0.445   3.467   6.733  0.0124 -0.4131 -2.3556
 8657SOL     OW37432   1.166   1.153   1.917  0.0213  0.4250 -0.0088
 8657SOL    HW137433   1.102   1.225   1.911 -1.1390 -0.4481  1.8102
 8657SOL    HW237434   1.152   1.105   1.836  0.3049  2.2097 -1.1106
 8658SOL     OW37435   2.396   1.445   5.679 -0.2383 -0.2199 -0.0847
 8658SOL    HW137436   2.432   1.393   5.751  1.9204  2.4584  0.7618
 8658SOL    HW237437   2.399   1.529   5.724 -1.2579  0.0282 -0.4736
 8659SOL     OW37438   0.054   2.970   3.134  0.3334 -0.0297  0.5824
 8659SOL    HW137439   0.128   2.912   3.113  1.4678  0.5781  2.8631
 8659SOL    HW237440   0.044   2.944   3.225 -1.5854 -1.3710 -0.0329
 8660SOL     OW37441   0.143   4.605   7.630 -0.7105  0.2207 -0.1805
 8660SOL    HW137442   0.200   4.670   7.672  1.3125 -1.0746 -0.9428
 8660SOL    HW237443   0.203   4.548   7.584  0.6463 -1.3027  3.4654
 8661SOL     OW37444   4.491   0.707   5.809  0.0767 -0.1386 -0.0582
 8661SOL    HW137445   4.411   0.756   5.791  0.7459  0.6932 -0.7455
 8661SOL    HW237446   4.527   0.695   5.721 -1.4358 -0.6218 -0.6120
 8662SOL     OW37447   0.926   0.824  12.652 -0.2206  0.3742 -0.2750
 8662SOL    HW137448   0.929   0.894  12.717  0.9732  0.9735 -0.9690
 8662SOL    HW237449   0.841   0.784  12.667 -0.4695  1.1168  0.2749
 8663SOL     OW37450   2.301   1.051  14.637  0.1316 -0.0755  0.0251
 8663SOL    HW137451   2.363   0.980  14.654  0.2650  0.1737  0.5696
 8663SOL    HW237452   2.325   1.113  14.706  1.6065 -0.7167  0.0885
 8664SOL     OW37453   0.425   2.126   1.752 -0.2328 -0.3929 -0.4387
 8664SOL    HW137454   0.492   2.058   1.740  1.1709  0.9566 -0.2021
 8664SOL    HW237455   0.402   2.112   1.843  2.0370 -0.5073  0.1095
 8665SOL     OW37456   1.116   4.505   1.974  0.2102  0.9600  0.0900
 8665SOL    HW137457   1.165   4.446   1.917  1.1925 -0.5852  2.5184
 8665SOL    HW237458   1.069   4.563   1.914 -1.5572 -0.3726  0.1934
 8666SOL     OW37459   2.170   2.052   5.797 -0.2019 -0.2748 -0.2753
 8666SOL    HW137460   2.118   2.116   5.749  0.1750  0.3197  0.1145
 8666SOL    HW237461   2.160   1.973   5.743 -2.4295  1.0332 -1.7768
 8667SOL     OW37462   4.500   3.686  11.187 -0.2781 -0.2746  0.6518
 8667SOL    HW137463   4.590   3.662  11.210 -0.8671 -3.2398 -0.1473
 8667SOL    HW237464   4.517   3.729  11.103  0.2033 -1.6691  0.0353
 8668SOL     OW37465   0.213   0.731   9.685 -0.6539  0.0012 -0.3542
 8668SOL    HW137466   0.118   0.740   9.682 -0.8463 -1.8920  0.0663
 8668SOL    HW237467   0.233   0.779   9.765 -0.2517 -0.0877 -0.3973
 8669SOL     OW37468   3.394   4.218  11.508 -0.1887 -0.0240  0.0972
 8669SOL    HW137469   3.425   4.169  11.431 -1.0265 -0.7015  0.2022
 8669SOL    HW237470   3.313   4.258  11.478 -0.1655  0.4209  0.6292
 8670SOL     OW37471   0.471   1.569  10.678  0.8791 -0.4008  0.2985
 8670SOL    HW137472   0.383   1.605  10.665  0.2474 -1.4677  1.5911
 8670SOL    HW237473   0.504   1.565  10.588  1.5693  0.6802  0.5013
 8671SOL     OW37474   0.027   2.381  11.007  0.8040  0.5727 -0.9613
 8671SOL    HW137475   0.107   2.335  11.032 -0.4401  0.3343  2.6408
 8671SOL    HW237476   0.049   2.471  11.032  0.9108  0.7946 -1.8585
 8672SOL     OW37477   4.682   0.426   2.743  0.2140  0.3233  0.0859
 8672SOL    HW137478   4.621   0.479   2.692 -1.3425  0.7642  2.4277
 8672SOL    HW237479   0.027   0.410   2.676  1.1163  1.5068  0.7119
 8673SOL     OW37480   2.326   4.575   0.518  0.1161 -0.0207  0.1504
 8673SOL    HW137481   2.260   4.506   0.514 -1.1233  1.1990 -0.2558
 8673SOL    HW237482   2.281   4.651   0.554  0.7025  0.1910  0.4338
 8674SOL     OW37483   0.031   2.418   0.047 -0.6203  0.0380  0.3337
 8674SOL    HW137484   0.055   2.509   0.032  1.8088 -0.4857  1.1308
 8674SOL    HW237485   0.120   2.385   0.055 -0.2442  0.8113 -0.6350
 8675SOL     OW37486   2.687   0.264  11.372  0.0874 -0.2465 -0.2002
 8675SOL    HW137487   2.604   0.221  11.391 -1.2450  2.2545 -0.3869
 8675SOL    HW237488   2.661   0.355  11.387  0.0268  0.0943 -2.2627
 8676SOL     OW37489   2.342   4.167  14.373 -0.1667  0.1314  0.6387
 8676SOL    HW137490   2.421   4.207  14.335 -1.2639  2.2451  0.5911
 8676SOL    HW237491   2.363   4.074  14.374 -1.7993 -0.2270  1.7564
 8677SOL     OW37492   4.501   2.308   8.532  0.3255  0.1887 -0.2424
 8677SOL    HW137493   4.537   2.227   8.568 -2.3300 -0.7990  0.1948
 8677SOL    HW237494   4.466   2.338   8.616 -2.3602  0.7494 -1.5928
 8678SOL     OW37495   2.018   3.212  14.323 -0.0721  0.5114 -0.2569
 8678SOL    HW137496   1.988   3.221  14.232 -1.8313  0.5569  0.3173
 8678SOL    HW237497   1.976   3.130  14.352 -1.5014  1.4993  0.4659
 8679SOL     OW37498   0.753   4.028   8.025 -0.3353 -0.2770 -0.1117
 8679SOL    HW137499   0.742   3.937   7.999 -0.5868 -0.0980 -0.6516
 8679SOL    HW237500   0.848   4.037   8.012 -0.4573 -0.6347 -1.2467
 8680SOL     OW37501   0.848   4.130   4.888  0.0984 -0.2492 -0.0951
 8680SOL    HW137502   0.922   4.135   4.827 -1.0336  2.3011 -1.2970
 8680SOL    HW237503   0.827   4.037   4.887  1.5488 -0.5795 -0.0149
 8681SOL     OW37504   3.332   2.173   1.415  0.1472 -0.1302 -0.2510
 8681SOL    HW137505   3.405   2.226   1.385  0.3620  0.0174  0.5261
 8681SOL    HW237506   3.363   2.093   1.459  0.3322  0.8934  1.4800
 8682SOL     OW37507   3.318   1.521  17.450 -0.0595  0.0920 -0.0425
 8682SOL    HW137508   3.348   1.430  17.441 -0.2753 -0.1597  1.6599
 8682SOL    HW237509   3.262   1.534  17.374 -0.3005 -0.4673  0.0346
 8683SOL     OW37510   1.830   1.548   1.137 -0.2338 -0.2828  0.7609
 8683SOL    HW137511   1.832   1.517   1.228 -0.3526  1.4104  1.3551
 8683SOL    HW237512   1.810   1.640   1.155 -0.0353 -0.0588 -0.1897
 8684SOL     OW37513   0.425   4.307   3.612 -0.4969 -0.1200 -0.0522
 8684SOL    HW137514   0.364   4.380   3.600  0.4523  0.4939 -1.1417
 8684SOL    HW237515   0.422   4.272   3.701 -0.1841  2.0448  0.8039
 8685SOL     OW37516   1.162   4.672   6.844  0.1739  0.0044 -0.6401
 8685SOL    HW137517   1.164   4.579   6.868  2.8494 -0.0347 -1.0226
 8685SOL    HW237518   1.067   4.685   6.833 -0.3378 -1.7939  1.6535
 8686SOL     OW37519   3.742   1.359   2.684  0.0062  0.2497  0.2399
 8686SOL    HW137520   3.696   1.429   2.638 -1.3164 -2.6228 -2.8001
 8686SOL    HW237521   3.730   1.389   2.774 -1.0501 -0.9393  0.5122
 8687SOL     OW37522   3.469   0.425   3.022 -0.0562 -0.3131 -0.2400
 8687SOL    HW137523   3.414   0.504   3.020 -2.6123 -2.1346 -1.2465
 8687SOL    HW237524   3.425   0.378   3.093 -2.3694  1.0178 -0.7764
 8688SOL     OW37525   0.910   0.533   4.097  0.1515 -0.6516  0.2912
 8688SOL    HW137526   0.921   0.618   4.139  1.4314 -0.5251 -0.3005
 8688SOL    HW237527   0.840   0.552   4.035 -0.0024 -0.4424  0.5310
 8689SOL     OW37528   0.743   2.767   6.200 -0.4741  0.2765 -0.3371
 8689SOL    HW137529   0.720   2.788   6.290  0.3430 -0.5165  0.0531
 8689SOL    HW237530   0.836   2.759   6.219 -0.4415 -0.0082 -0.6208
 8690SOL     OW37531   2.267   0.059   8.922 -0.1215 -0.1833 -0.5262
 8690SOL    HW137532   2.350   0.013   8.908 -0.9325 -1.6104 -0.5688
 8690SOL    HW237533   2.226   0.055   8.836 -2.0733 -0.0067  0.3917
 8691SOL     OW37534   1.363   3.379   4.154 -0.6152 -0.1255 -0.3848
 8691SOL    HW137535   1.395   3.461   4.117 -1.1299 -0.1992 -0.9963
 8691SOL    HW237536   1.273   3.389   4.123 -1.4136  0.8996  2.2055
 8692SOL     OW37537   3.123   0.667   8.968  0.4042  0.4046  0.2200
 8692SOL    HW137538   3.170   0.745   8.936 -3.8755  3.1114  0.5643
 8692SOL    HW237539   3.097   0.686   9.058  0.3529 -0.9201  0.4828
 8693SOL     OW37540   2.168   1.115   5.342  0.3495 -0.2690  0.1541
 8693SOL    HW137541   2.076   1.139   5.333 -0.3363 -3.1869 -0.4238
 8693SOL    HW237542   2.221   1.195   5.338  0.5952 -0.5092 -1.2812
 8694SOL     OW37543   3.560   1.179   2.833 -0.2657  0.4040 -0.3164
 8694SOL    HW137544   3.566   1.232   2.753  0.9819  0.1320 -0.3976
 8694SOL    HW237545   3.560   1.246   2.901 -1.1465 -0.4888  0.5681
 8695SOL     OW37546   1.423   4.610   4.742  0.3944 -0.5464  0.0801
 8695SOL    HW137547   1.380   4.525   4.739 -0.5458 -0.0646 -0.2635
 8695SOL    HW237548   1.361   4.662   4.690 -0.1238 -0.8926  0.3518
 8696SOL     OW37549   2.503   1.759   4.231 -0.7343  0.2060  0.4468
 8696SOL    HW137550   2.473   1.803   4.310  1.5258 -0.0793  1.4804
 8696SOL    HW237551   2.564   1.820   4.190 -0.7895 -1.6703 -2.3904
 8697SOL     OW37552   2.016   1.999   3.955 -0.5001  0.5212  0.1113
 8697SOL    HW137553   2.087   2.040   3.905 -0.3797 -1.2403 -1.1806
 8697SOL    HW237554   2.010   2.063   4.026 -2.7867  0.5342 -0.0754
 8698SOL     OW37555   2.154   2.299   6.807  0.3230  0.3157  0.0182
 8698SOL    HW137556   2.121   2.283   6.719  4.3211  2.0168 -1.8283
 8698SOL    HW237557   2.244   2.330   6.793 -0.0793  0.2989 -2.5912
 8699SOL     OW37558   3.799   3.704  16.699  0.0922  0.0187 -0.1677
 8699SOL    HW137559   3.734   3.745  16.642 -2.4573 -0.4027  2.4143
 8699SOL    HW237560   3.765   3.731  16.784 -1.8805 -1.1536 -0.5767
 8700SOL     OW37561   2.740   1.712   2.997  0.1386 -0.3586 -0.2715
 8700SOL    HW137562   2.818   1.738   2.948  0.7078 -1.2453  0.1598
 8700SOL    HW237563   2.689   1.666   2.930 -0.5524  0.2203 -0.1435
 8701SOL     OW37564   2.865   4.230  15.811  0.0095  0.1131  0.1277
 8701SOL    HW137565   2.846   4.309  15.861  2.1545  1.4297 -1.1377
 8701SOL    HW237566   2.850   4.164  15.879 -2.0652 -1.7868 -2.1660
 8702SOL     OW37567   2.404   1.789  13.360 -0.5207  0.0973 -0.2258
 8702SOL    HW137568   2.353   1.708  13.364  1.2471 -1.1319 -2.3385
 8702SOL    HW237569   2.424   1.793  13.266  1.9236 -0.2902  0.2690
 8703SOL     OW37570   2.201   1.639  15.998 -0.2781  0.7623 -0.6634
 8703SOL    HW137571   2.196   1.547  16.025  1.7150  0.2976 -1.8856
 8703SOL    HW237572   2.261   1.627  15.924  1.5692 -0.7619  1.0763
 8704SOL     OW37573   0.563   0.763   5.944 -0.1590  0.2287 -0.6910
 8704SOL    HW137574   0.505   0.725   5.878  1.6870 -2.6344 -0.6722
 8704SOL    HW237575   0.595   0.841   5.899 -1.3824 -0.1098 -2.1255
 8705SOL     OW37576   2.028   3.674   3.828  0.1863  0.2206  0.1475
 8705SOL    HW137577   1.963   3.684   3.758 -0.1232 -2.7290  0.0021
 8705SOL    HW237578   2.058   3.763   3.847 -1.0094  0.7977 -0.6441
 8706SOL     OW37579   2.593   4.581   7.592 -0.1664 -0.0371  0.2764
 8706SOL    HW137580   2.683   4.607   7.611 -0.2342  0.9509 -0.7990
 8706SOL    HW237581   2.537   4.653   7.619  0.2739 -0.0890  1.3161
 8707SOL     OW37582   4.311   2.514  15.874  0.3809  0.4762  0.0414
 8707SOL    HW137583   4.269   2.587  15.829 -1.2995 -0.5296 -0.0392
 8707SOL    HW237584   4.336   2.546  15.961 -0.7748  1.1915  0.1086
 8708SOL     OW37585   2.508   1.998   8.416  0.4409 -0.6688 -0.3968
 8708SOL    HW137586   2.417   1.987   8.392  0.3649 -1.4278  0.2214
 8708SOL    HW237587   2.500   2.092   8.431 -1.7021 -1.1732  1.5877
 8709SOL     OW37588   2.243   1.112   2.890 -0.6563 -0.1883  0.4427
 8709SOL    HW137589   2.155   1.082   2.910 -2.1782  2.8242 -1.6332
 8709SOL    HW237590   2.299   1.049   2.935 -0.6652  0.1607  0.9463
 8710SOL     OW37591   2.727   3.826  13.023  0.1326 -0.4705 -0.2258
 8710SOL    HW137592   2.748   3.741  12.984 -0.0698  0.0015 -1.3455
 8710SOL    HW237593   2.689   3.866  12.946 -1.2001  0.6802  1.0236
 8711SOL     OW37594   0.204   2.364  15.559 -0.3549  0.4089 -0.0314
 8711SOL    HW137595   0.269   2.406  15.615 -1.2642 -0.5271  1.7364
 8711SOL    HW237596   0.147   2.314  15.617  0.2516 -1.3420 -0.9101
 8712SOL     OW37597   1.261   0.257   0.710 -0.3207  0.8484 -0.0924
 8712SOL    HW137598   1.172   0.279   0.737 -0.6419  0.5116 -0.8681
 8712SOL    HW237599   1.267   0.162   0.719 -1.4199  0.6295 -1.5852
 8713SOL     OW37600   2.300   3.443   8.210 -0.1547 -0.3109 -0.6452
 8713SOL    HW137601   2.318   3.425   8.303 -1.9240 -2.6970 -0.7548
 8713SOL    HW237602   2.265   3.531   8.217 -3.1005 -1.7132  2.6231
 8714SOL     OW37603   2.741   2.939   8.079 -0.6260  0.4996  0.0430
 8714SOL    HW137604   2.821   2.889   8.095 -0.2550  1.0266 -0.1818
 8714SOL    HW237605   2.775   3.025   8.057  2.9143 -0.7743  0.4938
 8715SOL     OW37606   2.102   1.107   7.975  0.5655  0.0195 -0.7061
 8715SOL    HW137607   2.023   1.084   7.926  1.0307  0.9682 -1.9138
 8715SOL    HW237608   2.144   1.022   7.963 -2.1650 -1.1724 -1.8729
 8716SOL     OW37609   1.530   2.296   3.675 -0.3224 -0.2181 -0.1131
 8716SOL    HW137610   1.598   2.257   3.730  0.3249  1.5452  0.3360
 8716SOL    HW237611   1.584   2.302   3.596 -1.3887 -0.6106 -0.8724
 8717SOL     OW37612   1.977   3.376   2.794  0.5086 -0.1748  0.2489
 8717SOL    HW137613   1.938   3.300   2.751  0.3960  0.5989 -1.0316
 8717SOL    HW237614   1.925   3.449   2.759 -0.1958 -1.0067 -0.4519
 8718SOL     OW37615   3.815   1.241   8.038  0.7244 -0.1218  0.5835
 8718SOL    HW137616   3.893   1.254   7.984 -0.1355  1.3490 -0.3055
 8718SOL    HW237617   3.816   1.328   8.079  0.6140 -0.0082  0.3448
 8719SOL     OW37618   1.023   2.958  13.299 -0.0720 -0.3609  0.3315
 8719SOL    HW137619   1.022   2.916  13.386 -2.4616  1.0135  0.9856
 8719SOL    HW237620   1.112   2.993  13.294  0.0874 -0.6673  0.9902
 8720SOL     OW37621   4.502   1.258   0.879  0.4591  0.1022 -0.4771
 8720SOL    HW137622   4.559   1.223   0.810 -0.2588 -0.3673 -0.8319
 8720SOL    HW237623   4.535   1.208   0.953  1.7253  0.2945 -0.9000
 8721SOL     OW37624   3.721   1.796   0.212 -0.2290 -0.2291 -0.2476
 8721SOL    HW137625   3.680   1.836   0.289 -1.5649  1.4191 -1.8084
 8721SOL    HW237626   3.757   1.866   0.158  1.7292 -0.0398  1.3172
 8722SOL     OW37627   1.755   2.495   6.922  0.1900 -0.5256  0.6101
 8722SOL    HW137628   1.684   2.449   6.967 -2.1711  3.1033  0.5620
 8722SOL    HW237629   1.709   2.528   6.845  0.1653 -0.7604  0.5256
 8723SOL     OW37630   2.437   1.167   1.585  0.1906  0.9854  0.1663
 8723SOL    HW137631   2.387   1.167   1.666 -0.2717 -1.1849 -0.1283
 8723SOL    HW237632   2.483   1.250   1.601 -1.2110  1.3273  2.3778
 8724SOL     OW37633   2.360   0.405   0.142  0.2598 -0.3011 -0.7646
 8724SOL    HW137634   2.303   0.340   0.100  0.9052  0.2878 -2.5774
 8724SOL    HW237635   2.430   0.345   0.167 -0.7144 -2.1027 -2.3509
 8725SOL     OW37636   2.291   3.090  16.806  0.7362  0.0947 -0.5190
 8725SOL    HW137637   2.268   3.084  16.714 -0.5384 -0.3817 -0.1594
 8725SOL    HW237638   2.377   3.048  16.810  1.0585  0.8009 -0.0642
 8726SOL     OW37639   2.458   0.211  11.806  0.1261 -0.1056 -0.4130
 8726SOL    HW137640   2.403   0.186  11.732  1.7211  0.1969 -1.6951
 8726SOL    HW237641   2.444   0.305  11.817  0.9777  0.1171 -1.1804
 8727SOL     OW37642   3.490   4.518  16.315  0.3822  0.2748 -0.3945
 8727SOL    HW137643   3.470   4.516  16.408  3.3600 -1.5380  0.2112
 8727SOL    HW237644   3.574   4.563  16.311  0.5730 -0.1427 -1.3672
 8728SOL     OW37645   0.721   1.398   8.354  0.0606  0.0499  0.1690
 8728SOL    HW137646   0.733   1.399   8.259 -2.6644 -0.6604 -0.1699
 8728SOL    HW237647   0.803   1.436   8.385  0.3228  2.1630 -3.0995
 8729SOL     OW37648   1.471   0.296  14.088 -0.0914  0.0399 -0.5775
 8729SOL    HW137649   1.387   0.333  14.115  0.0889  0.1282 -0.1434
 8729SOL    HW237650   1.514   0.381  14.080 -1.3102  0.7544  0.5990
 8730SOL     OW37651   0.797   2.593  11.457 -0.5745  0.6856 -0.0147
 8730SOL    HW137652   0.783   2.579  11.363 -0.0829 -1.6778  0.2590
 8730SOL    HW237653   0.883   2.633  11.452 -2.0276  3.5770 -2.2801
 8731SOL     OW37654   3.056   4.242  11.495 -0.2304  0.4523 -0.1670
 8731SOL    HW137655   3.071   4.187  11.417  1.8566  0.3269  0.3351
 8731SOL    HW237656   3.102   4.317  11.457 -1.3461  1.4243  0.4018
 8732SOL     OW37657   0.863   2.397   6.848  0.3052 -0.0347 -0.1194
 8732SOL    HW137658   0.817   2.469   6.804 -1.2666 -0.1992  1.2832
 8732SOL    HW237659   0.862   2.427   6.939  0.0640 -1.9143  0.4994
 8733SOL     OW37660   3.698   0.956   2.657 -0.2582 -0.0790 -0.5614
 8733SOL    HW137661   3.674   0.969   2.565 -1.4999 -2.6314 -0.6227
 8733SOL    HW237662   3.682   1.041   2.697 -2.5404 -0.5609 -0.4077
 8734SOL     OW37663   2.482   1.508  12.529  0.0522  0.5707 -0.1487
 8734SOL    HW137664   2.492   1.413  12.529 -3.0291  0.2408  1.0120
 8734SOL    HW237665   2.463   1.532  12.438  0.2319  1.1098 -0.0461
 8735SOL     OW37666   0.977   0.660   7.637 -0.1909 -0.3279 -0.5288
 8735SOL    HW137667   1.017   0.660   7.724  0.7019 -0.2116 -0.9454
 8735SOL    HW237668   0.934   0.745   7.649 -0.1970 -0.2997 -0.7422
 8736SOL     OW37669   0.038   2.290   2.917  0.0680  0.0035 -0.8353
 8736SOL    HW137670   0.077   2.302   2.830 -2.3669  0.2450 -1.9086
 8736SOL    HW237671   0.096   2.350   2.964  1.1431 -0.5806 -1.4144
 8737SOL     OW37672   0.562   0.399   3.410 -0.1979 -0.4166 -0.2099
 8737SOL    HW137673   0.480   0.352   3.428  0.1006 -0.9039 -0.1209
 8737SOL    HW237674   0.611   0.323   3.379 -0.1280  0.5967 -2.5538
 8738SOL     OW37675   2.400   1.124   0.737 -0.2502 -0.1708 -0.0922
 8738SOL    HW137676   2.368   1.206   0.775 -0.1354 -1.1315  2.1221
 8738SOL    HW237677   2.476   1.116   0.796 -0.3075  1.4527  0.2048
 8739SOL     OW37678   1.516   2.214   6.321  0.2163  0.1729 -0.1192
 8739SOL    HW137679   1.567   2.290   6.349 -0.4753  0.3895  0.5700
 8739SOL    HW237680   1.440   2.221   6.379  0.0922 -0.7932 -0.1725
 8740SOL     OW37681   0.001   2.781   6.382 -0.2739  0.2698  0.0213
 8740SOL    HW137682   0.082   2.755   6.339  0.4582  0.8594  1.0619
 8740SOL    HW237683   0.030   2.845   6.446  0.4025  0.1478 -0.1605
 8741SOL     OW37684   2.481   1.457   9.733  0.3119 -0.3148  0.0238
 8741SOL    HW137685   2.522   1.521   9.674 -1.0447 -0.3796 -0.9749
 8741SOL    HW237686   2.552   1.392   9.734 -0.5221 -1.2180  0.0320
 8742SOL     OW37687   4.703   4.465  16.752 -0.3833 -0.5905  0.0268
 8742SOL    HW137688   4.698   4.556  16.780 -1.9527 -0.7940  0.3758
 8742SOL    HW237689   4.625   4.431  16.794 -1.1917  0.9397 -0.2394
 8743SOL     OW37690   2.836   0.544   8.009 -0.0495  0.1437  0.1079
 8743SOL    HW137691   2.901   0.504   7.951 -0.3102 -0.1897  0.0462
 8743SOL    HW237692   2.796   0.604   7.946 -0.1526 -0.7543 -0.6870
 8744SOL     OW37693   1.753   3.716   5.297  0.0864 -0.3953  0.5607
 8744SOL    HW137694   1.777   3.785   5.236 -3.0359  1.0535  0.9648
 8744SOL    HW237695   1.658   3.730   5.304 -0.0310 -0.2653 -1.4293
 8745SOL     OW37696   4.160   3.687  13.489 -0.0554  0.0302  0.0593
 8745SOL    HW137697   4.228   3.717  13.428 -2.2781 -2.5648 -3.7042
 8745SOL    HW237698   4.209   3.672  13.569  1.2253 -3.7455 -1.4551
 8746SOL     OW37699   3.145   1.553   2.697 -0.6258  0.3913  0.1554
 8746SOL    HW137700   3.201   1.539   2.773  1.8267 -0.2247 -1.7736
 8746SOL    HW237701   3.192   1.511   2.625 -2.0613 -0.2488 -0.4180
 8747SOL     OW37702   2.674   4.106   3.585  0.2237  0.0604  0.8110
 8747SOL    HW137703   2.725   4.081   3.507  1.0117  2.9353  0.3871
 8747SOL    HW237704   2.650   4.025   3.628 -2.0300  1.4460  2.1436
 8748SOL     OW37705   4.015   1.257  15.593 -0.2328  0.0764 -0.6294
 8748SOL    HW137706   4.049   1.204  15.665  1.0057  0.3704 -0.9998
 8748SOL    HW237707   3.976   1.332  15.637 -4.0603 -1.4460 -1.4770
 8749SOL     OW37708   2.971   1.554  12.395 -0.4292  0.0033  0.1342
 8749SOL    HW137709   2.879   1.571  12.373 -0.4216 -1.8787 -1.3540
 8749SOL    HW237710   2.956   1.582  12.486  0.8053  1.3933 -0.0881
 8750SOL     OW37711   0.750   1.806   8.722  0.3913 -0.1023 -0.1795
 8750SOL    HW137712   0.657   1.824   8.730  0.5406  0.8053 -0.4830
 8750SOL    HW237713   0.791   1.893   8.718 -0.4379  0.2058 -1.9404
 8751SOL     OW37714   0.581   3.016   1.038 -0.1107 -0.0447  0.3988
 8751SOL    HW137715   0.611   3.016   0.948 -3.3739 -1.4105 -0.7066
 8751SOL    HW237716   0.521   2.941   1.036  2.2833 -1.9455  0.4883
 8752SOL     OW37717   3.126   0.781  13.759 -0.2044 -0.3533  0.0737
 8752SOL    HW137718   3.195   0.761  13.696 -1.0111 -3.5620  0.2194
 8752SOL    HW237719   3.058   0.746  13.703 -0.3544 -2.6559  1.6968
 8753SOL     OW37720   1.500   4.530   0.730  0.2510 -0.4883  0.1489
 8753SOL    HW137721   1.508   4.539   0.825 -1.3619 -3.1840  0.5440
 8753SOL    HW237722   1.425   4.470   0.731  0.9496 -1.3885 -0.8880
 8754SOL     OW37723   3.036   3.172   1.777 -0.7778  0.2715  0.5843
 8754SOL    HW137724   2.981   3.249   1.761  0.5550  1.2732  0.8681
 8754SOL    HW237725   3.107   3.199   1.834  0.8086 -1.8768 -0.3635
 8755SOL     OW37726   1.448   2.113   5.214 -0.2099 -0.6096  0.2913
 8755SOL    HW137727   1.387   2.073   5.276 -1.9368 -0.1780 -1.1331
 8755SOL    HW237728   1.421   2.069   5.133 -2.1818 -0.7294  1.0024
 8756SOL     OW37729   3.520   0.285   7.387  0.0667 -0.1583  0.1777
 8756SOL    HW137730   3.550   0.195   7.372  1.2385 -0.0325  1.7054
 8756SOL    HW237731   3.528   0.326   7.301 -0.2233  0.5240  0.4747
 8757SOL     OW37732   3.646   3.435   6.856 -0.1189  0.2379  0.3703
 8757SOL    HW137733   3.617   3.430   6.765  0.5927 -0.8284  0.1961
 8757SOL    HW237734   3.616   3.524   6.874 -2.0397  0.1950 -2.5398
 8758SOL     OW37735   3.206   0.764  13.215 -0.4483 -0.0336  0.3230
 8758SOL    HW137736   3.169   0.774  13.302 -1.2501  1.1672 -0.1627
 8758SOL    HW237737   3.209   0.668  13.208  1.3870  0.0810 -0.5501
 8759SOL     OW37738   0.016   4.480   5.412  0.3155  0.1406  0.4373
 8759SOL    HW137739   4.670   4.413   5.415  1.8526 -1.5190 -1.2693
 8759SOL    HW237740   0.094   4.423   5.414  0.6761  0.5967 -0.3968
 8760SOL     OW37741   1.676   0.441   4.398  0.7130  0.0038  0.6451
 8760SOL    HW137742   1.650   0.426   4.307  1.7501  0.7452  0.2164
 8760SOL    HW237743   1.761   0.485   4.396  0.2664  0.8420  0.2763
 8761SOL     OW37744   3.302   0.995  13.109 -0.4004  0.5241  0.2583
 8761SOL    HW137745   3.325   1.041  13.189 -0.0797  0.0608  0.4379
 8761SOL    HW237746   3.273   0.914  13.151  0.0503 -0.4019 -1.1947
 8762SOL     OW37747   1.730   0.187   8.840  0.2103 -0.3013 -0.1406
 8762SOL    HW137748   1.782   0.124   8.890 -0.8734  0.9951  2.5804
 8762SOL    HW237749   1.785   0.266   8.839 -1.8365  1.1524  1.0579
 8763SOL     OW37750   3.969   1.959  11.131 -0.7538 -0.4027 -0.2612
 8763SOL    HW137751   4.038   2.013  11.090 -0.5801 -0.0693  0.4595
 8763SOL    HW237752   4.024   1.890  11.169 -2.9206 -1.7218  0.4782
 8764SOL     OW37753   0.684   2.351   1.391 -0.1596 -0.5207  0.5088
 8764SOL    HW137754   0.635   2.269   1.397  0.3327 -0.7581  1.2084
 8764SOL    HW237755   0.773   2.324   1.413  0.7559  2.4246  0.5407
 8765SOL     OW37756   3.472   3.458  17.418  0.4281 -0.1292  0.2550
 8765SOL    HW137757   3.515   3.535  17.380 -0.5678 -0.7039 -2.0887
 8765SOL    HW237758   3.472   3.389  17.351  1.6799 -0.7290  0.8727
 8766SOL     OW37759   1.736   1.368   8.013 -0.1051 -0.2563  0.1022
 8766SOL    HW137760   1.811   1.352   7.956  0.7334 -2.8925  1.9818
 8766SOL    HW237761   1.740   1.299   8.079 -1.1976 -0.6403 -0.2297
 8767SOL     OW37762   0.251   0.594  17.308 -0.3181  0.2269 -0.2106
 8767SOL    HW137763   0.259   0.637  17.394  0.6900 -2.4373  1.0124
 8767SOL    HW237764   0.219   0.663  17.249 -1.4018  1.2539  1.5513
 8768SOL     OW37765   2.907   1.548   3.689  0.2046  0.3457 -0.0569
 8768SOL    HW137766   2.976   1.584   3.633 -0.8594 -1.4453 -2.5647
 8768SOL    HW237767   2.848   1.528   3.616  1.7203 -1.0578 -0.8939
 8769SOL     OW37768   0.981   4.631   0.726 -0.5486 -0.1772  0.0798
 8769SOL    HW137769   0.951   4.607   0.638 -1.4773 -3.1635  1.1968
 8769SOL    HW237770   0.948   4.553   0.770  0.0596  0.8093  2.2911
 8770SOL     OW37771   2.621   2.386  12.913 -0.0046 -0.2292  0.6934
 8770SOL    HW137772   2.705   2.378  12.959 -1.0719 -2.7088  2.1831
 8770SOL    HW237773   2.617   2.291  12.907 -2.0243  0.0797 -2.7522
 8771SOL     OW37774   1.732   1.858   5.355 -0.7074  0.1016 -0.4155
 8771SOL    HW137775   1.735   1.765   5.376 -1.1406  0.2396  0.2603
 8771SOL    HW237776   1.735   1.852   5.260  0.1038 -1.2737 -0.2991
 8772SOL     OW37777   4.647   3.406   4.162 -0.5504  0.0852  0.4013
 8772SOL    HW137778   4.568   3.437   4.207 -0.8478  2.2888 -1.6497
 8772SOL    HW237779   4.688   3.351   4.229  2.0592 -1.1824 -2.2438
 8773SOL     OW37780   2.364   0.715  14.277 -0.0664  0.1163 -0.6998
 8773SOL    HW137781   2.362   0.733  14.183 -2.1039 -0.7283 -0.8238
 8773SOL    HW237782   2.288   0.767  14.302  0.4922  0.4885  0.2427
 8774SOL     OW37783   2.032   2.568   6.228  0.1380 -0.0152  0.1566
 8774SOL    HW137784   2.026   2.660   6.203 -1.3285 -0.3309 -0.6467
 8774SOL    HW237785   1.960   2.524   6.183  1.5894 -1.7257 -0.5139
 8775SOL     OW37786   0.463   1.664  14.926 -0.1426  0.7281  0.3328
 8775SOL    HW137787   0.515   1.586  14.946 -0.4531  0.0249 -1.5547
 8775SOL    HW237788   0.512   1.727  14.979  0.2918  0.1153  0.6596
 8776SOL     OW37789   3.034   2.584   8.347 -0.1637  0.1460 -0.1599
 8776SOL    HW137790   3.010   2.572   8.439 -2.6895 -0.1923 -0.8894
 8776SOL    HW237791   3.126   2.609   8.359  0.3473 -0.6740 -2.3310
 8777SOL     OW37792   3.864   2.512   3.221 -0.0101 -0.1328 -0.5868
 8777SOL    HW137793   3.843   2.463   3.300  1.1364 -0.0634 -0.2439
 8777SOL    HW237794   3.957   2.534   3.226 -0.3370  0.5727  2.5674
 8778SOL     OW37795   4.073   3.690   8.298  0.6561 -0.3204  0.6836
 8778SOL    HW137796   3.978   3.688   8.290  0.7948 -0.8324 -0.7709
 8778SOL    HW237797   4.098   3.772   8.255  0.9033 -0.1759  1.0952
 8779SOL     OW37798   2.178   0.105   3.281  0.4741  0.5274 -0.4624
 8779SOL    HW137799   2.186   0.016   3.249 -1.9021 -0.3656  1.4245
 8779SOL    HW237800   2.167   0.159   3.203 -1.7982  0.8543  0.0705
 8780SOL     OW37801   2.152   1.989  12.688  0.0524  0.0446 -0.8150
 8780SOL    HW137802   2.196   1.947  12.762 -2.5578 -0.4885  0.4333
 8780SOL    HW237803   2.153   2.076  12.728  1.1492  0.3798 -1.5842
 8781SOL     OW37804   0.858   1.518   6.957  0.5423 -0.5190 -0.0662
 8781SOL    HW137805   0.883   1.429   6.980  0.1787 -0.8919 -1.0880
 8781SOL    HW237806   0.817   1.563   7.030 -1.8035 -0.2933 -1.5111
 8782SOL     OW37807   4.649   0.476   8.800 -0.6667 -0.3358  0.5856
 8782SOL    HW137808   4.616   0.546   8.745  2.2829  0.2209 -0.4535
 8782SOL    HW237809   4.621   0.496   8.890  0.1993  1.8023  0.3764
 8783SOL     OW37810   2.855   2.931  10.312 -0.0451 -0.0568  0.1787
 8783SOL    HW137811   2.801   2.990  10.260 -0.5529 -0.7035 -0.0318
 8783SOL    HW237812   2.785   2.910  10.374 -0.8018 -0.2782 -0.7460
 8784SOL     OW37813   2.066   1.357  13.425 -0.1270 -0.2222  0.5170
 8784SOL    HW137814   2.000   1.336  13.358  1.0779  0.0824 -0.7633
 8784SOL    HW237815   2.009   1.399  13.490  0.5660  0.0005  0.9782
 8785SOL     OW37816   1.722   3.336  14.715  0.3089  0.1177 -0.6249
 8785SOL    HW137817   1.738   3.274  14.786 -0.6734  0.8500  0.2490
 8785SOL    HW237818   1.704   3.277  14.643 -0.6366 -1.7437  1.1298
 8786SOL     OW37819   3.963   0.571   6.608 -0.3516  0.0905 -0.5787
 8786SOL    HW137820   3.920   0.486   6.616  0.0965  0.1928  3.1477
 8786SOL    HW237821   3.918   0.628   6.671  1.9241  1.3577 -0.1181
 8787SOL     OW37822   0.809   0.825   0.738 -0.0563 -0.1753  0.4186
 8787SOL    HW137823   0.848   0.829   0.651 -1.3181  0.6453 -0.1088
 8787SOL    HW237824   0.762   0.743   0.726  0.4546 -0.3153 -0.6625
 8788SOL     OW37825   3.858   0.162   3.755 -0.0173 -0.5287 -0.6503
 8788SOL    HW137826   3.777   0.170   3.705 -0.4939 -2.1910 -0.1671
 8788SOL    HW237827   3.915   0.222   3.707 -0.4490  0.4252  0.0526
 8789SOL     OW37828   2.434   3.385  10.982  0.0532 -0.5183  0.1999
 8789SOL    HW137829   2.422   3.451  10.913  0.8856 -0.9084 -0.3179
 8789SOL    HW237830   2.529   3.369  10.984 -0.2024 -1.9376  1.0580
 8790SOL     OW37831   4.206   2.282   6.790  0.2719 -0.7430 -0.1326
 8790SOL    HW137832   4.172   2.222   6.724  0.1329  0.0871 -0.8208
 8790SOL    HW237833   4.299   2.259   6.794  0.0362 -1.0044  3.5482
 8791SOL     OW37834   2.032   0.931   4.867 -0.2202  0.0639 -0.3900
 8791SOL    HW137835   2.065   0.951   4.954  0.9610 -1.0134 -0.5869
 8791SOL    HW237836   2.113   0.932   4.814  0.4388 -2.4957  0.5887
 8792SOL     OW37837   3.305   3.027   2.104  0.9532 -0.2411  0.0791
 8792SOL    HW137838   3.370   3.014   2.173  0.1089 -0.7495  0.7763
 8792SOL    HW237839   3.227   2.982   2.137  1.6458 -1.2756  0.2990
 8793SOL     OW37840   3.232   2.656  16.485  0.0515  0.4498 -0.2009
 8793SOL    HW137841   3.255   2.695  16.569  0.8036  0.9513 -0.6454
 8793SOL    HW237842   3.141   2.684  16.477 -0.0513  0.1491 -0.0865
 8794SOL     OW37843   2.669   0.499   8.218  0.5883 -0.1878  0.0037
 8794SOL    HW137844   2.713   0.493   8.133 -1.8790 -0.3827 -1.2719
 8794SOL    HW237845   2.702   0.578   8.259  1.2073  0.1867 -1.2141
 8795SOL     OW37846   4.054   3.987   3.821  0.0130  0.0740 -0.7098
 8795SOL    HW137847   3.977   4.032   3.855  0.6413  0.0222  0.8019
 8795SOL    HW237848   4.115   4.060   3.833 -0.5405  0.4553 -0.2211
 8796SOL     OW37849   4.207   1.603  13.820  0.2636 -0.2359 -0.5116
 8796SOL    HW137850   4.300   1.584  13.835 -0.0391 -1.7792 -0.6653
 8796SOL    HW237851   4.212   1.692  13.855  1.7429 -0.4254 -0.2511
 8797SOL     OW37852   3.435   1.987   9.694 -0.8349 -0.2697 -0.1805
 8797SOL    HW137853   3.434   2.069   9.646  0.2269 -0.5615 -0.6874
 8797SOL    HW237854   3.455   1.918   9.631 -0.8371 -0.9989  0.6161
 8798SOL     OW37855   0.902   1.337   1.920 -0.0491 -0.1970 -0.1637
 8798SOL    HW137856   0.876   1.283   1.994 -3.0380 -0.6875 -1.5924
 8798SOL    HW237857   0.818   1.354   1.878  0.2499  0.0317 -0.6792
 8799SOL     OW37858   2.653   2.363   2.640  0.5028 -0.0988  0.5107
 8799SOL    HW137859   2.607   2.333   2.561 -0.5331  0.3400  0.9469
 8799SOL    HW237860   2.733   2.311   2.632 -0.0252 -0.7533 -0.5279
 8800SOL     OW37861   4.274   2.563   4.212  0.7637 -0.3025  0.0495
 8800SOL    HW137862   4.279   2.516   4.295  1.7871 -0.9109 -0.3581
 8800SOL    HW237863   4.185   2.591   4.193  0.7487 -1.6945 -1.8452
 8801SOL     OW37864   1.586   4.453  13.073 -0.4904  0.1577 -0.1809
 8801SOL    HW137865   1.621   4.445  12.984 -1.2498 -0.1303 -0.4518
 8801SOL    HW237866   1.494   4.446  13.046 -0.1083 -2.0388 -0.9639
 8802SOL     OW37867   0.557   4.155   8.142 -1.0486 -0.3590 -0.2095
 8802SOL    HW137868   0.627   4.098   8.110  0.0808  0.5584  0.6363
 8802SOL    HW237869   0.524   4.109   8.220  1.1498 -2.5524 -0.5804
 8803SOL     OW37870   0.780   1.441  17.670 -0.2120  0.1831 -0.1587
 8803SOL    HW137871   0.720   1.417   0.050  0.5249 -0.2483  0.3158
 8803SOL    HW237872   0.842   1.369  17.681  0.5449  0.7555 -0.7027
 8804SOL     OW37873   2.040   1.053  14.139  0.2786 -0.0527  0.8112
 8804SOL    HW137874   2.013   1.042  14.230 -0.5727 -1.2962  0.4094
 8804SOL    HW237875   2.122   1.004  14.136 -0.3917 -1.1524  0.2070
 8805SOL     OW37876   0.670   1.413   1.811 -0.0582  0.3794  0.5048
 8805SOL    HW137877   0.587   1.369   1.828 -0.1050 -0.5006 -1.9159
 8805SOL    HW237878   0.649   1.503   1.785  1.5684 -0.0344 -2.2781
 8806SOL     OW37879   1.612   4.079  11.142 -0.1611 -0.3655  0.4372
 8806SOL    HW137880   1.523   4.050  11.121 -0.2414  1.8880 -2.2743
 8806SOL    HW237881   1.642   4.120  11.061 -0.9999 -0.7641 -0.0749
 8807SOL     OW37882   3.882   1.605   7.368 -0.6806  0.4156  0.0963
 8807SOL    HW137883   3.848   1.690   7.341  0.1424  0.4287 -0.8908
 8807SOL    HW237884   3.973   1.608   7.338 -1.1882  3.7879 -1.0670
 8808SOL     OW37885   2.888   0.718   8.378 -0.4128 -0.2676 -0.1634
 8808SOL    HW137886   2.876   0.790   8.440 -0.7574 -0.7051  0.2810
 8808SOL    HW237887   2.929   0.651   8.434 -1.9436  0.1154  1.4160
 8809SOL     OW37888   0.718   0.423   5.851 -0.4214 -0.0891 -0.1394
 8809SOL    HW137889   0.736   0.497   5.909 -0.1403 -1.1343  1.1283
 8809SOL    HW237890   0.694   0.472   5.772  3.2132  0.3451 -0.9737
 8810SOL     OW37891   4.522   0.470   3.437  0.2664  0.0759  0.3344
 8810SOL    HW137892   4.594   0.485   3.375 -0.1179 -0.5378 -0.2686
 8810SOL    HW237893   4.570   0.443   3.515 -1.1102  0.1160  1.1787
 8811SOL     OW37894   1.314   0.203   1.426  0.0826  0.4837  0.2208
 8811SOL    HW137895   1.330   0.295   1.444  1.0398  0.2900  0.3672
 8811SOL    HW237896   1.311   0.165   1.514  2.3771 -0.5322 -0.1356
 8812SOL     OW37897   2.132   2.350  13.068  0.0886 -0.0586  0.2215
 8812SOL    HW137898   2.094   2.391  13.146 -0.8711  4.0791 -2.3955
 8812SOL    HW237899   2.132   2.258  13.095  1.6428 -0.4097 -0.9964
 8813SOL     OW37900   2.010   0.169   9.054 -0.4732 -0.5790  0.0247
 8813SOL    HW137901   1.953   0.104   9.012  0.2512 -1.7938  0.9176
 8813SOL    HW237902   2.093   0.170   9.006 -0.7219  2.1856 -0.3592
 8814SOL     OW37903   3.830   0.980  11.487 -0.3464  0.2924 -0.4846
 8814SOL    HW137904   3.848   0.886  11.483  2.2357  0.7038  0.8972
 8814SOL    HW237905   3.743   0.976  11.449 -0.2367 -1.3000 -0.5610
 8815SOL     OW37906   2.934   3.763   2.706  0.1170  0.2195 -0.1633
 8815SOL    HW137907   2.930   3.830   2.775 -1.0691 -0.4968  0.4768
 8815SOL    HW237908   2.979   3.804   2.632 -1.9772  0.1305 -1.4879
 8816SOL     OW37909   1.418   1.175  17.513 -0.1282 -0.5801 -0.0470
 8816SOL    HW137910   1.506   1.147  17.539 -0.7556 -1.8746  0.7130
 8816SOL    HW237911   1.418   1.130  17.429 -0.2733 -0.0773 -0.3134
 8817SOL     OW37912   3.665   1.919   8.953 -0.4440  0.1224 -0.0047
 8817SOL    HW137913   3.743   1.918   9.009 -0.5426  0.0225  0.1310
 8817SOL    HW237914   3.672   1.855   8.882  1.1316  0.6351 -0.3279
 8818SOL     OW37915   1.722   0.543  17.660 -0.7694 -0.4200  0.0955
 8818SOL    HW137916   1.817   0.556  17.649 -0.5519 -0.5448  1.7376
 8818SOL    HW237917   1.722   0.532   0.065  1.9806  1.1849  0.2971
 8819SOL     OW37918   2.939   2.777   8.199 -0.5896 -0.2376 -0.1571
 8819SOL    HW137919   2.964   2.700   8.251  0.7304  0.6125  0.4795
 8819SOL    HW237920   2.906   2.840   8.263  2.7633  1.6246 -0.2317
 8820SOL     OW37921   0.580   2.641  13.469  0.2630  0.3033 -0.1803
 8820SOL    HW137922   0.675   2.632  13.466  0.1333 -0.8024 -1.0486
 8820SOL    HW237923   0.560   2.549  13.449 -0.0196  0.4837 -0.7337
 8821SOL     OW37924   1.420   4.497  16.406 -0.0894 -0.0931 -0.2463
 8821SOL    HW137925   1.469   4.415  16.411  0.6227  0.3876  0.7689
 8821SOL    HW237926   1.428   4.506  16.311  1.2815  0.4189 -0.0894
 8822SOL     OW37927   0.957   2.266   1.402  0.1935 -0.0738 -0.0894
 8822SOL    HW137928   1.030   2.213   1.436  0.5020 -0.6380 -1.6133
 8822SOL    HW237929   0.975   2.299   1.314  0.6256 -1.0905 -0.3869
 8823SOL     OW37930   0.390   1.195  12.349 -0.0163  0.4862 -0.0142
 8823SOL    HW137931   0.429   1.274  12.311 -0.4364  0.3745 -0.6768
 8823SOL    HW237932   0.343   1.153  12.277  0.9177  1.9937 -1.4930
 8824SOL     OW37933   2.728   0.620   6.975 -0.0090 -0.1662 -0.1655
 8824SOL    HW137934   2.728   0.715   6.990 -2.4164 -0.1615 -0.2397
 8824SOL    HW237935   2.805   0.616   6.918  1.0862  0.1296  1.2655
 8825SOL     OW37936   0.289   2.340   0.099 -0.1976 -0.3705 -0.5290
 8825SOL    HW137937   0.358   2.280   0.127  0.9189  0.7144 -0.9475
 8825SOL    HW237938   0.344   2.398   0.047 -0.1121 -0.6407 -0.7351
 8826SOL     OW37939   2.933   0.651  13.605 -0.1166 -0.4702  0.1216
 8826SOL    HW137940   2.930   0.563  13.643 -0.7147  0.1586  1.5313
 8826SOL    HW237941   2.840   0.671  13.592 -0.4501 -1.5133  0.8839
 8827SOL     OW37942   3.739   3.585   4.319  0.2658 -0.7750  0.6140
 8827SOL    HW137943   3.827   3.606   4.350 -0.4448  2.7028  0.1681
 8827SOL    HW237944   3.766   3.534   4.242  3.3088 -1.2341  1.9847
 8828SOL     OW37945   0.781   3.498   7.453 -0.0337 -0.1917 -0.6195
 8828SOL    HW137946   0.762   3.518   7.544  0.0690 -2.2608 -0.1338
 8828SOL    HW237947   0.822   3.412   7.462 -0.5352  0.0629  3.9056
 8829SOL     OW37948   3.271   3.045  16.670  0.3207  0.6856  0.1067
 8829SOL    HW137949   3.282   3.105  16.597 -0.6491  1.2186  0.3942
 8829SOL    HW237950   3.182   3.012  16.658  0.5857  0.8279 -2.2456
 8830SOL     OW37951   0.510   1.246  16.715 -0.0816  0.9163  0.3049
 8830SOL    HW137952   0.506   1.309  16.644 -0.6888  1.3123  0.6858
 8830SOL    HW237953   0.567   1.180  16.677 -1.6881  0.2839 -1.0159
 8831SOL     OW37954   0.087   3.584   6.050  0.3468 -0.2154 -0.1156
 8831SOL    HW137955   0.019   3.528   6.015 -0.3095  1.0690 -0.9210
 8831SOL    HW237956   0.043   3.670   6.053 -3.6626 -2.2094 -1.8884
 8832SOL     OW37957   1.749   4.640   5.945  0.4176  0.1855  0.8448
 8832SOL    HW137958   1.749   4.560   5.892  0.6574  1.1725 -0.6521
 8832SOL    HW237959   1.834   4.681   5.929  1.4910 -3.0211 -1.5891
 8833SOL     OW37960   2.280   3.319   7.954  0.7818  0.5438 -0.0452
 8833SOL    HW137961   2.304   3.357   8.039  0.0612 -1.4060  1.0240
 8833SOL    HW237962   2.192   3.356   7.939  0.6364 -0.5508 -1.9061
 8834SOL     OW37963   1.699   1.206   1.602  0.0404  0.1168  0.3636
 8834SOL    HW137964   1.651   1.183   1.681  2.7694 -1.8251  1.4600
 8834SOL    HW237965   1.786   1.223   1.639  0.3505  0.6640 -0.5923
 8835SOL     OW37966   2.542   0.056  17.372 -0.5105  0.0770  0.1351
 8835SOL    HW137967   2.568   0.094  17.456 -2.5190 -0.0168  0.8183
 8835SOL    HW237968   2.446   0.051  17.369 -0.4294 -3.0722  2.5611
 8836SOL     OW37969   0.189   1.651  10.688 -0.3114 -0.4655 -0.0443
 8836SOL    HW137970   0.150   1.717  10.630 -0.0557  0.3446  0.6927
 8836SOL    HW237971   0.162   1.695  10.769 -2.8176 -0.5459 -0.8389
 8837SOL     OW37972   0.446   1.715   1.633 -0.0145  0.0279  0.0312
 8837SOL    HW137973   0.515   1.696   1.569 -0.5328  3.4699 -1.5066
 8837SOL    HW237974   0.495   1.702   1.714  0.8500  0.6998 -0.3769
 8838SOL     OW37975   2.873   3.807   8.201 -0.6341 -0.3616  0.4470
 8838SOL    HW137976   2.956   3.843   8.172 -0.4203 -0.2550  1.1927
 8838SOL    HW237977   2.825   3.774   8.125  0.2680 -0.2658 -0.1512
 8839SOL     OW37978   4.532   1.532   3.265 -0.0429 -0.3748  0.0835
 8839SOL    HW137979   4.462   1.585   3.225 -0.0297 -0.2339  0.2453
 8839SOL    HW237980   4.542   1.463   3.200 -1.4272  0.4701 -1.0093
 8840SOL     OW37981   4.003   1.215   1.784 -0.4736  0.4770  0.2826
 8840SOL    HW137982   4.024   1.122   1.781 -3.0548 -0.0764 -0.6401
 8840SOL    HW237983   3.968   1.225   1.696 -1.1875 -0.0866  0.4987
 8841SOL     OW37984   1.069   2.183   7.962  0.1159  0.5842 -0.2242
 8841SOL    HW137985   1.046   2.261   8.012 -2.3388 -0.5461  0.4026
 8841SOL    HW237986   1.095   2.218   7.878  0.2908 -0.0680 -0.4468
 8842SOL     OW37987   2.054   3.547  15.903 -0.0473  0.1729 -0.6266
 8842SOL    HW137988   1.960   3.549  15.887 -0.4280  1.7519  1.7263
 8842SOL    HW237989   2.058   3.533  15.998  0.5197 -0.2557 -0.7143
 8843SOL     OW37990   3.614   0.855   0.813  0.6722  0.0929 -0.7750
 8843SOL    HW137991   3.626   0.841   0.907  0.2565  0.1608 -0.7137
 8843SOL    HW237992   3.558   0.778   0.801  2.3208 -0.9028 -1.9707
 8844SOL     OW37993   1.096   0.061   7.123  0.1332 -0.3748 -0.3680
 8844SOL    HW137994   1.101   0.094   7.033 -0.2464  1.3831  0.2712
 8844SOL    HW237995   1.189   0.058   7.144  0.2692  1.5989 -0.7325
 8845SOL     OW37996   3.953   4.651   3.128  0.5352 -0.0636 -0.0522
 8845SOL    HW137997   3.943   4.581   3.063  0.5892 -1.2263  1.2125
 8845SOL    HW237998   4.000   4.722   3.084  2.7549 -1.4327  0.1261
 8846SOL     OW37999   0.440   1.159   6.286 -0.6758  0.4186  0.8940
 8846SOL    HW138000   0.409   1.246   6.259 -1.4552  0.5253  2.1096
 8846SOL    HW238001   0.532   1.176   6.266 -0.3710 -0.4985  1.4941
 8847SOL     OW38002   0.555   3.020   2.912 -0.3641  0.6751 -0.5165
 8847SOL    HW138003   0.519   3.059   2.833 -1.4586  1.6279  0.4657
 8847SOL    HW238004   0.649   3.027   2.897  0.1073 -2.9193  0.5795
 8848SOL     OW38005   1.581   0.035   2.664 -0.0739  0.3013 -1.1336
 8848SOL    HW138006   1.644   4.689   2.642 -0.3586  0.6616 -3.0939
 8848SOL    HW238007   1.510   0.007   2.606 -0.4295  0.5340 -0.8056
 8849SOL     OW38008   1.315   1.620   3.734  0.3582 -0.7002  0.2236
 8849SOL    HW138009   1.395   1.567   3.736  1.1172  0.3506 -2.0562
 8849SOL    HW238010   1.329   1.675   3.657  1.3741  2.9805  3.0341
 8850SOL     OW38011   0.953   4.043   2.362  0.1159 -0.7620 -0.2138
 8850SOL    HW138012   0.919   4.064   2.449  2.2202  0.5810  0.2820
 8850SOL    HW238013   0.885   4.071   2.299 -0.1780 -3.4703 -1.0922
 8851SOL     OW38014   2.359   4.412   8.283 -0.2391  0.5495  0.0729
 8851SOL    HW138015   2.297   4.349   8.320 -1.7010  0.5555 -2.4075
 8851SOL    HW238016   2.445   4.372   8.283 -1.0288 -1.1236  2.8892
 8852SOL     OW38017   4.001   2.943   5.181 -0.1695 -0.1323 -0.2033
 8852SOL    HW138018   3.931   3.006   5.198  0.7633  0.7982  0.2604
 8852SOL    HW238019   3.979   2.920   5.091  2.1403  0.1063 -0.8304
 8853SOL     OW38020   0.436   2.598   0.861  0.2784  0.5421  0.0891
 8853SOL    HW138021   0.503   2.610   0.794 -1.0719 -0.1790 -1.3973
 8853SOL    HW238022   0.473   2.523   0.908  0.0717  0.5419  0.2548
 8854SOL     OW38023   0.340   1.097   6.535  0.3886  0.0356 -0.4025
 8854SOL    HW138024   0.390   1.110   6.454 -2.3490  2.7847 -1.6219
 8854SOL    HW238025   0.259   1.061   6.499  0.7066 -2.1857  1.1280
 8855SOL     OW38026   3.705   0.118   2.432 -0.3754 -0.3550 -0.4160
 8855SOL    HW138027   3.747   0.136   2.348  0.9532  0.2445  0.3716
 8855SOL    HW238028   3.617   0.154   2.438 -0.7322 -0.9282 -2.2598
 8856SOL     OW38029   3.197   2.915   1.155 -0.3138  0.2823 -0.5627
 8856SOL    HW138030   3.113   2.953   1.184 -0.6050 -0.4176 -0.4757
 8856SOL    HW238031   3.223   2.854   1.225 -1.3965 -2.7947 -2.8353
 8857SOL     OW38032   0.239   0.027   8.482  0.1436 -0.6638  0.1069
 8857SOL    HW138033   0.233   4.662   8.441  0.1295 -0.1408 -1.0218
 8857SOL    HW238034   0.332   0.032   8.504 -0.0786 -0.7766  1.0684
 8858SOL     OW38035   2.726   4.605   8.150 -0.1662 -0.0649 -0.5186
 8858SOL    HW138036   2.794   4.565   8.204  0.3797  0.4021 -0.8401
 8858SOL    HW238037   2.780   4.680   8.122 -2.2436  1.2731 -0.9909
 8859SOL     OW38038   0.350   0.788   2.020 -0.5327  0.1249  0.1244
 8859SOL    HW138039   0.435   0.832   2.018  0.3865 -1.7254 -0.8805
 8859SOL    HW238040   0.282   0.855   2.030 -0.9057 -0.2283 -0.0322
 8860SOL     OW38041   4.537   0.191  10.281 -0.1804  0.2419  0.0896
 8860SOL    HW138042   4.530   0.129  10.354  1.8288  1.9622  1.7301
 8860SOL    HW238043   4.487   0.139  10.218 -1.9464 -0.4231  2.0294
 8861SOL     OW38044   2.580   2.778  13.345 -0.2177  0.8896  0.2956
 8861SOL    HW138045   2.637   2.836  13.294  1.3322  0.3508  1.3861
 8861SOL    HW238046   2.503   2.775  13.289 -0.1462 -0.5274  0.2569
 8862SOL     OW38047   0.418   0.754   7.290 -0.2730  0.0870  0.2889
 8862SOL    HW138048   0.513   0.754   7.299 -0.3171 -1.7732  0.6852
 8862SOL    HW238049   0.399   0.822   7.225 -1.0997 -0.2111  0.2189
 8863SOL     OW38050   4.690   2.816   2.333 -0.5558 -0.1314 -0.0208
 8863SOL    HW138051   0.057   2.795   2.364 -0.0067  1.3277 -0.6120
 8863SOL    HW238052   4.697   2.899   2.286  1.3990  0.4961  1.3666
 8864SOL     OW38053   1.514   1.928   2.944  1.3200 -0.1617 -0.1194
 8864SOL    HW138054   1.514   1.922   3.039 -4.3505  1.5694 -0.0094
 8864SOL    HW238055   1.428   1.888   2.934  1.2463 -0.2692  0.9654
 8865SOL     OW38056   3.919   4.435   7.739 -0.2158  0.4101 -0.5985
 8865SOL    HW138057   3.925   4.505   7.804  0.2943  0.4277 -0.6653
 8865SOL    HW238058   3.875   4.371   7.795  0.6288  0.5935  0.2917
 8866SOL     OW38059   0.366   2.941   5.684 -0.4326 -0.0745  0.3438
 8866SOL    HW138060   0.305   2.886   5.636  0.4628 -1.3882  0.6999
 8866SOL    HW238061   0.341   3.027   5.651 -2.1756 -0.6971  0.0245
 8867SOL     OW38062   0.631   1.460   9.124  0.3356 -0.3910  0.2048
 8867SOL    HW138063   0.661   1.528   9.065 -1.1820  0.0491 -0.0531
 8867SOL    HW238064   0.680   1.381   9.100 -1.7656 -1.7435  0.3364
 8868SOL     OW38065   1.729   4.610  15.107 -0.4597 -0.6997  0.0936
 8868SOL    HW138066   1.723   4.611  15.012 -0.7080  0.7115  0.1309
 8868SOL    HW238067   1.643   4.636  15.140 -0.5383  1.0916 -1.5803
 8869SOL     OW38068   1.705   0.131   7.369  0.2028  0.2102 -0.2490
 8869SOL    HW138069   1.730   0.080   7.446 -0.9550 -0.3152 -0.2200
 8869SOL    HW238070   1.779   0.122   7.310  0.6942  1.8664  0.1203
 8870SOL     OW38071   3.789   4.084   9.151 -0.1679 -0.5813  0.0304
 8870SOL    HW138072   3.853   4.105   9.083  0.8666 -0.3582  1.0666
 8870SOL    HW238073   3.738   4.021   9.100  2.3272 -0.0612 -3.1515
 8871SOL     OW38074   2.364   2.290   2.034  0.6747  0.2655 -0.0601
 8871SOL    HW138075   2.343   2.201   2.062 -0.6739  0.4107 -0.6123
 8871SOL    HW238076   2.458   2.285   2.050  0.1427  0.3398  2.9903
 8872SOL     OW38077   3.594   1.550  16.726  0.1849  0.2992  0.1856
 8872SOL    HW138078   3.592   1.638  16.764  0.4887 -0.2127  1.3846
 8872SOL    HW238079   3.618   1.504  16.806  0.0601  0.9635  0.6021
 8873SOL     OW38080   2.088   3.380  12.285  0.2273 -0.2064 -0.4976
 8873SOL    HW138081   2.163   3.399  12.341  0.2055  0.2571 -0.6169
 8873SOL    HW238082   2.123   3.407  12.199  1.1819  3.2929  0.9933
 8874SOL     OW38083   0.683   3.451  15.422 -0.3084  0.1363  0.4260
 8874SOL    HW138084   0.671   3.528  15.366  1.4887 -0.4692 -0.7922
 8874SOL    HW238085   0.766   3.470  15.467 -0.2352  2.1256 -0.5776
 8875SOL     OW38086   1.046   2.500   3.919  0.7499  0.2583 -0.5992
 8875SOL    HW138087   1.129   2.483   3.875  0.6898 -0.7237 -0.3357
 8875SOL    HW238088   0.990   2.427   3.891  1.1404 -0.4433  0.4504
 8876SOL     OW38089   1.289   3.917   2.302  0.1293  0.1419 -0.4116
 8876SOL    HW138090   1.223   3.876   2.245  1.7337 -1.3904 -1.1823
 8876SOL    HW238091   1.283   4.007   2.270 -0.9259  1.1834  2.7023
 8877SOL     OW38092   1.763   0.272  13.851 -0.2031  0.4340 -0.2443
 8877SOL    HW138093   1.842   0.241  13.896 -0.5629 -0.4403 -0.2290
 8877SOL    HW238094   1.784   0.364  13.832 -1.6314  0.6268 -0.8449
 8878SOL     OW38095   4.598   4.477   5.095 -0.1591  0.0277  0.4936
 8878SOL    HW138096   4.587   4.464   5.189 -0.4891  1.1323  0.6144
 8878SOL    HW238097   4.531   4.545   5.087 -1.1098 -0.7078  2.2259
 8879SOL     OW38098   4.707   3.586   6.720  0.4102  0.5132  0.2916
 8879SOL    HW138099   4.612   3.595   6.710  0.3938 -2.0534 -1.8446
 8879SOL    HW238100   4.706   3.513   6.782 -0.1830 -0.4471 -0.8472
 8880SOL     OW38101   3.786   4.518   4.597  0.4835 -0.1468 -0.7482
 8880SOL    HW138102   3.825   4.593   4.552  0.1288  0.8844  0.6368
 8880SOL    HW238103   3.865   4.501   4.649 -1.2968  0.4462  2.1873
 8881SOL     OW38104   1.080   1.366   5.997 -0.0148  0.2700 -0.1285
 8881SOL    HW138105   1.118   1.302   6.057 -1.2557 -0.2576  0.1074
 8881SOL    HW238106   0.990   1.336   5.985  0.4703 -1.2808  0.1194
 8882SOL     OW38107   1.374   3.702   1.160 -0.4367  0.6471 -0.1699
 8882SOL    HW138108   1.469   3.719   1.164 -0.2624  0.2632 -2.7617
 8882SOL    HW238109   1.373   3.630   1.097 -1.9386  1.6853 -1.3121
 8883SOL     OW38110   3.882   3.568   3.304  0.2779 -0.4716  0.0792
 8883SOL    HW138111   3.918   3.512   3.372  0.1070 -1.7764 -0.8983
 8883SOL    HW238112   3.963   3.566   3.252  0.7142  3.5819  0.6276
 8884SOL     OW38113   1.027   3.593   8.270  0.2389 -0.6854  0.1905
 8884SOL    HW138114   1.116   3.575   8.240  0.1163 -1.2070  0.1481
 8884SOL    HW238115   1.055   3.660   8.332 -1.1715  0.4357 -0.3682
 8885SOL     OW38116   3.159   0.362   2.443 -0.5448  0.1230 -0.2780
 8885SOL    HW138117   3.147   0.305   2.367 -0.9838 -2.1366  1.4415
 8885SOL    HW238118   3.197   0.440   2.404  0.5408 -0.2002  0.1311
 8886SOL     OW38119   4.608   4.709   0.476  0.0566  0.1739  0.5578
 8886SOL    HW138120   4.664   4.640   0.442  0.5447  0.2297  1.2405
 8886SOL    HW238121   4.667   0.060   0.495  0.0324  0.8418 -1.9210
 8887SOL     OW38122   0.165   2.412   7.889 -0.5078 -0.5144 -0.1447
 8887SOL    HW138123   0.162   2.380   7.979  2.5083 -0.2081  0.0496
 8887SOL    HW238124   0.248   2.380   7.854 -0.1987  1.8086 -1.5777
 8888SOL     OW38125   4.439   2.428   0.747  0.0533 -0.4637  0.0851
 8888SOL    HW138126   4.415   2.409   0.657 -1.2365 -1.0563  0.5557
 8888SOL    HW238127   4.506   2.492   0.726  1.4949 -1.0899  2.6884
 8889SOL     OW38128   2.474   0.908   0.573  0.4128 -0.0334  0.1933
 8889SOL    HW138129   2.551   0.886   0.626  0.2096  1.6881  1.1891
 8889SOL    HW238130   2.448   0.992   0.610 -4.6153 -1.6517  0.3803
 8890SOL     OW38131   2.249   0.697   5.499  0.1587 -0.1844  0.3186
 8890SOL    HW138132   2.154   0.706   5.507  0.1407 -0.7876  0.8346
 8890SOL    HW238133   2.282   0.786   5.487 -0.9456  0.2051  0.1412
 8891SOL     OW38134   4.000   2.435   4.598 -0.4907 -0.1253 -0.3957
 8891SOL    HW138135   3.960   2.484   4.526  1.6312 -0.5150 -1.8287
 8891SOL    HW238136   4.036   2.502   4.656  0.0919 -0.1392 -0.7430
 8892SOL     OW38137   2.294   4.169   1.078 -0.3481  0.3251 -0.5261
 8892SOL    HW138138   2.344   4.145   1.156 -0.8430  0.3323 -0.2089
 8892SOL    HW238139   2.308   4.093   1.020  1.2604 -0.1328  0.4675
 8893SOL     OW38140   1.312   2.845   4.220  0.4618  0.2300  0.3136
 8893SOL    HW138141   1.390   2.875   4.266 -0.9112  2.2120  1.3592
 8893SOL    HW238142   1.315   2.903   4.143  0.5328  0.9935  0.8908
 8894SOL     OW38143   1.906   0.946  13.463  0.3958 -0.0555 -0.2205
 8894SOL    HW138144   1.951   1.021  13.501 -0.9894  1.3471 -1.3308
 8894SOL    HW238145   1.829   0.993  13.430  0.8531 -0.5073 -1.9443
 8895SOL     OW38146   4.127   3.446   6.510  0.1372 -0.0487  0.1129
 8895SOL    HW138147   4.072   3.372   6.536  1.9404 -1.2096  0.6626
 8895SOL    HW238148   4.068   3.509   6.469  0.1992  1.8073  2.9333
 8896SOL     OW38149   2.383   3.271   2.556  0.5888  0.0971  0.0497
 8896SOL    HW138150   2.459   3.329   2.560 -0.5917  1.6317  0.1436
 8896SOL    HW238151   2.349   3.285   2.468  0.1657 -1.7641 -0.0764
 8897SOL     OW38152   3.072   2.272  11.014  0.0692  0.0253 -0.1800
 8897SOL    HW138153   3.022   2.210  10.959  2.4703  1.2302 -3.7373
 8897SOL    HW238154   3.091   2.349  10.961  2.1578 -0.7854 -0.6020
 8898SOL     OW38155   2.700   0.546   7.621  0.1306  0.1921  0.6058
 8898SOL    HW138156   2.649   0.609   7.673  1.3139 -0.5735  2.6812
 8898SOL    HW238157   2.626   0.504   7.578  0.8837  1.8606 -2.2968
 8899SOL     OW38158   1.002   3.623  14.303  0.0208 -0.0699  0.0328
 8899SOL    HW138159   0.945   3.558  14.261  1.7755 -3.0361  2.2572
 8899SOL    HW238160   1.080   3.609  14.249 -0.8082 -0.3967 -1.0905
 8900SOL     OW38161   0.682   0.153   5.803 -0.3337  0.6410  0.2932
 8900SOL    HW138162   0.720   0.223   5.857 -0.2585  0.1621  0.8530
 8900SOL    HW238163   0.594   0.151   5.840 -0.5172  2.1315 -0.0601
 8901SOL     OW38164   3.885   3.667   0.548 -0.4224  0.2826  0.2481
 8901SOL    HW138165   3.897   3.761   0.532 -1.8736  0.7631  2.0163
 8901SOL    HW238166   3.822   3.672   0.620 -1.2678  2.0520 -0.6088
 8902SOL     OW38167   0.028   3.611   3.426 -0.5289  0.0772  0.0654
 8902SOL    HW138168   0.041   3.520   3.400 -0.3118  0.3245 -0.6942
 8902SOL    HW238169   4.695   3.633   3.351 -2.5906 -0.0043  1.5220
 8903SOL     OW38170   2.742   2.043  14.723  0.3541 -0.0527 -0.0958
 8903SOL    HW138171   2.769   2.135  14.713 -2.6324  0.4828 -3.0919
 8903SOL    HW238172   2.761   2.014  14.634 -1.0974 -0.8900 -0.1302
 8904SOL     OW38173   2.745   0.872   4.203 -0.4885 -0.1169  0.2784
 8904SOL    HW138174   2.769   0.872   4.111 -0.1248 -2.2541  0.3814
 8904SOL    HW238175   2.788   0.789   4.223  0.0496  0.1909  0.4247
 8905SOL     OW38176   2.414   3.697   7.986  0.0637  0.0839 -0.2067
 8905SOL    HW138177   2.370   3.768   7.940 -1.7202 -0.6997  0.2865
 8905SOL    HW238178   2.416   3.632   7.915 -0.7807 -1.8640  1.5317
 8906SOL     OW38179   3.462   1.615   5.161  0.0836  0.3196  0.1891
 8906SOL    HW138180   3.396   1.553   5.193  0.3115  0.4652  0.9301
 8906SOL    HW238181   3.441   1.623   5.068 -0.2914 -0.1518  0.2280
 8907SOL     OW38182   3.791   0.089  12.554  0.1040  0.2373 -0.3708
 8907SOL    HW138183   3.765   4.720  12.564 -1.8115  0.6689 -1.4407
 8907SOL    HW238184   3.851   0.097  12.628 -1.8330 -0.5863  1.2752
 8908SOL     OW38185   0.846   4.350   6.750 -0.2770 -0.0366 -0.6665
 8908SOL    HW138186   0.852   4.422   6.687 -1.0145 -1.4228 -2.3146
 8908SOL    HW238187   0.759   4.366   6.787 -1.0329 -1.3885 -1.9063
 8909SOL     OW38188   2.278   2.533  12.229 -0.2006 -0.0430  0.3728
 8909SOL    HW138189   2.346   2.573  12.174  0.7762 -1.3301  0.6477
 8909SOL    HW238190   2.209   2.593  12.200 -0.6147 -1.5813 -1.8452
 8910SOL     OW38191   1.554   1.378   2.629 -0.4370  0.4218 -0.2679
 8910SOL    HW138192   1.545   1.338   2.542 -0.7138  0.9450 -0.4828
 8910SOL    HW238193   1.620   1.443   2.606 -0.9389  1.3803  1.0141
 8911SOL     OW38194   2.186   0.182   6.091 -0.0761  1.1043 -0.3273
 8911SOL    HW138195   2.158   0.231   6.168 -2.2753  0.1258 -0.4985
 8911SOL    HW238196   2.221   0.103   6.132  1.2649  1.5339 -0.6296
 8912SOL     OW38197   2.900   2.387  16.377 -0.0104  0.3527 -0.2612
 8912SOL    HW138198   2.963   2.376  16.448 -0.6491 -0.1720  0.2332
 8912SOL    HW238199   2.879   2.296  16.357 -1.7694  1.4340 -3.3255
 8913SOL     OW38200   0.093   3.621   2.231  0.2335  0.2631 -0.1318
 8913SOL    HW138201   0.048   3.640   2.314  0.7025 -1.3249  0.5074
 8913SOL    HW238202   0.085   3.694   2.171 -1.9711 -0.4920 -0.7642
 8914SOL     OW38203   1.104   3.613   5.141 -0.1947  0.4412  0.5120
 8914SOL    HW138204   1.073   3.583   5.056  1.4318  0.6461 -0.1394
 8914SOL    HW238205   1.032   3.575   5.192  2.4094  0.0496  3.9244
 8915SOL     OW38206   4.342   0.270  11.981  0.5186 -0.0800  0.5526
 8915SOL    HW138207   4.263   0.219  11.998  0.1407 -0.7844 -3.3546
 8915SOL    HW238208   4.339   0.300  11.890  0.3719 -1.9055 -0.0385
 8916SOL     OW38209   0.600   3.676   3.917  0.0908  0.4134 -0.0140
 8916SOL    HW138210   0.514   3.687   3.876 -1.0230 -0.9816  1.9306
 8916SOL    HW238211   0.569   3.677   4.007 -0.4555  2.0347 -0.2295
 8917SOL     OW38212   4.106   1.327   9.900 -0.0559  0.3653 -0.2216
 8917SOL    HW138213   4.151   1.267   9.841 -1.5037 -1.0351  0.1048
 8917SOL    HW238214   4.017   1.341   9.867 -0.3916  1.0295  0.9179
 8918SOL     OW38215   4.574   4.453   3.939 -0.4614  0.5167  0.2921
 8918SOL    HW138216   4.503   4.493   3.889 -1.0655  0.3942  1.0491
 8918SOL    HW238217   4.574   4.510   4.016 -1.5519  1.3779 -0.3468
 8919SOL     OW38218   4.136   4.267   3.066 -0.1590 -0.3143 -0.1732
 8919SOL    HW138219   4.138   4.292   3.159 -2.9673  0.3756 -0.2763
 8919SOL    HW238220   4.230   4.257   3.058 -0.4761 -1.2134 -2.5986
 8920SOL     OW38221   1.846   0.678   5.733 -0.1429  0.2207 -0.5085
 8920SOL    HW138222   1.804   0.596   5.706 -2.2474  1.2490 -0.3929
 8920SOL    HW238223   1.924   0.649   5.780 -1.0188  3.5022  2.9262
 8921SOL     OW38224   1.909   0.065  15.306 -0.6811 -0.5305  0.3422
 8921SOL    HW138225   1.864   0.132  15.254  1.1313  0.3105 -0.1119
 8921SOL    HW238226   2.000   0.086  15.324 -0.9990  1.2073 -0.0609
 8922SOL     OW38227   4.540   1.652  10.751 -0.0812  0.4739 -0.0272
 8922SOL    HW138228   4.493   1.624  10.829 -2.1017 -1.4281 -1.9147
 8922SOL    HW238229   4.622   1.645  10.799 -0.5619 -1.3868  0.5027
 8923SOL     OW38230   3.806   0.749  16.129 -0.0413  0.2851 -0.2116
 8923SOL    HW138231   3.845   0.731  16.044 -1.0929 -0.6268 -0.5026
 8923SOL    HW238232   3.850   0.680  16.180 -1.6794 -1.1240 -0.7318
 8924SOL     OW38233   2.884   0.641   3.785 -0.5313  0.2405 -0.2865
 8924SOL    HW138234   2.869   0.709   3.851  0.0688 -1.0777  1.2134
 8924SOL    HW238235   2.808   0.648   3.728 -0.0256  1.6076 -0.7952
 8925SOL     OW38236   2.275   3.315   7.190  0.0507 -0.7374  0.3157
 8925SOL    HW138237   2.272   3.347   7.100  1.2639  0.8164  0.8247
 8925SOL    HW238238   2.221   3.237   7.175  2.3840 -2.2906 -0.0700
 8926SOL     OW38239   2.113   3.832  17.250  0.1766 -0.0807  0.8577
 8926SOL    HW138240   2.087   3.914  17.208 -0.1400 -0.4653  0.3063
 8926SOL    HW238241   2.099   3.766  17.182 -4.6652  1.4855  0.3362
 8927SOL     OW38242   4.064   0.624   4.475 -0.3167  0.3066 -0.4104
 8927SOL    HW138243   4.040   0.712   4.446  0.9885  0.2894 -1.5542
 8927SOL    HW238244   3.988   0.576   4.444 -1.0970  1.3173 -0.0575
 8928SOL     OW38245   3.900   3.758  13.811  0.3641  0.3296  0.0998
 8928SOL    HW138246   3.934   3.668  13.815 -0.4448  0.0238  0.1568
 8928SOL    HW238247   3.985   3.800  13.823  0.7072  0.2304 -1.9358
 8929SOL     OW38248   0.881   2.627   7.511  0.1399 -0.1462  0.1108
 8929SOL    HW138249   0.959   2.633   7.567  0.6866 -1.1020 -0.5340
 8929SOL    HW238250   0.815   2.689   7.541 -0.6975 -0.6337 -0.7332
 8930SOL     OW38251   0.202   1.023   5.493 -0.0727  0.0497  0.2481
 8930SOL    HW138252   0.210   1.105   5.445  2.3761  0.5333  1.4579
 8930SOL    HW238253   0.119   1.042   5.537 -0.3638 -1.8924  0.5410
 8931SOL     OW38254   3.685   4.354   2.544 -1.0845  0.2820 -0.2768
 8931SOL    HW138255   3.713   4.328   2.632 -4.1257 -0.3366  0.5114
 8931SOL    HW238256   3.594   4.362   2.575 -0.1457  0.7720  2.3433
 8932SOL     OW38257   3.903   4.136   3.000 -0.3927  0.1594  0.9107
 8932SOL    HW138258   3.913   4.061   3.059 -0.3192 -1.3273 -0.9833
 8932SOL    HW238259   3.988   4.180   3.003 -0.6786  0.9191 -2.0276
 8933SOL     OW38260   4.715   0.473   3.204 -0.1417 -0.2271  0.6582
 8933SOL    HW138261   0.057   0.414   3.164  0.4317  1.2667 -0.6361
 8933SOL    HW238262   0.051   0.526   3.258  2.2432 -1.6406 -0.5028
 8934SOL     OW38263   0.307   3.786   6.054  0.0602  0.6244 -0.0012
 8934SOL    HW138264   0.237   3.733   6.090  0.5973 -1.1044 -1.4998
 8934SOL    HW238265   0.274   3.866   6.095 -0.5682  0.0302  0.6553
 8935SOL     OW38266   2.527   0.090  17.072  0.3969  0.5213  0.2322
 8935SOL    HW138267   2.464   0.157  17.097  1.3077  0.9175  1.4772
 8935SOL    HW238268   2.588   0.138  17.017 -0.0924 -0.2903 -1.0182
 8936SOL     OW38269   1.200   3.276  16.453  0.7428 -0.4289 -0.7118
 8936SOL    HW138270   1.279   3.236  16.489  1.6133 -0.0550 -2.1967
 8936SOL    HW238271   1.163   3.198  16.413 -1.2785 -0.4700  1.2119
 8937SOL     OW38272   2.527   0.953   3.650  0.0337  0.0109  0.0187
 8937SOL    HW138273   2.517   0.928   3.742 -1.1007  0.7063  0.0864
 8937SOL    HW238274   2.491   1.041   3.654 -1.5106 -0.5597 -1.2811
 8938SOL     OW38275   4.366   2.349   0.513  0.1351 -0.9752  0.2490
 8938SOL    HW138276   4.358   2.254   0.526 -2.2189 -0.7123  0.6937
 8938SOL    HW238277   4.274   2.367   0.492 -0.1450 -1.8605  0.7185
 8939SOL     OW38278   4.021   3.463   9.498  0.4542 -0.2853  0.8600
 8939SOL    HW138279   3.975   3.449   9.416  1.5087  0.0398  0.2183
 8939SOL    HW238280   4.078   3.388   9.512  1.7489  0.7375  1.0939
 8940SOL     OW38281   1.036   4.177  13.411 -0.0281 -0.3075  0.5606
 8940SOL    HW138282   1.067   4.201  13.498  0.4217  0.0991  0.2899
 8940SOL    HW238283   0.956   4.229  13.402  0.5556  0.3500 -0.7647
 8941SOL     OW38284   2.603   2.987   3.773  0.1229  0.6191  0.6532
 8941SOL    HW138285   2.570   2.979   3.684  1.2239  0.6887  0.2463
 8941SOL    HW238286   2.690   2.949   3.761 -1.5742 -3.3480  0.9547
 8942SOL     OW38287   0.749   3.207   2.277  0.0793 -0.0963  0.6507
 8942SOL    HW138288   0.655   3.201   2.292  0.1777 -2.9415  0.1578
 8942SOL    HW238289   0.761   3.112   2.278 -0.0068 -0.1072  0.6804
 8943SOL     OW38290   3.849   3.233   5.719  0.1865  0.2301 -0.0650
 8943SOL    HW138291   3.796   3.270   5.648 -1.8275  0.0440  1.3457
 8943SOL    HW238292   3.936   3.217   5.682  1.6447  0.0681  3.4363
 8944SOL     OW38293   2.663   1.165  12.900  0.5253  0.7225  0.2216
 8944SOL    HW138294   2.659   1.170  12.996  1.1118 -4.4428  0.5432
 8944SOL    HW238295   2.607   1.235  12.868  1.6353  2.1452  1.4206
 8945SOL     OW38296   4.325   0.095   4.123  0.1649 -0.2295 -0.1704
 8945SOL    HW138297   4.241   0.089   4.169 -0.2388  2.0781 -0.6160
 8945SOL    HW238298   4.388   0.075   4.192  1.1027 -1.5459 -1.3904
 8946SOL     OW38299   1.268   4.520  10.527 -0.3759 -0.6788 -0.3901
 8946SOL    HW138300   1.220   4.471  10.593 -2.2286  0.2041 -1.0917
 8946SOL    HW238301   1.329   4.568  10.582  0.5045 -2.8701  0.5395
 8947SOL     OW38302   0.582   1.205  15.984  0.4035 -0.1607  0.4496
 8947SOL    HW138303   0.511   1.165  15.934  0.7578 -0.2344  0.0080
 8947SOL    HW238304   0.632   1.127  16.009 -0.4114 -1.5625 -2.2935
 8948SOL     OW38305   2.168   0.918   8.161  0.1073 -0.1311 -0.1131
 8948SOL    HW138306   2.163   0.853   8.231  0.1549 -2.4696 -2.2609
 8948SOL    HW238307   2.092   0.974   8.173 -0.4958 -0.9991  0.0649
 8949SOL     OW38308   2.548   4.484  11.645 -0.3261 -0.2295  0.2766
 8949SOL    HW138309   2.609   4.428  11.693  0.4306  1.0437  0.7983
 8949SOL    HW238310   2.470   4.433  11.667  0.3982 -1.9962 -1.3186
 8950SOL     OW38311   0.462   2.994   1.678 -0.6601 -0.6086 -0.2453
 8950SOL    HW138312   0.430   3.081   1.699  1.0330 -0.3480  1.2987
 8950SOL    HW238313   0.554   3.020   1.669 -0.3960 -2.1673 -2.0133
 8951SOL     OW38314   0.585   0.042   4.489 -0.1206 -0.7842 -0.3402
 8951SOL    HW138315   0.627   0.102   4.551  1.9624 -1.8846 -0.6838
 8951SOL    HW238316   0.653   0.030   4.424  0.3570  1.3894 -0.2507
 8952SOL     OW38317   3.602   1.385   3.931  0.2637 -0.8157 -0.4772
 8952SOL    HW138318   3.688   1.421   3.910 -0.3242 -0.6619 -2.7130
 8952SOL    HW238319   3.602   1.290   3.920 -0.3585 -0.7210 -1.4117
 8953SOL     OW38320   4.426   2.746   8.508 -0.2642 -0.2014 -0.1986
 8953SOL    HW138321   4.472   2.683   8.564  1.9796  3.2377  1.8507
 8953SOL    HW238322   4.467   2.829   8.533  0.2592 -0.9804  1.5105
 8954SOL     OW38323   2.175   0.200   1.642  0.0043 -0.1015  0.1243
 8954SOL    HW138324   2.250   0.140   1.634 -1.0332 -1.5387  1.3614
 8954SOL    HW238325   2.219   0.282   1.619  1.0591 -0.5182  0.6445
 8955SOL     OW38326   1.351   3.748   2.887 -0.0623  0.3457 -0.0902
 8955SOL    HW138327   1.285   3.782   2.827 -0.4428 -0.4248 -0.1083
 8955SOL    HW238328   1.373   3.833   2.927  1.7881 -0.5782  0.8712
 8956SOL     OW38329   1.910   0.644   5.014  0.1185 -0.3719 -0.1194
 8956SOL    HW138330   1.882   0.731   4.984  0.9757 -0.0209  0.1073
 8956SOL    HW238331   2.001   0.664   5.037  0.2928  1.1962 -2.1571
 8957SOL     OW38332   1.459   2.611   4.193 -0.4809 -0.5139 -0.1998
 8957SOL    HW138333   1.391   2.666   4.232  1.0763  0.7869  0.6488
 8957SOL    HW238334   1.452   2.623   4.099  1.3025 -1.2135 -0.4097
 8958SOL     OW38335   3.410   4.259   7.083 -0.0080 -0.0474 -0.8188
 8958SOL    HW138336   3.383   4.287   6.995  0.2353 -1.4182 -1.3325
 8958SOL    HW238337   3.505   4.249   7.073 -0.0330 -0.4392 -0.6499
 8959SOL     OW38338   1.571   2.936   7.263  0.7393 -0.1451  0.0702
 8959SOL    HW138339   1.622   2.967   7.189  2.1650  0.3777  1.2777
 8959SOL    HW238340   1.626   2.953   7.340  1.7989 -0.3679 -0.6423
 8960SOL     OW38341   0.601   0.859  15.639  0.7708 -0.2397 -0.5634
 8960SOL    HW138342   0.553   0.939  15.657  1.2068 -0.1279  0.1397
 8960SOL    HW238343   0.529   0.831  15.584  0.6386 -1.3183  0.1565
 8961SOL     OW38344   4.678   3.381   1.955  0.0225 -0.0483 -0.3839
 8961SOL    HW138345   0.038   3.364   2.002 -0.3055  1.1013  0.6098
 8961SOL    HW238346   4.616   3.322   1.999  1.5935  0.0206  1.9413
 8962SOL     OW38347   2.518   0.425   2.244  0.0799  0.5950 -0.0846
 8962SOL    HW138348   2.486   0.352   2.191  1.9787  0.8344 -1.5660
 8962SOL    HW238349   2.568   0.386   2.316  1.7380 -0.4083 -1.7730
 8963SOL     OW38350   0.472   2.826   6.096  0.1149 -0.4185 -0.3183
 8963SOL    HW138351   0.477   2.840   6.001 -2.7934 -0.7548 -0.5096
 8963SOL    HW238352   0.557   2.785   6.115  0.5267  1.5963  2.1566
 8964SOL     OW38353   4.677   2.360   4.607  0.6079 -0.0910 -0.0744
 8964SOL    HW138354   4.648   2.414   4.533 -0.2442  0.0653  0.3810
 8964SOL    HW238355   4.699   2.277   4.563 -0.7588 -0.8347  0.6540
 8965SOL     OW38356   3.338   1.066   6.308 -0.1328 -0.1798  0.0317
 8965SOL    HW138357   3.303   1.074   6.220 -1.1220 -1.2914  0.3195
 8965SOL    HW238358   3.271   1.098   6.368  0.0477 -1.2012  0.7865
 8966SOL     OW38359   4.446   4.565   8.685  0.0393  0.2168 -0.1290
 8966SOL    HW138360   4.522   4.587   8.740 -0.1131 -1.3387  0.7067
 8966SOL    HW238361   4.408   4.653   8.686 -1.1096 -0.2863  0.2437
 8967SOL     OW38362   2.961   0.663   0.618 -0.1232 -0.2937  0.0277
 8967SOL    HW138363   3.017   0.664   0.541 -1.2624 -0.1517 -0.8023
 8967SOL    HW238364   2.873   0.677   0.583  0.3742 -1.8194 -1.8483
 8968SOL     OW38365   1.968   0.204  16.074  0.3020  0.2599 -0.2896
 8968SOL    HW138366   1.915   0.190  15.995 -0.2344 -1.1013  0.3017
 8968SOL    HW238367   1.900   0.239  16.131 -0.3222  1.0809 -1.5472
 8969SOL     OW38368   4.081   2.326   5.472  0.1581  0.1061  0.3600
 8969SOL    HW138369   4.139   2.401   5.487  1.0518 -0.7962  1.5040
 8969SOL    HW238370   4.115   2.288   5.391  0.4925 -1.7535  1.3697
 8970SOL     OW38371   3.023   0.601   0.328 -0.3508 -0.3464 -0.2939
 8970SOL    HW138372   3.059   0.690   0.323  1.9226 -1.1503  1.8703
 8970SOL    HW238373   3.092   0.555   0.279 -0.9235 -1.5513  0.0306
 8971SOL     OW38374   3.512   3.808   9.313  0.2569  1.1830 -0.7094
 8971SOL    HW138375   3.522   3.868   9.239  0.6008  0.4421 -1.2533
 8971SOL    HW238376   3.569   3.850   9.377 -0.9994  2.3008 -0.3121
 8972SOL     OW38377   0.504   3.207   5.038 -0.3254 -0.1733  0.7546
 8972SOL    HW138378   0.409   3.200   5.047 -0.2620  0.3853  2.0048
 8972SOL    HW238379   0.516   3.299   5.062 -2.5772  0.7890 -1.9207
 8973SOL     OW38380   2.945   3.261  11.056 -0.1877  0.3943  0.8064
 8973SOL    HW138381   3.014   3.297  11.001  0.0951  0.7239  1.3771
 8973SOL    HW238382   2.960   3.305  11.140 -0.3374  1.7444  0.1256
 8974SOL     OW38383   0.938   4.397  13.199  0.6922 -0.1748  0.4348
 8974SOL    HW138384   0.890   4.376  13.118 -0.6991  1.1078  0.9243
 8974SOL    HW238385   0.878   4.374  13.270  0.7934 -0.7577  0.3311
 8975SOL     OW38386   1.548   3.970  13.075  0.7533  0.4240  0.2478
 8975SOL    HW138387   1.614   4.031  13.106  2.2276 -1.8933  1.7239
 8975SOL    HW238388   1.552   3.886  13.122  3.5330  0.4011 -0.0276
 8976SOL     OW38389   1.460   1.203   6.961 -0.7758  0.0388  0.0879
 8976SOL    HW138390   1.496   1.272   6.905  1.9773 -0.3077  1.4272
 8976SOL    HW238391   1.483   1.120   6.920  0.2851  0.1231  0.5096
 8977SOL     OW38392   1.642   0.826   5.175  0.3275 -0.4064 -0.4655
 8977SOL    HW138393   1.648   0.901   5.116  0.0249 -1.0991 -1.3727
 8977SOL    HW238394   1.550   0.820   5.200  0.8835 -0.5260  1.5310
 8978SOL     OW38395   1.484   1.036  11.065 -0.1852 -0.1247  0.2595
 8978SOL    HW138396   1.457   1.092  10.992  0.5862 -0.2927 -0.1477
 8978SOL    HW238397   1.451   1.078  11.144 -1.7644 -3.2121  1.2304
 8979SOL     OW38398   1.410   0.183   3.859  0.2105  0.4014 -0.8889
 8979SOL    HW138399   1.348   0.247   3.894  1.1077  1.8201 -1.8695
 8979SOL    HW238400   1.486   0.184   3.918  2.2338 -1.3923 -3.4521
 8980SOL     OW38401   3.308   0.964   4.732  0.2560 -0.0816  0.0839
 8980SOL    HW138402   3.355   0.883   4.755  0.4517  0.2724  0.9380
 8980SOL    HW238403   3.316   0.953   4.637 -1.1610  1.0757 -0.1701
 8981SOL     OW38404   1.095   4.390  10.696 -0.6592  0.0695 -0.1896
 8981SOL    HW138405   1.081   4.445  10.773 -1.0194  1.9086 -1.5960
 8981SOL    HW238406   1.066   4.304  10.726  0.0289  0.5058  1.7796
 8982SOL     OW38407   3.576   3.616   1.994 -0.0148  0.1659 -0.4479
 8982SOL    HW138408   3.643   3.659   2.048 -2.2060  1.2461  1.4253
 8982SOL    HW238409   3.545   3.547   2.053  0.2110 -0.1941 -0.7492
 8983SOL     OW38410   3.356   4.261   5.150 -0.7468 -0.2254  0.2766
 8983SOL    HW138411   3.326   4.234   5.237 -2.3742  0.4573 -0.0711
 8983SOL    HW238412   3.377   4.176   5.112  0.9684  0.4954 -0.3335
 8984SOL     OW38413   1.360   2.003   7.738  0.5495  0.2858  0.0602
 8984SOL    HW138414   1.450   1.999   7.708  0.2309 -2.5210 -0.4461
 8984SOL    HW238415   1.359   2.079   7.797 -0.1029 -1.0192  1.7224
 8985SOL     OW38416   1.627   3.714  12.794  0.5255 -0.2323 -0.4229
 8985SOL    HW138417   1.667   3.715  12.707 -1.1865 -2.9420 -1.2425
 8985SOL    HW238418   1.578   3.797  12.799  2.8675  1.3076 -2.6288
 8986SOL     OW38419   0.126   4.534  14.408  0.0264  0.0620  0.0415
 8986SOL    HW138420   0.136   4.592  14.484  0.8166  1.7586 -1.3700
 8986SOL    HW238421   0.215   4.539  14.375 -0.4951  0.3995 -1.3001
 8987SOL     OW38422   0.474   3.785   3.419 -0.3917 -0.1447 -0.1124
 8987SOL    HW138423   0.537   3.792   3.491  0.7783  0.2468 -1.1778
 8987SOL    HW238424   0.462   3.876   3.392  0.2466 -0.6815 -2.1973
 8988SOL     OW38425   2.318   0.965   5.497 -0.3827 -0.5466  0.3710
 8988SOL    HW138426   2.376   0.954   5.422 -0.8911  2.3323 -0.4466
 8988SOL    HW238427   2.250   1.018   5.455  0.7540  0.1677 -0.5631
 8989SOL     OW38428   1.257   3.614   3.238 -0.0842 -1.2518  0.5761
 8989SOL    HW138429   1.346   3.580   3.234  0.5538  0.4905 -0.2927
 8989SOL    HW238430   1.219   3.557   3.171 -0.5542  0.3619 -0.5235
 8990SOL     OW38431   3.753   1.771   3.325  0.2017 -0.7181  0.4852
 8990SOL    HW138432   3.810   1.702   3.359  0.2897  0.2460  2.2817
 8990SOL    HW238433   3.816   1.828   3.280 -0.4811 -1.1692 -1.0439
 8991SOL     OW38434   3.589   0.545  14.410  0.3994 -0.1648  0.1073
 8991SOL    HW138435   3.515   0.593  14.446 -0.0148 -0.6212 -0.1365
 8991SOL    HW238436   3.659   0.571  14.470  0.3776  1.7156 -0.7002
 8992SOL     OW38437   0.404   3.191   8.221  0.3329 -0.4021 -0.3333
 8992SOL    HW138438   0.408   3.202   8.316  0.3643 -1.7837 -0.1720
 8992SOL    HW238439   0.310   3.201   8.202  0.4558 -0.1765 -0.8229
 8993SOL     OW38440   1.501   0.836   1.656  0.0866 -0.2768  0.2458
 8993SOL    HW138441   1.431   0.773   1.673  0.0704 -0.2872  0.1390
 8993SOL    HW238442   1.459   0.875   1.579 -1.1886 -0.3244  0.9231
 8994SOL     OW38443   2.998   2.112   0.335 -0.1117 -0.2876 -0.2438
 8994SOL    HW138444   3.021   2.088   0.425 -2.2321 -2.4612 -0.2715
 8994SOL    HW238445   3.083   2.084   0.301 -0.8294 -1.2445 -1.2429
 8995SOL     OW38446   3.693   3.228   0.839 -0.7914 -0.3173  0.5868
 8995SOL    HW138447   3.651   3.205   0.757 -0.5514  1.7023 -0.1108
 8995SOL    HW238448   3.786   3.206   0.831 -0.8356 -0.6596  1.0084
 8996SOL     OW38449   3.775   3.049   3.274  0.6410 -0.2546 -0.0627
 8996SOL    HW138450   3.790   3.129   3.224 -2.1272 -0.5646 -1.4387
 8996SOL    HW238451   3.835   2.985   3.235  1.1854 -0.2264  0.7242
 8997SOL     OW38452   3.870   1.353  15.253  0.1747  0.5282 -0.3559
 8997SOL    HW138453   3.866   1.419  15.323 -1.7115  1.2812 -1.1866
 8997SOL    HW238454   3.963   1.341  15.235 -0.1714 -1.7719 -0.5639
 8998SOL     OW38455   0.760   3.212   1.975 -0.0501 -0.5547  0.8498
 8998SOL    HW138456   0.848   3.196   1.942 -0.7719  0.4687 -1.5883
 8998SOL    HW238457   0.776   3.232   2.067 -0.4854  2.1152  0.3556
 8999SOL     OW38458   0.312   3.310  12.750  0.0984 -0.7677 -0.5186
 8999SOL    HW138459   0.246   3.272  12.808 -0.6133  1.4585  0.1464
 8999SOL    HW238460   0.262   3.376  12.702  0.6590 -0.6527 -0.9399
 9000SOL     OW38461   2.027   1.713   2.921  0.0459 -0.0368  0.1845
 9000SOL    HW138462   2.102   1.745   2.871  1.0457 -0.9185  1.1028
 9000SOL    HW238463   1.985   1.647   2.865 -0.8226 -0.5266  1.4095
 9001SOL     OW38464   1.502   0.384  17.618 -0.1798 -0.1973  0.7787
 9001SOL    HW138465   1.466   0.376   0.016  0.3937  0.1177  1.0421
 9001SOL    HW238466   1.554   0.462  17.636 -0.4991  0.4776 -1.3202
 9002SOL     OW38467   4.146   2.575   3.204 -0.2959 -0.5230 -0.7469
 9002SOL    HW138468   4.164   2.542   3.116 -0.4886 -3.7022  0.3938
 9002SOL    HW238469   4.201   2.521   3.261 -0.1114  1.5312  1.0421
 9003SOL     OW38470   3.177   3.860  10.640 -0.1926 -0.1643 -0.1991
 9003SOL    HW138471   3.140   3.913  10.569 -0.6427 -1.7002 -1.1166
 9003SOL    HW238472   3.262   3.904  10.631  0.1681 -0.8887 -0.3947
 9004SOL     OW38473   2.981   0.087   0.126 -0.4380 -0.3076 -0.2052
 9004SOL    HW138474   3.002   0.172   0.164  3.7440 -0.9346 -1.1363
 9004SOL    HW238475   2.888   0.074   0.147 -0.4069  0.3550  0.3569
 9005SOL     OW38476   0.521   1.101   9.393  0.2654  0.3325 -0.9818
 9005SOL    HW138477   0.488   1.073   9.308  0.7152 -0.8870 -0.7589
 9005SOL    HW238478   0.615   1.116   9.382  0.3502  0.3707 -0.2454
 9006SOL     OW38479   2.642   4.627   4.779  0.2359 -0.2704  0.0057
 9006SOL    HW138480   2.656   4.570   4.854  0.1815 -0.8855 -0.4536
 9006SOL    HW238481   2.587   4.693   4.821 -1.1945 -1.3001 -0.2520
 9007SOL     OW38482   2.496   2.530  11.841  0.3310 -0.2564  0.2935
 9007SOL    HW138483   2.431   2.561  11.905  0.9329 -0.1846  0.8729
 9007SOL    HW238484   2.530   2.455  11.890  0.6687 -1.3305 -1.5643
 9008SOL     OW38485   3.823   1.699  11.463  0.7553  0.2754  0.1859
 9008SOL    HW138486   3.877   1.764  11.510  2.2829 -0.7030 -0.2220
 9008SOL    HW238487   3.829   1.625  11.524  1.1847  0.6038  0.5478
 9009SOL     OW38488   0.732   3.811   4.167  0.3096 -0.0239 -0.0529
 9009SOL    HW138489   0.748   3.800   4.260 -1.0701  2.8387  0.5284
 9009SOL    HW238490   0.648   3.766   4.164  0.0488  0.5494 -1.7775
 9010SOL     OW38491   1.222   0.005   2.119 -0.3776  0.2683  0.1356
 9010SOL    HW138492   1.207   4.655   2.058  3.5156  0.9358 -1.6449
 9010SOL    HW238493   1.258   4.678   2.194 -3.2798 -2.3209 -0.1622
 9011SOL     OW38494   3.823   0.843   3.004 -0.3115  0.0648 -0.3578
 9011SOL    HW138495   3.909   0.840   2.960 -0.4073 -1.2194 -0.4698
 9011SOL    HW238496   3.823   0.937   3.020 -0.0141 -0.1431  0.8470
 9012SOL     OW38497   4.159   2.366  17.345 -0.1337  0.4140 -0.1337
 9012SOL    HW138498   4.249   2.388  17.320  0.6719 -2.7367  0.0140
 9012SOL    HW238499   4.164   2.405  17.433 -3.0019 -0.4658  0.4032
 9013SOL     OW38500   1.379   1.961   2.593 -0.1970  0.4914 -0.6090
 9013SOL    HW138501   1.362   2.040   2.544  0.8209  0.3346 -1.2114
 9013SOL    HW238502   1.441   1.910   2.542  1.6313 -0.2366  2.3080
 9014SOL     OW38503   0.969   0.241   7.289  0.1648 -0.9222 -0.3149
 9014SOL    HW138504   0.880   0.270   7.267 -0.7557 -3.8277 -0.3531
 9014SOL    HW238505   0.974   0.167   7.228 -0.8916  2.1039 -4.0661
 9015SOL     OW38506   4.301   4.524   7.748  0.1869 -0.3203  0.4476
 9015SOL    HW138507   4.393   4.534   7.772  1.3112 -1.3142 -3.4653
 9015SOL    HW238508   4.262   4.611   7.759 -1.4889 -0.5229 -3.8732
 9016SOL     OW38509   4.707   1.345   6.842  0.4267  0.0094 -0.3045
 9016SOL    HW138510   4.649   1.280   6.882 -0.4856  0.8368 -0.2799
 9016SOL    HW238511   0.022   1.294   6.770  1.6060 -0.2776  0.5167
 9017SOL     OW38512   1.758   4.638  15.892  0.1788  0.3243  0.3061
 9017SOL    HW138513   1.792   0.004  15.873  0.0737 -0.0833 -1.6792
 9017SOL    HW238514   1.667   4.661  15.912 -0.2174 -2.0278  1.2230
 9018SOL     OW38515   3.402   3.295  12.207 -0.7754 -0.1696  0.2797
 9018SOL    HW138516   3.356   3.222  12.165  1.6584 -1.1865 -0.6282
 9018SOL    HW238517   3.375   3.291  12.299  0.5512  1.3336  0.7250
 9019SOL     OW38518   2.534   0.959   3.910 -0.2252  0.4949  0.3985
 9019SOL    HW138519   2.587   1.038   3.922  2.2397 -0.7612 -2.3918
 9019SOL    HW238520   2.449   0.992   3.939 -1.0259  0.3968 -1.8805
 9020SOL     OW38521   3.139   2.105   5.677 -0.1720 -0.4327 -0.4211
 9020SOL    HW138522   3.073   2.137   5.615 -0.2753 -0.6988 -0.4463
 9020SOL    HW238523   3.119   2.161   5.752  2.5942  0.3252 -0.2420
 9021SOL     OW38524   4.148   1.493  15.245 -0.1019 -0.0945  0.5550
 9021SOL    HW138525   4.131   1.465  15.154  0.4469  1.2962  0.0243
 9021SOL    HW238526   4.136   1.585  15.222 -0.0038 -0.8661 -2.5871
 9022SOL     OW38527   0.756   1.912   0.353 -0.3164  0.1525  0.2801
 9022SOL    HW138528   0.728   1.845   0.416  0.0771  0.0700  0.3673
 9022SOL    HW238529   0.686   1.976   0.364  0.4825  0.8783  1.1513
 9023SOL     OW38530   0.507   4.371  16.660 -0.1779  0.0916 -0.2120
 9023SOL    HW138531   0.412   4.367  16.665 -0.0462 -0.9650  1.4143
 9023SOL    HW238532   0.525   4.428  16.585  2.8994 -0.6851 -0.0667
 9024SOL     OW38533   4.575   3.467   4.421 -0.2816 -0.0729  0.2721
 9024SOL    HW138534   4.601   3.396   4.479  1.1298  0.5407  0.3826
 9024SOL    HW238535   4.566   3.545   4.477 -2.8469 -0.0965 -0.1141
 9025SOL     OW38536   2.293   0.960   2.131 -0.5052  0.4052 -0.2726
 9025SOL    HW138537   2.332   0.923   2.210 -0.2787 -1.4898 -1.2542
 9025SOL    HW238538   2.369   1.003   2.092 -1.7120  2.3794 -0.4239
 9026SOL     OW38539   1.391   4.544  12.578 -0.4905 -0.9037  0.0887
 9026SOL    HW138540   1.369   4.622  12.528 -1.1481 -1.7810 -0.9623
 9026SOL    HW238541   1.325   4.484  12.545 -0.5167  0.6158 -2.6418
 9027SOL     OW38542   3.043   3.642   3.178 -0.4683  0.5973 -0.4631
 9027SOL    HW138543   2.957   3.643   3.135 -0.9841 -0.1823  0.5514
 9027SOL    HW238544   3.098   3.658   3.101  1.2988  0.4966  0.7739
 9028SOL     OW38545   2.693   2.450   5.703 -0.3427 -0.7342 -0.7952
 9028SOL    HW138546   2.679   2.391   5.777  0.4616 -0.7420 -0.6526
 9028SOL    HW238547   2.662   2.389   5.635 -0.0867  0.6439 -2.1365
 9029SOL     OW38548   2.454   1.489   4.218 -0.1631  0.2269 -0.3291
 9029SOL    HW138549   2.521   1.442   4.169 -0.9395  0.1072 -1.2637
 9029SOL    HW238550   2.469   1.581   4.197 -0.2282 -0.1680 -2.0516
 9030SOL     OW38551   4.160   3.799   9.115 -0.0740 -0.0475 -0.6170
 9030SOL    HW138552   4.128   3.724   9.066  0.8869  0.7470 -2.4728
 9030SOL    HW238553   4.117   3.785   9.199 -1.4300  4.4300 -0.5194
 9031SOL     OW38554   2.926   3.536   3.665  0.0420  0.4414 -0.1398
 9031SOL    HW138555   2.971   3.542   3.580 -0.9712  1.3122 -0.6126
 9031SOL    HW238556   2.849   3.492   3.631  2.2407 -2.6269 -1.1139
 9032SOL     OW38557   3.451   3.951   4.095 -0.0786  0.1119 -0.6194
 9032SOL    HW138558   3.359   3.974   4.112 -0.0417 -0.4203  0.2822
 9032SOL    HW238559   3.496   4.033   4.075  2.5173 -1.1511  0.1415
 9033SOL     OW38560   3.790   0.979   1.760  0.2235 -0.2909  0.5074
 9033SOL    HW138561   3.879   0.951   1.737 -0.4520 -1.2573 -0.9368
 9033SOL    HW238562   3.735   0.910   1.724 -0.8458  0.8693 -0.1017
 9034SOL     OW38563   4.661   1.041  16.474  0.2726 -0.1785 -0.0821
 9034SOL    HW138564   4.694   1.130  16.460 -1.2605  0.0207 -2.3655
 9034SOL    HW238565   0.010   1.005  16.528  1.1486  0.6518 -0.6919
 9035SOL     OW38566   1.704   1.900   5.050  0.3713  0.2889  0.0955
 9035SOL    HW138567   1.791   1.903   5.011  1.6727  0.0633  3.0004
 9035SOL    HW238568   1.665   1.984   5.025 -1.7859 -0.4571  0.9478
 9036SOL     OW38569   3.244   1.938   4.392  0.3289 -0.3637 -0.5017
 9036SOL    HW138570   3.332   1.972   4.375  0.4655 -0.0478  0.8588
 9036SOL    HW238571   3.233   1.868   4.328  0.7925 -1.7013  0.9097
 9037SOL     OW38572   1.068   3.453   1.972 -0.1260  0.4060  0.9848
 9037SOL    HW138573   1.107   3.481   1.890 -0.9724  3.0480  1.4730
 9037SOL    HW238574   0.980   3.487   1.957 -0.3266  0.6715  2.6542
 9038SOL     OW38575   0.849   0.582  16.835  0.8882 -0.0126  0.0057
 9038SOL    HW138576   0.941   0.570  16.813  0.5601 -0.5016 -1.1059
 9038SOL    HW238577   0.841   0.676  16.823 -0.7550  0.1885  2.7919
 9039SOL     OW38578   0.664   1.514   4.237  0.0500  0.2996 -0.0518
 9039SOL    HW138579   0.746   1.493   4.283 -0.5155 -0.5229  0.5655
 9039SOL    HW238580   0.658   1.445   4.171  0.3178  0.4596 -0.2455
 9040SOL     OW38581   1.904   1.220  10.140  0.1253  0.0859 -0.0768
 9040SOL    HW138582   1.870   1.141  10.099 -0.1203  0.7551 -1.1666
 9040SOL    HW238583   1.995   1.195  10.152 -0.3253 -1.2203  0.5824
 9041SOL     OW38584   2.203   3.677   6.163  0.0626 -0.5320  0.5249
 9041SOL    HW138585   2.226   3.754   6.214  1.8561  0.0026 -1.1086
 9041SOL    HW238586   2.126   3.708   6.116  0.4838  0.0799  0.2404
 9042SOL     OW38587   4.018   2.928   1.877  0.5242  0.1524  0.0151
 9042SOL    HW138588   4.052   2.841   1.897  0.8297 -0.0113 -1.2142
 9042SOL    HW238589   3.922   2.930   1.885  0.3239 -3.1766 -1.5157
 9043SOL     OW38590   4.643   3.729   2.443 -0.0460  0.0922  0.1335
 9043SOL    HW138591   4.643   3.823   2.425  1.3102 -0.0044 -0.3771
 9043SOL    HW238592   4.707   3.715   2.513 -2.4279  0.5892  2.3851
 9044SOL     OW38593   4.669   4.583  17.036 -0.0038 -0.2693 -0.1245
 9044SOL    HW138594   4.706   4.664  17.070 -0.5508 -0.2431  0.4199
 9044SOL    HW238595   4.578   4.596  17.064 -0.1007  1.6167 -1.2902
 9045SOL     OW38596   4.293   3.361   1.644  0.7002 -0.2306 -0.2323
 9045SOL    HW138597   4.256   3.366   1.556 -0.8764 -2.1825  0.3102
 9045SOL    HW238598   4.328   3.450   1.641  0.8953 -0.2904  0.2962
 9046SOL     OW38599   0.470   3.953   1.816  0.0867 -0.5573  0.6087
 9046SOL    HW138600   0.386   3.996   1.833  0.4698  0.5968 -0.4106
 9046SOL    HW238601   0.452   3.870   1.859  2.9615 -1.6569 -0.3478
 9047SOL     OW38602   4.154   3.274   6.790 -0.3706  0.4804  0.5842
 9047SOL    HW138603   4.095   3.236   6.855  1.6301  1.9739  3.2192
 9047SOL    HW238604   4.206   3.343   6.831  0.9932  0.6061 -1.3634
 9048SOL     OW38605   4.405   3.001   4.076 -0.4872  0.4630 -0.7322
 9048SOL    HW138606   4.398   2.985   3.982  2.1887 -1.2330 -0.6235
 9048SOL    HW238607   4.414   3.096   4.068  0.3163  0.4768  0.2961
 9049SOL     OW38608   0.219   1.376   1.656  0.0897 -0.1986  0.2110
 9049SOL    HW138609   0.234   1.305   1.718 -1.4404  0.0292  0.8322
 9049SOL    HW238610   0.248   1.448   1.712  0.5948 -0.9351  0.8879
 9050SOL     OW38611   2.670   2.219  17.322  0.2385  0.2029 -0.1036
 9050SOL    HW138612   2.640   2.285  17.259 -2.5933  0.1278  1.1598
 9050SOL    HW238613   2.712   2.153  17.266 -0.9665 -1.1152  0.5377
 9051SOL     OW38614   2.698   1.442  13.317  0.7348  0.1813  0.1988
 9051SOL    HW138615   2.617   1.423  13.269  1.5648  0.5290 -1.3088
 9051SOL    HW238616   2.715   1.357  13.357  2.2780  0.0149 -0.8407
 9052SOL     OW38617   4.247   1.939   5.304 -0.0846  0.5144  0.3618
 9052SOL    HW138618   4.327   1.980   5.337 -1.0892  1.5573  1.5215
 9052SOL    HW238619   4.196   2.019   5.289 -0.0757  0.4896  0.2047
 9053SOL     OW38620   4.078   3.779   3.144  0.2834 -0.1561 -0.0292
 9053SOL    HW138621   4.162   3.745   3.117 -0.8562 -0.1862 -3.5369
 9053SOL    HW238622   4.023   3.767   3.066  1.6729 -2.7116 -0.5922
 9054SOL     OW38623   3.827   0.349   4.036  0.1284 -0.0246 -0.0637
 9054SOL    HW138624   3.891   0.333   3.967 -0.7060  2.4877 -1.4342
 9054SOL    HW238625   3.765   0.284   4.003  0.9081 -0.6610 -0.2763
 9055SOL     OW38626   4.361   0.183   9.420 -0.2657  0.1450 -1.0972
 9055SOL    HW138627   4.266   0.177   9.432 -0.0144 -1.4074  0.1775
 9055SOL    HW238628   4.400   0.150   9.501 -1.7621 -0.3853 -0.6027
 9056SOL     OW38629   3.835   0.746   6.765 -0.0217 -0.2986  0.2989
 9056SOL    HW138630   3.803   0.814   6.824 -1.0158  0.4583 -1.1191
 9056SOL    HW238631   3.814   0.779   6.678  0.9652  0.1139  0.2230
 9057SOL     OW38632   2.744   1.348   7.125  0.2947 -0.0055  0.2639
 9057SOL    HW138633   2.799   1.273   7.105 -1.4245 -1.1745 -0.0275
 9057SOL    HW238634   2.668   1.315   7.173 -1.0045  3.3063  0.4975
 9058SOL     OW38635   1.618   0.365   6.539  0.0692 -1.0171  0.6736
 9058SOL    HW138636   1.587   0.275   6.542 -0.9442 -0.6829  0.0720
 9058SOL    HW238637   1.636   0.378   6.632  0.3004  2.8966  0.0637
 9059SOL     OW38638   0.717   1.385   6.349 -0.4666  0.7289  0.0352
 9059SOL    HW138639   0.671   1.444   6.290 -4.1310 -1.5171  0.6030
 9059SOL    HW238640   0.719   1.310   6.290 -1.4027  0.8216 -0.1149
 9060SOL     OW38641   0.491   4.432   9.385  0.1523  0.4341  0.1862
 9060SOL    HW138642   0.441   4.493   9.332  1.2025 -0.1613 -1.4682
 9060SOL    HW238643   0.574   4.479   9.390  0.8377 -1.1085  3.5042
 9061SOL     OW38644   0.453   4.144   6.677 -0.0147 -0.0212  0.1622
 9061SOL    HW138645   0.447   4.074   6.612  1.7653 -0.5111  0.5135
 9061SOL    HW238646   0.380   4.196   6.643 -1.1580 -0.1163  2.5066
 9062SOL     OW38647   1.086   2.345  13.379  0.2391 -0.0274  0.1568
 9062SOL    HW138648   1.171   2.302  13.392  0.5210  0.1446 -1.0922
 9062SOL    HW238649   1.119   2.415  13.322 -1.3532  2.0121  1.7826
 9063SOL     OW38650   0.406   3.099   2.020  0.1638 -0.4138  0.1232
 9063SOL    HW138651   0.441   3.174   1.972  2.1487 -2.0064 -0.9046
 9063SOL    HW238652   0.313   3.120   2.009  0.4013 -0.1857 -1.5088
 9064SOL     OW38653   4.610   3.193  16.087 -0.5101  0.6182 -0.1492
 9064SOL    HW138654   4.695   3.220  16.120 -0.4736 -1.5410  1.5062
 9064SOL    HW238655   4.610   3.098  16.089 -0.9493  0.6943  3.2997
 9065SOL     OW38656   2.432   0.053   6.548 -0.0129  0.2074 -0.0365
 9065SOL    HW138657   2.387   0.109   6.485 -0.3064  0.3092  0.2644
 9065SOL    HW238658   2.517   0.036   6.508 -0.1823 -2.2274  0.6381
 9066SOL     OW38659   2.362   0.872  15.595 -0.2145 -0.4346 -0.9127
 9066SOL    HW138660   2.302   0.804  15.624  1.8293 -1.7190  0.3531
 9066SOL    HW238661   2.305   0.948  15.607 -0.8018 -1.2558  1.4512
 9067SOL     OW38662   1.190   2.936   3.708 -0.3423 -0.1607 -0.3285
 9067SOL    HW138663   1.119   2.994   3.736 -0.8422 -1.5998  1.4011
 9067SOL    HW238664   1.134   2.869   3.668 -0.4634 -2.5431  3.8445
 9068SOL     OW38665   0.061   3.096   1.707 -0.0601 -0.3077  0.2160
 9068SOL    HW138666   0.066   3.008   1.670 -3.3536 -0.6536  0.5608
 9068SOL    HW238667   0.002   3.138   1.643  1.6963  1.9673  0.0717
 9069SOL     OW38668   2.963   1.580  14.178 -0.3424 -0.0180 -0.2283
 9069SOL    HW138669   3.040   1.541  14.221 -1.1283  2.0659  3.0520
 9069SOL    HW238670   2.984   1.578  14.084  1.5865 -1.0619  0.2166
 9070SOL     OW38671   4.515   1.050  14.399  0.7150 -0.0585 -0.1595
 9070SOL    HW138672   4.444   1.048  14.335  0.3136 -2.0276  0.3595
 9070SOL    HW238673   4.465   1.060  14.479 -1.1841  1.0825 -1.4872
 9071SOL     OW38674   1.679   0.144   6.281 -0.3854  0.2318  0.4611
 9071SOL    HW138675   1.719   0.076   6.336  1.7478  1.1669  0.0831
 9071SOL    HW238676   1.723   0.143   6.196 -0.5114  0.3149  0.3950
 9072SOL     OW38677   0.785   3.325   6.699  0.0467 -0.2039 -0.2955
 9072SOL    HW138678   0.695   3.358   6.698 -0.3733 -1.3444 -0.7194
 9072SOL    HW238679   0.842   3.399   6.679  0.9477 -0.3197  1.8899
 9073SOL     OW38680   3.925   1.791   7.843  0.7146  0.0086 -0.1272
 9073SOL    HW138681   3.961   1.872   7.808  1.8067 -0.0164  0.9433
 9073SOL    HW238682   3.837   1.828   7.849  1.9226  2.7909  0.1891
 9074SOL     OW38683   1.139   1.121   6.167 -0.5790  0.1108 -0.4565
 9074SOL    HW138684   1.078   1.047   6.164 -0.9116  0.3871 -0.5540
 9074SOL    HW238685   1.220   1.080   6.138  0.4995  1.5719  0.4836
 9075SOL     OW38686   0.215   1.979   4.978 -0.1116  0.1367 -0.1409
 9075SOL    HW138687   0.141   1.958   5.035 -0.2161  1.5479  0.2392
 9075SOL    HW238688   0.183   2.057   4.931 -0.5417  0.0964  0.0834
 9076SOL     OW38689   3.304   0.440   1.155 -0.2997  0.0511 -0.1991
 9076SOL    HW138690   3.242   0.367   1.156 -2.0261  1.5376 -0.4946
 9076SOL    HW238691   3.337   0.430   1.065  1.9733  0.6200  0.5748
 9077SOL     OW38692   0.379   4.324   2.429  0.5548  0.1685  0.3399
 9077SOL    HW138693   0.298   4.320   2.378 -0.6269 -1.7006  2.3737
 9077SOL    HW238694   0.348   4.287   2.512  0.0409 -2.3096 -0.9549
 9078SOL     OW38695   0.980   0.048  11.126  0.1274  0.0106  0.1079
 9078SOL    HW138696   0.987   0.135  11.167  0.9665  0.0381 -0.1001
 9078SOL    HW238697   1.058   0.054  11.070  1.4731  0.0196  1.9936
 9079SOL     OW38698   4.217   3.613   6.690 -0.3251 -0.0742 -0.6400
 9079SOL    HW138699   4.219   3.578   6.779 -0.0832  0.5078 -0.4188
 9079SOL    HW238700   4.190   3.541   6.632  0.0644 -0.2182 -0.6494
 9080SOL     OW38701   0.370   4.703   8.871 -0.0415  0.0347 -0.0147
 9080SOL    HW138702   0.359   4.708   8.966 -0.7530  1.6955 -0.1829
 9080SOL    HW238703   0.417   4.620   8.865 -0.6552 -0.2139 -1.5235
 9081SOL     OW38704   3.816   1.737   2.962  0.7175  0.0312 -0.2451
 9081SOL    HW138705   3.860   1.780   2.889  0.4931  1.1874  0.2976
 9081SOL    HW238706   3.813   1.802   3.032 -1.1530 -0.4317  0.1252
 9082SOL     OW38707   4.315   4.391   6.723  0.2549 -0.4002  0.2023
 9082SOL    HW138708   4.371   4.321   6.689 -0.4146 -0.1935 -1.3030
 9082SOL    HW238709   4.370   4.468   6.732  0.4516 -0.2518 -2.3356
 9083SOL     OW38710   1.232   0.584   5.118  0.0832  0.2220  0.4420
 9083SOL    HW138711   1.283   0.665   5.119  1.9066 -0.9235 -0.5976
 9083SOL    HW238712   1.292   0.530   5.168 -2.1141 -4.2440 -1.8039
 9084SOL     OW38713   3.459   1.047   8.977  0.1911  0.3582 -0.2011
 9084SOL    HW138714   3.538   1.101   8.975 -0.1767  0.8665 -1.6212
 9084SOL    HW238715   3.447   1.037   9.071  2.4145 -0.3544 -0.0014
 9085SOL     OW38716   4.276   0.466  10.794  0.2549  0.2221 -0.3946
 9085SOL    HW138717   4.254   0.496  10.882 -0.0138  0.7550 -0.6418
 9085SOL    HW238718   4.284   0.548  10.744 -0.6359  0.1277 -0.6866
 9086SOL     OW38719   2.693   2.328   9.937 -0.1314 -0.1436  0.2544
 9086SOL    HW138720   2.717   2.339   9.845  0.3770 -2.1667  0.1571
 9086SOL    HW238721   2.776   2.313   9.982  0.3522 -2.7874 -1.5312
 9087SOL     OW38722   4.171   2.972   6.068  0.2174 -0.1487  0.2339
 9087SOL    HW138723   4.076   2.980   6.061  0.3108  2.8411  2.4706
 9087SOL    HW238724   4.174   2.935   6.156 -0.9777 -1.5353 -0.2995
 9088SOL     OW38725   3.102   0.942   6.427  0.0681  0.1897  0.0233
 9088SOL    HW138726   3.039   1.015   6.427 -0.1253  0.0425 -2.8618
 9088SOL    HW238727   3.065   0.888   6.497  0.3615 -2.4882 -1.8879
 9089SOL     OW38728   1.988   4.692   4.333 -0.0420  0.5537  0.5149
 9089SOL    HW138729   1.943   0.010   4.408  1.7371  2.3007  0.6656
 9089SOL    HW238730   1.957   0.036   4.272  0.6348 -0.3300 -0.7740
 9090SOL     OW38731   1.165   1.312   1.584 -0.1368  0.0371  0.1957
 9090SOL    HW138732   1.257   1.338   1.586 -0.3560  0.8660 -0.3134
 9090SOL    HW238733   1.160   1.217   1.599  2.1546 -0.4288 -1.9228
 9091SOL     OW38734   2.195   1.236  17.039 -0.5946 -0.0631 -0.2284
 9091SOL    HW138735   2.263   1.286  17.084  0.3752 -2.0583  0.5184
 9091SOL    HW238736   2.246   1.171  16.990  0.1456  0.9694 -0.8423
 9092SOL     OW38737   1.780   0.689   3.123  0.2676  0.2361 -0.3586
 9092SOL    HW138738   1.838   0.631   3.173  0.9881 -0.6125 -2.1783
 9092SOL    HW238739   1.811   0.706   3.034 -0.4764 -3.5315 -1.3349
 9093SOL     OW38740   0.133   1.056   9.754  0.1359  0.2152  0.3441
 9093SOL    HW138741   0.181   1.078   9.675 -2.2620  0.3426 -1.0694
 9093SOL    HW238742   0.123   1.140   9.799 -0.9444  0.2213  0.0840
 9094SOL     OW38743   2.420   4.389   0.991 -0.0452  0.2056  0.1664
 9094SOL    HW138744   2.506   4.355   1.016 -1.0619 -1.0142  1.9988
 9094SOL    HW238745   2.364   4.314   1.007  1.2723 -0.7873  0.1573
 9095SOL     OW38746   2.370   1.505   7.706 -0.3639  0.2557 -0.1590
 9095SOL    HW138747   2.300   1.525   7.769  2.1459  2.0067  2.0652
 9095SOL    HW238748   2.452   1.511   7.754  0.1300  4.1385 -1.4668
 9096SOL     OW38749   4.406   0.840   7.291 -0.0015  0.3056  0.1482
 9096SOL    HW138750   4.419   0.903   7.363 -0.5094  0.1805  0.3520
 9096SOL    HW238751   4.451   0.894   7.226  0.0722  0.9994  0.7721
 9097SOL     OW38752   4.470   1.009   7.503 -0.0599 -0.8707 -0.1726
 9097SOL    HW138753   4.537   1.074   7.484 -1.1669 -0.1545 -1.6220
 9097SOL    HW238754   4.495   0.991   7.594  2.7074 -1.9532 -1.1641
 9098SOL     OW38755   0.681   0.356   8.181  0.1188  0.2408 -0.3411
 9098SOL    HW138756   0.761   0.381   8.228 -1.0956  0.4502  1.6227
 9098SOL    HW238757   0.696   0.262   8.172 -0.2270 -0.1262  2.6938
 9099SOL     OW38758   3.778   0.431  14.616 -0.0735 -0.6875  0.0414
 9099SOL    HW138759   3.750   0.400  14.702  0.9131  0.3123  0.7241
 9099SOL    HW238760   3.868   0.444  14.647  1.0545 -2.9512 -2.2383
 9100SOL     OW38761   4.364   3.497  10.051  0.2816  0.2821 -0.0282
 9100SOL    HW138762   4.458   3.505  10.060  0.0141  0.4607  2.4196
 9100SOL    HW238763   4.355   3.434  10.122  1.1673  2.0344  1.6247
 9101SOL     OW38764   4.025   1.130   8.220  0.3180 -0.5564  0.2194
 9101SOL    HW138765   3.942   1.139   8.173  0.0210 -2.0994  0.4219
 9101SOL    HW238766   4.053   1.220   8.237 -2.5257  0.5081 -0.7221
 9102SOL     OW38767   0.177   3.422  10.145 -0.5754 -0.1837 -0.1372
 9102SOL    HW138768   0.189   3.330  10.123  0.9841 -0.5124  2.0800
 9102SOL    HW238769   0.264   3.445  10.112 -0.3511  0.2409  0.7372
 9103SOL     OW38770   3.842   3.776   9.237 -0.1711 -0.5690 -0.3771
 9103SOL    HW138771   3.835   3.682   9.221  1.5032 -0.8668  0.6445
 9103SOL    HW238772   3.775   3.813   9.180  0.4673 -2.7148 -2.5251
 9104SOL     OW38773   1.995   1.398  16.712 -0.0344 -0.0737 -0.2626
 9104SOL    HW138774   1.922   1.455  16.687  0.2393 -0.5862 -2.2593
 9104SOL    HW238775   2.076   1.448  16.722  0.5434 -0.7672 -1.5130
 9105SOL     OW38776   4.634   2.528  16.016 -0.4989  0.5827 -0.1110
 9105SOL    HW138777   4.651   2.623  16.015  0.8564  0.3590  3.1905
 9105SOL    HW238778   4.556   2.524  16.070 -0.0721  0.9301  0.5282
 9106SOL     OW38779   0.627   1.951   3.841 -0.1936 -0.7751  0.4695
 9106SOL    HW138780   0.538   1.917   3.853 -0.2116 -0.6293  0.7594
 9106SOL    HW238781   0.646   1.899   3.763 -0.3952 -0.0454 -0.0782
 9107SOL     OW38782   0.089   2.280  15.787 -0.4956 -0.0490 -0.4570
 9107SOL    HW138783   4.717   2.292  15.774 -0.1834  1.0506 -1.7127
 9107SOL    HW238784   0.098   2.336  15.864 -1.2142 -0.3369 -0.1606
 9108SOL     OW38785   1.093   1.047  17.398  0.2419  0.0693 -1.0945
 9108SOL    HW138786   1.142   1.096  17.332  0.6401  1.5314  0.2789
 9108SOL    HW238787   1.135   0.961  17.404  0.6165  0.2835 -0.6159
 9109SOL     OW38788   0.629   1.693   1.822 -0.9581 -0.2190 -0.8076
 9109SOL    HW138789   0.720   1.723   1.819 -0.6562 -1.1128 -0.6212
 9109SOL    HW238790   0.610   1.729   1.909  1.2997 -0.3305 -0.2709
 9110SOL     OW38791   3.543   0.906   2.907  0.2240 -0.1931  0.0889
 9110SOL    HW138792   3.548   0.995   2.873  2.8968 -0.0079  1.0187
 9110SOL    HW238793   3.481   0.927   2.978  1.1754  0.5296  0.7088
 9111SOL     OW38794   0.512   1.624  10.968 -0.6636  0.1396 -0.1853
 9111SOL    HW138795   0.488   1.619  10.876  0.1669  1.7977 -0.4847
 9111SOL    HW238796   0.430   1.652  11.010 -1.6939  1.2472 -2.9683
 9112SOL     OW38797   0.609   2.260   2.006 -0.2648  0.0080  0.3141
 9112SOL    HW138798   0.534   2.201   1.992 -0.6454  0.4596  0.4690
 9112SOL    HW238799   0.590   2.330   1.944  0.8582 -0.4011 -0.4835
 9113SOL     OW38800   2.166   0.502   8.568  0.0281  0.4026 -0.0189
 9113SOL    HW138801   2.174   0.512   8.663 -2.0539 -1.7728  0.3958
 9113SOL    HW238802   2.077   0.536   8.559  0.2786  0.6402 -1.5733
 9114SOL     OW38803   4.001   4.365   1.101  0.0446 -0.3260  0.0991
 9114SOL    HW138804   3.927   4.355   1.161 -0.0342 -1.7431 -0.2200
 9114SOL    HW238805   3.951   4.414   1.036 -2.4445 -0.1507  2.1182
 9115SOL     OW38806   1.140   4.516   5.201  0.3599  0.0667  0.2440
 9115SOL    HW138807   1.132   4.421   5.211 -1.0607  0.3537  1.8302
 9115SOL    HW238808   1.179   4.550   5.281  0.3525  0.1041  0.2320
 9116SOL     OW38809   2.898   3.562   5.810  0.1785  0.2500 -0.8098
 9116SOL    HW138810   2.879   3.642   5.859  1.8525  0.5910 -0.7176
 9116SOL    HW238811   2.965   3.530   5.870  0.5595  0.0635 -1.3295
 9117SOL     OW38812   4.140   0.738   3.822 -0.1824 -0.2420 -0.0910
 9117SOL    HW138813   4.060   0.790   3.831  0.0634 -0.4660  3.5587
 9117SOL    HW238814   4.193   0.758   3.899 -0.6367 -0.8750  0.3880
 9118SOL     OW38815   1.309   1.094  17.226  0.5787  0.0047  0.9920
 9118SOL    HW138816   1.366   1.164  17.194 -0.4469  0.0047 -0.8198
 9118SOL    HW238817   1.353   1.012  17.204 -0.3424 -0.4090  0.7073
 9119SOL     OW38818   2.006   3.095   5.892 -0.1727  0.4693  0.3077
 9119SOL    HW138819   1.916   3.069   5.873  0.0297  1.1827 -1.6315
 9119SOL    HW238820   2.003   3.191   5.886  1.8321  0.5137  0.0233
 9120SOL     OW38821   4.657   0.229   4.133 -0.4825 -0.6606 -0.9406
 9120SOL    HW138822   4.692   0.317   4.146 -2.4353 -0.2068  1.3898
 9120SOL    HW238823   4.650   0.233   4.038 -0.5994  0.1528 -0.8999
 9121SOL     OW38824   2.856   2.790   2.511  0.1216  0.4422  0.3857
 9121SOL    HW138825   2.812   2.709   2.484 -0.8963  0.9888  0.4143
 9121SOL    HW238826   2.838   2.846   2.435 -0.3696 -0.1843  0.0363
 9122SOL     OW38827   4.165   2.679   1.974 -0.1620 -0.1287 -0.0975
 9122SOL    HW138828   4.210   2.597   1.956 -1.9983 -1.1965  0.1798
 9122SOL    HW238829   4.218   2.708   2.048  2.6406 -2.2429 -1.2455
 9123SOL     OW38830   2.085   2.803   7.133  0.0240  0.3751 -0.2954
 9123SOL    HW138831   2.131   2.786   7.050  0.8482 -1.7723  0.6084
 9123SOL    HW238832   1.999   2.767   7.111 -0.1924  0.6231  0.1501
 9124SOL     OW38833   4.030   2.031   7.793 -0.0529 -0.6748  0.3484
 9124SOL    HW138834   4.058   2.028   7.885  1.0558  1.3136  0.0797
 9124SOL    HW238835   4.113   2.055   7.750  0.5671 -0.9072  1.4026
 9125SOL     OW38836   0.223   2.716   6.237 -0.2618 -0.2561 -0.1645
 9125SOL    HW138837   0.220   2.779   6.164  0.9789  0.0449  0.0540
 9125SOL    HW238838   0.306   2.748   6.272  0.7157 -2.8321 -0.1551
 9126SOL     OW38839   3.541   1.863   6.978  0.8344  0.3540 -0.0649
 9126SOL    HW138840   3.555   1.947   7.020  2.0770  0.1315 -0.0378
 9126SOL    HW238841   3.519   1.806   7.051  1.9379 -0.4196 -0.3384
 9127SOL     OW38842   0.503   0.889   4.691 -0.7844 -0.2075 -0.1164
 9127SOL    HW138843   0.450   0.969   4.694 -0.9708 -0.3365 -0.0031
 9127SOL    HW238844   0.593   0.922   4.678 -0.8655  0.2902  0.5364
 9128SOL     OW38845   3.411   2.376   5.797 -0.0230  0.1560  0.3334
 9128SOL    HW138846   3.466   2.450   5.772 -1.3998  1.5325  1.3793
 9128SOL    HW238847   3.331   2.424   5.818  0.2775 -0.8950  3.8762
 9129SOL     OW38848   4.404   2.145   6.483 -0.1818  0.4021 -0.1061
 9129SOL    HW138849   4.452   2.071   6.520 -1.9043  0.8692  3.0647
 9129SOL    HW238850   4.469   2.173   6.419  0.4885  1.0894  0.8762
 9130SOL     OW38851   1.343   0.403   4.315  0.0247 -0.0356 -0.2820
 9130SOL    HW138852   1.287   0.451   4.376  0.5100 -0.6119  0.6104
 9130SOL    HW238853   1.282   0.334   4.291  0.7397 -0.2078 -1.6214
 9131SOL     OW38854   0.718   1.306   6.629  0.0697  0.3351 -0.3407
 9131SOL    HW138855   0.702   1.341   6.541  1.4178  0.6884 -0.4474
 9131SOL    HW238856   0.804   1.263   6.623 -1.4545 -2.7096 -0.3147
 9132SOL     OW38857   2.660   0.870   0.363 -0.3875 -0.5379 -0.4652
 9132SOL    HW138858   2.577   0.899   0.399 -0.7701 -0.8740 -1.0804
 9132SOL    HW238859   2.662   0.786   0.408  0.4598  0.5773  1.5765
 9133SOL     OW38860   0.965   3.916  13.407  0.0602  0.3363 -0.6295
 9133SOL    HW138861   1.002   4.005  13.413 -0.4825  0.3459  2.7269
 9133SOL    HW238862   1.023   3.882  13.339  1.1032 -0.1914  0.5189
 9134SOL     OW38863   4.713   4.247   3.440  0.3976  0.4173  0.1227
 9134SOL    HW138864   0.073   4.225   3.396 -0.8008  1.4430 -2.5841
 9134SOL    HW238865   4.695   4.333   3.404 -0.1458  0.5699  0.7727
 9135SOL     OW38866   0.672   3.664  14.254 -0.3055  0.4636  0.0519
 9135SOL    HW138867   0.737   3.727  14.283  1.7797 -1.1746 -1.0195
 9135SOL    HW238868   0.720   3.627  14.180 -0.2351 -0.3400  0.4992
 9136SOL     OW38869   1.911   3.894  12.377  0.0909 -0.2644  1.0625
 9136SOL    HW138870   1.984   3.904  12.438 -0.4116  0.5799  1.5271
 9136SOL    HW238871   1.931   3.970  12.322  0.7075 -1.1645  0.0356
 9137SOL     OW38872   2.554   1.362  17.427 -0.4914  0.1001  0.4822
 9137SOL    HW138873   2.578   1.279  17.467  0.6686 -0.1216 -0.6949
 9137SOL    HW238874   2.545   1.417  17.505  0.3059  0.9869 -0.0557
 9138SOL     OW38875   3.106   1.831   8.904 -0.2680  0.0654 -0.6561
 9138SOL    HW138876   3.025   1.848   8.856 -0.7320 -1.1298 -0.2899
 9138SOL    HW238877   3.126   1.924   8.897  1.6345 -0.3413 -0.7722
 9139SOL     OW38878   4.698   0.232  11.368  0.2683  0.2716  0.7420
 9139SOL    HW138879   4.709   0.143  11.332 -0.9053  0.8746 -1.1277
 9139SOL    HW238880   4.685   0.201  11.457 -2.0628  0.7868  0.5627
 9140SOL     OW38881   1.298   3.049   6.424 -0.2655  0.0615  0.2078
 9140SOL    HW138882   1.210   3.028   6.455 -0.8687  0.6614 -1.0800
 9140SOL    HW238883   1.295   3.141   6.397  1.8865  0.8800  2.7678
 9141SOL     OW38884   2.558   4.494   5.024 -0.3079 -0.0343 -0.1487
 9141SOL    HW138885   2.467   4.520   5.008 -0.8404 -2.2049 -0.5738
 9141SOL    HW238886   2.561   4.400   5.006 -1.9524 -0.7660  3.3246
 9142SOL     OW38887   4.372   0.721   6.043 -0.3680  0.2439 -0.4168
 9142SOL    HW138888   4.421   0.691   5.966 -2.0954 -0.3084 -1.2816
 9142SOL    HW238889   4.447   0.727   6.103 -0.6194  0.2430 -0.0987
 9143SOL     OW38890   2.602   2.933  10.752 -0.1116 -0.0366  0.3877
 9143SOL    HW138891   2.591   2.838  10.755  0.1424 -0.0988 -0.4315
 9143SOL    HW238892   2.522   2.964  10.794 -0.5399 -0.9013  0.2094
 9144SOL     OW38893   0.871   3.082   9.468  0.0893  0.0152 -0.2547
 9144SOL    HW138894   0.796   3.055   9.414 -1.2799  0.6226  1.3388
 9144SOL    HW238895   0.842   3.032   9.544 -0.0409  0.0323 -0.2927
 9145SOL     OW38896   0.023   3.183   5.454 -0.3514 -0.0040 -0.2042
 9145SOL    HW138897   0.094   3.195   5.390 -0.6321 -0.7700 -0.6570
 9145SOL    HW238898   0.030   3.087   5.458 -0.5498 -0.0784 -1.3979
 9146SOL     OW38899   1.635   2.926  12.828  0.2218  0.7329  0.3683
 9146SOL    HW138900   1.720   2.884  12.839  0.4061  0.5084 -2.1206
 9146SOL    HW238901   1.582   2.867  12.774 -0.3148  2.2850 -0.7721
 9147SOL     OW38902   4.036   4.375   8.136  0.6909  0.0259  0.2428
 9147SOL    HW138903   3.943   4.357   8.149  0.4611  0.2803 -0.9987
 9147SOL    HW238904   4.038   4.460   8.180  0.3618  0.1343  0.0562
 9148SOL     OW38905   2.546   1.160   8.643 -0.4958 -0.1435  0.0916
 9148SOL    HW138906   2.559   1.091   8.708 -1.2795 -0.7144 -0.3498
 9148SOL    HW238907   2.615   1.146   8.579  0.1932  1.5226  0.4669
 9149SOL     OW38908   0.142   1.978   1.894 -0.3432  0.1411 -0.0689
 9149SOL    HW138909   0.215   2.029   1.930 -0.4427  0.9476 -0.9988
 9149SOL    HW238910   0.176   1.934   1.815  3.3031  2.3260  0.2636
 9150SOL     OW38911   2.000   0.088   5.926 -0.4357  0.2583 -0.8305
 9150SOL    HW138912   2.075   0.132   5.966  0.5822 -0.8030 -1.5590
 9150SOL    HW238913   2.021   0.087   5.832  0.1644  1.2568 -0.7041
 9151SOL     OW38914   1.772   3.012   7.485  0.2899  0.1047  0.3732
 9151SOL    HW138915   1.820   3.094   7.496 -1.2800  1.1308 -0.3353
 9151SOL    HW238916   1.798   2.957   7.559  1.8043 -2.3380 -1.9605
 9152SOL     OW38917   2.655   0.201   3.509 -0.3749 -0.2788  0.5348
 9152SOL    HW138918   2.617   0.198   3.597  0.6751 -2.0280  0.9543
 9152SOL    HW238919   2.683   0.109   3.499  0.6865 -0.1137  1.8714
 9153SOL     OW38920   0.226   2.512  15.940  0.3311  0.2456  0.0026
 9153SOL    HW138921   0.241   2.474  16.027 -1.0551  1.0652  0.6029
 9153SOL    HW238922   0.153   2.570  15.965  0.9483  1.1794 -0.3588
 9154SOL     OW38923   4.109   4.323   4.289  0.0179 -0.1844  0.2308
 9154SOL    HW138924   4.156   4.269   4.225 -1.4173  0.2176 -1.1572
 9154SOL    HW238925   4.144   4.410   4.274  0.2530 -0.3934 -0.4488
 9155SOL     OW38926   0.581   1.236   7.456 -0.2454  0.7351  0.7845
 9155SOL    HW138927   0.543   1.208   7.373  0.5007  0.8869  0.3926
 9155SOL    HW238928   0.502   1.257   7.506 -1.3290  0.5672 -0.8663
 9156SOL     OW38929   0.353   3.171   6.813 -0.4678  0.1720 -0.5473
 9156SOL    HW138930   0.372   3.172   6.719  1.7569 -0.1912 -0.1149
 9156SOL    HW238931   0.304   3.090   6.828 -0.1522  0.2239  0.7990
 9157SOL     OW38932   0.003   4.347   7.281  0.1093 -0.3729 -0.1960
 9157SOL    HW138933   4.651   4.336   7.341 -0.0168  0.1890 -0.2434
 9157SOL    HW238934   0.075   4.324   7.339  2.4700 -0.5250 -3.2456
 9158SOL     OW38935   1.401   4.411  14.261  0.1009 -0.2343 -0.0690
 9158SOL    HW138936   1.436   4.494  14.228 -1.8174  0.0088 -1.5226
 9158SOL    HW238937   1.409   4.432  14.354 -0.0228  2.2917 -0.6305
 9159SOL     OW38938   0.083   2.803  11.804  0.3076  0.0537 -0.0193
 9159SOL    HW138939   0.084   2.836  11.714  2.3570  0.5655  0.1841
 9159SOL    HW238940   0.176   2.805  11.828  1.1502  0.3109 -3.2973
 9160SOL     OW38941   2.121   4.365  12.614  0.5768  0.0474 -0.6343
 9160SOL    HW138942   2.094   4.299  12.678  2.1262 -1.3190 -1.3539
 9160SOL    HW238943   2.094   4.448  12.653  0.4464 -1.0373  1.5800
 9161SOL     OW38944   4.284   3.328  10.241 -0.5784  0.0434  0.0412
 9161SOL    HW138945   4.206   3.340  10.295 -0.1095 -0.6077  0.8607
 9161SOL    HW238946   4.303   3.235  10.254 -2.2236 -0.5843 -1.9970
 9162SOL     OW38947   2.815   4.382   7.020  0.6758 -0.0812  0.4206
 9162SOL    HW138948   2.782   4.301   7.059  0.0414  0.3672  0.8212
 9162SOL    HW238949   2.786   4.364   6.930 -2.2425  0.0051  1.3582
 9163SOL     OW38950   3.840   4.373   0.201  0.4933 -0.0604  0.1192
 9163SOL    HW138951   3.900   4.413   0.138  0.7585  2.2206  1.8093
 9163SOL    HW238952   3.913   4.352   0.261  0.3247  2.1123  1.0743
 9164SOL     OW38953   4.208   2.251   8.180 -0.1343  0.3773  0.0388
 9164SOL    HW138954   4.244   2.165   8.160 -1.7399 -0.8608  2.3947
 9164SOL    HW238955   4.280   2.306   8.211 -0.5183  0.9549 -0.1150
 9165SOL     OW38956   0.884   1.441   4.434 -0.2198  0.0204  0.1948
 9165SOL    HW138957   0.972   1.475   4.416 -0.0177  0.6992  2.3914
 9165SOL    HW238958   0.883   1.351   4.401 -2.8524 -0.9647  2.9068
 9166SOL     OW38959   3.995   3.493   7.551 -0.2379  0.8638 -0.0192
 9166SOL    HW138960   4.074   3.545   7.540  2.3252 -2.5334  2.1069
 9166SOL    HW238961   4.028   3.442   7.625  0.5489  0.9277 -0.3230
 9167SOL     OW38962   1.565   1.704   3.981  0.0988 -0.5827  0.0548
 9167SOL    HW138963   1.486   1.738   4.023 -0.8333  0.6060 -2.6899
 9167SOL    HW238964   1.632   1.773   3.976 -1.5099  0.8694 -1.3128
 9168SOL     OW38965   0.525   2.546   8.473  0.1292  0.2309  0.5840
 9168SOL    HW138966   0.497   2.508   8.390  1.7400  0.2411  0.0362
 9168SOL    HW238967   0.453   2.604   8.498 -0.1701  0.1488 -0.0958
 9169SOL     OW38968   1.011   2.298   5.466 -0.3677 -0.4184 -0.3924
 9169SOL    HW138969   0.960   2.282   5.387 -1.8836  0.7988  0.3453
 9169SOL    HW238970   0.945   2.322   5.532 -0.5610  1.8536 -1.4162
 9170SOL     OW38971   0.733   0.765   5.037  0.0714  0.3464  0.8147
 9170SOL    HW138972   0.640   0.776   5.059 -0.2239 -1.8863  0.7406
 9170SOL    HW238973   0.751   0.858   5.024 -2.1435  0.4250 -1.7010
 9171SOL     OW38974   2.212   3.205  16.012 -0.2815  0.0879  0.1973
 9171SOL    HW138975   2.254   3.119  16.024 -0.6503 -0.5432 -3.1166
 9171SOL    HW238976   2.277   3.260  16.055 -0.6421 -1.3659  2.6395
 9172SOL     OW38977   2.189   3.649   8.316 -0.1207  0.0213  0.0340
 9172SOL    HW138978   2.249   3.715   8.281  0.4128 -0.1334  0.6285
 9172SOL    HW238979   2.148   3.693   8.390  0.4974 -1.2861  1.1633
 9173SOL     OW38980   0.822   2.390  13.508  0.6356 -0.2051 -0.4731
 9173SOL    HW138981   0.883   2.387  13.434  0.8746  0.1694 -0.2872
 9173SOL    HW238982   0.821   2.484  13.522 -1.0591 -0.1280 -1.1120
 9174SOL     OW38983   1.538   1.136   5.956  0.0952  0.0203  0.3120
 9174SOL    HW138984   1.526   1.094   6.041 -0.4073  0.0134  0.2403
 9174SOL    HW238985   1.502   1.070   5.897  1.3651 -1.3680  1.0992
 9175SOL     OW38986   2.015   0.101   2.257 -0.1981  0.2011 -0.4043
 9175SOL    HW138987   2.009   0.179   2.202 -0.6928 -0.1831 -0.8883
 9175SOL    HW238988   2.097   0.122   2.303 -0.9041  1.9410  0.0758
 9176SOL     OW38989   1.642   1.469   5.076  0.4663  0.2394  0.3273
 9176SOL    HW138990   1.714   1.454   5.137 -0.0063 -0.0865  0.7985
 9176SOL    HW238991   1.673   1.405   5.012 -0.8895  0.2859 -0.3746
 9177SOL     OW38992   1.441   3.421  11.775 -0.2102 -0.4978 -0.5024
 9177SOL    HW138993   1.377   3.385  11.836  0.1778  0.2365  0.3365
 9177SOL    HW238994   1.497   3.471  11.834 -1.2093 -0.9212  0.7993
 9178SOL     OW38995   0.302   2.034   7.841 -0.6488 -0.3534 -0.4758
 9178SOL    HW138996   0.371   2.084   7.884 -1.4337 -0.4383  0.8724
 9178SOL    HW238997   0.273   1.987   7.919  2.3709  1.0379  1.4857
 9179SOL     OW38998   2.790   4.688   3.345  0.1534 -0.3453 -0.4414
 9179SOL    HW138999   2.759   0.002   3.262  0.0995  1.6614  0.4410
 9179SOL    HW239000   2.872   4.646   3.322  0.5588  0.8417 -1.1729
 9180SOL     OW39001   1.485   4.441   7.186 -0.1470 -0.1443  0.1206
 9180SOL    HW139002   1.516   4.378   7.251  1.7524  0.7959  0.1480
 9180SOL    HW239003   1.397   4.408   7.166 -1.5641  2.1302  2.7164
 9181SOL     OW39004   1.613   1.400   8.975  0.0058  0.0565  0.0406
 9181SOL    HW139005   1.527   1.435   8.996 -0.5273 -1.8287  0.9829
 9181SOL    HW239006   1.624   1.342   9.051  0.9018 -1.3570 -1.1554
 9182SOL     OW39007   0.664   4.119  14.792 -0.7660 -0.0165  0.0514
 9182SOL    HW139008   0.707   4.176  14.728 -0.3010 -0.3649  0.0465
 9182SOL    HW239009   0.660   4.184  14.862  1.8594  1.1328 -0.8537
 9183SOL     OW39010   3.804   2.558   7.516 -0.2932 -0.2577  0.5121
 9183SOL    HW139011   3.820   2.549   7.422  0.7141  0.6107  0.6095
 9183SOL    HW239012   3.791   2.465   7.531 -0.2323 -0.6104 -1.6387
 9184SOL     OW39013   3.275   3.170  16.427  0.5283 -0.3891 -0.2748
 9184SOL    HW139014   3.354   3.147  16.376 -0.4557  0.8955 -2.3771
 9184SOL    HW239015   3.217   3.203  16.359 -1.0770 -1.0056  0.8051
 9185SOL     OW39016   0.672   0.764   2.239  0.2863  0.6946  0.0116
 9185SOL    HW139017   0.739   0.699   2.216  1.5850  0.1923  5.1045
 9185SOL    HW239018   0.642   0.777   2.149 -0.0723 -1.9638 -0.2755
 9186SOL     OW39019   3.798   1.719   2.531 -0.1901  0.3022  0.0231
 9186SOL    HW139020   3.800   1.749   2.440 -1.4468  1.4876  0.3901
 9186SOL    HW239021   3.731   1.652   2.541  0.5921 -0.5104 -0.2147
 9187SOL     OW39022   4.589   1.429   5.020  0.1492 -0.0057  0.4154
 9187SOL    HW139023   4.521   1.480   4.977 -0.5407 -1.5290 -0.3165
 9187SOL    HW239024   4.598   1.358   4.956  2.0864  1.2365 -0.6921
 9188SOL     OW39025   0.300   3.160   9.635 -0.4050  0.3041 -1.0356
 9188SOL    HW139026   0.301   3.066   9.653 -1.0987  0.6828  1.0338
 9188SOL    HW239027   0.388   3.170   9.600  0.2971 -1.5484  0.1896
 9189SOL     OW39028   4.451   3.981   9.599  0.2622  0.0473  0.0150
 9189SOL    HW139029   4.479   3.965   9.509 -2.8539 -1.9699 -0.5816
 9189SOL    HW239030   4.356   3.976   9.592  0.3325  0.4904 -1.2255
 9190SOL     OW39031   0.175   3.250   4.069 -0.5220 -0.2276  0.2902
 9190SOL    HW139032   0.097   3.225   4.118 -0.1681 -2.8105 -0.4617
 9190SOL    HW239033   0.196   3.165   4.030  1.8052 -0.1234  1.3523
 9191SOL     OW39034   0.900   1.777   2.771 -0.5183  0.3531 -0.7092
 9191SOL    HW139035   0.918   1.724   2.694  0.3597 -0.2332 -0.1002
 9191SOL    HW239036   0.986   1.818   2.782  0.0595 -0.2914 -3.0505
 9192SOL     OW39037   1.743   2.876   8.399 -0.8724  0.3367 -0.2640
 9192SOL    HW139038   1.707   2.791   8.372 -1.5165  0.4780  0.1448
 9192SOL    HW239039   1.816   2.889   8.339  0.3982 -2.5309  0.6286
 9193SOL     OW39040   3.456   0.640   0.590  0.1339  0.1696 -0.4893
 9193SOL    HW139041   3.470   0.575   0.521 -0.2621 -1.5462  1.0585
 9193SOL    HW239042   3.513   0.599   0.655 -1.6720 -2.2063 -0.3886
 9194SOL     OW39043   1.646   4.045   8.495 -0.3748 -0.1153 -0.4813
 9194SOL    HW139044   1.649   4.090   8.579 -2.8693  0.2194 -0.5652
 9194SOL    HW239045   1.690   3.967   8.530 -0.6552 -1.3138 -2.7782
 9195SOL     OW39046   2.418   2.395  17.244  0.4536  0.3091 -0.4372
 9195SOL    HW139047   2.334   2.426  17.278  0.6685 -0.3890  0.7491
 9195SOL    HW239048   2.393   2.323  17.186  0.8122 -1.0379  1.0518
 9196SOL     OW39049   1.034   0.708   2.199  0.0199  0.3218 -0.4053
 9196SOL    HW139050   1.053   0.767   2.272 -0.9754  0.8301 -0.5646
 9196SOL    HW239051   0.952   0.746   2.168  0.1513  0.0560 -1.0697
 9197SOL     OW39052   4.131   3.070  17.175 -0.1492  0.0939 -0.1259
 9197SOL    HW139053   4.076   3.083  17.253  0.1679 -0.1604  0.1408
 9197SOL    HW239054   4.086   2.991  17.146 -1.2621  0.0269  1.7727
 9198SOL     OW39055   3.277   1.139   2.327 -0.5014 -0.1850 -0.1887
 9198SOL    HW139056   3.225   1.097   2.258  0.7979  1.1473 -1.9627
 9198SOL    HW239057   3.319   1.216   2.290  2.2366  0.1152  3.5415
 9199SOL     OW39058   2.662   3.925   4.666  0.4947 -0.0408  0.2175
 9199SOL    HW139059   2.724   3.913   4.594  1.3872 -2.2648  1.3909
 9199SOL    HW239060   2.642   3.832   4.677 -1.1275  0.3989  0.9340
 9200SOL     OW39061   0.704   0.624  10.676 -0.0847  0.1981  0.0322
 9200SOL    HW139062   0.618   0.584  10.665  0.1610 -0.1251 -0.7423
 9200SOL    HW239063   0.691   0.700  10.619  0.6724 -1.4544 -2.3759
 9201SOL     OW39064   1.041   0.634   8.977 -0.4881 -0.0468 -0.2909
 9201SOL    HW139065   0.990   0.714   8.960 -1.1072 -0.6543 -1.2835
 9201SOL    HW239066   1.050   0.584   8.895 -0.7998  0.1082 -0.4218
 9202SOL     OW39067   3.440   0.075   8.124 -0.2581 -0.4169 -0.1761
 9202SOL    HW139068   3.404   0.101   8.039 -0.1485  4.4039  1.3020
 9202SOL    HW239069   3.357   0.067   8.169 -0.2067  1.0360  0.1750
 9203SOL     OW39070   2.269   1.997   8.697  0.5395  0.4811 -0.1538
 9203SOL    HW139071   2.267   2.071   8.757  2.2561  0.4863 -0.0975
 9203SOL    HW239072   2.362   1.976   8.692  0.3423 -0.3114 -0.6487
 9204SOL     OW39073   2.206   2.581  13.923  0.0293  0.1777  0.2270
 9204SOL    HW139074   2.237   2.610  13.837 -0.3860 -0.6199 -0.1918
 9204SOL    HW239075   2.268   2.508  13.931 -0.2425 -0.5322 -3.8646
 9205SOL     OW39076   1.097   1.846  16.279  0.3815 -0.1502  0.0400
 9205SOL    HW139077   1.079   1.894  16.198 -0.9851 -1.4250 -0.4134
 9205SOL    HW239078   1.168   1.789  16.247  0.0383  0.3698 -1.6596
 9206SOL     OW39079   4.136   4.169   0.120  0.3902  0.2091 -0.6624
 9206SOL    HW139080   4.133   4.143   0.212 -0.7673  0.2052 -0.6999
 9206SOL    HW239081   4.172   4.091   0.079  0.6068  0.3730 -0.7871
 9207SOL     OW39082   1.073   3.074   4.231  0.1367 -0.0513  0.4439
 9207SOL    HW139083   1.108   2.987   4.213  0.1052  0.0668 -0.1794
 9207SOL    HW239084   1.128   3.128   4.174 -0.4724 -1.5739 -1.5763
 9208SOL     OW39085   4.226   0.296   4.841 -0.1718 -0.2992  0.1013
 9208SOL    HW139086   4.137   0.281   4.873  0.7191 -1.8290  1.8515
 9208SOL    HW239087   4.236   0.387   4.812  0.7216 -0.6017 -0.5589
 9209SOL     OW39088   0.136   1.435   4.616  0.2176  0.0423 -0.0744
 9209SOL    HW139089   0.191   1.473   4.548  1.7255 -0.0603  1.0819
 9209SOL    HW239090   0.054   1.480   4.597 -0.2674 -0.7867  0.0471
 9210SOL     OW39091   2.521   0.859   2.295  0.1905  0.7105  0.4366
 9210SOL    HW139092   2.463   0.788   2.324 -0.5679  1.6126  1.1213
 9210SOL    HW239093   2.579   0.815   2.233 -0.6811 -0.8996  0.7421
 9211SOL     OW39094   1.755   2.701   4.410 -0.2889  0.4368 -0.0750
 9211SOL    HW139095   1.819   2.666   4.471 -0.7646  2.9630  1.8949
 9211SOL    HW239096   1.749   2.635   4.341  1.1168  0.2802 -0.0310
 9212SOL     OW39097   0.828   2.960   4.029 -0.4178 -0.3148 -0.7170
 9212SOL    HW139098   0.792   3.024   4.091 -0.3527 -1.5101  0.5561
 9212SOL    HW239099   0.834   2.876   4.075 -1.4956  0.4593  0.8425
 9213SOL     OW39100   2.144   1.087   4.056  0.4392 -0.1050 -0.0807
 9213SOL    HW139101   2.144   0.992   4.058  2.0196 -0.0568  1.9360
 9213SOL    HW239102   2.180   1.103   3.969  4.0913 -0.0014  1.4631
 9214SOL     OW39103   4.095   0.030  17.169  0.9101 -0.1909  0.4086
 9214SOL    HW139104   4.112   0.083  17.247  0.3067  0.0295  0.3881
 9214SOL    HW239105   4.023   0.081  17.132 -0.3513 -2.1675  0.1658
 9215SOL     OW39106   2.040   0.143   7.760 -0.0657 -0.4886  0.6193
 9215SOL    HW139107   2.059   0.234   7.783 -0.8817 -0.1626 -0.0019
 9215SOL    HW239108   2.128   0.109   7.746  0.3948  0.9270  0.0554
 9216SOL     OW39109   0.812   0.649  17.210 -0.0143  0.5010  0.0421
 9216SOL    HW139110   0.738   0.707  17.225 -0.2729 -0.4197  2.3287
 9216SOL    HW239111   0.776   0.573  17.165 -0.7578 -0.6311  2.5831
 9217SOL     OW39112   2.923   3.658   0.621 -0.4802  0.1145  0.2220
 9217SOL    HW139113   2.921   3.596   0.548  1.8259 -0.4640  0.6681
 9217SOL    HW239114   3.018   3.659   0.634 -0.4564 -0.1890  0.0822
 9218SOL     OW39115   1.935   1.481   1.762 -0.0276 -0.0064 -0.5489
 9218SOL    HW139116   1.963   1.393   1.737  2.6504  0.6085  0.2907
 9218SOL    HW239117   2.013   1.530   1.734  1.9631 -1.3493  2.6598
 9219SOL     OW39118   3.629   4.192   3.741  0.2694 -0.3656 -0.0633
 9219SOL    HW139119   3.611   4.131   3.669 -2.0735  0.7906 -0.4582
 9219SOL    HW239120   3.542   4.229   3.753  0.9130  1.2405 -0.2848
 9220SOL     OW39121   1.409   4.166  15.910 -0.1731  0.0076  0.0605
 9220SOL    HW139122   1.331   4.162  15.855  1.2271 -2.3736 -1.7324
 9220SOL    HW239123   1.422   4.261  15.915 -1.7517  0.3062 -1.7232
 9221SOL     OW39124   0.478   3.672   0.925 -0.3518 -0.2457 -0.2543
 9221SOL    HW139125   0.519   3.742   0.874 -0.0685  0.0421  0.3670
 9221SOL    HW239126   0.527   3.670   1.008  0.9833  1.8441 -1.0094
 9222SOL     OW39127   1.101   4.371   6.521  0.1738 -0.0515  0.3984
 9222SOL    HW139128   1.126   4.321   6.599  1.7412  1.0028  0.5719
 9222SOL    HW239129   1.022   4.416   6.550 -0.1291 -0.5474  0.3246
 9223SOL     OW39130   0.296   2.208   7.415 -0.3726 -0.4096 -0.3456
 9223SOL    HW139131   0.269   2.222   7.324  0.2616 -0.8546 -0.6003
 9223SOL    HW239132   0.236   2.139   7.442 -0.6787  0.8231  2.1787
 9224SOL     OW39133   0.545   3.833   4.539 -0.4806 -0.7406  0.0862
 9224SOL    HW139134   0.636   3.813   4.517 -0.0273  2.3328 -0.9494
 9224SOL    HW239135   0.538   3.929   4.541  1.7720 -0.5529 -0.8461
 9225SOL     OW39136   0.368   0.316   5.166  0.6782 -0.3658  0.3440
 9225SOL    HW139137   0.288   0.319   5.115  0.8659  0.7853  0.1028
 9225SOL    HW239138   0.328   0.307   5.253  2.3111 -2.5423  0.8650
 9226SOL     OW39139   3.510   3.150   6.073  0.1228  0.1498  0.5962
 9226SOL    HW139140   3.467   3.210   6.134 -2.8917 -1.2120 -0.1970
 9226SOL    HW239141   3.483   3.181   5.987  0.2161  1.4037  1.0193
 9227SOL     OW39142   0.096   1.616   8.071 -0.1457  0.5719  0.8032
 9227SOL    HW139143   0.101   1.572   8.156  2.8635 -0.3757  0.1339
 9227SOL    HW239144   0.020   1.674   8.077 -0.8620 -0.3719  0.8327
 9228SOL     OW39145   3.160   3.099   2.462  0.5687  0.0290  0.0531
 9228SOL    HW139146   3.252   3.089   2.436  0.3131  1.1273 -1.3166
 9228SOL    HW239147   3.151   3.010   2.495 -0.5418 -0.6488 -2.0950
 9229SOL     OW39148   2.829   4.262   0.858  0.1103  0.2417  0.0350
 9229SOL    HW139149   2.898   4.329   0.863  2.0280 -1.7757  0.5643
 9229SOL    HW239150   2.787   4.304   0.783 -0.1135 -1.1046 -0.5857
 9230SOL     OW39151   1.088   3.805   1.165 -0.1006  0.0586  0.1987
 9230SOL    HW139152   1.055   3.716   1.154 -1.4572  1.0316 -3.6879
 9230SOL    HW239153   1.181   3.782   1.166 -0.0204  0.3826  0.3612
 9231SOL     OW39154   3.967   2.535   1.106 -0.5369  0.3832  0.1494
 9231SOL    HW139155   4.037   2.598   1.124 -0.2371  0.3278 -0.8280
 9231SOL    HW239156   3.974   2.528   1.011  2.3032  2.5387  0.1959
 9232SOL     OW39157   3.334   1.153   4.172 -0.1628  0.2595  0.4254
 9232SOL    HW139158   3.385   1.143   4.253  0.3214  0.6447  0.1743
 9232SOL    HW239159   3.285   1.233   4.190 -1.5081 -0.9775  2.2188
 9233SOL     OW39160   4.104   4.538   6.683 -0.4297  0.1843  0.3351
 9233SOL    HW139161   4.165   4.465   6.691 -0.8592 -0.2587 -0.4523
 9233SOL    HW239162   4.111   4.559   6.590  1.7016  0.0858  0.4853
 9234SOL     OW39163   0.949   0.907   4.207 -0.1591  0.8385  0.7921
 9234SOL    HW139164   0.941   0.985   4.152 -0.2889 -0.2555 -0.7432
 9234SOL    HW239165   1.021   0.935   4.263  2.2261  1.0107 -2.3165
 9235SOL     OW39166   1.330   0.748   3.702  0.6310  0.4741 -0.5690
 9235SOL    HW139167   1.414   0.795   3.696 -0.0643  1.6157 -1.4089
 9235SOL    HW239168   1.273   0.825   3.701 -0.1866 -0.1485 -2.6815
 9236SOL     OW39169   3.613   3.828   3.937  0.7744 -0.0487 -0.0819
 9236SOL    HW139170   3.540   3.859   3.991  0.3510 -1.0045 -0.1132
 9236SOL    HW239171   3.684   3.883   3.969  1.6384 -2.8423  2.7547
 9237SOL     OW39172   2.657   3.184   1.776  0.3330 -0.0238 -0.2256
 9237SOL    HW139173   2.693   3.138   1.700 -0.1574 -2.1561  0.8473
 9237SOL    HW239174   2.587   3.125   1.801 -0.2398  0.7006 -0.1161
 9238SOL     OW39175   2.791   1.669   4.558  0.3519  0.4180 -0.6891
 9238SOL    HW139176   2.772   1.761   4.546 -2.6232  0.1423  2.0842
 9238SOL    HW239177   2.701   1.637   4.551 -0.3044  2.3763 -1.1018
 9239SOL     OW39178   1.087   3.164   2.856 -0.3534 -0.3681 -0.0138
 9239SOL    HW139179   1.075   3.122   2.771  0.0711 -0.3273 -0.0894
 9239SOL    HW239180   1.134   3.096   2.905 -0.4928 -1.1320 -0.9508
 9240SOL     OW39181   2.765   4.546  11.276  0.0323 -0.3150  0.3081
 9240SOL    HW139182   2.777   4.560  11.370 -1.4671  1.9291  0.1912
 9240SOL    HW239183   2.842   4.495  11.253  2.9315  4.5976 -0.9017
 9241SOL     OW39184   2.357   1.198  13.642  0.1164  0.2911 -0.3591
 9241SOL    HW139185   2.449   1.175  13.646  0.0468 -0.1495 -1.1958
 9241SOL    HW239186   2.361   1.286  13.605  0.2996  0.9484  1.2294
 9242SOL     OW39187   0.206   1.082   3.477 -0.2248  0.2303  0.2481
 9242SOL    HW139188   0.258   1.121   3.547 -0.4994  0.6210  0.2306
 9242SOL    HW239189   0.155   1.156   3.445  0.3792 -1.7159 -5.3361
 9243SOL     OW39190   3.944   3.444   4.753  0.3071  0.3226  0.5769
 9243SOL    HW139191   3.867   3.448   4.696 -1.8620 -1.1093  3.4423
 9243SOL    HW239192   4.015   3.431   4.690 -0.8090 -2.4413 -0.0981
 9244SOL     OW39193   2.729   4.129   9.139  0.0429  0.5562 -0.0414
 9244SOL    HW139194   2.810   4.085   9.167 -0.4139  0.7860  1.6352
 9244SOL    HW239195   2.760   4.157   9.053  1.5812 -0.2789  0.2468
 9245SOL     OW39196   1.012   1.513  12.094  0.1433  0.3630  0.0256
 9245SOL    HW139197   1.099   1.529  12.132 -0.1443  0.1024  0.7960
 9245SOL    HW239198   1.043   1.522  12.004 -1.7932  0.4526 -0.6218
 9246SOL     OW39199   1.119   0.966   2.679  0.1842 -0.0721 -0.4126
 9246SOL    HW139200   1.173   0.951   2.756  0.1154 -0.9273 -0.5349
 9246SOL    HW239201   1.039   0.915   2.691 -0.4324  1.2864  1.3074
 9247SOL     OW39202   3.245   1.132   6.710  0.5077  0.5232 -0.0757
 9247SOL    HW139203   3.258   1.200   6.644  2.3202 -2.6304 -2.9353
 9247SOL    HW239204   3.243   1.055   6.654  2.4506  1.3870 -1.3201
 9248SOL     OW39205   4.289   0.616  15.011 -0.3010  0.1069  0.3636
 9248SOL    HW139206   4.285   0.569  14.928  1.1027  0.1378  0.2838
 9248SOL    HW239207   4.358   0.568  15.056  0.8538  0.4022 -1.1128
 9249SOL     OW39208   0.405   4.686  16.774  0.4792  0.1207 -0.3528
 9249SOL    HW139209   0.366   4.620  16.717  0.9108 -0.5276  0.0983
 9249SOL    HW239210   0.470   0.012  16.723  1.0355 -0.1416  0.1021
 9250SOL     OW39211   4.400   2.823  14.399  0.4479 -0.0651 -0.3335
 9250SOL    HW139212   4.383   2.916  14.408  2.5946  0.2269  0.8937
 9250SOL    HW239213   4.318   2.784  14.430  0.4754  0.8143  0.8687
 9251SOL     OW39214   3.204   2.055   3.004  0.3441 -0.0266 -0.1315
 9251SOL    HW139215   3.153   2.075   2.926  1.5902 -1.2422 -1.2637
 9251SOL    HW239216   3.172   1.973   3.041  0.7406  0.5429  1.4758
 9252SOL     OW39217   0.985   1.683   5.538  0.5152  0.5002  0.4033
 9252SOL    HW139218   0.908   1.627   5.547  0.6682  0.1105 -0.7609
 9252SOL    HW239219   1.042   1.627   5.486  2.6123  0.5278  2.7172
 9253SOL     OW39220   1.307   3.838  13.400  0.1935  0.1893 -0.4479
 9253SOL    HW139221   1.329   3.895  13.474  1.5985  1.7501 -2.0650
 9253SOL    HW239222   1.386   3.784  13.403  0.8055  1.2600  3.4507
 9254SOL     OW39223   0.550   2.176   8.984 -0.2896  0.4704  0.1427
 9254SOL    HW139224   0.635   2.204   8.952  0.4278 -1.8090  0.0492
 9254SOL    HW239225   0.507   2.260   9.002 -0.5381  0.6208 -1.1962
 9255SOL     OW39226   4.684   3.285   3.852 -0.1051 -0.1750 -0.2039
 9255SOL    HW139227   0.027   3.315   3.916  0.4838 -2.7764  0.4212
 9255SOL    HW239228   4.605   3.275   3.905  1.6324  1.2758  2.6877
 9256SOL     OW39229   1.529   4.217  10.312 -0.3888 -0.2008  0.2046
 9256SOL    HW139230   1.529   4.130  10.271  0.2842  0.7142 -1.7089
 9256SOL    HW239231   1.542   4.275  10.238  0.8735  0.8543  1.2598
 9257SOL     OW39232   0.889   0.096   1.086 -0.1154  0.1854  0.5036
 9257SOL    HW139233   0.850   0.180   1.058  4.7650  1.8132 -1.3814
 9257SOL    HW239234   0.909   0.122   1.176  0.1806  1.7774 -0.0224
 9258SOL     OW39235   3.957   0.162   5.191  0.4665 -0.1597 -0.0050
 9258SOL    HW139236   4.040   0.172   5.238  0.2945  0.7445  0.1166
 9258SOL    HW239237   3.968   0.083   5.139 -1.2502 -0.4863  0.1293
 9259SOL     OW39238   3.359   1.438   5.786 -0.5375 -0.3139 -0.2722
 9259SOL    HW139239   3.395   1.437   5.875 -1.6792  2.5703  0.2172
 9259SOL    HW239240   3.394   1.523   5.760  1.8680 -1.5263 -1.0292
 9260SOL     OW39241   0.540   3.447   6.367  0.4362 -0.0570  0.3350
 9260SOL    HW139242   0.615   3.486   6.324  0.2768 -1.0099 -0.7910
 9260SOL    HW239243   0.514   3.514   6.430 -1.3222  1.7245 -2.2887
 9261SOL     OW39244   2.866   1.941   3.676 -0.0156 -0.3736  0.1361
 9261SOL    HW139245   2.829   1.946   3.588 -1.3300 -1.1171  0.6504
 9261SOL    HW239246   2.791   1.969   3.729  0.0050 -3.9020  1.9774
 9262SOL     OW39247   4.021   3.066   5.503 -0.0345  0.1742 -0.2210
 9262SOL    HW139248   4.027   3.157   5.472 -2.9028  0.5511  0.3035
 9262SOL    HW239249   3.947   3.040   5.449 -1.4241 -0.0728  1.7834
 9263SOL     OW39250   1.861   2.629   7.758 -0.4517  0.0156  0.0936
 9263SOL    HW139251   1.827   2.674   7.680  1.0710  1.6623  0.3895
 9263SOL    HW239252   1.801   2.555   7.758  0.0406 -0.3837 -0.2202
 9264SOL     OW39253   4.247   1.721   1.096 -0.1182  0.7937  0.3350
 9264SOL    HW139254   4.235   1.626   1.092  0.3787  0.6734  1.5745
 9264SOL    HW239255   4.156   1.744   1.078  0.0189 -0.2209 -1.5742
 9265SOL     OW39256   1.750   1.861  14.595  0.2553  0.3852 -0.4382
 9265SOL    HW139257   1.695   1.841  14.671 -0.3203  1.1182 -0.6574
 9265SOL    HW239258   1.777   1.781  14.550  3.1780  0.7886  0.6064
 9266SOL     OW39259   0.590   1.340  10.750  0.0203 -0.1727 -0.0782
 9266SOL    HW139260   0.529   1.408  10.721  0.4862  0.2270 -0.1173
 9266SOL    HW239261   0.664   1.392  10.782  0.5578 -0.7887 -0.3257
 9267SOL     OW39262   4.025   2.019   1.613 -0.3460 -0.4033  0.2928
 9267SOL    HW139263   3.975   2.084   1.662 -0.8031 -0.4978 -0.0458
 9267SOL    HW239264   3.956   1.977   1.562  0.7170 -1.7452 -0.0573
 9268SOL     OW39265   0.562   4.130   4.984  0.8256  0.1639 -0.3045
 9268SOL    HW139266   0.565   4.094   5.073 -2.3373  0.2251 -0.1644
 9268SOL    HW239267   0.654   4.118   4.962  1.0429 -0.6328  0.9988
 9269SOL     OW39268   0.191   3.157  10.082  0.6278 -0.2026  0.3613
 9269SOL    HW139269   0.169   3.064  10.089  3.1744 -0.9303 -1.2173
 9269SOL    HW239270   0.176   3.176   9.990 -1.0138 -2.0993  0.2414
 9270SOL     OW39271   4.634   0.136   8.785  0.5755 -0.1743  0.1485
 9270SOL    HW139272   4.710   0.082   8.766 -1.5257 -2.4496 -1.6961
 9270SOL    HW239273   4.667   0.222   8.759 -0.6598  0.6279  1.2326
 9271SOL     OW39274   2.542   1.894   8.681 -0.4110 -0.0980  0.6309
 9271SOL    HW139275   2.564   1.922   8.592  0.5545  0.9371  1.2023
 9271SOL    HW239276   2.585   1.953   8.742  2.9076  0.4832 -2.2407
 9272SOL     OW39277   1.581   2.413   4.308 -0.4843  0.1710  0.5954
 9272SOL    HW139278   1.534   2.382   4.385 -2.8359  1.9879 -0.1172
 9272SOL    HW239279   1.528   2.488   4.282 -0.0567 -0.2778 -1.6072
 9273SOL     OW39280   2.016   3.186   2.285 -0.2339 -0.7173 -0.2600
 9273SOL    HW139281   1.976   3.193   2.199 -1.0523 -1.2955  0.0748
 9273SOL    HW239282   2.003   3.269   2.330  0.0419 -0.3440 -0.8739
 9274SOL     OW39283   4.529   3.255   5.576 -0.3526  0.0429 -0.1568
 9274SOL    HW139284   4.476   3.191   5.529  0.2276 -0.9995  0.6144
 9274SOL    HW239285   4.613   3.227   5.541 -0.7434 -2.5382  0.9650
 9275SOL     OW39286   1.915   3.351   4.633 -0.0346 -0.2228 -0.0432
 9275SOL    HW139287   1.945   3.263   4.610  2.2123  0.6690 -0.5386
 9275SOL    HW239288   1.980   3.398   4.581 -2.0097  3.3732  0.6870
 9276SOL     OW39289   1.651   1.728   3.519  0.0667 -0.1743 -0.3538
 9276SOL    HW139290   1.616   1.659   3.463 -1.2073  0.4460 -0.3063
 9276SOL    HW239291   1.745   1.736   3.501 -0.6227  1.0467 -3.4108
 9277SOL     OW39292   1.894   2.597   3.614  0.6965  0.2702  0.3271
 9277SOL    HW139293   1.885   2.605   3.709 -0.6997  1.1222  0.1304
 9277SOL    HW239294   1.987   2.618   3.606  0.6044  0.5769  0.0468
 9278SOL     OW39295   3.891   3.365   0.434  0.1786  0.2666  0.1699
 9278SOL    HW139296   3.864   3.455   0.455 -1.1005 -0.0824 -0.0424
 9278SOL    HW239297   3.810   3.317   0.420  1.8375 -2.5584  0.2160
 9279SOL     OW39298   2.560   2.245   2.393  0.4674  0.0605  0.0770
 9279SOL    HW139299   2.519   2.166   2.427  2.4187  0.1231  2.6222
 9279SOL    HW239300   2.585   2.227   2.303 -0.1263 -2.6401  0.4594
 9280SOL     OW39301   2.570   1.897   7.574  0.2658 -0.0806  0.8894
 9280SOL    HW139302   2.493   1.881   7.628 -0.2234 -1.3779 -0.1951
 9280SOL    HW239303   2.529   1.875   7.491  0.2473 -1.1956  1.1892
 9281SOL     OW39304   0.247   0.047  11.316 -0.6142 -0.3747  0.0616
 9281SOL    HW139305   0.185   0.062  11.244 -0.1159 -0.2382 -0.3354
 9281SOL    HW239306   0.316   0.003  11.267 -0.1632  0.6546 -0.2316
 9282SOL     OW39307   1.500   0.503   4.125 -0.0830 -0.4081 -0.4539
 9282SOL    HW139308   1.439   0.524   4.054 -1.2162  0.7055  0.8418
 9282SOL    HW239309   1.444   0.447   4.179  0.5495  0.4653  1.1362
 9283SOL     OW39310   0.486   3.513  13.332  0.1490 -0.1485 -0.1704
 9283SOL    HW139311   0.575   3.479  13.325  1.2111  2.3981  0.9459
 9283SOL    HW239312   0.495   3.605  13.307  1.5851  0.0195  0.9634
 9284SOL     OW39313   0.974   2.019   0.469 -0.1657 -0.1627  0.3705
 9284SOL    HW139314   0.899   1.994   0.415  0.0937 -1.3658  0.5674
 9284SOL    HW239315   1.026   1.939   0.462  0.9862  0.5037  1.3431
 9285SOL     OW39316   3.900   3.717  10.904 -0.1197 -0.1938  0.3528
 9285SOL    HW139317   3.880   3.781  10.835  3.3342  0.5593  0.0596
 9285SOL    HW239318   3.864   3.770  10.976 -1.0648  2.2431 -1.9136
 9286SOL     OW39319   0.793   2.900  12.440  0.6471  1.0088  0.6300
 9286SOL    HW139320   0.851   2.923  12.367  0.8344 -1.6549 -0.0819
 9286SOL    HW239321   0.767   2.810  12.420  2.0550  0.7779 -0.1687
 9287SOL     OW39322   2.284   4.634   8.429  0.5466  0.0070  0.0144
 9287SOL    HW139323   2.363   4.686   8.446  0.1521  0.1552  1.4524
 9287SOL    HW239324   2.297   4.592   8.344  1.1423  1.6513 -0.7059
 9288SOL     OW39325   4.580   1.745   4.768 -0.2445 -1.0227  0.3087
 9288SOL    HW139326   4.576   1.835   4.802 -3.0941 -1.1155  0.2234
 9288SOL    HW239327   4.673   1.730   4.785  0.1212  1.1906  0.2506
 9289SOL     OW39328   1.649   2.866   8.041  0.2620  0.2066 -0.4406
 9289SOL    HW139329   1.629   2.788   8.092 -0.2386 -0.1559 -1.1790
 9289SOL    HW239330   1.606   2.932   8.096 -0.2507 -0.1350 -0.4342
 9290SOL     OW39331   0.017   0.236   7.774 -0.2753  0.0449  0.1359
 9290SOL    HW139332   4.689   0.179   7.833 -0.8201  0.0313 -0.3364
 9290SOL    HW239333   0.055   0.167   7.721 -1.8188 -2.4974  2.3007
 9291SOL     OW39334   3.275   1.084  15.805 -0.2867 -0.3138  0.0645
 9291SOL    HW139335   3.254   1.177  15.808 -0.2869 -0.3112 -0.0213
 9291SOL    HW239336   3.274   1.068  15.710  0.4500  0.8276 -0.1354
 9292SOL     OW39337   0.373   0.528   6.065 -0.1848  0.0589 -0.7503
 9292SOL    HW139338   0.419   0.569   5.991  0.3423 -0.8067 -0.9024
 9292SOL    HW239339   0.444   0.503   6.124 -0.1070 -1.4759 -1.5005
 9293SOL     OW39340   1.034   1.911   7.328  0.3934  0.0963 -0.4498
 9293SOL    HW139341   1.127   1.927   7.316  0.1483  1.8136 -0.0403
 9293SOL    HW239342   1.005   2.002   7.317 -1.5683 -0.4858 -0.1785
 9294SOL     OW39343   2.780   2.966   4.607  0.1614 -0.2465 -0.0372
 9294SOL    HW139344   2.748   2.919   4.530 -2.5917  0.2905  0.7857
 9294SOL    HW239345   2.860   2.914   4.618 -0.3443 -1.0598 -0.2179
 9295SOL     OW39346   1.062   4.188   4.749  0.3380 -0.2294  0.1309
 9295SOL    HW139347   1.065   4.284   4.740 -1.3273 -0.1872  0.0140
 9295SOL    HW239348   1.035   4.173   4.658  0.9021 -2.0648  0.2802
 9296SOL     OW39349   0.702   1.042  15.444  0.0661 -0.2459  0.6582
 9296SOL    HW139350   0.702   1.002  15.531  0.3130 -3.4916 -0.8331
 9296SOL    HW239351   0.662   1.127  15.461  0.9942 -0.2052  2.6898
 9297SOL     OW39352   4.516   1.443   5.828  0.0247 -0.1760  0.8187
 9297SOL    HW139353   4.495   1.452   5.735  1.2670  1.0204  0.6518
 9297SOL    HW239354   4.535   1.533   5.854  3.4621 -0.6328 -0.0938
 9298SOL     OW39355   2.123   2.971   7.509  0.3494  0.2741 -0.0529
 9298SOL    HW139356   2.181   3.042   7.537 -0.0087  0.4467  0.2599
 9298SOL    HW239357   2.061   2.966   7.581 -0.5135  1.0134 -0.7416
 9299SOL     OW39358   0.410   0.614  10.624  0.1235 -0.1569 -0.1772
 9299SOL    HW139359   0.423   0.670  10.547  0.8214  0.7691  0.6110
 9299SOL    HW239360   0.315   0.616  10.630  0.1740  0.4536  0.4101
 9300SOL     OW39361   1.624   3.438   6.083  0.0630  0.1886  0.3528
 9300SOL    HW139362   1.621   3.409   5.992 -0.2306 -1.2142  0.8066
 9300SOL    HW239363   1.698   3.497   6.075  0.1023  0.0627 -0.2113
 9301SOL     OW39364   1.728   1.802   7.092 -0.5351  0.1404  0.3552
 9301SOL    HW139365   1.644   1.815   7.048 -1.1757  0.5344  1.7045
 9301SOL    HW239366   1.738   1.893   7.118 -0.3754  0.1135  0.3878
 9302SOL     OW39367   3.521   3.127   5.510  0.0250 -0.3238  0.7602
 9302SOL    HW139368   3.442   3.170   5.544  0.4224  0.2596  0.9547
 9302SOL    HW239369   3.584   3.199   5.521  0.6287 -0.8155  0.4933
 9303SOL     OW39370   2.369   4.339  17.028  0.1010 -0.0587 -0.3748
 9303SOL    HW139371   2.275   4.356  17.026  0.5980  2.4418 -2.0168
 9303SOL    HW239372   2.380   4.244  17.018 -0.4871 -0.1396 -0.2371
 9304SOL     OW39373   3.311   3.289   0.942 -0.6261  0.3038 -0.3018
 9304SOL    HW139374   3.302   3.355   1.010 -2.9131 -0.6349  0.3321
 9304SOL    HW239375   3.347   3.211   0.984 -0.3903 -0.2463 -1.5246
 9305SOL     OW39376   1.517   4.682  13.762  0.1960 -0.6928 -0.8208
 9305SOL    HW139377   1.550   0.049  13.772 -1.0353 -0.0797 -2.4154
 9305SOL    HW239378   1.436   4.686  13.814  0.9829  0.3590  0.3149
 9306SOL     OW39379   2.144   0.199   3.011  0.3523  0.0492 -0.3978
 9306SOL    HW139380   2.146   0.271   2.948  0.0592 -1.7431 -2.4597
 9306SOL    HW239381   2.049   0.196   3.020  0.4204 -0.7472  0.0692
 9307SOL     OW39382   0.667   0.542   4.846  0.0221  0.3599 -0.2088
 9307SOL    HW139383   0.644   0.614   4.905 -1.3573  0.9894 -1.5075
 9307SOL    HW239384   0.734   0.495   4.895 -0.5249  1.1865  1.3363
 9308SOL     OW39385   0.391   4.704  15.327  0.6321 -0.1869  0.5772
 9308SOL    HW139386   0.408   4.626  15.379  2.9153 -0.4702 -0.6049
 9308SOL    HW239387   0.331   0.019  15.392 -0.6413  0.6699 -1.0704
 9309SOL     OW39388   1.455   3.430  16.726 -0.0829  0.6164  0.3458
 9309SOL    HW139389   1.416   3.512  16.693  2.2559  1.0201 -1.4155
 9309SOL    HW239390   1.378   3.396  16.770 -1.6161  1.2905 -1.8036
 9310SOL     OW39391   0.341   0.270   2.519 -0.0980  0.4338  0.4026
 9310SOL    HW139392   0.408   0.328   2.483 -0.2122 -0.6890 -1.6510
 9310SOL    HW239393   0.388   0.192   2.549 -0.3250  0.6302  1.2568
 9311SOL     OW39394   4.292   0.313   1.564  0.3711  0.2836  0.3784
 9311SOL    HW139395   4.329   0.225   1.574  0.6759  0.3149 -0.4824
 9311SOL    HW239396   4.363   0.365   1.525  1.2358 -1.3567 -0.2614
 9312SOL     OW39397   4.275   3.276  17.067  0.3597 -0.2012 -0.4260
 9312SOL    HW139398   4.203   3.336  17.047  0.0586  0.5732  2.9946
 9312SOL    HW239399   4.238   3.195  17.102 -0.6601  0.5622  0.2689
 9313SOL     OW39400   3.063   2.214  10.331 -0.5256  0.2191  0.2904
 9313SOL    HW139401   3.074   2.150  10.401 -0.6850 -0.1655 -0.0363
 9313SOL    HW239402   3.109   2.295  10.351 -1.7914  0.7679  0.9928
 9314SOL     OW39403   3.974   3.372   9.259 -0.2515 -0.2560 -0.5550
 9314SOL    HW139404   3.934   3.341   9.178  0.7157  0.5337 -1.3359
 9314SOL    HW239405   4.039   3.438   9.233 -1.1981  0.4700 -1.1104
 9315SOL     OW39406   1.851   3.942  14.611  0.5481  0.5042  0.9281
 9315SOL    HW139407   1.804   3.996  14.675 -0.6874  1.7292 -1.0072
 9315SOL    HW239408   1.792   3.883  14.566 -0.3466 -0.5895  3.5643
 9316SOL     OW39409   1.429   0.259   5.576  0.0724 -0.1464  0.2634
 9316SOL    HW139410   1.356   0.218   5.529 -2.7866  3.3883  1.6577
 9316SOL    HW239411   1.497   0.260   5.508  0.2653  0.8481  0.4793
 9317SOL     OW39412   4.703   2.625   4.436 -0.0528 -0.1567  0.7339
 9317SOL    HW139413   4.657   2.626   4.352  1.1327  0.5031  0.0823
 9317SOL    HW239414   4.634   2.661   4.493  0.9956  1.8231  0.7723
 9318SOL     OW39415   4.304   1.664  10.211  0.1562 -0.0656  0.2657
 9318SOL    HW139416   4.271   1.654  10.122  0.8930 -2.6544  0.2882
 9318SOL    HW239417   4.299   1.578  10.253 -1.8793 -0.8963 -1.7058
 9319SOL     OW39418   2.113   2.153  10.049  0.0824 -0.3594 -0.2493
 9319SOL    HW139419   2.104   2.098  10.127  0.3057 -0.2879 -0.1742
 9319SOL    HW239420   2.018   2.159  10.036  0.3395  1.6089 -1.3169
 9320SOL     OW39421   1.976   2.338   2.597  0.2563  0.0684  0.2295
 9320SOL    HW139422   1.883   2.361   2.589  0.3424 -0.5792 -2.6425
 9320SOL    HW239423   2.012   2.423   2.573  1.2736 -0.3367  0.3169
 9321SOL     OW39424   1.945   2.147   7.284 -0.2128  0.2963 -0.2776
 9321SOL    HW139425   2.011   2.178   7.346  0.1315 -1.0239  0.0049
 9321SOL    HW239426   1.917   2.060   7.310  1.1419  0.2194  0.9038
 9322SOL     OW39427   2.110   4.061   4.960  0.4279  0.4618  0.0501
 9322SOL    HW139428   2.073   4.145   4.986  0.3683  0.1848  0.8667
 9322SOL    HW239429   2.110   4.067   4.864  1.0410  0.9142  0.0760
 9323SOL     OW39430   3.887   3.153  10.767 -0.0345 -0.1354  0.1066
 9323SOL    HW139431   3.835   3.190  10.839  0.0182 -1.9512  1.0805
 9323SOL    HW239432   3.838   3.188  10.692 -0.4193 -0.9650 -0.0255
 9324SOL     OW39433   0.823   3.342   2.898 -0.0612 -0.1371 -0.1464
 9324SOL    HW139434   0.876   3.262   2.891 -2.4471 -1.6478 -0.9495
 9324SOL    HW239435   0.743   3.318   2.851 -0.1114 -0.8512  0.3006
 9325SOL     OW39436   0.124   3.255  12.952  0.3683 -0.3180  0.1092
 9325SOL    HW139437   0.038   3.279  12.987 -0.2677  0.6920 -2.1760
 9325SOL    HW239438   0.176   3.274  13.030  2.0165 -2.3010 -0.5169
 9326SOL     OW39439   0.429   0.283  11.139 -0.3637  0.1665  0.3054
 9326SOL    HW139440   0.373   0.347  11.095 -0.6285  0.3930  0.9714
 9326SOL    HW239441   0.483   0.243  11.070  0.4978 -0.0040  1.0793
 9327SOL     OW39442   0.134   2.634  10.911 -0.3905  0.0255 -0.6873
 9327SOL    HW139443   0.061   2.694  10.920  0.1592  0.8293 -1.5333
 9327SOL    HW239444   0.123   2.604  10.820  0.5447  1.1840 -1.1757
 9328SOL     OW39445   3.535   1.517   6.743 -0.0222 -0.1209 -0.3397
 9328SOL    HW139446   3.480   1.535   6.820 -0.5124 -0.8696 -0.5119
 9328SOL    HW239447   3.548   1.423   6.753 -1.1159 -0.1249  1.1214
 9329SOL     OW39448   0.190   1.501   3.093 -0.1047 -0.0492 -0.1121
 9329SOL    HW139449   0.141   1.470   3.017  0.4892 -0.3726 -0.3590
 9329SOL    HW239450   0.164   1.593   3.092  3.0020  0.8549  1.7640
 9330SOL     OW39451   4.162   2.131   5.743  0.0244 -0.3247 -0.0235
 9330SOL    HW139452   4.086   2.080   5.770 -0.0734  0.7603  1.7093
 9330SOL    HW239453   4.132   2.187   5.671 -0.4984  0.6369  0.9507
 9331SOL     OW39454   1.754   2.167  15.374 -0.1663 -0.4166 -0.0231
 9331SOL    HW139455   1.822   2.111  15.335  0.3467 -1.0130  1.7086
 9331SOL    HW239456   1.679   2.118  15.341  0.4217  0.1995 -2.2906
 9332SOL     OW39457   4.398   0.216   6.237  0.6376 -0.7236 -0.5305
 9332SOL    HW139458   4.399   0.125   6.266  0.9198 -0.4457  0.3427
 9332SOL    HW239459   4.481   0.222   6.191  0.4987  0.8063 -0.5729
 9333SOL     OW39460   1.878   1.752   8.475 -0.4804 -0.1363  0.3889
 9333SOL    HW139461   1.811   1.750   8.542 -0.1104  4.8963  0.9285
 9333SOL    HW239462   1.956   1.764   8.529  0.2128 -0.7153 -0.4783
 9334SOL     OW39463   0.341   2.458   6.075 -0.2310  0.4066  0.0394
 9334SOL    HW139464   0.254   2.473   6.036 -0.9371  0.1280  1.5113
 9334SOL    HW239465   0.357   2.543   6.115 -0.1745 -0.5532  2.0477
 9335SOL     OW39466   3.073   2.440  10.618  0.1623  0.3975  0.4241
 9335SOL    HW139467   3.057   2.522  10.572  0.9800 -0.5734 -1.5815
 9335SOL    HW239468   3.091   2.476  10.705 -1.0125  1.6608  0.1398
 9336SOL     OW39469   3.404   1.953   8.847 -0.3524  0.2785  0.2402
 9336SOL    HW139470   3.495   1.963   8.875 -0.7980  1.1380  1.3415
 9336SOL    HW239471   3.393   1.866   8.886 -0.3793 -1.2256 -3.0248
 9337SOL     OW39472   0.105   4.042   1.265  0.2471  0.3785 -0.7419
 9337SOL    HW139473   0.031   3.990   1.233 -0.5040 -0.0586  1.6845
 9337SOL    HW239474   0.076   4.082   1.347 -2.5578 -0.7369 -1.2077
 9338SOL     OW39475   0.960   1.656  14.543 -0.3792  0.4073  0.2984
 9338SOL    HW139476   0.872   1.671  14.509 -0.1350 -0.4286 -0.6956
 9338SOL    HW239477   1.005   1.733  14.509  2.1849 -1.2406 -0.0292
 9339SOL     OW39478   0.742   0.301   4.069 -0.2614  0.2836 -0.1518
 9339SOL    HW139479   0.756   0.275   3.978 -0.4039  2.3583 -0.7688
 9339SOL    HW239480   0.797   0.379   4.082  0.4580 -0.1746 -0.4441
 9340SOL     OW39481   1.704   0.446   8.336  0.1306  0.0111 -0.0156
 9340SOL    HW139482   1.718   0.430   8.429 -0.5078  1.1129  0.2755
 9340SOL    HW239483   1.654   0.368   8.314 -1.3479  1.1188 -0.6460
 9341SOL     OW39484   1.082   0.885   8.693  0.0213 -0.1373 -0.0546
 9341SOL    HW139485   1.167   0.857   8.660  0.0728  3.3281 -2.8509
 9341SOL    HW239486   1.089   0.980   8.691  2.0879 -0.3049 -0.9486
 9342SOL     OW39487   1.219   4.134   2.106  0.2231  0.2162  0.3005
 9342SOL    HW139488   1.139   4.144   2.054 -0.9338  0.3951  2.0950
 9342SOL    HW239489   1.280   4.086   2.051  0.2548 -0.8537  1.2555
 9343SOL     OW39490   0.883   4.048   4.149 -0.2998  1.0676 -0.0515
 9343SOL    HW139491   0.831   3.968   4.155 -0.0834  0.9575  0.3123
 9343SOL    HW239492   0.833   4.116   4.194  0.1970  0.3515  1.5729
 9344SOL     OW39493   2.785   3.829   3.425 -0.0667 -0.4278  0.3589
 9344SOL    HW139494   2.812   3.798   3.512  0.8275  1.0478  0.5963
 9344SOL    HW239495   2.691   3.839   3.438 -0.2476 -0.5389 -0.8692
 9345SOL     OW39496   1.782   2.058   6.572  0.3441 -0.7516 -0.4472
 9345SOL    HW139497   1.802   2.049   6.479  0.3535  2.3042 -0.7368
 9345SOL    HW239498   1.787   1.966   6.599 -0.8934 -1.0483 -1.1656
 9346SOL     OW39499   2.040   0.586   5.869 -0.4791 -0.2138 -0.4920
 9346SOL    HW139500   2.134   0.599   5.855 -0.7095  1.4573 -0.4446
 9346SOL    HW239501   2.035   0.594   5.964 -0.7758  4.2274 -0.8820
 9347SOL     OW39502   3.351   3.706   5.184  0.6304  0.7943  0.5094
 9347SOL    HW139503   3.426   3.647   5.173  0.9204  1.5821 -1.8840
 9347SOL    HW239504   3.378   3.784   5.136 -0.9027  0.8587 -0.2627
 9348SOL     OW39505   1.548   3.293  15.809  0.4345  0.9467  0.1479
 9348SOL    HW139506   1.533   3.221  15.871  0.3806 -2.0227 -3.3129
 9348SOL    HW239507   1.641   3.282  15.787  0.3639  0.8270 -0.0866
 9349SOL     OW39508   2.805   0.083   7.753 -0.2409  0.1765 -0.1344
 9349SOL    HW139509   2.712   0.107   7.748  0.0957  1.4974  0.1129
 9349SOL    HW239510   2.815   0.095   7.847 -0.7203  1.3084 -0.2255
 9350SOL     OW39511   1.295   3.384   7.827  0.0449 -0.2698 -0.5004
 9350SOL    HW139512   1.297   3.292   7.852  2.1158 -0.0707  0.0628
 9350SOL    HW239513   1.216   3.410   7.875  1.0420  4.5304 -1.4561
 9351SOL     OW39514   2.641   3.065   6.919  0.5122 -0.2030 -0.0868
 9351SOL    HW139515   2.576   3.134   6.909  2.1154  1.1591 -1.1154
 9351SOL    HW239516   2.678   3.062   6.831 -0.6978  2.5844 -0.6671
 9352SOL     OW39517   3.012   1.377   6.730  0.6463  0.2627  0.1924
 9352SOL    HW139518   3.012   1.328   6.813  3.1322  1.5129  0.9221
 9352SOL    HW239519   3.083   1.340   6.677  0.3297 -0.5360  0.3207
 9353SOL     OW39520   0.761   2.908  13.204  0.3505 -0.3427  0.3273
 9353SOL    HW139521   0.694   2.879  13.266  0.0254 -0.0768  0.0964
 9353SOL    HW239522   0.842   2.929  13.251 -0.4452 -2.8104  2.8083
 9354SOL     OW39523   1.933   1.827  16.305 -0.3920  0.1731 -0.1333
 9354SOL    HW139524   2.014   1.862  16.344 -1.3394  2.1704  0.0391
 9354SOL    HW239525   1.955   1.811  16.213 -1.3255 -1.2253 -0.1094
 9355SOL     OW39526   0.918   0.828   5.899  0.0423  0.4868  0.4136
 9355SOL    HW139527   0.864   0.775   5.958  0.6093 -0.6839 -0.1113
 9355SOL    HW239528   0.843   0.883   5.874 -0.6006 -0.6486 -0.1650
 9356SOL     OW39529   0.796   4.004   5.938 -0.3323 -0.0063  0.2070
 9356SOL    HW139530   0.790   4.053   6.021 -1.5930  1.3973 -0.7167
 9356SOL    HW239531   0.738   4.058   5.884  2.2992  2.0512 -0.5385
 9357SOL     OW39532   3.018   1.062   5.737 -0.2824  0.7160 -0.0707
 9357SOL    HW139533   2.959   1.104   5.800  0.8697 -1.6271  2.5785
 9357SOL    HW239534   3.064   1.134   5.694  2.6818 -0.4717  1.0693
 9358SOL     OW39535   3.927   1.623   0.255  0.3448 -0.2950 -0.7271
 9358SOL    HW139536   3.856   1.687   0.252  0.1420 -0.5292 -0.9232
 9358SOL    HW239537   3.889   1.544   0.294 -1.4987  0.5315 -0.8371
 9359SOL     OW39538   2.892   3.648  16.079 -0.1113 -0.2211  0.1016
 9359SOL    HW139539   2.843   3.613  16.005 -2.1314  0.3419  1.1572
 9359SOL    HW239540   2.974   3.601  16.064  0.5940  1.1157 -0.1987
 9360SOL     OW39541   2.721   1.901   9.108  0.2271 -0.3014 -0.1460
 9360SOL    HW139542   2.663   1.922   9.181  0.2774 -1.6254  0.2743
 9360SOL    HW239543   2.805   1.943   9.128  0.1097 -0.1160 -0.0373
 9361SOL     OW39544   0.679   0.092   5.304  0.1362  0.6010 -0.1316
 9361SOL    HW139545   0.704   0.135   5.386  0.5696 -0.5101  0.3174
 9361SOL    HW239546   0.734   0.014   5.305 -0.2439  0.3312 -0.2167
 9362SOL     OW39547   3.615   4.308   2.157  0.1249  1.1000 -0.2159
 9362SOL    HW139548   3.707   4.332   2.147  0.5470 -0.0951  0.8072
 9362SOL    HW239549   3.581   4.373   2.218 -1.1351  0.1182  0.1376
 9363SOL     OW39550   3.971   2.161   0.722 -0.5535  0.2610 -0.1577
 9363SOL    HW139551   4.054   2.187   0.761 -1.3306  0.4902  1.3527
 9363SOL    HW239552   3.916   2.231   0.758  0.0059  1.8685 -2.4485
 9364SOL     OW39553   0.506   2.300   8.268 -0.2078 -0.4530 -0.4551
 9364SOL    HW139554   0.512   2.205   8.264 -2.2931 -0.6102  0.1234
 9364SOL    HW239555   0.586   2.315   8.320  0.6835 -1.1375 -1.6313
 9365SOL     OW39556   0.889   2.978   5.541  0.0394  0.8769  0.1836
 9365SOL    HW139557   0.868   2.987   5.634 -0.9173  0.5032  0.0005
 9365SOL    HW239558   0.918   2.887   5.534 -2.9522 -0.1794  1.4486
 9366SOL     OW39559   1.446   1.898   0.025 -0.9682  0.5751 -0.1220
 9366SOL    HW139560   1.489   1.819   0.057 -0.0376  0.9899 -0.3596
 9366SOL    HW239561   1.478   1.902  17.625  0.0990  2.0460  0.3203
 9367SOL     OW39562   1.953   2.080  12.909  0.0349  0.0379  0.0379
 9367SOL    HW139563   1.887   2.030  12.862 -1.1451 -0.4547  2.2010
 9367SOL    HW239564   1.924   2.171  12.897 -4.6176 -1.8359 -2.5986
 9368SOL     OW39565   0.039   3.326   3.364  0.4535  0.0106  0.1121
 9368SOL    HW139566   4.716   3.276   3.296  0.4411 -0.9781  0.8509
 9368SOL    HW239567   0.030   3.275   3.445 -1.2147  1.6834  0.9777
 9369SOL     OW39568   0.438   1.356  17.410  0.1993 -0.5144  0.1212
 9369SOL    HW139569   0.359   1.343  17.461  0.8212 -1.4786  0.8237
 9369SOL    HW239570   0.443   1.274  17.362 -3.0550 -2.0447  2.4923
 9370SOL     OW39571   1.100   0.516   3.360 -0.3820 -0.2417 -0.2413
 9370SOL    HW139572   1.170   0.462   3.398 -1.4321 -1.5028 -0.1193
 9370SOL    HW239573   1.109   0.486   3.270 -0.5380 -1.3753  0.1312
 9371SOL     OW39574   1.925   3.893   0.284 -0.4357 -0.1763  0.3961
 9371SOL    HW139575   2.019   3.876   0.295  0.0844  1.5090 -1.4192
 9371SOL    HW239576   1.934   3.983   0.254  1.1732 -0.8516 -1.1607
 9372SOL     OW39577   1.861   4.677   7.871 -0.9733  0.1413 -0.5650
 9372SOL    HW139578   1.921   0.013   7.825  1.7958 -1.8009  0.5934
 9372SOL    HW239579   1.780   0.004   7.858 -1.1736 -0.0941 -0.2394
 9373SOL     OW39580   3.971   0.282   4.942 -0.7503 -0.0625  0.4107
 9373SOL    HW139581   3.895   0.338   4.960 -1.4908 -0.3126 -1.8888
 9373SOL    HW239582   3.973   0.229   5.021  2.4667  0.7275  0.8818
 9374SOL     OW39583   1.756   3.640  10.769 -0.3238 -0.4674 -0.3601
 9374SOL    HW139584   1.756   3.719  10.823  0.8801 -0.9102  0.2803
 9374SOL    HW239585   1.665   3.628  10.740  0.1515  0.0407 -2.0526
 9375SOL     OW39586   0.778   2.441   7.678  0.5116  0.4756  0.1952
 9375SOL    HW139587   0.823   2.510   7.628  2.4613 -1.0533 -0.1653
 9375SOL    HW239588   0.712   2.490   7.726  0.3893  1.4315 -0.9327
 9376SOL     OW39589   3.799   2.960   5.774  0.4633 -0.0684  0.3033
 9376SOL    HW139590   3.711   2.930   5.749  0.3743  0.6505 -0.2372
 9376SOL    HW239591   3.808   3.044   5.729 -1.5138  0.0431  0.0887
 9377SOL     OW39592   3.266   2.986  17.579  0.0239  0.0982  0.3120
 9377SOL    HW139593   3.186   3.038  17.564 -0.4456 -0.5488  0.5839
 9377SOL    HW239594   3.248   2.934  17.657  0.8145  1.4745  1.3957
 9378SOL     OW39595   0.335   0.102  17.361  0.0954  0.0912  0.2303
 9378SOL    HW139596   0.321   0.196  17.367  0.6791  0.1602  0.5312
 9378SOL    HW239597   0.333   0.083  17.455  1.8320 -2.9927 -0.3432
 9379SOL     OW39598   3.438   0.610   1.581 -0.1519  0.5526  0.5252
 9379SOL    HW139599   3.504   0.599   1.512  0.5110 -1.0815  1.4051
 9379SOL    HW239600   3.360   0.618   1.527 -0.2266  1.0910  0.7151
 9380SOL     OW39601   0.801   0.072   7.892  0.7718  0.3495 -0.2159
 9380SOL    HW139602   0.837   0.154   7.858 -2.3346  1.9843  0.4797
 9380SOL    HW239603   0.752   0.041   7.816 -1.2549  1.7225  0.5536
 9381SOL     OW39604   4.637   3.334  17.389  0.1781 -0.4880  0.0886
 9381SOL    HW139605   4.639   3.412  17.444 -2.1433 -0.7672  0.5632
 9381SOL    HW239606   4.589   3.355  17.309  0.3050 -2.1402 -0.4247
 9382SOL     OW39607   2.283   3.025   6.308 -0.2833 -0.0513 -0.2054
 9382SOL    HW139608   2.378   3.032   6.297 -0.1150 -1.8164  0.1413
 9382SOL    HW239609   2.252   3.076   6.232  1.0893 -1.2414 -1.5483
 9383SOL     OW39610   1.746   3.279   3.367  0.2221  0.4510  0.0897
 9383SOL    HW139611   1.710   3.197   3.334 -1.2893  1.6279 -1.1657
 9383SOL    HW239612   1.771   3.323   3.286  0.6923 -1.4845 -0.8154
 9384SOL     OW39613   3.235   0.851   5.619 -0.2648 -0.1068  0.2702
 9384SOL    HW139614   3.182   0.772   5.634  1.9945 -2.0245 -1.9102
 9384SOL    HW239615   3.174   0.923   5.632 -0.6689 -0.1783 -1.2736
 9385SOL     OW39616   0.996   4.698   9.424 -0.8923  0.4027 -0.1248
 9385SOL    HW139617   1.072   0.016   9.467 -2.2462  1.6422  1.1318
 9385SOL    HW239618   1.045   4.635   9.371  1.2358  1.0813  1.0076
 9386SOL     OW39619   4.164   3.856   5.694 -0.1758  0.2419  0.1738
 9386SOL    HW139620   4.107   3.906   5.636 -0.4473  0.1886  0.3981
 9386SOL    HW239621   4.107   3.782   5.713 -1.1852  0.6447 -1.3431
 9387SOL     OW39622   4.528   0.718   0.379  0.1311  0.5996 -0.0294
 9387SOL    HW139623   4.619   0.749   0.379 -0.0108  1.0204 -0.0609
 9387SOL    HW239624   4.506   0.723   0.286  1.0977 -0.6940 -0.3276
 9388SOL     OW39625   3.371   2.239   2.076 -0.2434 -0.1643 -0.3289
 9388SOL    HW139626   3.338   2.191   2.152 -1.3454 -1.7461 -1.7928
 9388SOL    HW239627   3.448   2.183   2.062 -0.1606  0.3034 -1.7891
 9389SOL     OW39628   2.834   3.044   8.700  0.8450 -0.3237  0.1594
 9389SOL    HW139629   2.771   2.997   8.647 -0.0912 -0.8235  1.7015
 9389SOL    HW239630   2.840   3.127   8.652  1.1493  0.4571  1.5291
 9390SOL     OW39631   4.360   2.739   3.321 -0.2932 -0.2623 -0.2850
 9390SOL    HW139632   4.286   2.713   3.267  0.4001 -0.7862 -0.9798
 9390SOL    HW239633   4.331   2.739   3.413  1.6759 -0.6125  0.3333
 9391SOL     OW39634   3.742   1.531  10.439  0.6967 -0.5655  0.8811
 9391SOL    HW139635   3.780   1.444  10.454  0.1925 -1.2718 -1.9522
 9391SOL    HW239636   3.816   1.572  10.394 -0.0805  0.3403  0.4405
 9392SOL     OW39637   1.922   2.776   7.986 -0.1209  0.3642  0.1689
 9392SOL    HW139638   1.830   2.800   7.994  0.3631  2.0680  0.4427
 9392SOL    HW239639   1.917   2.695   7.934  0.1412 -1.5545  3.1045
 9393SOL     OW39640   3.528   1.246   8.661 -0.2800  0.5356 -0.1969
 9393SOL    HW139641   3.585   1.266   8.587 -0.4673  0.8570 -0.2541
 9393SOL    HW239642   3.506   1.330   8.700  1.4711  0.4780  0.9097
 9394SOL     OW39643   0.452   1.741   2.526  0.5096 -0.8330 -0.2747
 9394SOL    HW139644   0.372   1.783   2.494  1.8291  0.4520 -1.8914
 9394SOL    HW239645   0.487   1.819   2.570 -0.4712  0.0258 -1.0213
 9395SOL     OW39646   0.628   1.408  12.252 -0.4349 -0.3104  0.8225
 9395SOL    HW139647   0.700   1.375  12.306 -1.7125 -4.3812 -0.0323
 9395SOL    HW239648   0.603   1.327  12.209  0.1740 -0.4219  0.6859
 9396SOL     OW39649   1.044   0.357   0.370 -0.0669 -0.1371 -0.0802
 9396SOL    HW139650   1.106   0.318   0.309 -1.3769  0.6065 -1.8921
 9396SOL    HW239651   1.024   0.274   0.414  0.0141  0.1842  0.5709
 9397SOL     OW39652   2.064   2.921   2.358 -0.3121 -0.2827 -0.4598
 9397SOL    HW139653   2.021   3.004   2.343  0.4767  0.2798  0.3678
 9397SOL    HW239654   2.144   2.941   2.309 -1.3642  0.7641 -1.7523
 9398SOL     OW39655   0.791   3.892  16.312  0.6738 -0.0885 -0.2610
 9398SOL    HW139656   0.865   3.879  16.371  0.0686 -0.6965  0.3522
 9398SOL    HW239657   0.745   3.810  16.324  2.8805 -1.4908 -1.4356
 9399SOL     OW39658   3.053   0.674  10.760 -0.0016 -0.7742  0.0318
 9399SOL    HW139659   3.123   0.642  10.817  0.8512 -0.6522 -0.9337
 9399SOL    HW239660   3.092   0.762  10.754  0.7344 -1.2677 -2.5367
 9400SOL     OW39661   0.977   3.559   9.598  0.0969  0.2879 -0.6270
 9400SOL    HW139662   1.051   3.577   9.540 -0.6860 -0.2932 -1.7971
 9400SOL    HW239663   0.924   3.495   9.551  0.5643  0.3335 -1.2165
 9401SOL     OW39664   2.591   0.622   6.200 -0.2396  0.8064  0.0742
 9401SOL    HW139665   2.610   0.645   6.291  1.9398  0.4175 -0.2872
 9401SOL    HW239666   2.609   0.528   6.197  2.1047  1.2895 -1.1599
 9402SOL     OW39667   1.426   2.675   3.940 -0.9872  0.3477 -0.0690
 9402SOL    HW139668   1.389   2.764   3.936  1.1344  1.2494  0.4118
 9402SOL    HW239669   1.449   2.658   3.849 -0.0814 -1.1581  0.4295
 9403SOL     OW39670   3.698   3.361  13.994  0.1751 -0.3817 -0.4489
 9403SOL    HW139671   3.615   3.388  14.033  0.7082  2.0436 -0.9501
 9403SOL    HW239672   3.753   3.440  13.999  1.1122 -1.0413 -0.3467
 9404SOL     OW39673   1.533   3.463  15.120 -0.1775  0.0852  0.5966
 9404SOL    HW139674   1.459   3.403  15.115  0.5724 -0.6280 -1.9200
 9404SOL    HW239675   1.506   3.540  15.070  1.3502 -0.5403 -1.2036
 9405SOL     OW39676   1.767   3.729  12.555  0.4969 -0.3474  0.1195
 9405SOL    HW139677   1.780   3.790  12.482  1.7456 -0.4871  0.2345
 9405SOL    HW239678   1.797   3.647  12.517 -0.2398 -0.3806 -0.3918
 9406SOL     OW39679   2.117   4.207   2.640  0.7983 -0.7918 -0.1374
 9406SOL    HW139680   2.095   4.300   2.634 -0.6835 -1.1749 -0.5912
 9406SOL    HW239681   2.107   4.179   2.731  1.0010  2.8712  1.0228
 9407SOL     OW39682   0.368   0.508   7.490 -0.3332  0.6300 -0.1436
 9407SOL    HW139683   0.460   0.524   7.469 -0.2954 -1.2675 -1.4164
 9407SOL    HW239684   0.370   0.430   7.545 -1.0493 -0.0877 -1.1313
 9408SOL     OW39685   4.456   1.287   9.558  0.0612 -0.2157 -0.0196
 9408SOL    HW139686   4.506   1.351   9.609 -0.5145 -0.7354  1.2071
 9408SOL    HW239687   4.473   1.209   9.610  1.4523  0.4076  0.4517
 9409SOL     OW39688   2.644   1.035  13.427 -0.0424 -0.2169  0.7019
 9409SOL    HW139689   2.645   1.072  13.515 -0.4671  2.8915 -0.6146
 9409SOL    HW239690   2.589   0.959  13.446  0.1594 -0.0035  2.1468
 9410SOL     OW39691   2.605   4.080   4.258 -0.0727 -0.0783 -0.2068
 9410SOL    HW139692   2.623   4.004   4.313  4.0607  0.7333 -0.4091
 9410SOL    HW239693   2.547   4.042   4.192 -0.0213 -2.2563  0.9994
 9411SOL     OW39694   3.031   0.964   9.370 -0.1362 -0.7576 -0.6815
 9411SOL    HW139695   3.110   1.016   9.362 -0.4140  0.0304  1.7090
 9411SOL    HW239696   2.980   0.992   9.447 -0.6102  0.1877 -1.3451
 9412SOL     OW39697   2.496   3.681   7.019 -0.1153 -0.2463 -0.1735
 9412SOL    HW139698   2.409   3.680   7.059  0.1241  0.8618  0.3839
 9412SOL    HW239699   2.520   3.589   7.031 -0.4694 -0.0789  1.7779
 9413SOL     OW39700   1.556   4.565  12.818 -0.1859  1.1838  0.3043
 9413SOL    HW139701   1.563   4.528  12.730 -1.5377 -0.6237  0.9509
 9413SOL    HW239702   1.465   4.543  12.834 -0.2059  0.9544 -0.1229
 9414SOL     OW39703   0.059   3.810   2.004 -0.1608  0.7497 -0.0959
 9414SOL    HW139704   0.031   3.777   1.919  0.1039  0.5959 -0.1196
 9414SOL    HW239705   0.035   3.903   1.998  1.4439  1.2345  0.9073
 9415SOL     OW39706   0.717   1.484   5.465  0.1798 -0.1065  0.0084
 9415SOL    HW139707   0.682   1.415   5.408  1.2392 -3.2281  3.1926
 9415SOL    HW239708   0.715   1.564   5.413  1.4624  0.9267  1.5509
 9416SOL     OW39709   1.081   1.681   6.864 -0.2063 -0.2479  0.7744
 9416SOL    HW139710   1.110   1.728   6.942 -1.6010  1.2032  0.4266
 9416SOL    HW239711   0.998   1.640   6.889 -0.5097  0.1631  0.4479
 9417SOL     OW39712   3.820   4.359   1.629  0.9147 -0.2346  0.4609
 9417SOL    HW139713   3.763   4.285   1.607 -0.6213  0.9769  0.3548
 9417SOL    HW239714   3.872   4.314   1.696  0.3928 -0.1697  0.9115
 9418SOL     OW39715   1.547   2.827   5.872  0.2110 -0.5018  0.1735
 9418SOL    HW139716   1.488   2.902   5.873  1.6117  0.6027 -0.4730
 9418SOL    HW239717   1.600   2.852   5.796 -1.7463 -0.2369 -1.1098
 9419SOL     OW39718   3.024   3.315   2.861  0.2996 -0.3310  0.2620
 9419SOL    HW139719   3.007   3.328   2.768  1.0212 -0.1688  0.1472
 9419SOL    HW239720   2.990   3.227   2.873  0.6585 -0.4588  0.3612
 9420SOL     OW39721   4.479   3.878  11.909  0.1795 -0.6889  0.3099
 9420SOL    HW139722   4.501   3.874  11.816 -4.2962  1.7191 -0.8315
 9420SOL    HW239723   4.526   3.957  11.937  1.6932 -0.5812 -2.5606
 9421SOL     OW39724   1.688   0.496   2.766 -0.2159 -0.3452  0.1520
 9421SOL    HW139725   1.750   0.564   2.793 -0.7722  0.4405 -0.5308
 9421SOL    HW239726   1.700   0.490   2.672  2.1057  0.3854  0.4103
 9422SOL     OW39727   1.160   0.147   7.462 -0.0656 -0.2255 -0.5886
 9422SOL    HW139728   1.153   0.052   7.469 -2.9716  0.0434  0.4886
 9422SOL    HW239729   1.094   0.175   7.399 -2.7079 -0.9999  1.8396
 9423SOL     OW39730   0.272   3.651   1.693  0.1142 -0.0271 -0.2796
 9423SOL    HW139731   0.184   3.677   1.667  0.3821  0.9022 -0.2846
 9423SOL    HW239732   0.277   3.557   1.676 -0.0868 -0.0984  0.0571
 9424SOL     OW39733   0.398   0.548   2.142 -0.2885  0.7002  0.4880
 9424SOL    HW139734   0.491   0.560   2.121 -0.3281  1.7079  0.8837
 9424SOL    HW239735   0.369   0.633   2.109 -0.1367 -0.0680 -1.6611
 9425SOL     OW39736   2.907   1.521   8.193  0.0623  0.8245 -0.8352
 9425SOL    HW139737   2.868   1.545   8.109 -4.1045 -2.2799  0.2295
 9425SOL    HW239738   2.979   1.583   8.185  2.2927 -1.9975 -2.8989
 9426SOL     OW39739   4.494   4.569   2.016  0.2854 -0.0400 -0.0837
 9426SOL    HW139740   4.446   4.650   2.001  0.2938 -0.1295 -0.5880
 9426SOL    HW239741   4.496   4.562   2.112 -1.3746 -0.1669 -0.0644
 9427SOL     OW39742   3.015   3.500   3.419  0.1426 -0.0958 -0.0996
 9427SOL    HW139743   3.110   3.486   3.424 -0.1722 -2.1869  0.4497
 9427SOL    HW239744   2.998   3.510   3.326  0.5223  0.2858 -0.1277
 9428SOL     OW39745   3.173   1.168   5.371 -0.2004 -0.3520 -0.1727
 9428SOL    HW139746   3.197   1.178   5.463  1.5686 -2.2412 -0.4260
 9428SOL    HW239747   3.183   1.074   5.355  0.4611 -0.8553  3.2399
 9429SOL     OW39748   1.101   3.679   4.744 -0.2627  0.2999 -0.5363
 9429SOL    HW139749   1.112   3.584   4.739  1.3442  0.4733 -0.1619
 9429SOL    HW239750   1.147   3.704   4.664 -0.4293 -2.1631 -1.4055
 9430SOL     OW39751   4.099   4.082   5.411 -0.5623  0.4174  0.0569
 9430SOL    HW139752   4.132   4.126   5.489 -1.3805  0.0433  0.6254
 9430SOL    HW239753   4.013   4.123   5.405 -0.5912  0.0396 -2.0617
 9431SOL     OW39754   2.595   3.071   7.495 -0.7080  0.1414 -0.0632
 9431SOL    HW139755   2.622   3.005   7.558 -0.6945 -1.2366 -1.4973
 9431SOL    HW239756   2.605   3.014   7.418 -1.0997 -1.1664  0.8634
 9432SOL     OW39757   3.772   3.598   2.898  0.3672  0.1414  0.4725
 9432SOL    HW139758   3.825   3.529   2.858 -0.7318  0.7054 -1.9051
 9432SOL    HW239759   3.842   3.664   2.900  0.1540  0.3739  0.2205
 9433SOL     OW39760   2.396   1.639   3.146 -0.2885 -0.0299 -0.1617
 9433SOL    HW139761   2.319   1.606   3.098  0.2546 -2.1690  0.4299
 9433SOL    HW239762   2.416   1.557   3.193 -2.0646  0.1794  0.9657
 9434SOL     OW39763   1.455   3.938   3.787 -0.6142  0.1896 -0.6536
 9434SOL    HW139764   1.514   3.959   3.860 -0.0702  0.2728 -1.1177
 9434SOL    HW239765   1.406   4.018   3.807  0.0453  0.1907  0.9530
 9435SOL     OW39766   3.519   0.098   8.982  0.6415  0.1870  0.0391
 9435SOL    HW139767   3.546   0.188   9.001 -2.3322  0.5792  2.3184
 9435SOL    HW239768   3.493   0.070   9.069 -2.8995  2.2623 -0.3315
 9436SOL     OW39769   1.331   1.360   4.921 -0.5392 -0.1571 -0.0505
 9436SOL    HW139770   1.359   1.271   4.900  0.2822 -0.3952  1.9979
 9436SOL    HW239771   1.371   1.409   4.850  1.1278 -2.6379 -0.8294
 9437SOL     OW39772   3.464   2.321   8.769  0.1815  0.5314 -0.5723
 9437SOL    HW139773   3.481   2.250   8.707 -0.1741  0.6124 -0.7633
 9437SOL    HW239774   3.388   2.363   8.728  0.0443  1.0280  0.1900
 9438SOL     OW39775   3.712   1.486  13.677 -0.9596  0.2772 -0.0324
 9438SOL    HW139776   3.788   1.545  13.685 -2.2948  2.1149 -1.0269
 9438SOL    HW239777   3.654   1.547  13.632 -0.0785 -0.0054 -1.5305
 9439SOL     OW39778   1.047   1.526   6.231  0.3657  0.5700  0.3171
 9439SOL    HW139779   0.961   1.566   6.244 -0.5030 -1.0727 -0.3206
 9439SOL    HW239780   1.046   1.506   6.137 -1.7515 -0.7166  0.5963
 9440SOL     OW39781   1.948   1.932   5.478  0.1717 -0.5103  0.1426
 9440SOL    HW139782   1.875   1.920   5.418  0.6181  1.5526 -0.8012
 9440SOL    HW239783   2.014   1.932   5.409  0.6134  0.2759  0.5532
 9441SOL     OW39784   4.285   0.147   2.904 -0.0639  0.4390  0.5424
 9441SOL    HW139785   4.299   0.207   2.977 -1.6350 -1.5005  2.4777
 9441SOL    HW239786   4.345   0.175   2.835  0.0885 -1.1272  0.0406
 9442SOL     OW39787   0.634   4.595   4.826  0.7464 -0.1307 -0.1268
 9442SOL    HW139788   0.631   4.525   4.761 -0.0854  3.3389 -3.7989
 9442SOL    HW239789   0.729   4.591   4.837  0.6813 -0.0624  0.4503
 9443SOL     OW39790   0.671   0.047   7.332 -0.1468 -0.7867  0.0270
 9443SOL    HW139791   0.588   0.064   7.376 -0.4382  1.2971 -1.3146
 9443SOL    HW239792   0.682   0.129   7.284 -1.8291  0.0210  1.0180
 9444SOL     OW39793   1.587   3.405   2.301  1.3024 -0.3961  0.3607
 9444SOL    HW139794   1.601   3.312   2.285 -1.2359 -0.4443 -1.5842
 9444SOL    HW239795   1.623   3.422   2.388 -1.2191  0.1013  1.3108
 9445SOL     OW39796   3.545   2.857   9.114  0.0215  0.3777 -0.5619
 9445SOL    HW139797   3.505   2.818   9.192 -0.4540  3.9074  0.9952
 9445SOL    HW239798   3.613   2.794   9.093 -0.9266 -0.9424  0.3369
 9446SOL     OW39799   0.886   1.791  17.185  0.4224  0.0587  0.0669
 9446SOL    HW139800   0.872   1.819  17.276 -0.6535 -0.0943 -0.0415
 9446SOL    HW239801   0.818   1.723  17.186  0.9598 -0.4914 -3.0854
 9447SOL     OW39802   0.279   1.502   5.733 -0.1687 -0.1222 -0.1310
 9447SOL    HW139803   0.356   1.457   5.699 -0.2390 -0.9909  0.8730
 9447SOL    HW239804   0.205   1.452   5.698 -0.6442  0.6294 -0.1991
 9448SOL     OW39805   0.359   4.446   6.156 -0.2708 -0.4876  0.0850
 9448SOL    HW139806   0.285   4.480   6.106  0.7287  1.4854 -0.0672
 9448SOL    HW239807   0.422   4.516   6.140  0.2641 -1.2225 -1.0060
 9449SOL     OW39808   4.471   3.510   2.790  0.1801 -0.2357  0.2845
 9449SOL    HW139809   4.490   3.428   2.835 -0.2609 -1.5807 -1.9756
 9449SOL    HW239810   4.552   3.505   2.738  1.0738 -0.2622  1.6912
 9450SOL     OW39811   0.399   0.350  15.638 -0.5719  0.1988 -0.2824
 9450SOL    HW139812   0.359   0.430  15.670 -2.5149 -0.9788  0.2545
 9450SOL    HW239813   0.455   0.328  15.712  0.1861  0.6605 -0.7180
 9451SOL     OW39814   1.342   1.372   2.793 -0.4389 -0.2708  0.1460
 9451SOL    HW139815   1.373   1.315   2.723 -0.1136  0.2466 -0.1390
 9451SOL    HW239816   1.426   1.418   2.802 -0.6944  0.2090  0.1268
 9452SOL     OW39817   0.531   4.078   2.161  0.7572 -0.5813  0.3898
 9452SOL    HW139818   0.450   4.027   2.156 -1.1638  2.2929  2.6610
 9452SOL    HW239819   0.517   4.136   2.086  2.5769  0.6036  0.9539
 9453SOL     OW39820   2.658   3.338   2.679  0.1838 -0.7056 -0.5791
 9453SOL    HW139821   2.691   3.406   2.620 -0.0683 -0.2589 -0.2048
 9453SOL    HW239822   2.725   3.271   2.667  2.0486  0.5580  2.9139
 9454SOL     OW39823   2.115   1.133   2.018 -0.4436 -0.4092  0.3732
 9454SOL    HW139824   2.164   1.055   2.045  2.9676  1.4029 -0.6398
 9454SOL    HW239825   2.164   1.204   2.060 -1.2617  1.5270 -1.9380
 9455SOL     OW39826   3.284   0.628   3.096  0.4664  0.0707  0.0735
 9455SOL    HW139827   3.222   0.605   3.166  2.6870 -3.9679  0.7016
 9455SOL    HW239828   3.222   0.635   3.023  0.4242 -2.5159 -0.1273
 9456SOL     OW39829   1.083   3.067   4.493  0.3484  0.2879  0.0084
 9456SOL    HW139830   1.026   3.058   4.570  0.9363  5.4473  1.0444
 9456SOL    HW239831   1.025   3.044   4.420  0.1939 -1.0733  0.5514
 9457SOL     OW39832   2.312   0.463  14.358 -0.1499  0.0805  0.0606
 9457SOL    HW139833   2.351   0.535  14.308 -0.2588 -0.4603 -0.7965
 9457SOL    HW239834   2.391   0.419  14.389  0.2337  2.4039  2.3514
 9458SOL     OW39835   0.412   1.114   4.318  0.0273  0.6100  0.2367
 9458SOL    HW139836   0.424   1.133   4.411  0.4870  0.6659  0.1622
 9458SOL    HW239837   0.473   1.179   4.284  2.9831 -1.2308  2.0064
 9459SOL     OW39838   4.525   0.473  15.101 -1.0685  0.2013 -0.0747
 9459SOL    HW139839   4.611   0.431  15.101 -0.0110  2.3648 -0.4985
 9459SOL    HW239840   4.552   0.559  15.067  1.5735 -0.4593  0.3537
 9460SOL     OW39841   1.443   0.552   6.771  0.2406 -0.3709  0.2757
 9460SOL    HW139842   1.447   0.573   6.865 -1.1178  0.9846  0.0255
 9460SOL    HW239843   1.478   0.463   6.771  0.3786 -0.3146  1.7512
 9461SOL     OW39844   2.598   2.014   5.617 -0.1764  0.1865 -0.3549
 9461SOL    HW139845   2.556   2.016   5.703 -1.7782  2.2670 -1.1709
 9461SOL    HW239846   2.513   1.990   5.580  0.6261 -0.1938 -1.9432
 9462SOL     OW39847   3.763   0.768   4.206  0.1888 -0.0620  0.1064
 9462SOL    HW139848   3.703   0.722   4.147 -1.0096  0.8703  0.5995
 9462SOL    HW239849   3.747   0.721   4.288  0.4144 -1.1611 -0.4828
 9463SOL     OW39850   0.811   2.327   4.319  0.0274 -0.4248  0.0952
 9463SOL    HW139851   0.791   2.258   4.255 -1.7721 -0.4630  0.7076
 9463SOL    HW239852   0.889   2.369   4.281 -0.1248  0.5133  0.8256
 9464SOL     OW39853   1.541   3.456  10.207 -0.3635 -0.1979  0.1365
 9464SOL    HW139854   1.551   3.416  10.294 -0.5226 -0.3942  0.0635
 9464SOL    HW239855   1.554   3.549  10.226  1.7518  0.0020 -2.3349
 9465SOL     OW39856   1.248   3.960   7.352 -0.7644 -0.4003 -0.1778
 9465SOL    HW139857   1.328   3.927   7.394 -0.4851  1.2973  0.5916
 9465SOL    HW239858   1.182   3.912   7.402 -0.0828  0.0134  1.1109
 9466SOL     OW39859   2.640   4.259  13.322  0.2164 -0.2169 -0.3257
 9466SOL    HW139860   2.602   4.346  13.311 -0.6444 -0.5249  0.1817
 9466SOL    HW239861   2.673   4.241  13.234 -1.9750 -0.0404 -1.1823
 9467SOL     OW39862   2.301   4.026   2.526 -0.3463  0.3023  0.2647
 9467SOL    HW139863   2.247   4.103   2.542 -1.1211  0.4638 -3.2206
 9467SOL    HW239864   2.379   4.049   2.576  0.9782  0.1945 -1.7693
 9468SOL     OW39865   3.054   1.451  12.159  0.1324  0.3809  0.1028
 9468SOL    HW139866   3.020   1.487  12.240  0.1009 -2.2239  1.2584
 9468SOL    HW239867   3.049   1.357  12.176  1.2768 -0.3386 -3.3894
 9469SOL     OW39868   2.643   1.976   6.763  0.3119  0.0105  0.0995
 9469SOL    HW139869   2.625   1.920   6.839  2.7724 -1.3146 -0.3012
 9469SOL    HW239870   2.708   1.921   6.719 -0.2544 -1.1543  0.6977
 9470SOL     OW39871   3.187   1.845   5.552  0.3010 -0.6894  0.3096
 9470SOL    HW139872   3.163   1.911   5.617  0.9991  0.7370 -0.8905
 9470SOL    HW239873   3.101   1.804   5.548 -0.3806  0.9387 -1.5181
 9471SOL     OW39874   1.050   0.732   3.123  0.4692  0.5543  0.5135
 9471SOL    HW139875   1.140   0.713   3.096 -0.1359 -2.0301  0.3255
 9471SOL    HW239876   1.038   0.823   3.096 -0.5326  0.6064  1.1366
 9472SOL     OW39877   1.234   4.329  11.893 -0.6925 -0.0687 -0.3292
 9472SOL    HW139878   1.222   4.380  11.813 -0.3702  2.6906  1.4101
 9472SOL    HW239879   1.323   4.296  11.886 -0.2467  0.8405  1.1626
 9473SOL     OW39880   1.290   3.780   4.568 -0.2942 -0.0072 -0.0469
 9473SOL    HW139881   1.368   3.761   4.620 -0.1161  1.5592  0.2418
 9473SOL    HW239882   1.310   3.868   4.537 -0.3165  1.1975  3.4429
 9474SOL     OW39883   0.155   1.498   9.201  0.3612  0.2480  0.0441
 9474SOL    HW139884   0.247   1.503   9.226  0.7320  0.5467 -1.3520
 9474SOL    HW239885   0.123   1.419   9.244  2.1889 -1.9700 -2.6778
 9475SOL     OW39886   2.137   1.891   7.369  0.1348 -0.1442 -0.5785
 9475SOL    HW139887   2.155   1.806   7.408 -1.8838 -0.3085 -0.0113
 9475SOL    HW239888   2.043   1.885   7.355 -0.1027 -1.5095  1.6420
 9476SOL     OW39889   0.397   2.765   3.623 -0.1580  0.3133 -0.7719
 9476SOL    HW139890   0.411   2.756   3.717 -1.9992  2.5926 -0.2539
 9476SOL    HW239891   0.342   2.688   3.610 -1.2304  1.2426 -1.7146
 9477SOL     OW39892   4.187   3.068   4.649  0.0399  0.2135  0.6221
 9477SOL    HW139893   4.103   3.078   4.604  1.0996  0.8112 -1.2624
 9477SOL    HW239894   4.230   2.999   4.599  0.9214  0.7085  0.6996
 9478SOL     OW39895   3.945   2.072   5.456 -0.2824  0.2406  0.0311
 9478SOL    HW139896   3.933   2.136   5.526  0.1741 -0.0691  0.3882
 9478SOL    HW239897   3.858   2.053   5.421 -1.2919 -0.1616  2.7587
 9479SOL     OW39898   3.300   4.145   5.403 -0.2227  0.1209 -0.2407
 9479SOL    HW139899   3.242   4.174   5.473 -0.1898 -0.5606  0.0663
 9479SOL    HW239900   3.290   4.050   5.409 -0.5103 -0.0255 -2.7316
 9480SOL     OW39901   4.097   1.752   2.649  0.2637  0.2917 -0.0550
 9480SOL    HW139902   4.072   1.819   2.585 -0.9257  0.9784  1.1369
 9480SOL    HW239903   4.111   1.808   2.725  1.6407 -1.0516  0.6802
 9481SOL     OW39904   3.922   4.680   7.956  0.0601 -0.1911 -0.0477
 9481SOL    HW139905   3.852   0.013   7.991  2.2179  2.5448 -0.0896
 9481SOL    HW239906   3.941   4.650   8.045 -1.5901  2.1573  1.0950
 9482SOL     OW39907   1.922   1.422  10.457 -0.3922  0.3685  0.0311
 9482SOL    HW139908   2.013   1.395  10.447 -1.1675 -2.5673  0.8442
 9482SOL    HW239909   1.943   1.471  10.537  3.9804 -1.2506 -0.1335
 9483SOL     OW39910   1.853   3.833   1.988  0.2173  0.3159 -0.6533
 9483SOL    HW139911   1.876   3.881   2.067 -1.9183  0.5690 -0.2026
 9483SOL    HW239912   1.862   3.743   2.018 -0.5300 -0.0632 -1.5493
 9484SOL     OW39913   2.987   1.302   8.788  0.3408 -0.6862  0.6700
 9484SOL    HW139914   2.919   1.301   8.855 -0.6285 -0.1035 -0.3182
 9484SOL    HW239915   3.068   1.316   8.837 -0.4029 -0.1835  1.7406
 9485SOL     OW39916   2.836   0.260   6.156  0.2669 -0.0560 -0.4575
 9485SOL    HW139917   2.862   0.233   6.244 -1.0230 -1.3933 -0.4766
 9485SOL    HW239918   2.741   0.269   6.162  0.1307 -1.3706 -0.4524
 9486SOL     OW39919   1.917   0.723  10.186  0.5965  0.3684  0.1481
 9486SOL    HW139920   1.918   0.667  10.263  0.0915  0.0388 -0.0834
 9486SOL    HW239921   2.003   0.700  10.153  0.9329 -0.3968  1.5377
 9487SOL     OW39922   2.679   1.067   2.912 -0.2483  0.4814 -0.1660
 9487SOL    HW139923   2.738   1.104   2.847 -1.7708  2.5065 -0.3818
 9487SOL    HW239924   2.625   1.142   2.935 -0.9471 -0.9106  2.7348
 9488SOL     OW39925   4.214   3.701  11.577 -0.1963 -0.5745 -0.2783
 9488SOL    HW139926   4.242   3.614  11.608  0.6903 -0.7377 -1.5694
 9488SOL    HW239927   4.221   3.699  11.482  0.0518 -0.7481 -0.2575
 9489SOL     OW39928   1.629   3.421   5.781  0.3542 -0.9880 -0.5028
 9489SOL    HW139929   1.604   3.396   5.692 -1.3690  1.1456 -0.6239
 9489SOL    HW239930   1.724   3.430   5.773  0.1264  1.0373 -1.0170
 9490SOL     OW39931   0.845   4.595   5.250  0.2508 -0.5833  0.1784
 9490SOL    HW139932   0.881   4.534   5.186 -1.3633 -1.6535  0.3039
 9490SOL    HW239933   0.923   4.603   5.305  1.2334  0.2310 -1.3293
 9491SOL     OW39934   0.365   1.644  11.452 -0.6831 -0.8321 -0.8577
 9491SOL    HW139935   0.428   1.587  11.408  1.0537  0.0871  0.4132
 9491SOL    HW239936   0.282   1.600  11.433 -1.1600 -0.0887 -0.5405
 9492SOL     OW39937   2.668   0.235   7.371 -0.2458  0.2066  0.6059
 9492SOL    HW139938   2.761   0.248   7.353 -0.8589  1.0591 -1.8952
 9492SOL    HW239939   2.669   0.242   7.466  1.4254  1.1058  0.5192
 9493SOL     OW39940   4.262   3.101   1.991 -0.8341  0.2543  0.5384
 9493SOL    HW139941   4.205   3.177   2.001 -2.6137 -1.1706  1.1048
 9493SOL    HW239942   4.220   3.057   1.917 -0.5535  3.3303 -1.4856
 9494SOL     OW39943   2.161   3.480  14.922 -0.1393 -0.2691  0.5600
 9494SOL    HW139944   2.108   3.514  14.851 -0.7108  1.2922  1.7433
 9494SOL    HW239945   2.244   3.452  14.883  0.4069  0.6102  1.0853
 9495SOL     OW39946   3.587   0.719  10.461 -0.3056  0.3433 -0.5598
 9495SOL    HW139947   3.672   0.677  10.446 -1.7469 -2.0872 -1.8897
 9495SOL    HW239948   3.587   0.715  10.556 -1.7965 -2.2800 -0.6758
 9496SOL     OW39949   0.402   1.865   4.013 -0.1105 -0.5063  0.7928
 9496SOL    HW139950   0.455   1.845   4.091  1.3820  1.3548  0.2417
 9496SOL    HW239951   0.366   1.778   3.992  0.7255 -1.4230  3.1348
 9497SOL     OW39952   2.733   0.516   4.971 -0.1910 -0.7843 -0.3748
 9497SOL    HW139953   2.668   0.572   4.930  1.5024  0.6817 -1.0533
 9497SOL    HW239954   2.686   0.468   5.039 -3.3853 -0.3425 -2.2898
 9498SOL     OW39955   4.379   4.227  16.481 -0.6590 -0.6473 -0.2163
 9498SOL    HW139956   4.327   4.308  16.483  0.9865  0.3836  1.2725
 9498SOL    HW239957   4.324   4.174  16.424 -1.3242  0.1449 -0.3138
 9499SOL     OW39958   3.573   3.673   2.718 -0.6301  0.1131  0.0523
 9499SOL    HW139959   3.497   3.616   2.723 -1.0965  0.5791 -1.7040
 9499SOL    HW239960   3.633   3.614   2.763 -2.3080 -0.6141  1.3219
 9500SOL     OW39961   2.584   1.748   6.297  0.2568  0.4742  0.1938
 9500SOL    HW139962   2.604   1.704   6.215  2.1804  2.5305 -0.4663
 9500SOL    HW239963   2.492   1.727   6.310 -0.1135  1.2043 -1.2298
 9501SOL     OW39964   3.393   3.958   5.061 -0.2246  0.2740  0.0401
 9501SOL    HW139965   3.396   3.918   4.975  1.6496 -0.2292  0.3522
 9501SOL    HW239966   3.305   3.994   5.047 -1.4231 -1.8752  1.9825
 9502SOL     OW39967   1.051   4.612  11.951 -1.2532 -0.1437  0.5026
 9502SOL    HW139968   1.084   4.590  11.864  0.6643 -1.4456  1.5590
 9502SOL    HW239969   0.969   4.563  11.947 -0.2578 -1.6489 -2.2270
 9503SOL     OW39970   3.606   1.938   4.884 -0.1389  0.2050 -0.6892
 9503SOL    HW139971   3.664   1.909   4.954  0.9832  0.2400 -1.6007
 9503SOL    HW239972   3.609   1.863   4.824 -0.0521  0.0457 -0.4836
 9504SOL     OW39973   3.385   1.605  17.083 -0.5964 -0.3955 -0.2982
 9504SOL    HW139974   3.358   1.650  17.004 -0.0194  1.2727  0.4606
 9504SOL    HW239975   3.443   1.540  17.044 -0.2669  0.8157 -1.7979
 9505SOL     OW39976   0.421   3.436   1.199 -0.0042  0.0572  0.2683
 9505SOL    HW139977   0.360   3.459   1.268 -0.4610  0.6818 -0.3522
 9505SOL    HW239978   0.479   3.511   1.212 -0.4384  0.3507  0.4870
 9506SOL     OW39979   3.244   2.579   5.499 -0.1786 -0.2740 -0.3090
 9506SOL    HW139980   3.163   2.631   5.494  1.7786  2.8365  0.5498
 9506SOL    HW239981   3.297   2.620   5.431  0.4236  0.6617  0.7263
 9507SOL     OW39982   3.336   0.110   8.625  0.5686 -0.2709  0.4700
 9507SOL    HW139983   3.339   0.065   8.541 -0.3692  0.6295 -0.0503
 9507SOL    HW239984   3.244   0.136   8.634 -0.4826 -3.1964 -2.2241
 9508SOL     OW39985   4.227   3.324   7.607  0.5983  0.3616  0.0295
 9508SOL    HW139986   4.286   3.253   7.582  1.1103  0.6560  0.3830
 9508SOL    HW239987   4.272   3.353   7.686 -1.2487  0.9430  0.8799
 9509SOL     OW39988   0.182   2.346  15.285 -0.2434 -0.0377  0.2956
 9509SOL    HW139989   0.178   2.363  15.379  1.6093  1.8041  0.0326
 9509SOL    HW239990   0.273   2.354  15.258 -0.6312  0.0947 -0.9833
 9510SOL     OW39991   1.507   0.616   2.333 -0.0381  0.0774 -0.0198
 9510SOL    HW139992   1.429   0.669   2.318  1.6108  2.5227  0.0046
 9510SOL    HW239993   1.576   0.683   2.335 -1.1354  1.1721  1.2779
 9511SOL     OW39994   0.940   0.233   0.718  0.4093  0.1100 -0.4064
 9511SOL    HW139995   0.904   0.288   0.788  0.4785  0.7528 -0.8719
 9511SOL    HW239996   0.961   0.148   0.756 -0.5728  0.5359  1.0651
 9512SOL     OW39997   3.581   2.848  15.402  0.3908  0.3927  0.4416
 9512SOL    HW139998   3.575   2.849  15.307  1.6380  0.7075  0.3584
 9512SOL    HW239999   3.490   2.825  15.422  0.6430  0.1278  1.2823
 9513SOL     OW40000   4.081   3.023   1.539 -0.0313  0.4461 -0.9014
 9513SOL    HW140001   3.986   3.035   1.527 -0.4286 -1.0731  0.8094
 9513SOL    HW240002   4.082   2.980   1.624 -0.8270 -2.3314 -2.2964
 9514SOL     OW40003   1.734   3.610   2.168  0.4786 -0.0794  0.2143
 9514SOL    HW140004   1.683   3.542   2.212 -1.3522 -0.4097 -2.4178
 9514SOL    HW240005   1.684   3.687   2.196 -1.1236 -0.0065 -2.8754
 9515SOL     OW40006   1.225   1.988   8.041  0.0825  0.1669 -0.3951
 9515SOL    HW140007   1.259   1.952   7.959  2.0753  0.2298  0.4044
 9515SOL    HW240008   1.140   2.019   8.012 -1.0560 -0.1473  2.5373
 9516SOL     OW40009   4.490   2.211   6.741  0.1518 -0.5184  0.1656
 9516SOL    HW140010   4.470   2.133   6.792 -2.9338 -0.1601 -0.5208
 9516SOL    HW240011   4.465   2.202   6.649  1.1517  0.8097 -0.2402
 9517SOL     OW40012   4.701   2.691   0.078 -0.6782 -1.1870  0.0645
 9517SOL    HW140013   0.037   2.732   0.143 -2.7143  0.9051  0.5856
 9517SOL    HW240014   4.707   2.759   0.010  0.4985 -0.6482  0.7060
 9518SOL     OW40015   4.466   0.605   4.487  0.0780  0.3860  0.0584
 9518SOL    HW140016   4.555   0.638   4.473 -0.5747  1.5591 -1.2540
 9518SOL    HW240017   4.405   0.678   4.476  2.0974  1.5939 -3.0963
 9519SOL     OW40018   3.956   2.414   2.408  0.2729 -0.7189 -0.1022
 9519SOL    HW140019   3.994   2.453   2.329  0.5161 -2.7292 -0.9794
 9519SOL    HW240020   4.018   2.440   2.475  0.8651 -2.1262 -0.0961
 9520SOL     OW40021   4.191   2.256   1.693  0.3514 -0.7493  0.0012
 9520SOL    HW140022   4.232   2.251   1.606 -0.0300 -1.9241 -0.1003
 9520SOL    HW240023   4.104   2.222   1.673 -1.1658  1.9378  1.9774
 9521SOL     OW40024   1.466   1.432   4.375 -0.3104  0.5918 -0.1398
 9521SOL    HW140025   1.487   1.385   4.294  1.1491  2.0129 -0.5920
 9521SOL    HW240026   1.520   1.511   4.374 -0.5737  0.7886  3.5324
 9522SOL     OW40027   3.833   1.832   1.160 -0.2799  0.1082  0.3551
 9522SOL    HW140028   3.813   1.773   1.087  2.3573 -0.2287 -0.1144
 9522SOL    HW240029   3.744   1.852   1.188 -0.5214  0.5922 -0.7824
 9523SOL     OW40030   3.492   4.504   5.141  0.0882  0.1266  0.3177
 9523SOL    HW140031   3.446   4.531   5.221  2.1946  2.5336  0.7315
 9523SOL    HW240032   3.457   4.416   5.130  2.0494 -0.7664  1.3718
 9524SOL     OW40033   3.383   3.491   3.345  0.8544 -0.3705  0.7274
 9524SOL    HW140034   3.339   3.411   3.316 -0.9666  0.4204  1.2808
 9524SOL    HW240035   3.474   3.474   3.324  0.1044 -2.6874 -0.7626
 9525SOL     OW40036   2.672   1.446  12.823 -0.3449 -0.0638 -0.0440
 9525SOL    HW140037   2.718   1.449  12.906 -1.2736  2.1328  0.3870
 9525SOL    HW240038   2.591   1.495  12.839  0.1874  0.6970  0.3208
 9526SOL     OW40039   1.709   1.136  13.417 -0.0621  0.4070 -0.2232
 9526SOL    HW140040   1.732   1.217  13.371 -0.2132  1.7345  2.0307
 9526SOL    HW240041   1.614   1.139  13.422 -0.1479 -1.5719 -0.8202
 9527SOL     OW40042   3.094   0.793   4.191  0.1232 -0.3078  0.4225
 9527SOL    HW140043   3.106   0.882   4.223 -0.7304  0.7999 -2.3508
 9527SOL    HW240044   3.120   0.804   4.099 -1.6095  0.4864  0.0284
 9528SOL     OW40045   3.169   0.977   8.480 -0.0480  0.1457  0.3937
 9528SOL    HW140046   3.179   1.072   8.487 -3.6445  0.4519  1.4333
 9528SOL    HW240047   3.228   0.941   8.546 -0.1590 -1.3359 -0.3144
 9529SOL     OW40048   2.717   1.275  16.456 -0.5761 -0.2400 -0.6275
 9529SOL    HW140049   2.658   1.236  16.521 -0.9894 -0.1813 -0.9605
 9529SOL    HW240050   2.730   1.207  16.389  0.3997  0.0800 -0.7597
 9530SOL     OW40051   3.868   3.020   6.463  0.5679 -0.0585 -0.2238
 9530SOL    HW140052   3.827   3.074   6.395  2.5489 -0.8459 -2.0446
 9530SOL    HW240053   3.860   2.935   6.420 -2.7541 -0.0197  0.3481
 9531SOL     OW40054   2.840   1.536   6.290 -0.2080  0.0275 -0.1977
 9531SOL    HW140055   2.895   1.613   6.275 -1.1375  1.0811  1.8242
 9531SOL    HW240056   2.761   1.579   6.321 -2.0299 -1.1830 -3.2089
 9532SOL     OW40057   3.228   3.862   7.669 -0.3476  0.7347  0.2744
 9532SOL    HW140058   3.204   3.811   7.746  0.9757  0.7658  0.7100
 9532SOL    HW240059   3.301   3.807   7.640 -2.1019 -0.5181 -1.7541
 9533SOL     OW40060   3.073   2.214  11.494  0.5726  0.4440 -0.1474
 9533SOL    HW140061   3.100   2.175  11.410  0.3672 -3.9882  1.8497
 9533SOL    HW240062   2.991   2.256  11.466 -1.1698 -1.4858  2.0878
 9534SOL     OW40063   2.880   1.127   9.861 -0.1874 -0.0131 -0.5977
 9534SOL    HW140064   2.877   1.045   9.910  0.9111  0.8053  0.8512
 9534SOL    HW240065   2.910   1.184   9.931 -0.6687 -0.1120 -0.3163
 9535SOL     OW40066   3.727   2.700   9.052  0.1852 -0.5399 -0.2741
 9535SOL    HW140067   3.810   2.679   9.009 -0.4688 -1.5294 -1.0571
 9535SOL    HW240068   3.752   2.654   9.132 -1.0075 -0.5879  0.0649
 9536SOL     OW40069   2.584   3.442   7.099  0.2297  0.5705 -0.0124
 9536SOL    HW140070   2.541   3.394   7.171 -0.6976  2.6581  0.8206
 9536SOL    HW240071   2.673   3.431   7.134  0.1511 -0.0839 -0.0096
 9537SOL     OW40072   4.438   2.404   5.734 -0.7296  0.9934  0.0145
 9537SOL    HW140073   4.446   2.333   5.670  0.3386 -0.0153  1.2771
 9537SOL    HW240074   4.424   2.351   5.812 -0.8650  0.9363 -0.0486
 9538SOL     OW40075   1.728   2.797  14.536 -0.2338 -0.2904  0.1366
 9538SOL    HW140076   1.811   2.830  14.570 -0.9717  1.1512  0.5130
 9538SOL    HW240077   1.730   2.832  14.447 -1.3925  0.3131  0.3625
 9539SOL     OW40078   1.791   4.437   9.848 -0.1058 -0.5249 -0.2203
 9539SOL    HW140079   1.715   4.486   9.817  1.4063  1.9650 -0.0807
 9539SOL    HW240080   1.817   4.494   9.921  3.5772 -1.6329 -0.6640
 9540SOL     OW40081   2.458   1.158  16.136 -0.0757 -0.2655  0.1067
 9540SOL    HW140082   2.518   1.094  16.174  0.0457 -0.3687 -0.2550
 9540SOL    HW240083   2.492   1.167  16.047 -0.9612  1.2948 -0.0810
 9541SOL     OW40084   4.210   3.456   8.100 -0.1185  0.4732 -0.5308
 9541SOL    HW140085   4.116   3.446   8.111 -0.1326 -2.1842 -3.1759
 9541SOL    HW240086   4.223   3.551   8.107 -1.5046  0.5309  1.0860
 9542SOL     OW40087   1.956   0.151   9.342 -0.2826 -0.1617 -0.0002
 9542SOL    HW140088   1.899   0.226   9.327 -0.9485 -0.9150 -1.2095
 9542SOL    HW240089   2.011   0.159   9.264 -0.8906  3.0124 -0.0829
 9543SOL     OW40090   2.377   1.890   7.779 -0.5864 -0.3715 -0.1298
 9543SOL    HW140091   2.397   1.977   7.813 -2.7527  0.6661 -1.4458
 9543SOL    HW240092   2.377   1.835   7.857 -1.1869  0.4034  0.4086
 9544SOL     OW40093   3.319   4.653  15.183 -0.3887 -0.6994  0.1041
 9544SOL    HW140094   3.257   4.701  15.238 -0.1367 -1.5456  1.1389
 9544SOL    HW240095   3.386   4.637  15.250  2.8188 -1.1462 -3.2312
 9545SOL     OW40096   3.170   3.638  13.716 -0.1298 -0.9074 -0.6545
 9545SOL    HW140097   3.184   3.677  13.802  0.3440  0.9332 -1.5609
 9545SOL    HW240098   3.257   3.607  13.691  0.4101 -0.0722  0.1806
 9546SOL     OW40099   0.853   1.793   4.028 -0.6157  0.0694  0.0849
 9546SOL    HW140100   0.759   1.805   4.018 -0.3398  0.4870 -2.0298
 9546SOL    HW240101   0.858   1.767   4.120 -0.9450 -1.5930 -0.3660
 9547SOL     OW40102   0.479   3.833   5.492  0.0830  0.3548 -0.9160
 9547SOL    HW140103   0.518   3.840   5.405 -2.3406 -1.1024 -2.1359
 9547SOL    HW240104   0.501   3.742   5.513 -1.6827  0.1417  0.0023
 9548SOL     OW40105   2.999   2.544   6.925  0.3542 -0.0925  0.2966
 9548SOL    HW140106   2.973   2.567   7.014  0.5621 -2.3939  0.9593
 9548SOL    HW240107   2.997   2.631   6.886  1.0381  0.8908  2.4882
 9549SOL     OW40108   1.563   4.312   4.875 -0.0907  0.3608  0.0871
 9549SOL    HW140109   1.576   4.364   4.954 -2.0589  0.3207  0.4243
 9549SOL    HW240110   1.490   4.259   4.906  2.7568 -3.9800 -0.7243
 9550SOL     OW40111   1.072   1.303   6.384 -0.0968  0.3956  0.1514
 9550SOL    HW140112   1.096   1.275   6.296 -2.3477  1.1650 -0.7216
 9550SOL    HW240113   1.045   1.393   6.363 -0.7617  0.1275 -0.1378
 9551SOL     OW40114   1.813   3.675  12.235  0.9316  0.3516  0.7712
 9551SOL    HW140115   1.827   3.760  12.278  1.0600  0.6028  0.2274
 9551SOL    HW240116   1.763   3.694  12.156  1.8958  2.9158  0.7691
 9552SOL     OW40117   1.027   3.105   3.221  0.5500 -0.0318 -0.2460
 9552SOL    HW140118   1.091   3.061   3.276 -0.5045 -0.8708  0.3273
 9552SOL    HW240119   1.018   3.184   3.274  1.7619  0.4954 -0.8415
 9553SOL     OW40120   1.527   3.548   2.941  0.6512 -0.0959  0.0799
 9553SOL    HW140121   1.480   3.629   2.923 -2.0340 -1.8450 -0.8110
 9553SOL    HW240122   1.455   3.489   2.919  1.2198 -1.0705  0.7874
 9554SOL     OW40123   3.483   0.123   4.100  0.1982 -0.1497 -0.3425
 9554SOL    HW140124   3.469   0.159   4.188  2.8658 -3.0680  1.2600
 9554SOL    HW240125   3.574   0.094   4.112 -0.1742 -1.2596 -0.2609
 9555SOL     OW40126   2.808   3.628  13.808  0.0306  0.7423 -0.1698
 9555SOL    HW140127   2.860   3.707  13.821 -1.2477  1.6098 -0.3233
 9555SOL    HW240128   2.832   3.581  13.887 -1.3304 -1.5329 -1.1003
 9556SOL     OW40129   3.055   0.315  12.901  0.3715  0.2635 -0.0425
 9556SOL    HW140130   3.107   0.376  12.849 -0.4627  0.4295 -0.6816
 9556SOL    HW240131   2.979   0.366  12.929  0.7053  0.8439 -0.2070
 9557SOL     OW40132   1.227   3.219  12.257  0.0174  0.3659 -0.2610
 9557SOL    HW140133   1.150   3.163  12.260  1.3422 -1.4966 -0.8035
 9557SOL    HW240134   1.242   3.252  12.346 -2.0293  1.4616 -0.3295
 9558SOL     OW40135   0.277   3.376   2.463 -0.2580  0.3635 -0.0142
 9558SOL    HW140136   0.253   3.300   2.411 -1.9306  0.5903  0.4178
 9558SOL    HW240137   0.298   3.327   2.542 -0.3947  0.4403  0.0696
 9559SOL     OW40138   3.482   4.623   6.845 -0.4143  0.0206  0.1654
 9559SOL    HW140139   3.564   4.616   6.894  0.4860  0.1640 -1.3173
 9559SOL    HW240140   3.432   4.557   6.894 -2.9912  2.4765  0.8157
 9560SOL     OW40141   2.949   1.514   4.318 -0.3661  0.8676  0.1683
 9560SOL    HW140142   2.877   1.568   4.284 -0.3463  0.2120 -0.9125
 9560SOL    HW240143   2.983   1.580   4.378  0.6666 -0.4504  1.0190
 9561SOL     OW40144   1.861   4.634  10.047 -0.0242  0.0763 -0.1625
 9561SOL    HW140145   1.828   4.714  10.006  0.8577 -0.3071 -1.6135
 9561SOL    HW240146   1.872   4.664  10.137  0.7456  1.8722 -0.8665
 9562SOL     OW40147   3.713   2.656   3.028  0.0337 -0.1832  0.2350
 9562SOL    HW140148   3.646   2.590   3.014 -2.1424  2.2150 -0.6817
 9562SOL    HW240149   3.780   2.601   3.069  0.8850  1.1060  0.5906
 9563SOL     OW40150   0.104   3.678  11.705 -0.0343 -1.3839 -0.5811
 9563SOL    HW140151   0.103   3.644  11.616 -0.3794  0.6366 -1.3450
 9563SOL    HW240152   0.069   3.765  11.692 -0.4083 -1.0113  2.8343
 9564SOL     OW40153   3.768   1.498   5.449  0.0849 -0.0307  0.3607
 9564SOL    HW140154   3.711   1.449   5.508 -2.3603 -1.4870 -3.1977
 9564SOL    HW240155   3.734   1.582   5.480  0.8699  0.5070 -0.2311
 9565SOL     OW40156   0.847   3.575   6.607  0.5071  0.5783  0.0370
 9565SOL    HW140157   0.773   3.551   6.551  3.0372 -0.6298 -2.7761
 9565SOL    HW240158   0.888   3.634   6.544 -1.8937  3.3560  1.0303
 9566SOL     OW40159   1.883   3.162   3.583  0.2186  0.3570  0.1402
 9566SOL    HW140160   1.837   3.208   3.513  2.7049  0.5166 -1.3685
 9566SOL    HW240161   1.944   3.225   3.621  2.7400 -2.0831  0.1129
 9567SOL     OW40162   1.086   1.055   0.471  0.6978  0.2144  0.7493
 9567SOL    HW140163   1.148   1.047   0.398 -0.4675  1.6121 -0.3925
 9567SOL    HW240164   1.053   0.965   0.464  0.6219  0.3595 -0.7993
 9568SOL     OW40165   1.416   3.178   5.429  0.1635  0.3697 -0.1290
 9568SOL    HW140166   1.368   3.255   5.461  1.0378  1.3380 -1.1748
 9568SOL    HW240167   1.418   3.182   5.334  0.7356  1.5698 -0.0658
   4.72206   4.72206  17.69037
