Membrane in water
40167
    1TCq1    O1    1   3.959   3.310  11.375 -0.3246 -0.0245  0.5357
    1TCq1    C1    2   3.918   3.228  11.475 -0.2103  0.8215 -0.7072
    1TCq1    O2    3   3.962   3.235  11.589  0.1751  0.1025  0.2517
    1TCq1    C2    4   3.873   3.097  11.414 -0.1725 -0.1625  0.5747
    1TCq1    C3    5   3.883   3.072  11.281  0.1517 -0.2952 -0.2011
    1TCq1    C4    6   3.848   2.940  11.244 -0.2614  0.6151 -0.3901
    1TCq1    C5    7   3.815   2.836  11.329 -0.3072 -0.7586 -0.1760
    1TCq1    C6    8   3.819   2.871  11.461  0.2229  0.2837  0.5335
    1TCq1    C7    9   3.846   2.999  11.502  0.0101  0.0565  0.3772
    1TCq1    C8   10   3.760   2.783  11.550 -0.1156  0.4559 -0.1230
    1TCq1    O4   11   3.690   2.826  11.638 -0.1195  0.6216  0.2213
    1TCq1    C9   12   3.824   2.916  11.102 -0.8793 -0.4896  0.0108
    1TCq1    O5   13   3.838   3.010  11.024 -0.4517 -0.1422 -0.7686
    1TCq1    O6   14   3.767   2.807  11.079  0.0207  0.0414 -0.6301
    1TCq1    H1   15   3.901   3.309  11.296  0.2590  1.9860  0.0644
    1TCq1    H2   16   3.931   3.135  11.207  1.3508 -0.0741  0.7657
    1TCq1    H3   17   3.765   2.748  11.289 -0.0530 -0.2593 -1.6147
    1TCq1    H4   18   3.839   3.027  11.607 -2.5001  1.6934 -0.2308
    2MPD2     C   19   3.663   2.291  11.682 -0.2592  0.0568 -0.6050
    2MPD2    C1   20   3.630   2.406  11.746  0.1797  0.6823 -0.3431
    2MPD2    C2   21   3.670   2.526  11.687  0.7162 -0.1943  0.4515
    2MPD2    C3   22   3.744   2.532  11.572  0.5476 -0.2889 -0.6351
    2MPD2    C4   23   3.776   2.415  11.510 -0.3769 -0.0147 -0.5605
    2MPD2    C5   24   3.736   2.297  11.561  0.5497 -0.0235  0.3308
    2MPD2     H   25   3.655   2.614  11.749  1.1451  0.0605  0.1921
    2MPD2    H1   26   3.849   2.416  11.430 -1.1163 -0.7664 -1.2414
    2MPD2    H2   27   3.625   2.193  11.707 -0.0899  0.3897  0.9513
    2MPD2    H3   28   3.745   2.204  11.505  1.1868  0.8443 -0.9938
    2MPD2     N   29   3.793   2.649  11.515  0.1609  0.5606 -0.5990
    2MPD2    H5   30   3.852   2.634  11.434  0.6226  1.4607 -0.4263
    2MPD2    N1   31   3.558   2.403  11.864  0.7560 -0.0289 -0.3123
    2MPD2    H7   32   3.526   2.494  11.893  1.8193 -0.3080  1.7829
    3TCq1    O1   33   2.793   3.855  10.440  0.0753 -0.0367 -0.4868
    3TCq1    C1   34   2.903   3.847  10.361 -0.3841  0.1245 -0.5515
    3TCq1    O2   35   2.940   3.745  10.303  0.6254  0.7338  0.2016
    3TCq1    C2   36   2.954   3.982  10.333 -0.1669  0.4990  0.2406
    3TCq1    C3   37   3.013   3.992  10.212 -0.3211  1.3533 -0.3652
    3TCq1    C4   38   3.087   4.105  10.192 -0.7200  0.6864  0.3772
    3TCq1    C5   39   3.103   4.199  10.289  0.7768 -0.4965  0.2351
    3TCq1    C6   40   3.030   4.194  10.400  0.1417 -0.2624 -0.1273
    3TCq1    C7   41   2.961   4.078  10.437  0.1116  0.1316 -0.4015
    3TCq1    C8   42   3.001   4.322  10.468  0.2032  0.0898  0.0178
    3TCq1    O4   43   3.055   4.425  10.440  0.3807  0.2425  0.0900
    3TCq1    C9   44   3.143   4.115  10.064 -0.8277  0.3376 -0.8164
    3TCq1    O5   45   3.183   4.227  10.029 -0.3258  0.2415 -0.0212
    3TCq1    O6   46   3.182   4.005  10.019 -0.2812 -0.8139  0.3042
    3TCq1    H1   47   2.763   3.945  10.463  1.0425 -0.6402  3.2347
    3TCq1    H2   48   3.002   3.916  10.136  0.1497  2.1806 -1.2530
    3TCq1    H3   49   3.149   4.297  10.277 -0.3429  0.0540  0.4778
    3TCq1    H4   50   2.915   4.063  10.534  0.2059  0.6765 -0.2723
    4MPD2     C   51   2.677   4.569  10.782  0.3044  0.7534  0.8683
    4MPD2    C1   52   2.626   4.442  10.762  0.3306  0.5234 -0.5219
    4MPD2    C2   53   2.689   4.352  10.677 -0.0589  0.2454  0.3942
    4MPD2    C3   54   2.809   4.391  10.623  0.7297 -0.0670 -0.2841
    4MPD2    C4   55   2.855   4.518  10.636 -0.0118  0.1874 -0.1325
    4MPD2    C5   56   2.792   4.607  10.717 -0.5688  0.0809  0.7791
    4MPD2     H   57   2.643   4.254  10.684 -0.6833  0.5587  0.6612
    4MPD2    H1   58   2.954   4.546  10.603  0.1883 -0.1988  0.1381
    4MPD2    H2   59   2.632   4.648  10.841  1.2400  1.6664  0.3550
    4MPD2    H3   60   2.830   4.708  10.725  1.8245 -0.8102  0.6777
    4MPD2     N   61   2.887   4.299  10.550 -0.0948 -0.1131 -0.1015
    4MPD2    H5   62   2.851   4.205  10.537 -2.7777  0.8779  0.1270
    4MPD2    N1   63   2.512   4.394  10.835 -0.4444 -0.8617  0.2339
    4MPD2    H7   64   2.470   4.309  10.797 -1.7619 -0.0675 -0.0848
    5TCq1    O1   65   4.582   0.574  12.155  0.4295 -0.4657  0.3532
    5TCq1    C1   66   4.699   0.635  12.124 -0.0270  0.0454  0.1433
    5TCq1    O2   67   0.060   0.672  12.200 -0.2831  0.3787 -0.4083
    5TCq1    C2   68   4.667   0.719  12.000  0.9481  0.7500  0.1453
    5TCq1    C3   69   4.683   0.851  12.001  0.5288 -0.1951  0.5770
    5TCq1    C4   70   4.629   0.926  11.902  0.0218  0.7224 -0.7206
    5TCq1    C5   71   4.562   0.866  11.798  0.3625  0.5361 -0.8025
    5TCq1    C6   72   4.557   0.730  11.798  0.4606  0.2613  0.5073
    5TCq1    C7   73   4.610   0.654  11.897  0.1545 -0.4365  0.4716
    5TCq1    C8   74   4.455   0.665  11.727  1.0312 -0.9231  0.4182
    5TCq1    O4   75   4.436   0.547  11.750 -0.2801  0.5867  0.0145
    5TCq1    C9   76   4.648   1.062  11.904 -0.1029  0.0462  0.2866
    5TCq1    O5   77   4.701   1.113  12.004  0.0911 -0.4246  0.2374
    5TCq1    O6   78   4.592   1.124  11.809  0.0717 -0.0929 -0.6265
    5TCq1    H1   79   4.500   0.583  12.103  0.0855 -0.0579  0.9640
    5TCq1    H2   80   0.007   0.899  12.087 -0.6248 -0.6914  1.4849
    5TCq1    H3   81   4.536   0.921  11.708  0.5237 -0.9096 -1.7291
    5TCq1    H4   82   4.600   0.546  11.900 -0.0790 -0.3584  2.5068
    6MPD2     C   83   4.151   0.803  11.598 -0.4692  0.1464  0.2407
    6MPD2    C1   84   4.247   0.709  11.601  0.5396  0.5926 -0.5151
    6MPD2    C2   85   4.222   0.582  11.553  0.3763 -0.2556  0.1017
    6MPD2    C3   86   4.099   0.549  11.506 -0.8395 -0.2168 -1.1826
    6MPD2    C4   87   4.001   0.650  11.501 -0.0839  0.2524 -0.5662
    6MPD2    C5   88   4.031   0.773  11.548  0.3243  0.8542  0.3162
    6MPD2     H   89   4.302   0.509  11.556  0.9419  0.2914 -1.9429
    6MPD2    H1   90   3.897   0.637  11.471 -0.5756  1.8625  0.4804
    6MPD2    H2   91   4.183   0.899  11.638 -0.6301  1.1962 -2.0923
    6MPD2    H3   92   3.952   0.847  11.547 -2.4694 -2.1468  0.7145
    6MPD2     N   93   4.067   0.417  11.449  0.1954  0.2404  0.1660
    6MPD2    H5   94   3.977   0.400  11.406  0.3027  1.0917 -0.3980
    6MPD2    N1   95   4.364   0.756  11.667 -0.2119 -0.6983  0.1926
    6MPD2    H7   96   4.378   0.855  11.684  0.0505 -0.7666  0.3666
    7TCq1    O1   97   1.777   0.060  14.186 -0.4140  0.0762 -0.8360
    7TCq1    C1   98   1.708   0.156  14.257 -0.3998 -0.0664 -0.2701
    7TCq1    O2   99   1.762   0.236  14.328 -0.2254 -0.4885 -0.4099
    7TCq1    C2  100   1.567   0.159  14.223 -0.1368 -0.5439 -0.1967
    7TCq1    C3  101   1.494   0.271  14.263 -0.3758  1.0079 -0.6104
    7TCq1    C4  102   1.367   0.282  14.211  0.0244  0.3517  0.7974
    7TCq1    C5  103   1.315   0.189  14.123  0.4894  0.6116  0.0857
    7TCq1    C6  104   1.393   0.083  14.090  0.1682 -0.4307 -0.3077
    7TCq1    C7  105   1.511   0.056  14.149  0.0193  0.9729  0.3499
    7TCq1    C8  106   1.320   4.707  14.010  0.6477 -0.1143  0.0810
    7TCq1    O4  107   1.196   4.715  14.025  0.2267 -0.3029 -0.2183
    7TCq1    C9  108   1.280   0.391  14.251 -0.2680  0.7429  0.7113
    7TCq1    O5  109   1.165   0.340  14.280  1.0970 -0.4638 -0.3445
    7TCq1    O6  110   1.343   0.482  14.314 -0.6085  0.2731 -0.7465
    7TCq1    H1  111   1.728   0.024  14.109 -1.3302 -0.1236 -0.1442
    7TCq1    H2  112   1.547   0.346  14.321  2.6563 -0.5211 -1.3922
    7TCq1    H3  113   1.217   0.208  14.082  0.8612 -1.3178 -1.7406
    7TCq1    H4  114   1.558   4.682  14.140 -0.7276  0.7980 -1.6013
    8MPD2     C  115   1.251   4.258  13.788 -0.1031  0.2235 -0.2394
    8MPD2    C1  116   1.168   4.325  13.872 -0.4051  0.7014  0.0738
    8MPD2    C2  117   1.216   4.441  13.928 -0.7166  0.3271  0.6068
    8MPD2    C3  118   1.343   4.502  13.900  0.3726 -0.2684  0.2120
    8MPD2    C4  119   1.423   4.426  13.821 -0.3133 -0.1760  0.1351
    8MPD2    C5  120   1.375   4.313  13.761 -0.6784  0.7444 -0.1323
    8MPD2     H  121   1.152   4.496  13.996 -0.2804  1.7487 -0.1393
    8MPD2    H1  122   1.525   4.452  13.798 -0.4852  1.7981  1.6081
    8MPD2    H2  123   1.214   4.167  13.741  0.8015 -1.5081  2.4298
    8MPD2    H3  124   1.439   4.275  13.682  0.1007 -1.2242  1.4605
    8MPD2     N  125   1.395   4.622  13.948  0.7708 -0.2395 -0.4369
    8MPD2    H5  126   1.492   4.645  13.934  0.7124  0.0145 -0.4247
    8MPD2    N1  127   1.042   4.275  13.905  0.6251 -0.2937 -0.2415
    8MPD2    H7  128   1.017   4.193  13.851 -0.3194  0.7331 -1.3566
    9TCq1    O1  129   3.633   3.041  10.875  0.5124  0.2071  0.7916
    9TCq1    C1  130   3.519   3.044  10.941  0.4718 -0.0174 -0.0411
    9TCq1    O2  131   3.418   2.990  10.893  0.2186  0.0479  0.0363
    9TCq1    C2  132   3.546   3.090  11.075 -0.4220  0.0476 -0.3368
    9TCq1    C3  133   3.605   3.217  11.084  0.9344  0.2047 -0.5866
    9TCq1    C4  134   3.584   3.278  11.209 -1.2777  0.5375  0.4234
    9TCq1    C5  135   3.499   3.234  11.303  0.1104 -0.4509  0.2098
    9TCq1    C6  136   3.430   3.123  11.273  0.0492 -0.4227 -0.1341
    9TCq1    C7  137   3.446   3.052  11.160  0.2433 -0.4553  0.3063
    9TCq1    C8  138   3.299   3.108  11.333 -0.3693 -0.0806  0.3925
    9TCq1    O4  139   3.211   3.057  11.272  0.5842  0.4561  0.3589
    9TCq1    C9  140   3.670   3.380  11.243  0.1729 -0.3225 -0.0461
    9TCq1    O5  141   3.653   3.438  11.352  0.3210  0.9452  0.0748
    9TCq1    O6  142   3.781   3.360  11.194  0.3344 -0.1453 -0.6053
    9TCq1    H1  143   3.707   3.063  10.935  1.5872 -1.1947  0.0021
    9TCq1    H2  144   3.680   3.258  11.018  1.4102 -0.4632 -0.4687
    9TCq1    H3  145   3.480   3.295  11.390 -0.3479  1.6112 -1.3106
    9TCq1    H4  146   3.395   2.957  11.145 -0.7227 -0.3706  3.0874
   10MPD2     C  147   3.054   3.133  11.501  1.2817 -0.3791 -0.6979
   10MPD2    C1  148   3.186   3.161  11.537  1.2171  0.8433 -0.1482
   10MPD2    C2  149   3.208   3.208  11.664 -0.6845  0.1354 -0.0397
   10MPD2    C3  150   3.107   3.221  11.758  0.0679 -0.3390 -0.1900
   10MPD2    C4  151   2.975   3.185  11.723 -0.2866  0.1613 -0.6940
   10MPD2    C5  152   2.951   3.145  11.593 -0.3791  0.0316 -0.5281
   10MPD2     H  153   3.309   3.236  11.691 -1.3682  0.5035  2.1584
   10MPD2    H1  154   2.896   3.182  11.796 -1.5321 -0.0811 -2.0551
   10MPD2    H2  155   3.031   3.102  11.400  1.5342  0.2974 -0.9682
   10MPD2    H3  156   2.848   3.123  11.565  0.1242 -1.1918 -1.4480
   10MPD2     N  157   3.121   3.263  11.896 -0.0047  0.4740  0.5237
   10MPD2    H5  158   3.035   3.268  11.949 -0.4235 -3.6942  0.2079
   10MPD2    N1  159   3.296   3.176  11.446 -0.8807  0.0606  0.0285
   10MPD2    H7  160   3.386   3.193  11.491  0.9869 -2.1935 -2.8864
   11TCq1    O1  161   4.204   3.642  13.999  0.0904  0.1632  0.2931
   11TCq1    C1  162   4.322   3.600  14.045  0.2922  0.3577 -0.0429
   11TCq1    O2  163   4.379   3.501  13.993 -0.0405 -0.0905  0.1386
   11TCq1    C2  164   4.338   3.633  14.180 -0.6315  0.2956  0.5088
   11TCq1    C3  165   4.466   3.611  14.229 -0.3592 -0.4225  0.4656
   11TCq1    C4  166   4.482   3.577  14.361  0.0720 -0.0560  0.7918
   11TCq1    C5  167   4.371   3.560  14.440  0.1659  0.2785  0.1083
   11TCq1    C6  168   4.251   3.576  14.383  0.5099  0.3072 -0.6578
   11TCq1    C7  169   4.228   3.611  14.256  0.1671  0.0453 -0.1527
   11TCq1    C8  170   4.141   3.521  14.462  0.5813  0.1407  0.0503
   11TCq1    O4  171   4.144   3.527  14.585 -0.0918 -0.2767  0.2782
   11TCq1    C9  172   4.614   3.549  14.413  0.0662 -0.7862  0.0644
   11TCq1    O5  173   4.704   3.549  14.326 -0.2122 -0.6283  0.3715
   11TCq1    O6  174   4.628   3.573  14.537 -0.2411  0.5332  0.0984
   11TCq1    H1  175   4.184   3.728  14.042 -0.1293  1.2367 -1.9116
   11TCq1    H2  176   4.546   3.604  14.156  1.1991 -1.5790  2.2731
   11TCq1    H3  177   4.392   3.520  14.538 -2.7757 -0.6851  0.3716
   11TCq1    H4  178   4.135   3.649  14.216 -0.6568 -0.6302  1.1303
   12MPD2     C  179   3.861   3.463  14.550 -0.0624  0.0223 -0.0926
   12MPD2    C1  180   3.912   3.423  14.434  0.5685  0.3078 -0.4030
   12MPD2    C2  181   3.821   3.358  14.349 -0.2785  0.3242  0.3286
   12MPD2    C3  182   3.702   3.311  14.401  0.1821  0.4711  0.1676
   12MPD2    C4  183   3.664   3.345  14.529  0.1425  0.2078 -0.6600
   12MPD2    C5  184   3.744   3.422  14.599  0.7356 -1.6329  0.0801
   12MPD2     H  185   3.838   3.344  14.243  0.5497 -0.7543  0.5998
   12MPD2    H1  186   3.572   3.307  14.571  1.6920 -1.0173  1.5829
   12MPD2    H2  187   3.913   3.537  14.610 -1.0776  0.5128  0.1843
   12MPD2    H3  188   3.713   3.470  14.691 -0.0490 -0.5045 -0.7675
   12MPD2     N  189   3.621   3.231  14.317  0.9566  0.0216  0.6859
   12MPD2    H5  190   3.664   3.203  14.230  0.3168 -0.3987  0.5031
   12MPD2    N1  191   4.037   3.472  14.384  0.0500  0.7476  0.2811
   12MPD2    H7  192   4.059   3.445  14.289 -2.9059 -0.6911  0.0327
   13TCq1    O1  193   3.390   2.678  11.569  0.1508  0.5919 -0.0363
   13TCq1    C1  194   3.294   2.771  11.531 -0.7415  0.1839 -0.3503
   13TCq1    O2  195   3.236   2.830  11.620  0.0121  0.6726  0.4366
   13TCq1    C2  196   3.223   2.724  11.410 -0.3904  0.3476 -0.0630
   13TCq1    C3  197   3.295   2.695  11.299  0.5124 -0.0725  0.4280
   13TCq1    C4  198   3.229   2.710  11.180  0.2568  0.4962 -0.6336
   13TCq1    C5  199   3.093   2.739  11.170  0.7943  0.7255  0.2352
   13TCq1    C6  200   3.028   2.759  11.289  0.0599 -0.0973  0.3591
   13TCq1    C7  201   3.088   2.755  11.411  0.0684  0.4850 -0.2029
   13TCq1    C8  202   2.900   2.835  11.295  0.3599  0.6434  0.6978
   13TCq1    O4  203   2.853   2.856  11.403  0.8088 -0.2547  0.6433
   13TCq1    C9  204   3.301   2.663  11.066  0.4692 -0.5918 -0.1552
   13TCq1    O5  205   3.255   2.711  10.957 -0.4088 -0.3191  0.2327
   13TCq1    O6  206   3.414   2.619  11.081  0.2855  0.1082  0.0560
   13TCq1    H1  207   3.407   2.603  11.508 -1.9270  2.2729 -2.7200
   13TCq1    H2  208   3.403   2.683  11.308  0.6047  0.2526 -0.2893
   13TCq1    H3  209   3.044   2.743  11.073  0.0830  1.1180  0.6064
   13TCq1    H4  210   3.038   2.779  11.504  0.1531  2.5572 -0.6906
   14MPD2     C  211   2.685   2.922  11.017 -1.2597  0.0647  0.3349
   14MPD2    C1  212   2.726   2.926  11.146 -0.5755 -0.5386 -0.5202
   14MPD2    C2  213   2.653   2.999  11.236 -0.0220 -0.8480  0.3805
   14MPD2    C3  214   2.543   3.076  11.197 -0.1644 -0.6764  0.3970
   14MPD2    C4  215   2.504   3.076  11.060 -1.4766 -1.2018 -0.1219
   14MPD2    C5  216   2.589   3.007  10.970  0.2920  0.1984 -0.7159
   14MPD2     H  217   2.680   2.988  11.341 -0.2009  2.1737  0.7427
   14MPD2    H1  218   2.423   3.135  11.019 -0.7447 -0.6208 -0.7579
   14MPD2    H2  219   2.734   2.853  10.948 -2.1683 -0.3455  0.1035
   14MPD2    H3  220   2.574   3.000  10.863 -1.0889  0.9434 -0.5680
   14MPD2     N  221   2.472   3.162  11.292 -0.2622 -0.1941 -0.2345
   14MPD2    H5  222   2.503   3.148  11.388 -0.6903 -1.4724 -0.2801
   14MPD2    N1  223   2.839   2.845  11.171  0.4816 -0.2777 -0.1922
   14MPD2    H7  224   2.883   2.794  11.094  1.0118 -1.6000  0.9839
   15TCq1    O1  225   4.455   2.511   2.000  0.1011 -0.3627 -0.0572
   15TCq1    C1  226   4.580   2.494   1.962 -0.1016  0.4132 -0.4059
   15TCq1    O2  227   4.625   2.524   1.850 -0.1952 -0.5630 -0.1170
   15TCq1    C2  228   4.620   2.375   2.020  0.1425 -0.4525  0.5362
   15TCq1    C3  229   4.625   2.359   2.159  0.5654 -0.7599  0.7334
   15TCq1    C4  230   4.672   2.244   2.215 -0.5174 -0.3760 -0.2346
   15TCq1    C5  231   4.702   2.132   2.139 -0.2914 -0.5100 -0.7828
   15TCq1    C6  232   4.704   2.144   1.998  0.2870  0.3943  0.5376
   15TCq1    C7  233   4.667   2.266   1.940  0.2017  0.1151 -0.4340
   15TCq1    C8  234   0.066   2.050   1.919  0.1544 -0.5431 -0.3602
   15TCq1    O4  235   0.113   1.962   1.991  0.1699  0.2426  0.6627
   15TCq1    C9  236   4.666   2.236   2.355  0.3558  0.0461  0.8716
   15TCq1    O5  237   4.691   2.129   2.410 -1.0772  0.6841 -0.7361
   15TCq1    O6  238   4.682   2.348   2.416 -0.2429  0.4819  0.3902
   15TCq1    H1  239   4.436   2.462   2.082 -0.3452  0.0214  0.0724
   15TCq1    H2  240   4.594   2.435   2.230 -1.4516 -0.5182 -0.3990
   15TCq1    H3  241   0.018   2.050   2.198 -1.3591 -1.5301 -1.4703
   15TCq1    H4  242   4.671   2.281   1.833 -0.9160  2.2685 -0.1787
   16MPD2     C  243   0.101   1.986   1.556 -0.2267  0.1454  0.3097
   16MPD2    C1  244   0.131   1.977   1.687  0.2054  0.0475 -0.3000
   16MPD2    C2  245   0.227   1.883   1.728 -0.0486 -0.6634  0.5670
   16MPD2    C3  246   0.277   1.795   1.636  0.4558  0.1332 -0.3603
   16MPD2    C4  247   0.240   1.804   1.504 -0.4550  0.5255 -0.5124
   16MPD2    C5  248   0.152   1.902   1.464  0.0084  0.2086  0.3083
   16MPD2     H  249   0.251   1.873   1.833  0.7396  0.5482  0.5102
   16MPD2    H1  250   0.283   1.738   1.429 -2.5089 -0.9657 -0.3800
   16MPD2    H2  251   0.031   2.063   1.527 -1.6074 -0.7100  1.3312
   16MPD2    H3  252   0.125   1.920   1.360  0.7514  0.9504  0.2464
   16MPD2     N  253   0.368   1.695   1.681  0.6233  0.4131 -0.1057
   16MPD2    H5  254   0.392   1.701   1.779 -0.1601  0.5237  0.0782
   16MPD2    N1  255   0.063   2.065   1.781 -0.1031  0.1477  0.0366
   16MPD2    H7  256   0.005   2.140   1.745  0.0964 -1.1195 -2.9064
   17TCq1    O1  257   2.500   2.351   9.242  0.4387  0.1162  0.2886
   17TCq1    C1  258   2.576   2.246   9.214 -0.1275 -0.0240  0.6131
   17TCq1    O2  259   2.557   2.174   9.117  0.0484  0.2970 -0.0436
   17TCq1    C2  260   2.702   2.297   9.264  0.6688 -0.8014 -0.1314
   17TCq1    C3  261   2.792   2.327   9.165 -0.1948  0.5430  0.4959
   17TCq1    C4  262   2.898   2.401   9.207  0.6728 -0.0821  0.7451
   17TCq1    C5  263   2.923   2.446   9.337 -0.4906 -0.3506 -0.8384
   17TCq1    C6  264   2.830   2.404   9.428  0.2220 -0.2580 -0.0368
   17TCq1    C7  265   2.720   2.329   9.396  0.4921 -0.2455 -0.3588
   17TCq1    C8  266   2.837   2.445   9.571 -0.4070 -0.3968 -0.3095
   17TCq1    O4  267   2.728   2.449   9.623 -0.0163  0.2465 -0.1061
   17TCq1    C9  268   2.983   2.436   9.096  0.1829  0.3534  0.3990
   17TCq1    O5  269   3.076   2.516   9.125 -0.3063 -0.2823  0.3332
   17TCq1    O6  270   2.963   2.381   8.983 -0.0381  0.3161  0.1644
   17TCq1    H1  271   2.536   2.410   9.311  0.4257 -2.1533  2.2191
   17TCq1    H2  272   2.784   2.289   9.064  1.4050  0.0525  0.5662
   17TCq1    H3  273   3.006   2.509   9.368 -1.6110  0.7850 -0.1204
   17TCq1    H4  274   2.640   2.306   9.465  0.4218  0.4116 -0.2195
   18MPD2     C  275   2.901   2.612   9.805  0.8719 -0.4051 -0.7614
   18MPD2    C1  276   2.998   2.545   9.733 -0.3212  0.1066 -0.4624
   18MPD2    C2  277   3.131   2.560   9.763 -0.2961  0.0863  0.2993
   18MPD2    C3  278   3.161   2.629   9.882 -0.2731 -0.1426  0.0949
   18MPD2    C4  279   3.064   2.690   9.952  0.3642  0.3750 -0.2584
   18MPD2    C5  280   2.939   2.683   9.915  0.3554 -0.0135  0.2049
   18MPD2     H  281   3.204   2.512   9.700 -1.9934  0.6908 -2.1341
   18MPD2    H1  282   3.076   2.739  10.048  1.0221  1.3508 -0.8419
   18MPD2    H2  283   2.795   2.607   9.784  0.2119 -1.2875  2.7673
   18MPD2    H3  284   2.865   2.742   9.968  2.4662  0.7738  2.2847
   18MPD2     N  285   3.297   2.627   9.922  0.0284  0.6821 -0.1071
   18MPD2    H5  286   3.353   2.562   9.868 -0.9452  0.7513 -1.1996
   18MPD2    N1  287   2.967   2.475   9.615  0.8758 -0.0111  0.4814
   18MPD2    H7  288   3.049   2.447   9.561 -0.0096 -2.0388  0.2062
   19TMC2    C1  289   0.355   3.209  14.260 -0.4134  0.3482  0.2359
   19TMC2    C2  290   0.338   3.333  14.205  0.2985 -0.3779 -0.7594
   19TMC2    C3  291   0.211   3.383  14.194  0.0988 -0.2351  0.2841
   19TMC2    C4  292   0.243   3.130  14.293 -0.2913 -0.1059 -0.6324
   19TMC2    C5  293   0.110   3.182  14.279 -0.1292 -0.4709  0.1266
   19TMC2    C6  294   0.099   3.310  14.224  0.4896  0.4434 -0.0320
   19TMC2     C  295   0.482   3.145  14.271 -0.0094 -0.1734 -0.0591
   19TMC2     O  296   0.573   3.191  14.198 -0.0533  0.5010 -0.0226
   19TMC2     H  297   0.420   3.391  14.164  1.2336 -2.1109 -1.3642
   19TMC2    H1  298   0.255   3.027  14.326  1.8167 -0.1765 -1.6624
   19TMC2    H2  299   0.006   3.358  14.195  0.5225 -0.0967 -1.0480
   19TMC2    C7  300   4.721   3.088  14.280  0.7311 -0.0555 -0.0306
   19TMC2    C8  301   0.188   3.471  14.079 -1.1024  0.9506 -0.8084
   19TMC2    O1  302   0.022   2.986  14.343 -0.1023 -0.1749  0.4499
   19TMC2    O2  303   0.260   3.479  13.978 -0.4807  0.6211  0.0437
   19TMC2    O5  304   0.124   3.579  14.119 -0.5459  0.4345 -0.3166
   19TMC2    H5  305   0.064   3.569  14.196 -0.0956 -1.1188 -0.1716
   20MPD2     C  306   0.741   3.136  14.428  0.2321 -0.1909 -0.2314
   20MPD2    C1  307   0.615   3.081  14.468 -0.3284 -0.0935 -0.9112
   20MPD2    C2  308   0.612   3.008  14.585 -0.1374  0.2893 -0.2446
   20MPD2    C3  309   0.722   2.996  14.669  0.5970 -0.0818  0.2066
   20MPD2    C4  310   0.835   3.073  14.641 -0.0742 -0.2101 -0.0913
   20MPD2    C5  311   0.843   3.138  14.520 -0.6045  0.2117  0.0743
   20MPD2     H  312   0.516   2.968  14.616  0.5942 -0.5236  0.9966
   20MPD2    H1  313   0.921   3.062  14.705  0.0077  1.2103  0.0318
   20MPD2    H2  314   0.751   3.184  14.331  3.2743  2.3625  1.3859
   20MPD2    H3  315   0.937   3.185  14.496 -0.3190 -0.0968  0.6185
   20MPD2     N  316   0.730   2.920  14.789  0.6342  0.1813 -0.0610
   20MPD2    H5  317   0.812   2.935  14.847  0.8320  0.0467 -0.3074
   20MPD2    N1  318   0.497   3.088  14.397  0.4956 -0.0248  0.0374
   20MPD2    H7  319   0.412   3.064  14.446 -0.3406  1.7592 -0.5397
   21MPD2     C  320   2.704   3.822  14.793 -0.0012 -0.6353  0.6165
   21MPD2    C1  321   2.738   3.704  14.732 -0.5957 -0.0677  0.4789
   21MPD2    C2  322   2.643   3.599  14.710 -0.0723 -0.1837  0.3503
   21MPD2    C3  323   2.514   3.623  14.744 -0.9607  0.6444 -0.6500
   21MPD2    C4  324   2.472   3.753  14.794 -0.3582 -0.3604  0.1434
   21MPD2    C5  325   2.570   3.842  14.812 -0.1911 -0.0585 -0.2191
   21MPD2     H  326   2.676   3.497  14.696 -0.2751  0.2226 -3.1432
   21MPD2    H1  327   2.368   3.779  14.810  0.2885  1.7704  0.8209
   21MPD2    H2  328   2.774   3.901  14.817  1.0533 -0.4037 -3.2409
   21MPD2    H3  329   2.534   3.937  14.851  0.4756  0.1096 -0.0189
   21MPD2     N  330   2.415   3.520  14.746  0.4744 -0.0504 -0.4838
   21MPD2    H5  331   2.332   3.545  14.800  0.5012 -0.6864 -0.1435
   21MPD2    N1  332   2.870   3.673  14.692  0.0118 -1.0855 -0.0845
   21MPD2    H7  333   2.889   3.582  14.652 -3.3268 -1.6891 -0.3098
   22TCq2    C1  334   2.427   3.394  14.684 -0.2740 -0.3828  0.3188
   22TCq2    O2  335   2.511   3.360  14.606  0.3220 -1.0565 -0.0509
   22TCq2    C2  336   2.326   3.310  14.739 -0.0987  0.1410 -0.2549
   22TCq2    C3  337   2.360   3.176  14.741 -0.6643 -0.3726 -0.8360
   22TCq2    C4  338   2.299   3.098  14.837  0.2949  0.0792  0.4886
   22TCq2    C5  339   2.211   3.155  14.928 -0.3187 -0.7799 -0.4396
   22TCq2    C6  340   2.173   3.279  14.910 -0.1473 -0.3600  0.3311
   22TCq2    C7  341   2.224   3.361  14.810  0.1634 -0.1500  0.3727
   22TCq2    C8  342   2.145   3.346  15.030  0.3437  0.5160  0.2857
   22TCq2    O4  343   2.186   3.308  15.135 -0.7852  0.2029  0.4807
   22TCq2    C9  344   2.337   2.959  14.843  0.6903  0.1773  0.1614
   22TCq2    O5  345   2.455   2.928  14.809 -0.5054  0.7217 -0.4184
   22TCq2    O6  346   2.265   2.885  14.915 -0.2820 -0.0778  0.4776
   22TCq2    H2  347   2.443   3.132  14.687 -0.8895 -3.0566  0.9707
   22TCq2    H3  348   2.166   3.094  15.006  0.3338  1.1267  1.4511
   22TCq2    H4  349   2.192   3.463  14.791 -0.1782 -0.1078  1.2073
   23MPD2     C  350   4.268   4.163  14.766  0.2824  0.1819 -0.3285
   23MPD2    C1  351   4.206   4.211  14.885 -0.1344 -0.0684  0.0315
   23MPD2    C2  352   4.154   4.346  14.893  0.7188 -0.0035 -0.3288
   23MPD2    C3  353   4.172   4.425  14.781  0.4837 -0.4110  0.7973
   23MPD2    C4  354   4.235   4.382  14.666  0.2094  0.4195 -0.2265
   23MPD2    C5  355   4.264   4.249  14.661 -0.4248 -0.2669 -1.0244
   23MPD2     H  356   4.103   4.369  14.986  2.6916  0.6567  0.5948
   23MPD2    H1  357   4.249   4.441  14.577 -1.5528  0.7431 -0.2808
   23MPD2    H2  358   4.297   4.060  14.752  0.5069 -0.2167  2.9613
   23MPD2    H3  359   4.296   4.212  14.564 -1.1404 -2.9930 -0.2225
   23MPD2     N  360   4.120   4.559  14.775 -0.5184 -0.1800 -0.4916
   23MPD2    H5  361   4.163   4.623  14.709  0.0544  0.1783  0.2269
   23MPD2    N1  362   4.175   4.129  14.991 -0.7654 -0.4679 -0.4810
   23MPD2    H7  363   4.131   4.165  15.076  0.7137  0.0678  0.0457
   24TCq2    C1  364   4.026   4.607  14.861 -1.1211  0.7611 -0.5732
   24TCq2    O2  365   3.954   4.537  14.928  0.3431 -0.0437  0.2549
   24TCq2    C2  366   4.003   0.027  14.862  0.1645  0.3205  0.0258
   24TCq2    C3  367   4.082   0.106  14.792  0.1741 -0.2697  0.6992
   24TCq2    C4  368   4.041   0.236  14.775 -0.5897 -0.4546 -0.7362
   24TCq2    C5  369   3.925   0.285  14.836  1.2960 -0.0822  0.7715
   24TCq2    C6  370   3.844   0.199  14.907 -0.3348  0.9245  0.0623
   24TCq2    C7  371   3.882   0.073  14.921  0.3563 -0.0293 -0.4989
   24TCq2    C8  372   3.736   0.256  14.981 -1.0598  0.7089  0.3214
   24TCq2    O4  373   3.756   0.366  15.032  0.3600 -0.2485  0.1246
   24TCq2    C9  374   4.129   0.323  14.697 -0.4674  0.3985 -0.7647
   24TCq2    O5  375   4.092   0.442  14.680  0.1150 -0.2303 -0.7393
   24TCq2    O6  376   4.224   0.275  14.633 -0.2731 -0.5240  0.0608
   24TCq2    H2  377   4.181   0.071  14.764  0.4653  2.4122 -1.6614
   24TCq2    H3  378   3.903   0.391  14.825  3.4779  0.0546 -2.6515
   24TCq2    H4  379   3.820   0.002  14.975  1.8603 -0.3058  0.8675
   25TMC2    C1  380   3.116   2.115  11.790  0.2651  0.4666 -0.0895
   25TMC2    C2  381   3.157   2.245  11.782 -0.4298  0.1390 -0.4094
   25TMC2    C3  382   3.087   2.331  11.867 -0.0836 -0.2904  0.0545
   25TMC2    C4  383   3.022   2.063  11.872 -0.3763  0.1868 -0.5518
   25TMC2    C5  384   2.966   2.155  11.960 -0.2920  0.1427 -0.1117
   25TMC2    C6  385   2.999   2.286  11.961  0.4987 -0.1228  0.2819
   25TMC2     C  386   3.185   2.030  11.694 -0.0302  0.0123 -0.5882
   25TMC2     O  387   3.300   2.061  11.669 -0.1891 -0.0390 -0.1704
   25TMC2     H  388   3.243   2.276  11.724  0.5770  1.1012  1.6021
   25TMC2    H1  389   3.009   1.955  11.880  0.7058  0.2194  1.4559
   25TMC2    H2  390   2.949   2.357  12.025  0.2368  1.0041 -1.1778
   25TMC2    C7  391   2.844   2.122  12.034  0.0509 -1.1535  0.0097
   25TMC2    C8  392   3.120   2.470  11.885  0.3302  0.0033  0.0274
   25TMC2    O1  393   2.798   2.189  12.127  0.0413 -0.0154 -0.5442
   25TMC2    O2  394   3.118   2.537  11.987 -0.2591 -0.0352  0.2297
   25TMC2    O5  395   3.160   2.510  11.761  0.4106 -0.0977 -0.6968
   25TMC2    H5  396   3.130   2.447  11.692 -1.5075  1.5340 -1.3434
   26MPD2     C  397   3.179   1.609  11.411 -0.3902 -0.4887 -0.2587
   26MPD2    C1  398   3.048   1.636  11.453 -0.6695  0.4972  0.0211
   26MPD2    C2  399   3.019   1.740  11.534  0.0699 -0.4494 -0.0316
   26MPD2    C3  400   3.130   1.817  11.576  0.4659 -0.1460  0.1674
   26MPD2    C4  401   3.262   1.789  11.540 -0.6100  0.0307 -0.8403
   26MPD2    C5  402   3.289   1.684  11.457  0.4162 -1.0664  0.5595
   26MPD2     H  403   2.916   1.771  11.547  0.0804 -0.0300 -0.9565
   26MPD2    H1  404   3.349   1.838  11.582 -0.5882 -0.0945 -0.7395
   26MPD2    H2  405   3.200   1.531  11.339  1.6029 -1.9320  1.9123
   26MPD2    H3  406   3.386   1.661  11.414  1.3718 -0.5821  2.4449
   26MPD2     N  407   3.097   1.934  11.647  0.3435  0.3549  0.3691
   26MPD2    H5  408   3.001   1.965  11.648  0.4748  0.8088 -0.7282
   26MPD2    N1  409   2.952   1.552  11.390 -0.2746 -0.7378  0.4161
   26MPD2    H7  410   2.986   1.480  11.327 -0.9810 -0.0358 -0.7549
   27TMC2    C1  411   1.693   4.179  12.262  0.0436 -0.2262 -0.1862
   27TMC2    C2  412   1.793   4.256  12.209  0.4914 -0.2266 -0.5156
   27TMC2    C3  413   1.767   4.377  12.140  0.4730  0.1770 -0.1791
   27TMC2    C4  414   1.565   4.225  12.257  0.2854  0.2360 -0.0746
   27TMC2    C5  415   1.541   4.339  12.192 -0.5206 -0.6332  0.2591
   27TMC2    C6  416   1.635   4.412  12.124  0.4066 -0.0383 -0.5358
   27TMC2     C  417   1.727   4.093  12.372  0.4970 -0.1484  0.0602
   27TMC2     O  418   1.828   4.021  12.366 -0.0973 -0.3126  0.1389
   27TMC2     H  419   1.894   4.230  12.238  0.6289  0.4397 -0.4136
   27TMC2    H1  420   1.477   4.173  12.293 -0.1405  0.5575 -0.6493
   27TMC2    H2  421   1.608   4.498  12.064 -1.5184 -0.0857  0.2760
   27TMC2    C7  422   1.486   4.419  12.293  0.1948  0.2308 -0.2271
   27TMC2    C8  423   1.876   4.447  12.074 -0.0490  0.3764 -0.7334
   27TMC2    O1  424   1.432   4.369  12.391  0.2855  0.3538 -0.0903
   27TMC2    O2  425   1.851   4.530  11.984 -0.2005 -0.0238  0.3053
   27TMC2    O5  426   1.988   4.451  12.149  0.6100  0.1902 -0.8671
   27TMC2    H5  427   1.988   4.405  12.236 -1.5420  3.3240  0.7763
   28MPD2     C  428   1.569   3.872  12.811 -0.6968 -0.3727  0.5100
   28MPD2    C1  429   1.508   3.993  12.794 -0.1461  0.1014 -0.1455
   28MPD2    C2  430   1.546   4.080  12.695  0.5638  0.2328  0.1051
   28MPD2    C3  431   1.641   4.037  12.599 -0.2606  0.5198  0.1451
   28MPD2    C4  432   1.700   3.913  12.608  0.6374  0.1157 -0.4165
   28MPD2    C5  433   1.667   3.842  12.721 -0.2825  0.1679 -0.4586
   28MPD2     H  434   1.510   4.181  12.677  1.1859  0.2204 -1.2565
   28MPD2    H1  435   1.772   3.880  12.533  0.5961  0.3159 -0.5446
   28MPD2    H2  436   1.554   3.799  12.890 -2.4794  1.8926  2.2870
   28MPD2    H3  437   1.719   3.748  12.735 -0.0804  0.2103 -0.9018
   28MPD2     N  438   1.647   4.117  12.483  1.1389  0.1064  0.0447
   28MPD2    H5  439   1.594   4.203  12.474  0.0663 -0.5096  0.5490
   28MPD2    N1  440   1.413   4.018  12.890 -0.1626  0.2379 -0.7270
   28MPD2    H7  441   1.410   3.950  12.964  2.0707 -0.1389 -0.9791
   29MPD2     C  442   0.700   1.424  14.494 -0.2991 -0.1509  0.1973
   29MPD2    C1  443   0.761   1.381  14.614  0.0902 -0.4405 -0.2358
   29MPD2    C2  444   0.782   1.477  14.708  0.1121  0.0333 -0.4749
   29MPD2    C3  445   0.759   1.613  14.690  0.0886 -0.2862  1.2474
   29MPD2    C4  446   0.706   1.646  14.570 -0.1738  0.4809 -0.1281
   29MPD2    C5  447   0.669   1.554  14.475 -0.0986  0.3796 -0.2740
   29MPD2     H  448   0.820   1.439  14.801 -0.6179 -1.0849 -0.6303
   29MPD2    H1  449   0.685   1.748  14.538  2.4197  0.8482 -0.6704
   29MPD2    H2  450   0.698   1.355  14.411  0.8399  0.3831 -0.2820
   29MPD2    H3  451   0.642   1.598  14.380  1.2841 -0.1931 -0.9309
   29MPD2     N  452   0.795   1.718  14.779 -0.5562 -0.5379 -0.1639
   29MPD2    H5  453   0.786   1.814  14.747 -0.9694 -0.4131  0.3121
   29MPD2    N1  454   0.797   1.248  14.652 -0.1445 -0.0131  0.1189
   29MPD2    H7  455   0.847   1.232  14.738  2.0141  2.6087 -0.6410
   30TCq2    C1  456   0.832   1.703  14.908 -0.3776 -0.8255  0.0259
   30TCq2    O2  457   0.824   1.605  14.976 -0.5311 -0.4385 -0.0400
   30TCq2    C2  458   0.868   1.826  14.977  0.1006 -0.2395 -0.1289
   30TCq2    C3  459   0.881   1.828  15.113 -0.4612  0.1082  0.4638
   30TCq2    C4  460   0.925   1.945  15.176 -0.0571 -0.1348  0.5626
   30TCq2    C5  461   0.961   2.056  15.112 -0.6429  0.1680  0.7516
   30TCq2    C6  462   0.939   2.054  14.976 -0.1301 -0.3515  0.4409
   30TCq2    C7  463   0.894   1.938  14.910 -0.1448 -0.3104 -0.1940
   30TCq2    C8  464   0.957   2.167  14.886  0.4689 -0.3949 -0.0162
   30TCq2    O4  465   0.898   2.165  14.774  0.5302 -0.2963  0.4336
   30TCq2    C9  466   0.942   1.939  15.320  0.0054  0.2322  1.3018
   30TCq2    O5  467   0.894   1.844  15.386  0.4011  0.4947 -0.2813
   30TCq2    O6  468   0.981   2.047  15.369  0.0607  0.1144 -0.3510
   30TCq2    H2  469   0.859   1.737  15.169  0.1597  0.0130  0.5573
   30TCq2    H3  470   1.007   2.142  15.160  2.7107 -1.5163  0.4948
   30TCq2    H4  471   0.895   1.936  14.801  4.5687  3.5877 -0.1872
   31MPD2     C  472   4.017   0.951  15.065  0.5776 -0.0598  0.0018
   31MPD2    C1  473   3.882   0.930  15.056 -0.1197  0.1543 -0.8551
   31MPD2    C2  474   3.824   0.837  15.133 -0.5205  0.3175 -0.1907
   31MPD2    C3  475   3.895   0.762  15.224 -0.5232  0.5028 -0.1183
   31MPD2    C4  476   4.030   0.782  15.229  0.2531 -0.1584 -0.1204
   31MPD2    C5  477   4.090   0.877  15.148 -0.4365 -0.0738  0.2139
   31MPD2     H  478   3.717   0.822  15.120 -0.6058 -0.7009  1.6982
   31MPD2    H1  479   4.091   0.729  15.301 -1.9258 -2.2886  0.1638
   31MPD2    H2  480   4.064   1.026  15.003 -0.3073  1.0709  0.6917
   31MPD2    H3  481   4.197   0.888  15.155 -0.7928  2.1058  2.1640
   31MPD2     N  482   3.829   0.658  15.304  0.5308 -0.2044 -0.2658
   31MPD2    H5  483   3.897   0.606  15.358 -0.0735 -1.2957 -0.5696
   31MPD2    N1  484   3.812   1.011  14.961 -0.3105  0.8369 -0.0953
   31MPD2    H7  485   3.870   1.077  14.911  1.1676 -0.9161 -0.7132
   32TCq2    C1  486   3.698   0.620  15.306 -0.4246  0.3168  0.1136
   32TCq2    O2  487   3.595   0.674  15.263  0.6813  0.3328  0.4553
   32TCq2    C2  488   3.686   0.485  15.364 -0.3646 -0.0824  0.7431
   32TCq2    C3  489   3.561   0.446  15.414  0.0857 -0.2424  0.0215
   32TCq2    C4  490   3.548   0.328  15.483 -0.3821  0.4294 -0.1689
   32TCq2    C5  491   3.656   0.252  15.514  0.5052 -1.0435 -0.4112
   32TCq2    C6  492   3.778   0.299  15.473  0.6828  0.2068  0.2048
   32TCq2    C7  493   3.795   0.408  15.388 -0.4646 -0.1880  0.4031
   32TCq2    C8  494   3.892   0.214  15.511  0.5067  0.3157 -0.2839
   32TCq2    O4  495   3.871   0.123  15.589 -0.4186 -0.3710  0.5248
   32TCq2    C9  496   3.419   0.295  15.532 -0.5987 -0.2618  0.3648
   32TCq2    O5  497   3.336   0.387  15.523  0.5569 -0.1702  0.0427
   32TCq2    O6  498   3.396   0.182  15.570  0.5244 -1.0042 -0.1450
   32TCq2    H2  499   3.477   0.511  15.394 -1.1193 -1.4044  1.2830
   32TCq2    H3  500   3.646   0.160  15.571 -1.7266 -1.0548 -0.8232
   32TCq2    H4  501   3.884   0.427  15.328 -0.2307 -0.5411  0.6368
   33MPD2     C  502   4.128   2.672  10.105 -0.2208  0.0105  0.5431
   33MPD2    C1  503   4.044   2.668   9.995 -0.1811 -0.2311  0.5394
   33MPD2    C2  504   4.082   2.709   9.871 -0.1599  0.1841  0.1113
   33MPD2    C3  505   4.216   2.745   9.856 -0.3689 -0.5544 -1.0131
   33MPD2    C4  506   4.297   2.753   9.969  0.2028 -0.2284  0.2941
   33MPD2    C5  507   4.264   2.704  10.093  0.4593 -0.0560  0.1808
   33MPD2     H  508   4.019   2.720   9.783 -0.4365  2.4129  0.6112
   33MPD2    H1  509   4.398   2.793   9.970 -0.3705  1.1801  2.1888
   33MPD2    H2  510   4.105   2.654  10.209 -0.4716 -0.2958  0.4334
   33MPD2    H3  511   4.325   2.710  10.182 -1.2731  0.1056  1.3551
   33MPD2     N  512   4.265   2.790   9.735  0.8505  0.6576  0.1137
   33MPD2    H5  513   4.353   2.840   9.739 -0.0749  2.3935 -1.5197
   33MPD2    N1  514   3.909   2.626  10.024 -0.2117 -0.2935 -0.0867
   33MPD2    H7  515   3.886   2.597  10.119  1.8093  3.1521  1.4642
   34TCq2    C1  516   4.192   2.789   9.619 -0.4409 -0.4757 -0.1914
   34TCq2    O2  517   4.126   2.694   9.578 -0.3031 -0.2515 -0.4187
   34TCq2    C2  518   4.263   2.871   9.520  0.3738 -0.3867 -0.6642
   34TCq2    C3  519   4.262   2.839   9.383 -1.1673  0.2389 -0.5279
   34TCq2    C4  520   4.322   2.926   9.291  0.2091  0.0285  1.2338
   34TCq2    C5  521   4.390   3.034   9.335  0.4412  0.2768  0.5880
   34TCq2    C6  522   4.394   3.060   9.472 -0.5122 -0.4817 -0.6082
   34TCq2    C7  523   4.331   2.981   9.566  0.2595  0.6048  0.0070
   34TCq2    C8  524   4.453   3.181   9.524  0.2345  0.8106 -0.5648
   34TCq2    O4  525   4.475   3.184   9.646 -1.2265 -0.2020 -0.5689
   34TCq2    C9  526   4.301   2.918   9.148 -0.1486 -0.0195  0.2629
   34TCq2    O5  527   4.313   3.021   9.076  0.1388  0.0983 -0.0396
   34TCq2    O6  528   4.246   2.820   9.103  0.0580 -0.2070  0.0954
   34TCq2    H2  529   4.201   2.760   9.341 -0.5026  0.7124 -2.3657
   34TCq2    H3  530   4.435   3.104   9.266  1.8634 -0.9809  0.2486
   34TCq2    H4  531   4.315   3.019   9.666  1.8778  1.6247 -0.1171
   35MPD2     C  532   0.869   0.091  12.181  0.6753  0.8716 -0.2902
   35MPD2    C1  533   0.866   4.680  12.136 -0.4895  0.7774  0.7614
   35MPD2    C2  534   0.868   4.652  12.001 -0.4910 -0.1076 -0.3933
   35MPD2    C3  535   0.854   0.033  11.907  0.2452  0.4439  0.4978
   35MPD2    C4  536   0.848   0.163  11.949 -0.4997 -0.1874 -0.3171
   35MPD2    C5  537   0.863   0.189  12.085  0.0491 -0.2575  0.0251
   35MPD2     H  538   0.875   4.548  11.973  1.0707 -0.0466 -0.2062
   35MPD2    H1  539   0.843   0.254  11.891  1.0957  0.4462  0.5325
   35MPD2    H2  540   0.880   0.116  12.286 -0.4315  0.2431 -0.0292
   35MPD2    H3  541   0.877   0.290  12.123 -0.5850 -0.2173  0.1439
   35MPD2     N  542   0.829   0.004  11.773 -0.0371  0.2595 -0.0435
   35MPD2    H5  543   0.805   4.633  11.747  1.3923  0.2782 -1.4736
   35MPD2    N1  544   0.872   4.580  12.234  0.1135 -0.6734  0.4713
   35MPD2    H7  545   0.860   4.602  12.332 -0.2720 -0.1364  0.3047
   36TCq2    C1  546   0.800   0.102  11.679  0.1148 -0.2648  0.5349
   36TCq2    O2  547   0.828   0.224  11.672 -0.1069  0.2963  0.2973
   36TCq2    C2  548   0.729   0.050  11.565 -0.3268  0.4903  0.9360
   36TCq2    C3  549   0.660   0.146  11.483  0.2392  0.0284  0.2607
   36TCq2    C4  550   0.560   0.100  11.397  0.6307 -0.1954  0.6833
   36TCq2    C5  551   0.526   4.691  11.402 -0.4491 -0.5716  0.5642
   36TCq2    C6  552   0.588   4.602  11.489  0.0899  0.2482 -0.3114
   36TCq2    C7  553   0.697   4.640  11.566  0.5428 -0.7230  0.2291
   36TCq2    C8  554   0.507   4.500  11.553 -0.0884  0.0402 -0.6855
   36TCq2    O4  555   0.570   4.437  11.638  0.4236  0.7216 -0.7766
   36TCq2    C9  556   0.497   0.200  11.316  0.2268  0.0732 -0.1281
   36TCq2    O5  557   0.531   0.317  11.340 -1.4044  0.1376  0.7177
   36TCq2    O6  558   0.404   0.171  11.236  0.4847 -0.2073 -0.0830
   36TCq2    H2  559   0.667   0.250  11.509  3.8969  0.1313 -1.0354
   36TCq2    H3  560   0.448   4.659  11.333 -0.0981 -0.3551  0.0673
   36TCq2    H4  561   0.743   4.565  11.629  0.9735  0.1546  0.9672
   37TMC2    C1  562   2.718   3.630  11.609  0.3680  0.0851 -0.4578
   37TMC2    C2  563   2.713   3.538  11.512  0.2840  0.1204 -0.0098
   37TMC2    C3  564   2.810   3.547  11.415 -0.2596 -0.6699 -1.0327
   37TMC2    C4  565   2.820   3.725  11.626  0.3551  0.0081  0.2584
   37TMC2    C5  566   2.917   3.723  11.524  0.0488 -0.1956  0.2048
   37TMC2    C6  567   2.916   3.636  11.422 -0.1476 -0.1960 -0.7253
   37TMC2     C  568   2.605   3.629  11.708 -0.2122 -0.4382  0.4282
   37TMC2     O  569   2.541   3.527  11.734 -0.0904 -0.2030 -0.5630
   37TMC2     H  570   2.616   3.491  11.500  0.4235 -0.2459  0.3168
   37TMC2    H1  571   2.845   3.777  11.718 -2.6178  1.4775  0.2403
   37TMC2    H2  572   2.992   3.643  11.346 -0.9641  2.4679 -1.2971
   37TMC2    C7  573   3.004   3.843  11.525 -0.3533 -0.2923 -1.0491
   37TMC2    C8  574   2.758   3.543  11.279  0.2233  1.0232  0.0672
   37TMC2    O1  575   2.964   3.945  11.580  0.1078 -0.3173  0.1768
   37TMC2    O2  576   2.644   3.581  11.253  0.7677  0.1920 -0.5149
   37TMC2    O5  577   2.813   3.437  11.229  0.0763 -0.1428 -0.2299
   37TMC2    H5  578   2.902   3.421  11.268  0.8885 -1.5110 -2.6284
   38MPD2     C  579   2.473   3.827  12.163  0.0211 -0.4931  0.6815
   38MPD2    C1  580   2.491   3.931  12.075  0.3671 -0.7408 -0.2701
   38MPD2    C2  581   2.530   3.905  11.943  0.4830 -0.2680  0.6880
   38MPD2    C3  582   2.544   3.777  11.892 -0.5350 -0.3387  0.4939
   38MPD2    C4  583   2.518   3.675  11.979 -0.0326 -0.6790 -0.7046
   38MPD2    C5  584   2.492   3.702  12.110  0.1799 -0.2099  0.1998
   38MPD2     H  585   2.547   3.989  11.877  1.3130 -1.9592 -1.2565
   38MPD2    H1  586   2.534   3.571  11.953 -1.0462 -0.6464 -1.4034
   38MPD2    H2  587   2.443   3.829  12.268  1.1707  0.0209  1.0047
   38MPD2    H3  588   2.481   3.618  12.178 -0.3375  0.6236  1.1435
   38MPD2     N  589   2.602   3.753  11.766 -0.1279  0.2685  0.0104
   38MPD2    H5  590   2.635   3.829  11.708 -2.1821  1.3839  0.2943
   38MPD2    N1  591   2.481   4.069  12.116 -0.3778  0.6315  0.4095
   38MPD2    H7  592   2.468   4.140  12.044 -0.6905 -0.4126 -0.5777
   39MPD2     C  593   0.326   1.089   1.894 -0.1959 -0.2659  0.7436
   39MPD2    C1  594   0.320   1.221   1.928  0.3044 -0.6098  1.0491
   39MPD2    C2  595   0.256   1.309   1.847 -0.2918 -0.0497  0.0340
   39MPD2    C3  596   0.209   1.258   1.729  0.5037 -0.1406  0.1896
   39MPD2    C4  597   0.228   1.128   1.691  0.9755  0.0570 -0.2726
   39MPD2    C5  598   0.277   1.037   1.779  0.7227 -0.8597  0.4527
   39MPD2     H  599   0.242   1.415   1.869 -0.7881  0.0900 -0.9426
   39MPD2    H1  600   0.187   1.087   1.599  0.5948  2.4016 -1.1643
   39MPD2    H2  601   0.365   1.015   1.964  1.7077  2.1249  2.2080
   39MPD2    H3  602   0.261   0.930   1.776 -3.0880 -0.3326  1.4225
   39MPD2     N  603   0.139   1.339   1.634 -0.0078 -0.1925  0.3183
   39MPD2    H5  604   0.144   1.299   1.540 -0.3966 -0.5513  0.4501
   39MPD2    N1  605   0.373   1.252   2.054  0.1808 -0.0740 -0.6228
   39MPD2    H7  606   0.380   1.169   2.112  1.7407 -0.7190 -1.7364
   40TCq2    C1  607   0.394   1.373   2.118 -0.0400  0.3101 -0.3925
   40TCq2    O2  608   0.387   1.488   2.074  0.6140 -0.3939 -0.3471
   40TCq2    C2  609   0.434   1.374   2.259 -0.1207 -0.5745 -0.4793
   40TCq2    C3  610   0.408   1.258   2.334 -0.4355 -0.0803  0.2850
   40TCq2    C4  611   0.424   1.258   2.467  0.2401 -0.1173 -0.0287
   40TCq2    C5  612   0.472   1.369   2.532  0.0254 -0.1009  0.0879
   40TCq2    C6  613   0.507   1.477   2.460  0.0391  0.3811 -0.1080
   40TCq2    C7  614   0.482   1.484   2.325 -0.7500 -0.8059  0.0299
   40TCq2    C8  615   0.579   1.585   2.532 -0.0469 -0.5599  0.4911
   40TCq2    O4  616   0.558   1.603   2.650  0.3974 -0.4683 -0.2117
   40TCq2    C9  617   0.387   1.136   2.536  0.2125 -0.2187 -0.7168
   40TCq2    O5  618   0.421   1.126   2.659  0.1185 -0.0769  0.2197
   40TCq2    O6  619   0.310   1.058   2.479  0.2002  0.5316  0.2433
   40TCq2    H2  620   0.356   1.174   2.289  0.8312 -0.3758 -0.6357
   40TCq2    H3  621   0.476   1.359   2.640 -0.1363 -0.6512  0.0408
   40TCq2    H4  622   0.501   1.581   2.282 -0.4647 -1.2103 -0.7507
   41TMC2    C1  623   4.579   4.519  14.090 -0.1112  0.1492 -0.7907
   41TMC2    C2  624   4.508   4.577  14.192 -0.2073 -0.3419 -0.7318
   41TMC2    C3  625   4.543   4.696  14.241  0.7862  0.0837  0.1447
   41TMC2    C4  626   4.696   4.573  14.048  0.0289 -0.5507  0.4839
   41TMC2    C5  627   0.001   4.697  14.103  0.4200 -0.1797 -0.3119
   41TMC2    C6  628   4.661   0.032  14.206  0.0095 -0.4488  0.3823
   41TMC2     C  629   4.587   4.376  14.091  0.8326  0.5907 -0.3294
   41TMC2     O  630   4.632   4.321  13.990  0.2661  0.5281 -0.0595
   41TMC2     H  631   4.418   4.528  14.227 -0.4762 -0.6093 -1.7812
   41TMC2    H1  632   0.035   4.517  13.979  1.8154 -0.5565  2.1169
   41TMC2    H2  633   4.687   0.127  14.251 -0.8509  0.2579 -0.6224
   41TMC2    C7  634   0.138   0.016  14.101 -0.4559  0.3020  0.4682
   41TMC2    C8  635   4.433   0.054  14.285  0.1331 -0.3660 -0.7489
   41TMC2    O1  636   0.183   0.082  14.190  0.2950 -0.2098  0.1638
   41TMC2    O2  637   4.316   0.023  14.269 -0.5483  0.5244  0.0810
   41TMC2    O5  638   4.477   0.178  14.308 -0.8098 -0.0068 -0.0200
   41TMC2    H5  639   4.565   0.175  14.350 -1.8547 -0.2146  2.1169
   42MPD2     C  640   4.569   4.082  14.156 -0.1600 -1.0496  0.1432
   42MPD2    C1  641   4.572   4.190  14.242 -0.3960 -0.6270 -0.2353
   42MPD2    C2  642   4.588   4.161  14.371 -0.5564 -0.5023 -0.0746
   42MPD2    C3  643   4.573   4.037  14.424  0.0936  0.7794 -0.4039
   42MPD2    C4  644   4.544   3.933  14.344 -0.1513 -0.5166  0.6121
   42MPD2    C5  645   4.541   3.960  14.208 -0.5486 -0.5991  0.3822
   42MPD2     H  646   4.571   4.248  14.433  1.1903 -0.1115 -0.1569
   42MPD2    H1  647   4.518   3.835  14.380  1.5363 -0.8472  0.9489
   42MPD2    H2  648   4.559   4.099  14.049 -1.4989  2.4798  0.8339
   42MPD2    H3  649   4.530   3.877  14.139 -0.6001 -0.8687  0.7090
   42MPD2     N  650   4.575   4.016  14.563  0.1159  0.2018 -0.4259
   42MPD2    H5  651   4.542   3.925  14.593 -0.6377  0.6586  0.1401
   42MPD2    N1  652   4.574   4.330  14.212 -0.0267 -0.6807 -0.4370
   42MPD2    H7  653   4.549   4.392  14.289 -0.0802  0.0242 -1.0277
   43MPD2     C  654   0.687   2.328   1.218 -0.1555  0.0195 -0.3601
   43MPD2    C1  655   0.768   2.275   1.317  0.4274 -0.8549  0.3554
   43MPD2    C2  656   0.755   2.319   1.447 -0.7715  0.4120 -0.6811
   43MPD2    C3  657   0.665   2.413   1.485 -0.2472 -0.3613 -0.2122
   43MPD2    C4  658   0.586   2.469   1.391  0.3178  0.1765 -0.8241
   43MPD2    C5  659   0.591   2.416   1.267  0.0822 -0.5217 -0.2470
   43MPD2     H  660   0.826   2.271   1.514 -1.8889  1.1507  1.0359
   43MPD2    H1  661   0.509   2.544   1.404 -0.4986 -0.7641 -0.2526
   43MPD2    H2  662   0.683   2.294   1.115 -0.3371  1.9674 -1.0113
   43MPD2    H3  663   0.519   2.460   1.199  1.0977  1.9442  0.2765
   43MPD2     N  664   0.654   2.458   1.621 -0.2238 -0.6551 -0.2917
   43MPD2    H5  665   0.577   2.524   1.632  1.8982  2.0663 -1.7477
   43MPD2    N1  666   0.878   2.187   1.294 -0.0128 -0.1569 -0.3304
   43MPD2    H7  667   0.932   2.159   1.376  0.1809 -0.5776 -0.5989
   44TCq2    C1  668   0.767   2.416   2.220  0.3677  0.7899  1.3100
   44TCq2    O2  669   0.799   2.299   2.218 -0.3946 -0.3113 -0.0073
   44TCq2    C2  670   0.721   2.477   2.099 -0.5408 -0.5249  0.2860
   44TCq2    C3  671   0.655   2.598   2.098 -1.0463  0.0304  0.0376
   44TCq2    C4  672   0.641   2.670   1.980  0.5826 -0.1006  0.5190
   44TCq2    C5  673   0.664   2.608   1.861  0.0556 -0.3354 -0.1131
   44TCq2    C6  674   0.710   2.478   1.857 -0.2808  0.4948  0.5218
   44TCq2    C7  675   0.741   2.413   1.976 -0.2756  0.2360  0.2588
   44TCq2    C8  676   0.725   2.407   1.727 -0.3008  0.0202  0.0808
   44TCq2    O4  677   0.780   2.295   1.735 -0.0367  0.0129  0.0731
   44TCq2    C9  678   0.577   2.795   1.987 -0.4454  0.8533 -0.0626
   44TCq2    O5  679   0.571   2.857   1.881  0.4681 -0.0453  0.1676
   44TCq2    O6  680   0.559   2.846   2.099 -0.4685 -0.6591 -0.3205
   44TCq2    H2  681   0.636   2.653   2.189  0.0926 -2.1362  1.5876
   44TCq2    H3  682   0.636   2.659   1.770 -0.0112 -1.0385 -0.4828
   44TCq2    H4  683   0.768   2.309   1.967  0.4589  0.2934  1.8219
   45TMC2    C1  684   2.169   4.384   9.691  0.7298 -0.5340 -0.9405
   45TMC2    C2  685   2.165   4.335   9.820  0.1492  0.1630  0.8606
   45TMC2    C3  686   2.214   4.419   9.920 -0.1009 -0.2425 -0.1692
   45TMC2    C4  687   2.204   4.516   9.662  0.5988  0.4627 -0.7993
   45TMC2    C5  688   2.253   4.590   9.763  0.5038  0.2348 -0.3029
   45TMC2    C6  689   2.268   4.539   9.892  0.2553  0.0033  0.1906
   45TMC2     C  690   2.077   4.316   9.600 -0.3032  0.4773 -0.5044
   45TMC2     O  691   2.027   4.209   9.631  0.0451  0.5323  0.5826
   45TMC2     H  692   2.138   4.231   9.832  1.5219 -0.2445  0.4363
   45TMC2    H1  693   2.214   4.540   9.557 -0.9974  2.7746 -0.4156
   45TMC2    H2  694   2.320   4.590   9.972 -0.2121 -2.2131  1.9122
   45TMC2    C7  695   2.302   4.723   9.733  0.4379 -0.4047 -0.1680
   45TMC2    C8  696   2.181   4.381  10.054  0.0594  0.3233 -0.7804
   45TMC2    O1  697   2.290   0.034   9.617  0.0970 -0.2793 -0.4366
   45TMC2    O2  698   2.230   4.437  10.155 -0.0386 -0.0566 -0.0019
   45TMC2    O5  699   2.057   4.331  10.033 -0.0604 -0.0646 -0.3220
   45TMC2    H5  700   2.030   4.360   9.944 -0.3206 -0.8328 -0.4963
   46MPD2     C  701   1.866   4.257   9.397  0.8165 -0.0591  0.1285
   46MPD2    C1  702   1.902   4.385   9.435  0.1053  0.1881 -0.8819
   46MPD2    C2  703   1.820   4.491   9.390 -0.1795 -0.3075 -0.8497
   46MPD2    C3  704   1.700   4.477   9.321  0.4433 -0.8154 -0.1101
   46MPD2    C4  705   1.658   4.346   9.300  0.1840 -0.2909 -0.0178
   46MPD2    C5  706   1.745   4.243   9.336  0.2838 -0.8705  0.6777
   46MPD2     H  707   1.851   4.586   9.431 -1.1062  0.8142 -2.7440
   46MPD2    H1  708   1.577   4.315   9.235  0.8491  0.0311 -0.9962
   46MPD2    H2  709   1.924   4.172   9.430  0.3078 -0.4341  0.0624
   46MPD2    H3  710   1.706   4.146   9.307 -1.0483 -0.2390  0.3257
   46MPD2     N  711   1.628   4.588   9.284  0.1696 -0.2009 -0.2813
   46MPD2    H5  712   1.672   4.677   9.307  1.7831 -1.1856  0.4308
   46MPD2    N1  713   2.012   4.409   9.527 -0.2967 -0.6155 -0.3318
   46MPD2    H7  714   2.046   4.504   9.540  0.2760 -0.8315 -0.2518
   47TMC2    C1  715   3.849   0.915  10.049 -0.7856 -0.1566 -0.0808
   47TMC2    C2  716   3.889   0.871   9.927  0.4402  0.2732 -0.1924
   47TMC2    C3  717   3.838   0.923   9.817 -1.0569 -0.4880 -0.4311
   47TMC2    C4  718   3.757   1.018  10.049 -0.1050 -0.2276  0.2131
   47TMC2    C5  719   3.704   1.071   9.933  0.7852  0.0019  0.1990
   47TMC2    C6  720   3.744   1.024   9.810  0.6810  0.2892 -0.3024
   47TMC2     C  721   3.926   0.901  10.171 -0.1974 -0.0617  0.4634
   47TMC2     O  722   3.914   0.989  10.256  0.0034 -0.0219 -0.1524
   47TMC2     H  723   3.963   0.793   9.909 -0.0174 -0.8123  2.6630
   47TMC2    H1  724   3.741   1.069  10.143  2.0062 -1.0121  0.9895
   47TMC2    H2  725   3.694   1.050   9.717 -0.7922 -2.2953 -0.2333
   47TMC2    C7  726   3.601   1.168   9.944  0.4797  0.1330 -0.4247
   47TMC2    C8  727   3.902   0.886   9.689 -0.2760 -0.0053  0.3593
   47TMC2    O1  728   3.543   1.178  10.053 -0.2063  0.1296 -0.2599
   47TMC2    O2  729   3.954   0.779   9.677 -0.2404  0.2484  0.0220
   47TMC2    O5  730   3.931   0.997   9.620  0.5589 -0.0039 -0.3939
   47TMC2    H5  731   3.904   1.081   9.664  1.6973 -0.0659  0.4185
   48MPD2     C  732   4.146   0.871  10.363  0.0438 -0.1704  0.4560
   48MPD2    C1  733   4.113   0.775  10.264  0.5050  0.4740  0.4047
   48MPD2    C2  734   4.185   0.658  10.264  0.1018  0.2900  0.0192
   48MPD2    C3  735   4.276   0.623  10.362 -0.6598 -0.1440  0.6147
   48MPD2    C4  736   4.319   0.722  10.451 -0.0271 -0.0131  0.3133
   48MPD2    C5  737   4.245   0.841  10.449  0.8132 -0.4266  0.2871
   48MPD2     H  738   4.165   0.580  10.191 -0.3036 -0.6784  1.1619
   48MPD2    H1  739   4.394   0.717  10.529 -0.2785 -0.0645  0.5506
   48MPD2    H2  740   4.095   0.966  10.374  0.6301  0.4166 -1.9492
   48MPD2    H3  741   4.265   0.911  10.530  0.1779  0.9451 -0.7372
   48MPD2     N  742   4.333   0.491  10.361  0.1555 -0.3018 -0.7906
   48MPD2    H5  743   4.295   0.428  10.291 -0.3291 -0.4538 -0.3891
   48MPD2    N1  744   4.011   0.793  10.167  0.1650  0.1161 -0.0404
   48MPD2    H7  745   3.996   0.719  10.099 -0.3849  0.0674  0.1367
   49MPD2     C  746   3.505   2.050  10.712 -0.6980 -0.0730 -0.3677
   49MPD2    C1  747   3.409   2.132  10.666 -0.4646 -0.4090  0.2898
   49MPD2    C2  748   3.332   2.203  10.752  0.2305  1.0793 -0.0326
   49MPD2    C3  749   3.348   2.192  10.896  0.1122 -0.5423  0.4439
   49MPD2    C4  750   3.446   2.106  10.938  0.5067 -0.3291 -0.0533
   49MPD2    C5  751   3.525   2.042  10.846  0.1766 -0.0150 -0.2861
   49MPD2     H  752   3.250   2.262  10.713  0.3433  0.1873 -1.6001
   49MPD2    H1  753   3.466   2.088  11.043  1.9000  1.5826 -0.0064
   49MPD2    H2  754   3.565   1.987  10.648  0.6986  0.6438  0.2405
   49MPD2    H3  755   3.603   1.976  10.883 -1.6491 -1.7738  0.4473
   49MPD2     N  756   3.267   2.260  10.991 -1.0580  0.5555 -0.0524
   49MPD2    H5  757   3.288   2.241  11.089  0.7764  0.4965 -0.4586
   49MPD2    N1  758   3.380   2.145  10.525 -0.3318  0.3799  0.1126
   49MPD2    H7  759   3.305   2.207  10.497 -2.1997 -2.1967 -0.5799
   50TCq2    C1  760   3.454   2.090  10.422  0.1113 -0.0231  0.8276
   50TCq2    O2  761   3.551   2.020  10.436  0.1843 -0.5935 -0.2912
   50TCq2    C2  762   3.429   2.129  10.284 -0.0753  0.2130 -0.1451
   50TCq2    C3  763   3.535   2.126  10.191  0.5010  0.2951 -0.7603
   50TCq2    C4  764   3.516   2.170  10.065 -0.3991 -0.1858 -0.2145
   50TCq2    C5  765   3.391   2.194  10.022  0.4819 -0.3830 -0.0638
   50TCq2    C6  766   3.291   2.216  10.115 -0.2121 -0.4256 -0.4666
   50TCq2    C7  767   3.305   2.166  10.240 -0.9711  0.3132 -0.4625
   50TCq2    C8  768   3.166   2.249  10.061 -0.3233  0.9075  0.7011
   50TCq2    O4  769   3.152   2.249   9.938 -0.0202  0.1543 -0.4425
   50TCq2    C9  770   3.625   2.183   9.965 -0.1887 -0.0639 -0.2131
   50TCq2    O5  771   3.746   2.169  10.004 -0.2765 -0.1191  1.1514
   50TCq2    O6  772   3.590   2.218   9.853 -0.6773  0.5376 -0.5071
   50TCq2    H2  773   3.636   2.103  10.222  0.5827  0.6653 -0.7443
   50TCq2    H3  774   3.360   2.210   9.919 -0.4811  0.5413  0.3704
   50TCq2    H4  775   3.223   2.141  10.305  0.4925  1.4747  1.8281
   51MPD2     C  776   2.306   1.121   1.289  0.0857 -0.3569  0.0777
   51MPD2    C1  777   2.440   1.121   1.321  0.0776  0.1330 -0.2434
   51MPD2    C2  778   2.521   1.232   1.285 -0.2615 -0.9236  0.9639
   51MPD2    C3  779   2.462   1.350   1.240  0.2598 -0.2125 -0.1926
   51MPD2    C4  780   2.324   1.347   1.217  0.0944 -0.3605 -0.5867
   51MPD2    C5  781   2.254   1.231   1.228  0.6154  0.8490  0.0269
   51MPD2     H  782   2.627   1.228   1.306  0.0555 -0.2845 -0.5030
   51MPD2    H1  783   2.274   1.439   1.189  1.8036  1.0587  1.0319
   51MPD2    H2  784   2.235   1.046   1.321  0.3642 -0.0799  1.3541
   51MPD2    H3  785   2.148   1.236   1.206  0.4931 -1.3606  0.1062
   51MPD2     N  786   2.538   1.465   1.196 -0.0787 -0.3465  0.0398
   51MPD2    H5  787   2.477   1.536   1.157 -2.4301 -0.3035  3.7839
   51MPD2    N1  788   2.497   1.011   1.397  0.5545 -0.0864 -0.0458
   51MPD2    H7  789   2.596   1.013   1.422  0.5596  1.0958 -0.1172
   52TCq2    C1  790   2.674   1.476   1.186  0.1605 -0.6021 -0.1900
   52TCq2    O2  791   2.757   1.389   1.210 -0.3399 -0.2859  0.1257
   52TCq2    C2  792   2.710   1.616   1.163  0.6941  0.3982 -0.8469
   52TCq2    C3  793   2.623   1.725   1.187 -0.1401  0.7084  0.5662
   52TCq2    C4  794   2.655   1.854   1.150  0.1158 -0.7609 -0.2959
   52TCq2    C5  795   2.769   1.884   1.086  0.0034 -0.2036  0.6619
   52TCq2    C6  796   2.855   1.775   1.071 -0.8858 -0.2299 -0.1873
   52TCq2    C7  797   2.837   1.649   1.116  0.1708  0.5722 -1.0462
   52TCq2    C8  798   2.988   1.796   1.011  0.1110  0.0296 -0.1140
   52TCq2    O4  799   3.067   1.708   1.027 -0.3342 -0.3061 -0.1052
   52TCq2    C9  800   2.561   1.964   1.179 -0.4308  0.7850  0.4047
   52TCq2    O5  801   2.441   1.936   1.212 -0.3608  0.2174  0.6008
   52TCq2    O6  802   2.608   2.082   1.163  0.2296  0.0786  0.0759
   52TCq2    H2  803   2.523   1.719   1.230 -1.1655 -0.7598 -2.0311
   52TCq2    H3  804   2.792   1.986   1.059 -2.6318  0.3370  0.5114
   52TCq2    H4  805   2.907   1.567   1.105 -0.5429 -0.1514 -0.2256
   53TMC2    C1  806   3.488   4.449  11.619  0.3161 -0.1595  0.1102
   53TMC2    C2  807   3.607   4.497  11.662 -0.3651 -0.3049  0.0496
   53TMC2    C3  808   3.600   4.616  11.732  0.0515  0.0615  0.1034
   53TMC2    C4  809   3.367   4.501  11.656  0.3270  0.1815 -0.5558
   53TMC2    C5  810   3.363   4.616  11.732  1.2020  0.0469  0.4253
   53TMC2    C6  811   3.483   4.684  11.763  0.4455  0.9560 -0.9505
   53TMC2     C  812   3.491   4.326  11.541 -0.0636 -0.5985  0.2745
   53TMC2     O  813   3.602   4.299  11.500 -0.1226  0.3408  0.5593
   53TMC2     H  814   3.704   4.456  11.638 -0.4455  0.3618 -1.3896
   53TMC2    H1  815   3.279   4.472  11.600 -0.5545  1.6858  0.0457
   53TMC2    H2  816   3.492   0.061  11.802 -1.3659  0.9504 -0.5395
   53TMC2    C7  817   3.239   4.659  11.795 -0.1563  0.1676 -0.2181
   53TMC2    C8  818   3.719   4.694  11.759 -0.7784  1.0445 -0.0772
   53TMC2    O1  819   3.139   4.603  11.753 -0.2084 -0.2447  0.1512
   53TMC2    O2  820   3.718   0.093  11.773  0.2769 -0.3529  0.0084
   53TMC2    O5  821   3.810   4.613  11.818 -0.6956 -0.3003 -0.0537
   53TMC2    H5  822   3.772   4.523  11.808 -1.8492  0.2256 -0.4216
   54MPD2     C  823   3.452   4.083  11.375  0.2451  0.1778 -0.0466
   54MPD2    C1  824   3.360   4.131  11.465  0.1793 -0.3575  0.9341
   54MPD2    C2  825   3.254   4.049  11.491 -0.3254 -0.1251 -0.5332
   54MPD2    C3  826   3.240   3.919  11.440 -0.1211  0.0080  0.1783
   54MPD2    C4  827   3.337   3.868  11.356 -0.0795 -0.3196  0.1435
   54MPD2    C5  828   3.443   3.950  11.329  0.9502  0.6803  0.7693
   54MPD2     H  829   3.182   4.093  11.558  0.8946 -0.4469  0.9897
   54MPD2    H1  830   3.335   3.766  11.320 -1.1139 -0.9592  2.0231
   54MPD2    H2  831   3.538   4.142  11.345  1.2459 -0.8943  0.7236
   54MPD2    H3  832   3.522   3.904  11.271 -0.1978 -0.8212  0.3970
   54MPD2     N  833   3.128   3.828  11.460 -0.0877 -0.0789 -0.0456
   54MPD2    H5  834   3.144   3.735  11.423  2.2182 -0.2165  1.2734
   54MPD2    N1  835   3.381   4.246  11.543  0.4469 -0.1432 -0.0905
   54MPD2    H7  836   3.303   4.276  11.600 -0.2397  0.9201 -1.5912
   55MPD2     C  837   3.987   1.499   0.446 -0.5889  0.1518  0.5195
   55MPD2    C1  838   3.892   1.401   0.465  0.1124 -0.4375 -0.0859
   55MPD2    C2  839   3.768   1.442   0.506 -0.1653 -0.1660  0.1839
   55MPD2    C3  840   3.736   1.580   0.515  1.0505  0.4630  0.0948
   55MPD2    C4  841   3.830   1.679   0.484  0.1877 -0.2993 -0.6542
   55MPD2    C5  842   3.958   1.633   0.455  0.4461 -0.1251  0.6985
   55MPD2     H  843   3.690   1.371   0.532 -1.9849  1.1405 -1.7257
   55MPD2    H1  844   3.819   1.785   0.501 -1.8045 -0.4834 -0.8187
   55MPD2    H2  845   4.085   1.480   0.402 -0.1127  1.0092  1.2316
   55MPD2    H3  846   4.037   1.705   0.437  0.9907 -1.1486 -1.0072
   55MPD2     N  847   3.595   1.609   0.542 -0.1938  0.5034 -0.1158
   55MPD2    H5  848   3.533   1.532   0.565  0.6900  0.2125  1.2632
   55MPD2    N1  849   3.932   1.261   0.446 -0.8318 -0.2203  0.2265
   55MPD2    H7  850   4.030   1.254   0.419 -1.1352  0.3637 -1.0227
   56TCq2    C1  851   3.845   1.158   0.475  0.1428  0.7503  0.4089
   56TCq2    O2  852   3.731   1.147   0.523  0.0200 -0.2730 -0.4790
   56TCq2    C2  853   3.910   1.029   0.443 -0.3659  0.7136 -0.3378
   56TCq2    C3  854   4.004   1.027   0.349 -0.2071  0.1871  0.0335
   56TCq2    C4  855   4.033   0.910   0.288  0.2607  0.5610 -0.2028
   56TCq2    C5  856   3.984   0.792   0.340 -0.5092 -1.1027 -0.9413
   56TCq2    C6  857   3.918   0.799   0.459  0.1218  0.0472 -0.7039
   56TCq2    C7  858   3.871   0.922   0.512  0.4447 -0.0210  0.1957
   56TCq2    C8  859   3.871   0.678   0.514  0.0568 -0.7774 -0.3239
   56TCq2    O4  860   3.934   0.573   0.500 -0.6545 -0.3148 -0.5838
   56TCq2    C9  861   4.145   0.909   0.194  0.1355 -0.7579 -0.4854
   56TCq2    O5  862   4.174   0.800   0.142  0.0307  0.2568 -0.5603
   56TCq2    O6  863   4.203   1.023   0.182  0.6788  0.2390 -0.9205
   56TCq2    H2  864   4.040   1.114   0.296 -0.6165  0.7971  0.7532
   56TCq2    H3  865   3.997   0.692   0.301  1.9943 -1.4594  0.7833
   56TCq2    H4  866   3.821   0.937   0.607  2.0305 -0.9268  1.1835
   57TMC2    C1  867   3.289   3.589  13.841 -0.1099 -0.9348 -0.5535
   57TMC2    C2  868   3.367   3.523  13.925  0.3585 -0.0852 -0.3250
   57TMC2    C3  869   3.481   3.460  13.866  0.2137 -0.2465  0.0615
   57TMC2    C4  870   3.320   3.601  13.708  0.2916  0.9651  0.4153
   57TMC2    C5  871   3.435   3.553  13.656  0.1256 -0.2209 -0.5956
   57TMC2    C6  872   3.514   3.476  13.733 -0.1846 -0.1691 -0.0387
   57TMC2     C  873   3.164   3.630  13.887  1.0816 -0.5731 -0.5258
   57TMC2     O  874   3.165   3.707  13.983  0.3474 -0.0460 -0.4256
   57TMC2     H  875   3.336   3.498  14.025 -0.4197 -0.0114 -0.5514
   57TMC2    H1  876   3.252   3.650  13.640 -0.9850 -0.6219  0.5372
   57TMC2    H2  877   3.602   3.423  13.700  1.3368  1.0547  2.1070
   57TMC2    C7  878   3.450   3.543  13.514 -0.0564 -0.8818 -0.4642
   57TMC2    C8  879   3.536   3.344  13.930  0.3144  0.0814 -0.5895
   57TMC2    O1  880   3.428   3.644  13.454  0.0348  0.1178  0.1099
   57TMC2    O2  881   3.594   3.248  13.877  0.4854  0.0810 -0.4630
   57TMC2    O5  882   3.572   3.374  14.053 -0.7865 -0.4779 -0.4596
   57TMC2    H5  883   3.542   3.462  14.086  1.8916  0.6149 -0.9650
   58MPD2     C  884   2.674   3.516  13.937 -0.0681  0.1448 -0.0434
   58MPD2    C1  885   2.758   3.588  14.011  0.5196  0.5451  0.2357
   58MPD2    C2  886   2.886   3.604  13.971  0.1961 -0.3027  0.9920
   58MPD2    C3  887   2.930   3.553  13.857  0.2380 -0.1081 -0.3712
   58MPD2    C4  888   2.842   3.485  13.773 -0.1653 -0.3622 -0.5239
   58MPD2    C5  889   2.712   3.469  13.815  0.0933  0.0119 -0.0986
   58MPD2     H  890   2.948   3.670  14.031 -1.5691  0.4923  1.9583
   58MPD2    H1  891   2.877   3.444  13.679  0.0353 -0.3077 -0.4723
   58MPD2    H2  892   2.570   3.501  13.961  0.2154  0.7796  1.5891
   58MPD2    H3  893   2.642   3.418  13.749  0.1190  0.3312 -0.3728
   58MPD2     N  894   3.067   3.565  13.817  0.0865 -0.1270 -0.1324
   58MPD2    H5  895   3.096   3.525  13.728 -1.2832 -1.3426 -0.0198
   58MPD2    N1  896   2.724   3.642  14.138 -0.5283 -0.1112  0.4288
   58MPD2    H7  897   2.804   3.690  14.177 -0.2435  1.9357 -2.6372
   59MPD2     C  898   1.018   3.549  13.589  0.3694 -0.2041 -0.4427
   59MPD2    C1  899   1.119   3.592  13.495 -0.5447 -0.8090  0.3011
   59MPD2    C2  900   1.228   3.658  13.554  0.9077 -0.4546  0.1773
   59MPD2    C3  901   1.222   3.710  13.683 -0.1973 -0.3508  0.6455
   59MPD2    C4  902   1.110   3.690  13.758  0.1083  0.5153 -0.1066
   59MPD2    C5  903   1.017   3.599  13.716 -0.2939  0.2365 -0.0012
   59MPD2     H  904   1.310   3.679  13.486 -0.3467 -1.1228 -1.5438
   59MPD2    H1  905   1.105   3.722  13.862 -2.5048 -0.8932  0.2018
   59MPD2    H2  906   0.938   3.485  13.554 -0.1463 -0.0834  0.5180
   59MPD2    H3  907   0.937   3.572  13.784  0.5034 -1.1594  0.3883
   59MPD2     N  908   1.310   3.814  13.726 -0.1482 -0.4870 -0.6701
   59MPD2    H5  909   1.278   3.859  13.811 -0.1025 -2.6597  0.4988
   59MPD2    N1  910   1.114   3.574  13.355 -0.0825 -0.2234 -0.1027
   59MPD2    H7  911   1.193   3.609  13.301  0.9162  0.2137  1.6484
   60TCq2    C1  912   1.010   3.510  13.287 -0.5758  0.5676 -0.8261
   60TCq2    O2  913   0.908   3.462  13.328 -0.8463  0.1413  0.1347
   60TCq2    C2  914   1.033   3.467  13.152 -0.1942  0.1139 -0.3279
   60TCq2    C3  915   0.936   3.383  13.090 -0.2930 -0.2352  0.7713
   60TCq2    C4  916   0.940   3.359  12.957 -0.0664  0.1834 -0.5257
   60TCq2    C5  917   1.042   3.414  12.885 -0.2085  0.4625 -0.0748
   60TCq2    C6  918   1.142   3.494  12.949 -0.1416 -0.5416  0.2076
   60TCq2    C7  919   1.137   3.522  13.082  0.3053 -1.0263 -0.0507
   60TCq2    C8  920   1.220   3.584  12.869  0.1920 -0.1949 -0.0872
   60TCq2    O4  921   1.334   3.609  12.900 -0.5318  0.0608 -0.3771
   60TCq2    C9  922   0.839   3.282  12.902 -0.3858 -0.0915 -0.1905
   60TCq2    O5  923   0.861   3.251  12.785  0.0334  0.4248 -0.0260
   60TCq2    O6  924   0.748   3.230  12.973 -0.1322 -0.0701  0.4561
   60TCq2    H2  925   0.859   3.333  13.147 -1.4287 -0.7221 -1.2003
   60TCq2    H3  926   1.038   3.403  12.777 -0.8442  0.9170 -0.0943
   60TCq2    H4  927   1.206   3.596  13.121 -0.7238 -0.4210  0.6105
   61MPD2     C  928   0.192   4.460  14.865  0.4248  0.1881 -0.3168
   61MPD2    C1  929   0.266   4.565  14.910 -0.0495  0.4612 -0.3508
   61MPD2    C2  930   0.257   4.682  14.835  0.2877 -0.5786 -0.2707
   61MPD2    C3  931   0.166   4.699  14.729 -0.2461 -0.0284 -0.3560
   61MPD2    C4  932   0.104   4.588  14.686 -0.1245 -0.0362 -0.2058
   61MPD2    C5  933   0.120   4.468  14.751  0.2491  0.4404 -0.2231
   61MPD2     H  934   0.321   0.038  14.871 -1.3224  0.6345 -0.0750
   61MPD2    H1  935   0.050   4.588  14.592 -1.4482 -3.5718  0.5677
   61MPD2    H2  936   0.194   4.369  14.924  1.0285 -0.5723 -1.5034
   61MPD2    H3  937   0.095   4.375  14.701  0.5948  0.7594 -0.9799
   61MPD2     N  938   0.139   0.106  14.674  0.5323 -0.4325 -0.2844
   61MPD2    H5  939   0.092   0.104  14.584 -1.0321  0.2559  0.5057
   61MPD2    N1  940   0.347   4.573  15.025  0.5836 -0.2895 -0.4288
   61MPD2    H7  941   0.399   4.658  15.040  0.4632 -0.2351 -0.3226
   62TCq2    C1  942   0.368   4.481  15.127  0.6988 -1.0361  0.2234
   62TCq2    O2  943   0.315   4.371  15.136 -0.1965  0.0660  0.4994
   62TCq2    C2  944   0.435   4.527  15.248  0.1318  0.4021  0.0258
   62TCq2    C3  945   0.452   4.428  15.346 -0.3489 -0.2100 -1.0006
   62TCq2    C4  946   0.446   4.458  15.478 -0.1461  0.1734  0.1603
   62TCq2    C5  947   0.404   4.577  15.516 -0.3743  0.5844 -0.0951
   62TCq2    C6  948   0.390   4.671  15.418  0.3281  0.5313 -0.1662
   62TCq2    C7  949   0.403   4.652  15.285  0.4483  0.2498  0.3988
   62TCq2    C8  950   0.343   0.081  15.451  0.9467  0.1214 -0.9618
   62TCq2    O4  951   0.393   0.175  15.391 -0.2815  0.3275 -0.0558
   62TCq2    C9  952   0.460   4.353  15.573  0.0789  0.0418 -0.1727
   62TCq2    O5  953   0.528   4.246  15.547 -0.2656 -0.0605 -0.4047
   62TCq2    O6  954   0.408   4.380  15.684 -0.5494 -0.0622 -0.1161
   62TCq2    H2  955   0.472   4.325  15.318  1.4653 -0.1091 -0.0943
   62TCq2    H3  956   0.382   4.597  15.621 -0.3771 -1.1891  0.2468
   62TCq2    H4  957   0.397   0.007  15.211  0.2164 -0.6728 -0.5676
   63TMC2    C1  958   3.465   0.116  10.022  0.0839 -0.2413 -0.3719
   63TMC2    C2  959   3.526   0.146   9.904  0.1489  0.6225 -0.5817
   63TMC2    C3  960   3.486   0.257   9.836  0.4385 -0.2293  0.1802
   63TMC2    C4  961   3.362   0.191  10.063  0.2886  0.4197  0.1255
   63TMC2    C5  962   3.341   0.312  10.000  0.2533 -0.0145  0.2718
   63TMC2    C6  963   3.392   0.344   9.876  0.3673  0.0061  0.1055
   63TMC2     C  964   3.548   0.062  10.130  0.3379 -0.4298  0.1224
   63TMC2     O  965   3.625   4.691  10.111  0.1050  0.4769  0.1186
   63TMC2     H  966   3.624   0.102   9.892  0.1419  0.1102  1.1466
   63TMC2    H1  967   3.324   0.172  10.163  1.7583 -2.5281  0.1127
   63TMC2    H2  968   3.375   0.442   9.833 -0.1223  0.6454  1.7564
   63TMC2    C7  969   3.383   0.420  10.092 -0.2122 -0.4534 -0.0454
   63TMC2    C8  970   3.583   0.317   9.743  0.3731 -0.2212  0.1899
   63TMC2    O1  971   3.434   0.389  10.198  0.4833  0.5733  0.4124
   63TMC2    O2  972   3.696   0.281   9.729 -0.3288  0.1758 -0.2396
   63TMC2    O5  973   3.507   0.364   9.645 -0.2551  0.0339  0.2357
   63TMC2    H5  974   3.411   0.353   9.658  0.2371 -5.8170 -1.4160
   64MPD2     C  975   3.768   0.101  10.591 -0.0845  0.2172  0.1969
   64MPD2    C1  976   3.767   4.717  10.507 -0.7430 -0.0255  0.1503
   64MPD2    C2  977   3.700   4.720  10.384 -0.6450 -0.2471 -1.0057
   64MPD2    C3  978   3.626   0.113  10.356 -0.0109 -0.4896  0.2647
   64MPD2    C4  979   3.617   0.208  10.454 -0.5413  0.6063 -0.5537
   64MPD2    C5  980   3.680   0.202  10.570  0.4625 -0.1097  0.2534
   64MPD2     H  981   3.732   4.646  10.311 -1.1920 -0.4969 -0.9983
   64MPD2    H1  982   3.557   0.296  10.433 -0.6881  0.4550 -0.7618
   64MPD2    H2  983   3.806   0.086  10.691 -1.9535  1.6363  1.1234
   64MPD2    H3  984   3.671   0.282  10.643 -1.2045  2.2355 -2.5234
   64MPD2     N  985   3.547   0.139  10.237 -0.9289  0.0993  0.3070
   64MPD2    H5  986   3.498   0.227  10.243 -1.6353 -0.3753  1.7567
   64MPD2    N1  987   3.844   4.603  10.534 -0.3780  0.3045  0.2754
   64MPD2    H7  988   3.855   4.521  10.474  1.7095 -0.6563  1.9725
   65MPD2     C  989   0.768   3.902  16.398  0.1094  0.9745  0.7872
   65MPD2    C1  990   0.814   3.932  16.272 -0.1053 -0.4202 -0.1484
   65MPD2    C2  991   0.843   3.829  16.186 -0.1819 -0.2604 -0.2105
   65MPD2    C3  992   0.814   3.696  16.220  0.3026 -0.7521 -0.1639
   65MPD2    C4  993   0.749   3.673  16.340  0.3353 -0.2415  0.1506
   65MPD2    C5  994   0.736   3.775  16.430  1.1591  0.0276 -1.0830
   65MPD2     H  995   0.882   3.859  16.090  1.2847 -0.8163  0.2065
   65MPD2    H1  996   0.707   3.577  16.364  1.8825 -1.1122 -0.6171
   65MPD2    H2  997   0.753   3.975  16.477 -0.2101 -0.5348  2.1294
   65MPD2    H3  998   0.695   3.745  16.525  3.3384 -0.9029 -0.4325
   65MPD2     N  999   0.808   3.593  16.116  0.2824 -0.3968 -0.1386
   65MPD2    H5 1000   0.748   3.514  16.138  0.5155 -0.7709 -0.8451
   65MPD2    N1 1001   0.842   4.066  16.227 -0.5371  1.0804  0.2907
   65MPD2    H7 1002   0.870   4.078  16.130  1.1329  0.5667  0.7189
   66TCq2    C1 1003   0.831   4.181  16.298 -0.2843  0.4796  0.4429
   66TCq2    O2 1004   0.788   4.201  16.412 -0.0337  0.1274  0.1643
   66TCq2    C2 1005   0.853   4.294  16.213 -1.0108 -0.4543 -0.3176
   66TCq2    C3 1006   0.929   4.275  16.100 -0.3321 -0.3656 -0.1069
   66TCq2    C4 1007   0.908   4.356  15.997 -0.1125  0.2238  0.2166
   66TCq2    C5 1008   0.823   4.461  16.011  0.0583 -0.2585 -0.1552
   66TCq2    C6 1009   0.752   4.476  16.125  0.0035 -0.5485  0.1188
   66TCq2    C7 1010   0.764   4.394  16.233 -0.4376  0.0831 -0.2349
   66TCq2    C8 1011   0.649   4.576  16.125 -0.2394 -0.1025  0.4754
   66TCq2    O4 1012   0.608   4.617  16.019  0.1207  0.2551 -0.0372
   66TCq2    C9 1013   0.981   4.334  15.880  0.1612  0.5939  0.2245
   66TCq2    O5 1014   1.075   4.255  15.893  0.1529 -0.1266  0.0083
   66TCq2    O6 1015   0.945   4.393  15.772 -0.4313  0.2029 -0.1951
   66TCq2    H2 1016   1.002   4.196  16.087  1.7423  1.2525  1.6894
   66TCq2    H3 1017   0.811   4.531  15.929 -1.4486  0.0834  0.3607
   66TCq2    H4 1018   0.699   4.391  16.319  1.2100 -1.6773  0.9490
   67MPD2     C 1019   1.235   3.793  14.514 -0.6856  0.0366 -0.1701
   67MPD2    C1 1020   1.167   3.728  14.612 -0.7568 -0.2367  1.2658
   67MPD2    C2 1021   1.049   3.671  14.588  0.1245 -0.1573  0.1385
   67MPD2    C3 1022   1.005   3.648  14.456 -0.1172  0.4339 -0.4723
   67MPD2    C4 1023   1.083   3.692  14.358 -1.0131  0.0473  0.3494
   67MPD2    C5 1024   1.194   3.770  14.386 -0.4656 -0.1173 -0.4944
   67MPD2     H 1025   0.990   3.645  14.675  1.0047 -0.3576  0.6680
   67MPD2    H1 1026   1.050   3.688  14.255 -0.3017  2.2956  0.0332
   67MPD2    H2 1027   1.318   3.858  14.538 -0.3550 -0.1258 -0.8829
   67MPD2    H3 1028   1.250   3.813  14.304 -1.3173 -0.7311 -1.4002
   67MPD2     N 1029   0.887   3.577  14.426 -0.6218  0.0877 -0.1890
   67MPD2    H5 1030   0.843   3.587  14.335  2.4057  0.1786 -1.6462
   67MPD2    N1 1031   1.204   3.746  14.751  0.4399  0.2431 -0.3170
   67MPD2    H7 1032   1.145   3.705  14.823  0.5935 -3.7675 -2.4520
   68TCq2    C1 1033   1.307   3.808  14.807 -0.3413 -0.6750 -0.3124
   68TCq2    O2 1034   1.421   3.823  14.765  0.0223 -0.1589  0.2062
   68TCq2    C2 1035   1.278   3.821  14.944  0.2273 -0.0361  0.3332
   68TCq2    C3 1036   1.148   3.836  14.987  0.5704 -0.3744 -0.8203
   68TCq2    C4 1037   1.129   3.871  15.116 -0.5232  0.0076  0.5323
   68TCq2    C5 1038   1.236   3.875  15.205  0.2065  0.1367  0.5555
   68TCq2    C6 1039   1.363   3.856  15.164  0.3138 -0.0876  1.7108
   68TCq2    C7 1040   1.388   3.834  15.030 -0.9969 -0.6932 -0.0391
   68TCq2    C8 1041   1.478   3.852  15.255  0.7926 -0.3150 -0.0181
   68TCq2    O4 1042   1.596   3.849  15.209  0.3406  0.2302 -0.4919
   68TCq2    C9 1043   0.999   3.919  15.158 -0.1941  0.2773  0.0165
   68TCq2    O5 1044   0.913   3.910  15.065  0.3169 -0.1562 -0.1940
   68TCq2    O6 1045   0.985   3.939  15.283 -0.1853 -0.4189  0.5152
   68TCq2    H2 1046   1.064   3.846  14.918 -0.6115 -0.5541  0.6014
   68TCq2    H3 1047   1.227   3.920  15.303  0.0869 -1.1192  1.1102
   68TCq2    H4 1048   1.491   3.830  14.995 -0.2312 -0.3645  2.1889
   69TMC2    C1 1049   3.415   0.683  12.608  0.4107 -0.1743  0.0136
   69TMC2    C2 1050   3.343   0.726  12.496 -0.4290  0.1611 -1.1025
   69TMC2    C3 1051   3.412   0.800  12.406  0.8226 -0.2279  0.3928
   69TMC2    C4 1052   3.539   0.740  12.634 -0.7187  0.2702 -0.4804
   69TMC2    C5 1053   3.602   0.804  12.528  0.5485 -0.6601 -0.6973
   69TMC2    C6 1054   3.544   0.838  12.412 -0.5668 -0.5189 -0.4345
   69TMC2     C 1055   3.388   0.551  12.664  0.5056 -0.0394 -0.5485
   69TMC2     O 1056   3.448   0.514  12.765  0.6224 -0.1769  0.1863
   69TMC2     H 1057   3.245   0.696  12.461 -0.4841  0.0322 -0.8356
   69TMC2    H1 1058   3.593   0.719  12.726  1.2681 -0.7317 -1.8751
   69TMC2    H2 1059   3.594   0.888  12.331  1.5669 -1.0802  0.5491
   69TMC2    C7 1060   3.748   0.824  12.527 -0.0799 -0.2399  0.0007
   69TMC2    C8 1061   3.349   0.810  12.278  0.3803  0.2104  0.3105
   69TMC2    O1 1062   3.807   0.843  12.420  0.3919  0.1455 -0.3298
   69TMC2    O2 1063   3.229   0.841  12.265  0.2580  0.4845  0.9584
   69TMC2    O5 1064   3.432   0.765  12.186 -0.3728 -0.0305 -0.1897
   69TMC2    H5 1065   3.520   0.726  12.205 -0.6621  0.3643  1.9067
   70MPD2     C 1066   3.151   0.302  12.528  0.2031  0.3224 -0.1643
   70MPD2    C1 1067   3.252   0.353  12.613  0.1601  0.3669  0.2036
   70MPD2    C2 1068   3.308   0.268  12.710 -0.3322 -0.3474 -0.2542
   70MPD2    C3 1069   3.275   0.136  12.711  0.6816 -0.7410  0.0593
   70MPD2    C4 1070   3.167   0.091  12.635 -0.9909 -0.2685  0.4587
   70MPD2    C5 1071   3.108   0.177  12.543 -0.1988 -0.9472 -0.8540
   70MPD2     H 1072   3.375   0.295  12.790 -1.2854  2.0673 -0.2531
   70MPD2    H1 1073   3.129   4.713  12.642 -1.2135 -0.1561  0.8531
   70MPD2    H2 1074   3.099   0.359  12.452 -0.0269  1.0147  0.5115
   70MPD2    H3 1075   3.028   0.135  12.483  0.4350 -0.4009 -2.1072
   70MPD2     N 1076   3.324   0.048  12.811  0.2270  0.4574  0.0713
   70MPD2    H5 1077   3.287   4.678  12.816 -1.0661  0.8688 -2.1091
   70MPD2    N1 1078   3.293   0.489  12.590 -0.0989 -0.0074 -0.4988
   70MPD2    H7 1079   3.260   0.535  12.506  0.4706 -1.4744 -1.5335
   71TMC2    C1 1080   0.183   4.330   2.200 -0.1565  0.2886 -0.1293
   71TMC2    C2 1081   0.253   4.234   2.270 -0.1197 -0.1870  0.4756
   71TMC2    C3 1082   0.196   4.113   2.287  0.4473  0.3428  0.6408
   71TMC2    C4 1083   0.061   4.302   2.144 -0.1546 -0.4222  0.0881
   71TMC2    C5 1084   0.009   4.173   2.159  0.2238  0.3131  0.4648
   71TMC2    C6 1085   0.082   4.077   2.224 -1.1619 -0.1655  0.1859
   71TMC2     C 1086   0.244   4.451   2.147  0.8379  0.7417 -0.4231
   71TMC2     O 1087   0.199   4.493   2.044  0.0417  0.2388  0.3359
   71TMC2     H 1088   0.356   4.252   2.297 -0.9055  0.9246  2.7750
   71TMC2    H1 1089   0.009   4.381   2.091  0.2537 -0.4364 -0.3352
   71TMC2    H2 1090   0.048   3.978   2.250  1.0523 -0.9730 -0.0228
   71TMC2    C7 1091   4.602   4.140   2.114  0.1109  0.0284 -0.0084
   71TMC2    C8 1092   0.267   4.010   2.363 -0.1131 -0.3785 -0.5649
   71TMC2    O1 1093   4.557   4.035   2.145  0.3187  0.2049  0.1482
   71TMC2    O2 1094   0.211   3.922   2.428  0.2130 -0.7659  0.2924
   71TMC2    O5 1095   0.391   3.993   2.301  0.0178  0.1056  0.0734
   71TMC2    H5 1096   0.405   4.048   2.221 -0.2480  0.2682  0.1387
   72MPD2     C 1097   0.633   0.065   2.133  0.5396  0.0420  0.4464
   72MPD2    C1 1098   0.518   0.063   2.059 -0.3474  0.9024  0.3002
   72MPD2    C2 1099   0.430   4.688   2.084 -0.1201 -0.2000 -0.6479
   72MPD2    C3 1100   0.437   4.606   2.196 -0.9097 -0.0436 -0.1154
   72MPD2    C4 1101   0.540   4.632   2.287  0.2263 -0.2777 -0.0190
   72MPD2    C5 1102   0.635   4.716   2.248 -0.1948  0.5031 -0.2059
   72MPD2     H 1103   0.356   4.658   2.010  1.0511  0.8033 -2.2275
   72MPD2    H1 1104   0.548   4.587   2.385  0.2617 -0.6168 -0.1769
   72MPD2    H2 1105   0.723   0.122   2.111  0.1187  1.1191  1.4818
   72MPD2    H3 1106   0.717   4.715   2.319  0.4721  2.4779 -0.9300
   72MPD2     N 1107   0.349   4.498   2.224 -0.8341 -0.4495 -0.6435
   72MPD2    H5 1108   0.380   4.436   2.298 -1.1029  0.0264 -0.1392
   72MPD2    N1 1109   0.515   0.133   1.936 -0.0608 -0.1644  0.1880
   72MPD2    H7 1110   0.428   0.126   1.884 -0.9619  1.2782  1.5088
   73TMC2    C1 1111   0.117   2.556  14.160 -0.1375  0.6331  0.7465
   73TMC2    C2 1112   0.064   2.592  14.280 -0.8446 -0.5792  1.3204
   73TMC2    C3 1113   0.077   2.495  14.381 -0.3888  0.5026 -0.3107
   73TMC2    C4 1114   0.186   2.439  14.144  0.4341  0.6223  0.3787
   73TMC2    C5 1115   0.218   2.363  14.249  0.1647 -0.2069 -0.2503
   73TMC2    C6 1116   0.158   2.385  14.372 -0.2301  0.3936 -0.4442
   73TMC2     C 1117   0.171   2.665  14.083 -0.1701  0.5023 -0.1291
   73TMC2     O 1118   0.290   2.642  14.069  0.4298  0.0603  0.2215
   73TMC2     H 1119   0.018   2.689  14.290  1.3910  0.4524  1.5109
   73TMC2    H1 1120   0.234   2.411  14.051  1.4921  1.1529  0.7665
   73TMC2    H2 1121   0.170   2.319  14.457  1.8882  0.7006 -0.5043
   73TMC2    C7 1122   0.361   2.339  14.260  0.2940 -0.3391  0.1057
   73TMC2    C8 1123   0.049   2.535  14.516 -0.4133  0.2401  0.2340
   73TMC2    O1 1124   0.406   2.269  14.348  0.2912 -0.2908 -0.1160
   73TMC2    O2 1125   0.117   2.492  14.607  0.1711  0.4986 -0.1406
   73TMC2    O5 1126   4.676   2.626  14.536 -0.9816  0.5660 -0.2974
   73TMC2    H5 1127   4.629   2.646  14.452 -0.5153  0.8453 -0.4942
   74MPD2     C 1128   0.229   3.114  13.865 -0.0293 -0.0500  0.5753
   74MPD2    C1 1129   0.320   3.032  13.928 -0.7091 -0.0190  0.7426
   74MPD2    C2 1130   0.280   2.919  13.997  0.2482  0.1491  0.6466
   74MPD2    C3 1131   0.144   2.888  13.993  0.1677 -0.0522  0.9280
   74MPD2    C4 1132   0.053   2.978  13.940  0.1480  0.2618 -0.4057
   74MPD2    C5 1133   0.092   3.094  13.880 -0.6657  0.1323  0.1265
   74MPD2     H 1134   0.355   2.847  14.028  0.2629  0.9073  2.3477
   74MPD2    H1 1135   4.671   2.956  13.939  0.3178 -0.6103  0.3524
   74MPD2    H2 1136   0.257   3.217  13.849  1.2523 -0.7991 -2.0216
   74MPD2    H3 1137   0.022   3.171  13.850 -0.9003 -0.4917 -0.9273
   74MPD2     N 1138   0.092   2.773  14.051  0.2961  0.2293 -0.4596
   74MPD2    H5 1139   4.715   2.758  14.056  0.6763 -1.1492  2.8698
   74MPD2    N1 1140   0.455   3.067  13.907 -0.3594  0.4400 -0.3955
   74MPD2    H7 1141   0.474   3.145  13.845  1.0163  1.6309  1.5238
   75TCq2    C1 1142   0.804   3.517  14.521 -0.2003  0.8882 -0.2692
   75TCq2    O2 1143   0.824   3.475  14.634  0.0754 -0.0160 -0.4003
   75TCq2    C2 1144   0.658   3.515  14.483  0.1621 -0.2758 -0.0855
   75TCq2    C3 1145   0.567   3.464  14.570  0.0911  0.5993 -0.1086
   75TCq2    C4 1146   0.437   3.507  14.558 -0.3285  0.8242 -0.2015
   75TCq2    C5 1147   0.391   3.592  14.464 -0.1853  0.7731 -0.5148
   75TCq2    C6 1148   0.485   3.623  14.368  0.5534 -0.0186 -0.1453
   75TCq2    C7 1149   0.620   3.596  14.380  0.5653  0.0350 -0.0726
   75TCq2    C8 1150   0.450   3.705  14.258  0.2675  0.7144  0.1702
   75TCq2    O4 1151   0.514   3.687  14.154  0.5097  0.2101 -0.0734
   75TCq2    C9 1152   0.338   3.454  14.649  0.1301 -0.2856  0.0041
   75TCq2    O5 1153   0.249   3.532  14.695 -0.1235 -0.7324 -0.3160
   75TCq2    O6 1154   0.374   3.355  14.714  0.0411  0.8118  0.3767
   75TCq2    H2 1155   0.593   3.398  14.652 -1.4902 -1.3932 -1.2151
   75TCq2    H3 1156   0.287   3.619  14.453 -0.1162  0.8927 -0.9044
   75TCq2    H4 1157   0.691   3.641  14.312  1.8746  0.3064  1.4785
   76MPD2     C 1158   4.376   4.718  12.866 -0.5851 -0.3529 -0.2237
   76MPD2    C1 1159   4.406   4.698  12.737  0.1156 -0.4340  0.9715
   76MPD2    C2 1160   4.483   4.585  12.709 -0.4630 -0.6228 -0.3960
   76MPD2    C3 1161   4.517   4.488  12.805  1.1524  0.3557  0.0995
   76MPD2    C4 1162   4.489   4.516  12.938  0.1217  0.0108  0.5592
   76MPD2    C5 1163   4.419   4.633  12.963 -0.7153 -0.3998 -0.2950
   76MPD2     H 1164   4.522   4.573  12.609 -0.1698 -2.2831 -0.0878
   76MPD2    H1 1165   4.528   4.444  13.009  2.9144  0.0206 -0.9873
   76MPD2    H2 1166   4.316   0.082  12.889  0.5356 -0.0886  1.7066
   76MPD2    H3 1167   4.415   4.675  13.063  1.3934 -0.0695 -0.3500
   76MPD2     N 1168   4.557   4.351  12.776 -0.0227 -0.8201  0.3392
   76MPD2    H5 1169   4.569   4.288  12.854  0.3469  0.8261  1.6119
   76MPD2    N1 1170   4.372   0.048  12.620  0.7838  0.1664  0.1961
   76MPD2    H7 1171   4.422   0.012  12.539 -0.0732 -0.1448 -0.1990
   77TCq2    C1 1172   4.568   4.306  12.649  0.1144  0.4277 -0.4817
   77TCq2    O2 1173   4.540   4.360  12.543 -0.0271 -0.0364 -0.0654
   77TCq2    C2 1174   4.616   4.171  12.647  0.2500  0.1302 -0.7746
   77TCq2    C3 1175   4.571   4.091  12.554 -0.7652 -0.0507 -0.2904
   77TCq2    C4 1176   4.642   3.981  12.522  0.3091 -0.4849 -0.8271
   77TCq2    C5 1177   0.042   3.957  12.585 -0.0699 -0.4580 -0.5370
   77TCq2    C6 1178   0.088   4.040  12.674  1.4180 -0.3269 -0.6210
   77TCq2    C7 1179   0.017   4.152  12.706  0.1599 -0.4317 -0.1983
   77TCq2    C8 1180   0.223   4.004  12.732 -0.0425  0.3073 -0.3806
   77TCq2    O4 1181   0.277   3.912  12.669  0.3848  0.1818  0.5011
   77TCq2    C9 1182   4.617   3.912  12.395 -0.6391 -0.3878  0.1571
   77TCq2    O5 1183   4.557   3.979  12.308  0.2085 -0.0402 -0.6209
   77TCq2    O6 1184   4.636   3.791  12.383 -0.1921  0.0313 -0.1191
   77TCq2    H2 1185   4.474   4.110  12.510 -0.9043 -2.1032 -0.8380
   77TCq2    H3 1186   0.089   3.862  12.564 -0.0546 -0.6541  0.3991
   77TCq2    H4 1187   0.046   4.219  12.787 -0.6420  1.7641 -1.7103
   78MPD1     C 1188   1.504   3.656   2.060  0.5862 -0.0099 -0.1085
   78MPD1    C1 1189   1.604   3.752   2.043 -0.1995  0.3473  0.4660
   78MPD1    C2 1190   1.662   3.806   2.152 -0.5789 -0.3092  0.4305
   78MPD1    C3 1191   1.628   3.768   2.280 -0.4723  1.1236 -0.1617
   78MPD1    C4 1192   1.526   3.676   2.296  0.6380  0.1396 -0.2495
   78MPD1    C5 1193   1.465   3.617   2.185  0.4444 -0.2831  0.0487
   78MPD1     H 1194   1.740   3.881   2.149 -0.4251 -0.3212  3.7141
   78MPD1    H1 1195   1.490   3.644   2.393  0.3695 -1.0112 -0.7201
   78MPD1    H2 1196   1.445   3.616   1.978  2.1444 -1.2891 -0.6068
   78MPD1    H3 1197   1.389   3.541   2.199 -1.0804  0.7317 -2.5462
   78MPD1     N 1198   1.701   3.811   2.397 -0.5409  0.0091 -0.0990
   78MPD1    H5 1199   1.671   3.769   2.485 -1.7451  1.7177  0.2962
   78MPD1    N1 1200   1.608   3.821   1.919 -0.6844 -0.3282  0.0200
   78MPD1    H6 1201   1.691   3.880   1.910 -1.1688  0.2249 -0.7742
   78MPD1    H7 1202   1.597   3.758   1.840  2.2675  1.3662 -1.7234
   79TCq2    C1 1203   1.794   3.914   2.399 -0.2089  0.5391  0.4581
   79TCq2    O2 1204   1.814   3.997   2.316 -0.2549  0.0771 -0.1086
   79TCq2    C2 1205   1.844   3.920   2.533  0.5480 -0.7073  0.3558
   79TCq2    C3 1206   1.869   3.810   2.601 -0.0183  0.3336  0.0584
   79TCq2    C4 1207   1.929   3.813   2.724 -1.2749 -0.6424 -0.5867
   79TCq2    C5 1208   1.989   3.929   2.768 -0.1569  0.9407  0.1028
   79TCq2    C6 1209   1.989   4.036   2.688  0.3521  0.1435  0.5989
   79TCq2    C7 1210   1.913   4.039   2.572  0.1368 -0.1532 -0.5640
   79TCq2    C8 1211   2.087   4.136   2.718  0.2607 -0.3222  0.5520
   79TCq2    O4 1212   2.072   4.243   2.660  0.0618 -0.2436  0.0563
   79TCq2    C9 1213   1.951   3.699   2.806 -0.8923  0.1596  0.4605
   79TCq2    O5 1214   2.032   3.710   2.904  0.1759  0.1095 -0.1909
   79TCq2    O6 1215   1.866   3.606   2.795 -0.1386  0.1888  0.8115
   79TCq2    H2 1216   1.846   3.712   2.561  0.9766 -0.8607  2.3961
   79TCq2    H3 1217   2.019   3.931   2.872 -1.1557  1.9835  0.3794
   79TCq2    H4 1218   1.912   4.129   2.512  0.2519  1.0230  1.2216
   80MPD2     C 1219   3.340   4.379  12.062 -0.0399 -0.1460  0.2472
   80MPD2    C1 1220   3.256   4.272  12.042  0.2943 -0.6641 -0.5616
   80MPD2    C2 1221   3.128   4.276  12.089  0.2806 -0.2080  0.3921
   80MPD2    C3 1222   3.085   4.381  12.173  0.0458 -0.1993  0.3259
   80MPD2    C4 1223   3.173   4.485  12.196  0.5371  0.1128  0.2377
   80MPD2    C5 1224   3.295   4.490  12.133 -0.4727 -0.0516  0.2486
   80MPD2     H 1225   3.064   4.193  12.065 -2.4568  1.5564  1.6012
   80MPD2    H1 1226   3.153   4.558  12.274  1.4370  1.2603 -0.6100
   80MPD2    H2 1227   3.445   4.390  12.034 -0.2219  0.0334 -0.3779
   80MPD2    H3 1228   3.353   4.581  12.143 -0.0729 -0.1104 -1.5924
   80MPD2     N 1229   2.956   4.389  12.228 -0.3520 -0.2751  0.1870
   80MPD2    H5 1230   2.941   4.457  12.302 -0.9339 -0.2762  0.0661
   80MPD2    N1 1231   3.294   4.158  11.963 -0.2241  0.0925 -0.1139
   80MPD2    H7 1232   3.227   4.083  11.949  0.9455 -1.0138  0.1777
   81TCq2    C1 1233   3.411   4.133  11.900  0.1050 -0.2770 -0.0779
   81TCq2    O2 1234   3.522   4.194  11.896  0.5121  0.3084 -0.2779
   81TCq2    C2 1235   3.413   4.007  11.834  0.4066 -0.0347  0.0848
   81TCq2    C3 1236   3.526   3.968  11.768 -0.4051  0.0138  0.0660
   81TCq2    C4 1237   3.527   3.846  11.711  0.2440 -0.3104 -0.4851
   81TCq2    C5 1238   3.427   3.756  11.729  0.1049 -0.0523 -0.1599
   81TCq2    C6 1239   3.318   3.790  11.805  1.1321  0.5403  0.2462
   81TCq2    C7 1240   3.306   3.917  11.854 -0.3874  0.6804  0.0728
   81TCq2    C8 1241   3.211   3.696  11.821 -0.8457  0.4887 -0.0946
   81TCq2    O4 1242   3.192   3.619  11.730  0.3265 -0.4763  0.5166
   81TCq2    C9 1243   3.649   3.811  11.639 -0.4345 -0.6489  0.4236
   81TCq2    O5 1244   3.746   3.887  11.641  0.1425 -0.1802 -0.5259
   81TCq2    O6 1245   3.655   3.690  11.599  0.3493 -0.3054 -0.1596
   81TCq2    H2 1246   3.599   4.044  11.744  0.9722 -2.1366 -2.5943
   81TCq2    H3 1247   3.431   3.655  11.688  0.9430 -0.5247  1.0759
   81TCq2    H4 1248   3.212   3.949  11.899 -1.0051 -0.1261 -0.6403
   82MPD2     C 1249   1.468   4.082  10.580  0.5733  0.1286 -0.1436
   82MPD2    C1 1250   1.390   3.967  10.568  0.4777  0.2094 -0.2726
   82MPD2    C2 1251   1.393   3.877  10.672  0.1497  0.1454  0.4985
   82MPD2    C3 1252   1.478   3.901  10.775 -0.1703 -0.0969 -0.4522
   82MPD2    C4 1253   1.568   4.006  10.778  0.5090  0.2168 -0.2090
   82MPD2    C5 1254   1.559   4.101  10.681  0.9335  0.2156 -0.2148
   82MPD2     H 1255   1.336   3.786  10.662  0.4638  0.0922 -0.8877
   82MPD2    H1 1256   1.635   4.024  10.862  0.7856 -4.3128  0.5299
   82MPD2    H2 1257   1.457   4.155  10.500  0.3532 -0.3698 -0.5725
   82MPD2    H3 1258   1.609   4.196  10.675 -0.3902  0.8311 -1.5117
   82MPD2     N 1259   1.483   3.810  10.885 -0.1440  0.3016  0.1106
   82MPD2    H5 1260   1.563   3.814  10.948 -1.8554  0.3877  2.2662
   82MPD2    N1 1261   1.304   3.967  10.456 -0.1513  1.1890 -0.7476
   82MPD2    H7 1262   1.323   4.038  10.386 -0.6769  1.6560 -0.4190
   83TCq2    C1 1263   1.394   3.705  10.913  0.9348  0.3857  0.1820
   83TCq2    O2 1264   1.283   3.686  10.862  0.5407 -0.4112  0.2420
   83TCq2    C2 1265   1.418   3.624  11.031  0.6117  0.8350 -0.1572
   83TCq2    C3 1266   1.543   3.641  11.095 -0.5929  0.0632  0.1544
   83TCq2    C4 1267   1.562   3.563  11.205 -0.2945  0.2761  0.2213
   83TCq2    C5 1268   1.471   3.465  11.244  0.5397 -0.0292 -0.0344
   83TCq2    C6 1269   1.353   3.455  11.175  0.4243  0.4430 -0.8090
   83TCq2    C7 1270   1.327   3.537  11.064  0.1519  0.0087 -0.0135
   83TCq2    C8 1271   1.248   3.369  11.229 -0.0872  0.4735  0.2286
   83TCq2    O4 1272   1.273   3.322  11.341 -0.0254  0.3117  0.3439
   83TCq2    C9 1273   1.683   3.593  11.287  0.3040  0.7090  0.3976
   83TCq2    O5 1274   1.674   3.548  11.406 -0.1468  0.7885 -0.4056
   83TCq2    O6 1275   1.760   3.685  11.247  0.4310 -0.9065  0.7219
   83TCq2    H2 1276   1.621   3.712  11.068 -0.0662 -0.3427  0.6242
   83TCq2    H3 1277   1.491   3.401  11.329 -0.6841 -1.2476 -0.6674
   83TCq2    H4 1278   1.230   3.524  11.016 -0.2627 -0.2631  0.8856
   84TCq2    C1 1279   3.150   2.328  10.973 -0.2264  0.6053 -0.6861
   84TCq2    O2 1280   3.094   2.345  10.865 -0.0674 -0.2360 -0.1166
   84TCq2    C2 1281   3.077   2.365  11.093 -0.2332 -0.3078  0.7067
   84TCq2    C3 1282   3.125   2.334  11.217 -0.0357  0.1213  0.4232
   84TCq2    C4 1283   3.047   2.367  11.325  0.3914  0.7801  0.3952
   84TCq2    C5 1284   2.917   2.418  11.315 -0.4396  0.5686 -0.9815
   84TCq2    C6 1285   2.874   2.441  11.189  0.2377  0.5308  0.3774
   84TCq2    C7 1286   2.956   2.425  11.079  0.4627  0.2423 -0.4295
   84TCq2    C8 1287   2.734   2.503  11.181  0.1720  0.8971  0.2519
   84TCq2    O4 1288   2.669   2.513  11.285 -0.5004  0.1124  0.3056
   84TCq2    C9 1289   3.105   2.348  11.455  1.0838  0.4964  0.0764
   84TCq2    O5 1290   3.221   2.305  11.461 -0.3230  0.0738 -0.3077
   84TCq2    O6 1291   3.038   2.388  11.558  0.2092 -0.0164 -0.2307
   84TCq2    H2 1292   3.220   2.285  11.234  1.8736  3.1293 -1.4777
   84TCq2    H3 1293   2.855   2.443  11.400  0.6780 -0.3605  0.0987
   84TCq2    H4 1294   2.929   2.447  10.977  1.0335  0.1170 -0.6032
   85MPD2     C 1295   2.872   0.224  16.780 -0.3546  0.6762  0.0021
   85MPD2    C1 1296   2.783   0.239  16.673 -0.7404 -0.1304 -0.2240
   85MPD2    C2 1297   2.814   0.332  16.576  0.4973 -0.3290 -0.2206
   85MPD2    C3 1298   2.929   0.413  16.580 -0.3768 -0.7761  0.1314
   85MPD2    C4 1299   3.018   0.395  16.686  0.1230 -0.1623 -0.2915
   85MPD2    C5 1300   2.991   0.299  16.780 -0.2599 -0.1909 -0.5745
   85MPD2     H 1301   2.750   0.340  16.489 -0.4462  0.1209  0.5082
   85MPD2    H1 1302   3.109   0.452  16.703 -1.3266  1.6488  1.3762
   85MPD2    H2 1303   2.870   0.141  16.850 -1.5603  0.0441 -0.7681
   85MPD2    H3 1304   3.068   0.267  16.848  1.1446  2.5217 -0.8795
   85MPD2     N 1305   2.955   0.501  16.472  1.0337 -0.1235  0.4375
   85MPD2    H5 1306   2.894   0.501  16.391  0.8046 -0.8723  0.6129
   85MPD2    N1 1307   2.672   0.161  16.645 -0.0968 -0.3063 -0.3091
   85MPD2    H7 1308   2.632   0.162  16.552  0.0894  2.1318 -0.3729
   86TCq2    C1 1309   3.051   0.599  16.459 -0.1647 -0.1342  0.0959
   86TCq2    O2 1310   3.148   0.631  16.523 -0.2400  0.2975 -0.0869
   86TCq2    C2 1311   3.025   0.666  16.335  0.6837  0.4400 -0.1298
   86TCq2    C3 1312   2.900   0.698  16.289 -0.3859  1.3742  0.3694
   86TCq2    C4 1313   2.877   0.793  16.191  0.0693  0.3770 -0.9543
   86TCq2    C5 1314   2.983   0.860  16.138 -0.4192 -0.0116 -0.3989
   86TCq2    C6 1315   3.105   0.836  16.200 -0.2298 -0.5678  0.3650
   86TCq2    C7 1316   3.130   0.735  16.291  0.6147  0.6114  0.4752
   86TCq2    C8 1317   3.223   0.904  16.151  0.2133 -0.9928  0.2309
   86TCq2    O4 1318   3.329   0.875  16.208 -0.0727 -0.1643 -0.2457
   86TCq2    C9 1319   2.749   0.816  16.141 -0.0649 -1.1386  0.2900
   86TCq2    O5 1320   2.728   0.918  16.070 -0.0353 -0.3985 -0.1039
   86TCq2    O6 1321   2.676   0.713  16.148 -0.7431 -0.3890 -0.0155
   86TCq2    H2 1322   2.821   0.637  16.330  0.8843  0.2644  1.1565
   86TCq2    H3 1323   2.971   0.937  16.063 -1.9413 -0.6679 -0.8164
   86TCq2    H4 1324   3.223   0.721  16.345  0.4148 -0.5091  0.5411
   87MPD2     C 1325   0.824   3.709   1.993  0.2948 -0.0577  0.5090
   87MPD2    C1 1326   0.832   3.772   1.866 -0.1995  0.1715  0.8227
   87MPD2    C2 1327   0.761   3.889   1.842  0.5772 -0.4038  0.0206
   87MPD2    C3 1328   0.695   3.947   1.944 -0.0423  1.0807  0.1525
   87MPD2    C4 1329   0.693   3.892   2.073 -0.7020  0.3168 -0.2207
   87MPD2    C5 1330   0.749   3.772   2.094  0.0809  0.6529 -0.0059
   87MPD2     H 1331   0.766   3.948   1.751 -0.2141  2.9828  2.1666
   87MPD2    H1 1332   0.653   3.941   2.161 -1.3457 -0.8429  0.1344
   87MPD2    H2 1333   0.866   3.610   2.009  0.2633  0.0658  1.3482
   87MPD2    H3 1334   0.753   3.717   2.187  3.1613  0.6116 -0.1499
   87MPD2     N 1335   0.632   4.065   1.907 -0.2139 -0.1259 -0.0494
   87MPD2    H5 1336   0.630   4.099   1.811 -1.7049  0.0588  0.0353
   87MPD2    N1 1337   0.899   3.714   1.756  0.0157  0.8340  0.0505
   87MPD2    H7 1338   0.877   3.756   1.666 -0.2032  1.9877  0.6445
   88TCq2    C1 1339   0.978   3.600   1.759  0.4402  0.1734 -0.5829
   88TCq2    O2 1340   1.032   3.563   1.865  0.5393  0.6753 -0.2538
   88TCq2    C2 1341   1.013   3.560   1.625 -0.0497 -0.2856  0.1236
   88TCq2    C3 1342   0.944   3.611   1.524  0.3204 -0.4478 -0.3549
   88TCq2    C4 1343   0.998   3.605   1.400 -0.1477 -0.5891  0.2404
   88TCq2    C5 1344   1.109   3.535   1.377  0.9942 -0.2265 -0.5511
   88TCq2    C6 1345   1.175   3.478   1.479  0.1688  0.0957  0.8730
   88TCq2    C7 1346   1.126   3.486   1.606  0.1922 -0.4892 -0.3297
   88TCq2    C8 1347   1.296   3.402   1.441 -0.2543  0.0455  0.0263
   88TCq2    O4 1348   1.324   3.412   1.321  0.2949  0.2974 -0.0276
   88TCq2    C9 1349   0.942   3.696   1.303  0.4283 -0.3570  0.7885
   88TCq2    O5 1350   0.846   3.774   1.337  0.2038  0.6392 -0.1161
   88TCq2    O6 1351   1.020   3.731   1.210  0.1090 -0.1275 -0.0851
   88TCq2    H2 1352   0.848   3.661   1.536 -0.0932 -1.2339 -0.4437
   88TCq2    H3 1353   1.149   3.535   1.276  0.4497  0.4282 -0.7693
   88TCq2    H4 1354   1.171   3.426   1.683 -0.5402  1.6339  1.7396
   89MPD2     C 1355   0.756   1.810   2.623  0.4029  0.4172 -0.6570
   89MPD2    C1 1356   0.746   1.765   2.489 -0.2839 -0.2880  0.4727
   89MPD2    C2 1357   0.834   1.816   2.396 -0.2301 -1.2825  0.0615
   89MPD2    C3 1358   0.930   1.909   2.440  0.6909  0.4174  0.0108
   89MPD2    C4 1359   0.923   1.960   2.570 -0.2548 -0.1011 -0.5257
   89MPD2    C5 1360   0.850   1.901   2.659  0.6539  0.0892 -0.2350
   89MPD2     H 1361   0.835   1.788   2.292  1.5885  0.5074 -0.4000
   89MPD2    H1 1362   0.978   2.048   2.599  0.4996 -0.7446  0.0075
   89MPD2    H2 1363   0.699   1.764   2.703  0.2831  0.1711 -0.8827
   89MPD2    H3 1364   0.864   1.938   2.760 -1.4548  1.7469 -0.5578
   89MPD2     N 1365   1.026   1.960   2.348  0.7143  0.0543  0.2012
   89MPD2    H5 1366   1.014   1.928   2.252 -1.2520  1.4444 -0.0207
   89MPD2    N1 1367   0.654   1.661   2.446 -0.6393 -0.7695  0.1946
   89MPD2    H7 1368   0.662   1.634   2.349 -0.7832 -1.0401  0.2582
   90TCq2    C1 1369   1.128   2.043   2.386 -0.0094 -0.4542  0.1065
   90TCq2    O2 1370   1.173   2.053   2.499  0.6104 -0.0679 -0.1885
   90TCq2    C2 1371   1.214   2.066   2.274  0.8118 -0.9876  0.5505
   90TCq2    C3 1372   1.350   2.082   2.291 -0.2675  0.0498  0.2962
   90TCq2    C4 1373   1.416   2.156   2.198  0.1327 -0.6849 -0.5694
   90TCq2    C5 1374   1.358   2.210   2.090  0.0962  0.2359 -0.2269
   90TCq2    C6 1375   1.225   2.181   2.074 -0.2213 -0.8411  0.0943
   90TCq2    C7 1376   1.154   2.095   2.156 -0.6003 -0.2939  0.2839
   90TCq2    C8 1377   1.162   2.205   1.946  0.1954  0.3830 -0.3779
   90TCq2    O4 1378   1.048   2.168   1.929 -0.1572  0.1436 -0.0150
   90TCq2    C9 1379   1.560   2.164   2.218  0.2290  0.2680 -0.3577
   90TCq2    O5 1380   1.609   2.119   2.328 -0.5410  0.4833 -0.6047
   90TCq2    O6 1381   1.624   2.212   2.121  0.0540  0.1844  0.3338
   90TCq2    H2 1382   1.402   2.058   2.383 -2.7052 -2.6244  0.9998
   90TCq2    H3 1383   1.404   2.287   2.030 -1.7991  1.4869 -0.0602
   90TCq2    H4 1384   1.046   2.094   2.152 -0.5540  0.2601 -1.1228
   91TMC2    C1 1385   2.796   1.537  16.979 -0.2504 -0.4665  0.3989
   91TMC2    C2 1386   2.885   1.566  16.881  1.1023  0.7348 -0.4462
   91TMC2    C3 1387   2.833   1.601  16.764  0.5319  0.7222 -0.0965
   91TMC2    C4 1388   2.661   1.552  16.950  0.7202 -0.3050 -0.3119
   91TMC2    C5 1389   2.618   1.567  16.822 -0.3032 -0.7157 -0.0253
   91TMC2    C6 1390   2.707   1.577  16.721  0.0944 -0.2701  0.2762
   91TMC2     C 1391   2.834   1.474  17.102 -0.5769 -0.4401 -0.3439
   91TMC2     O 1392   2.740   1.451  17.179  0.1751  0.0859 -0.2106
   91TMC2     H 1393   2.992   1.552  16.886  0.9922  0.1646  0.3418
   91TMC2    H1 1394   2.585   1.538  17.026 -0.0106 -0.1403 -1.0181
   91TMC2    H2 1395   2.681   1.609  16.621 -2.3381 -1.0138  0.6624
   91TMC2    C7 1396   2.474   1.571  16.800 -0.8209  0.7027 -0.0452
   91TMC2    C8 1397   2.928   1.661  16.661  0.3211  0.4412  0.2153
   91TMC2    O1 1398   2.397   1.553  16.897 -0.6717  0.0257  0.3024
   91TMC2    O2 1399   3.021   1.732  16.700 -0.5384  0.2090 -0.1698
   91TMC2    O5 1400   2.920   1.594  16.548  0.4990 -0.3607 -0.0505
   91TMC2    H5 1401   2.841   1.538  16.532  0.9156 -0.1629 -2.8849
   92MPD2     C 1402   2.980   1.273  17.272 -0.4575  0.2350  0.3434
   92MPD2    C1 1403   3.041   1.375  17.199  0.0679 -0.1353 -0.0390
   92MPD2    C2 1404   3.181   1.368  17.198 -0.6477  0.5665  0.2977
   92MPD2    C3 1405   3.257   1.279  17.269 -0.1091 -0.5780  0.0671
   92MPD2    C4 1406   3.189   1.187  17.338  0.0829  0.4372 -0.6867
   92MPD2    C5 1407   3.051   1.184  17.338 -0.3281 -0.1372  0.5228
   92MPD2     H 1408   3.232   1.436  17.130 -0.6808 -0.6166 -0.9040
   92MPD2    H1 1409   3.238   1.112  17.398 -0.8612  0.6460  0.3300
   92MPD2    H2 1410   2.872   1.264  17.274 -0.6012  1.3415 -2.2337
   92MPD2    H3 1411   3.001   1.112  17.401 -0.4227  0.7364  1.4538
   92MPD2     N 1412   3.399   1.291  17.259 -0.3864  0.2230  0.4631
   92MPD2    H5 1413   3.430   1.380  17.221  0.1258 -0.2470 -0.2230
   92MPD2    N1 1414   2.970   1.454  17.104 -0.0116  0.1862  0.4667
   92MPD2    H7 1415   3.024   1.509  17.038  0.5919 -1.2302 -0.2168
   93MPD2     C 1416   4.010   2.707  13.568  0.2769  0.4834  0.1280
   93MPD2    C1 1417   4.016   2.598  13.657 -0.1958  0.5197  0.6325
   93MPD2    C2 1418   3.895   2.560  13.713 -1.0932  0.6804  0.0434
   93MPD2    C3 1419   3.773   2.625  13.670 -0.3629  0.3772  1.3316
   93MPD2    C4 1420   3.778   2.735  13.592 -0.0826  0.1519  0.3298
   93MPD2    C5 1421   3.898   2.780  13.542 -0.5037  0.4691  0.3633
   93MPD2     H 1422   3.895   2.475  13.780 -0.5924 -0.4591 -1.4055
   93MPD2    H1 1423   3.689   2.792  13.570  0.0927  0.0040 -0.7618
   93MPD2    H2 1424   4.098   2.750  13.523  1.2723 -1.0858  0.5686
   93MPD2    H3 1425   3.896   2.860  13.469 -0.0947  0.2024  0.0591
   93MPD2     N 1426   3.634   2.581  13.697  0.1532 -0.2034  0.0905
   93MPD2    H5 1427   3.560   2.649  13.687 -0.7872 -1.3188 -0.5919
   93MPD2    N1 1428   4.134   2.529  13.689  0.1758 -0.1664 -0.7846
   93MPD2    H7 1429   4.128   2.447  13.748  1.2949  1.3803  1.4689
   94TCq2    C1 1430   4.257   2.548  13.637 -0.8248  0.8257 -1.3352
   94TCq2    O2 1431   4.301   2.637  13.571 -0.1702 -0.0234  0.8266
   94TCq2    C2 1432   4.353   2.449  13.688 -0.2319 -0.1026  0.7054
   94TCq2    C3 1433   4.300   2.334  13.746  0.1339  0.0486  0.4901
   94TCq2    C4 1434   4.385   2.260  13.825 -0.1677 -0.0010  0.2499
   94TCq2    C5 1435   4.518   2.295  13.836  0.4577 -0.2399  0.2447
   94TCq2    C6 1436   4.572   2.411  13.779 -0.6706  0.0157 -0.0116
   94TCq2    C7 1437   4.481   2.489  13.706 -0.0278  0.2286 -0.0615
   94TCq2    C8 1438   4.718   2.431  13.789  0.5837 -0.5955  0.1077
   94TCq2    O4 1439   0.035   2.353  13.875  0.1093  0.1100  0.3288
   94TCq2    C9 1440   4.334   2.151  13.894  0.4230  0.4307 -0.9233
   94TCq2    O5 1441   4.210   2.138  13.883  0.1450  0.3042  0.3039
   94TCq2    O6 1442   4.408   2.083  13.968 -0.4107 -0.2408  0.1932
   94TCq2    H2 1443   4.200   2.299  13.723 -0.4728  1.6977  0.6744
   94TCq2    H3 1444   4.571   2.235  13.909  0.7475  1.0959  1.1219
   94TCq2    H4 1445   4.524   2.578  13.661  1.3478  0.4160  1.6254
   95TMC2    C1 1446   0.186   2.842  16.326  1.0120  0.8230  0.1272
   95TMC2    C2 1447   0.191   2.705  16.325 -0.2377  0.4486 -0.2901
   95TMC2    C3 1448   0.141   2.647  16.437 -0.1852 -0.0082 -0.2381
   95TMC2    C4 1449   0.110   2.916  16.416  0.3263  0.1652  0.4767
   95TMC2    C5 1450   0.063   2.848  16.528  0.1846 -0.2577  0.1218
   95TMC2    C6 1451   0.080   2.716  16.538 -1.0200  0.1357 -0.3118
   95TMC2     C 1452   0.248   2.917  16.218  0.1223  0.1551  0.4006
   95TMC2     O 1453   0.292   3.026  16.246 -0.3478 -0.7505  0.2235
   95TMC2     H 1454   0.245   2.644  16.253 -2.5497  0.4045 -1.9658
   95TMC2    H1 1455   0.109   3.024  16.404 -0.0745  0.0623 -0.3706
   95TMC2    H2 1456   0.048   2.658  16.624 -0.4634 -0.1472 -0.2962
   95TMC2    C7 1457   0.019   2.928  16.641 -0.8737 -0.4558 -0.4736
   95TMC2    C8 1458   0.214   2.535  16.485  0.2244 -0.0414 -0.2329
   95TMC2    O1 1459   0.056   3.047  16.636 -0.5687 -0.2185 -0.0114
   95TMC2    O2 1460   0.329   2.516  16.451 -0.2200  0.1058 -0.5561
   95TMC2    O5 1461   0.121   2.439  16.494 -0.0601 -0.1240 -0.3124
   95TMC2    H5 1462   0.027   2.460  16.475 -0.7895 -0.2563  3.0550
   96MPD2     C 1463   0.446   2.948  15.733  0.3650  0.6475 -0.3796
   96MPD2    C1 1464   0.453   3.032  15.841 -0.1496  0.0364 -0.5116
   96MPD2    C2 1465   0.385   3.009  15.962 -0.0998 -0.3543 -0.3639
   96MPD2    C3 1466   0.316   2.887  15.983 -0.5004  0.4237 -0.1271
   96MPD2    C4 1467   0.331   2.797  15.879  0.6622  0.1457  0.3764
   96MPD2    C5 1468   0.394   2.825  15.755 -0.4610  0.1631 -0.0932
   96MPD2     H 1469   0.378   3.094  16.029 -2.0565 -1.2454  0.5462
   96MPD2    H1 1470   0.303   2.693  15.888  0.9393 -0.1177 -1.9907
   96MPD2    H2 1471   0.496   2.969  15.639  1.0960  3.4784  0.6495
   96MPD2    H3 1472   0.405   2.741  15.688 -2.6109 -0.2434  0.0783
   96MPD2     N 1473   0.247   2.851  16.100 -0.0993  0.2420 -0.3000
   96MPD2    H5 1474   0.198   2.763  16.103  1.7746 -0.7747  0.3238
   96MPD2    N1 1475   0.525   3.153  15.819  0.6830  0.0909  0.9792
   96MPD2    H7 1476   0.553   3.176  15.724  0.8581 -0.7237  0.8331
   97MPD2     C 1477   2.023   0.787   1.317  0.0724 -0.3420  0.2237
   97MPD2    C1 1478   1.994   0.921   1.355  0.2878 -0.7193  0.0531
   97MPD2    C2 1479   1.941   1.000   1.259 -0.2310 -0.0815 -0.0843
   97MPD2    C3 1480   1.887   0.948   1.140 -0.3140  0.0827  0.4145
   97MPD2    C4 1481   1.892   0.811   1.125  0.2802  0.2545  0.7142
   97MPD2    C5 1482   1.974   0.734   1.206  0.2523 -0.8198 -0.0886
   97MPD2     H 1483   1.944   1.108   1.267 -1.4258  0.0345 -1.1764
   97MPD2    H1 1484   1.842   0.760   1.044 -1.6917  3.3433 -0.0216
   97MPD2    H2 1485   2.056   0.721   1.397 -0.7649  1.0431  1.7180
   97MPD2    H3 1486   1.975   0.628   1.184 -0.9623 -1.1267  1.3385
   97MPD2     N 1487   1.820   1.030   1.051  0.3493 -0.1529 -0.3832
   97MPD2    H5 1488   1.798   0.990   0.961 -1.9073  2.0668 -0.8130
   97MPD2    N1 1489   2.031   0.957   1.484  0.2008  0.2550 -0.4512
   97MPD2    H7 1490   2.071   0.880   1.536 -1.5606 -1.8350 -2.1630
   98TCq2    C1 1491   1.767   1.155   1.081 -0.0179 -0.0132  0.0683
   98TCq2    O2 1492   1.755   1.202   1.194 -0.2311  0.3348  0.2600
   98TCq2    C2 1493   1.701   1.217   0.968 -0.0250  0.8080 -1.3470
   98TCq2    C3 1494   1.598   1.295   1.003 -0.2168  0.2326  0.0687
   98TCq2    C4 1495   1.558   1.391   0.917 -0.0366  0.4476  0.2716
   98TCq2    C5 1496   1.609   1.407   0.799  0.3163 -0.7722 -0.2580
   98TCq2    C6 1497   1.706   1.317   0.759 -0.2875  0.9880 -0.0265
   98TCq2    C7 1498   1.752   1.214   0.842 -0.0783  0.1654  0.4564
   98TCq2    C8 1499   1.796   1.354   0.647 -0.8292  1.2262 -0.4011
   98TCq2    O4 1500   1.861   1.262   0.592  0.0778 -0.1650 -0.0429
   98TCq2    C9 1501   1.443   1.467   0.954 -0.8132  0.0825 -0.4445
   98TCq2    O5 1502   1.418   1.568   0.881 -0.0712 -0.2514  0.6430
   98TCq2    O6 1503   1.379   1.436   1.057 -0.0600 -0.5524  0.3145
   98TCq2    H2 1504   1.543   1.298   1.097  1.9338 -1.2297  1.3608
   98TCq2    H3 1505   1.552   1.468   0.729 -0.6651 -0.4249  0.8566
   98TCq2    H4 1506   1.854   1.182   0.826  0.0228 -0.5860  2.6692
   99MPD2     C 1507   0.731   2.377   2.732 -0.0037  0.4032  0.5464
   99MPD2    C1 1508   0.692   2.502   2.703 -0.4745  0.6044  0.4649
   99MPD2    C2 1509   0.705   2.538   2.571 -0.8644 -0.4601  0.2827
   99MPD2    C3 1510   0.754   2.459   2.469  1.4171 -0.0690 -0.1791
   99MPD2    C4 1511   0.812   2.337   2.511  0.6494 -0.4686  0.0223
   99MPD2    C5 1512   0.793   2.300   2.646 -0.2464  0.8782 -0.5496
   99MPD2     H 1513   0.665   2.634   2.543  0.8618  0.1134 -0.2082
   99MPD2    H1 1514   0.864   2.264   2.451 -2.1641 -2.6839  0.2906
   99MPD2    H2 1515   0.724   2.340   2.834 -0.1768  0.3344  0.5092
   99MPD2    H3 1516   0.825   2.200   2.673  0.2291  0.8778 -1.1255
   99MPD2     N 1517   0.753   2.497   2.332  0.0674 -0.0163 -0.2113
   99MPD2    H5 1518   0.717   2.588   2.304  0.2524 -0.1671 -0.9362
   99MPD2    N1 1519   0.637   2.603   2.782  0.0046  0.0635  0.8021
   99MPD2    H7 1520   0.582   2.679   2.742  0.7633 -1.0818 -2.4031
  100TCq2    C1 1521   0.636   2.594   2.919  0.6076  0.5679 -0.0326
  100TCq2    O2 1522   0.685   2.510   2.995 -0.1742  0.4690  0.7858
  100TCq2    C2 1523   0.578   2.711   2.988 -0.1779  0.0387  0.4752
  100TCq2    C3 1524   0.627   2.739   3.110 -0.0872 -0.1702  0.0325
  100TCq2    C4 1525   0.572   2.849   3.177  0.0360 -0.2923  0.5210
  100TCq2    C5 1526   0.471   2.924   3.124 -0.4099  0.7139  0.2968
  100TCq2    C6 1527   0.441   2.893   2.992  0.3681  0.0334  0.3249
  100TCq2    C7 1528   0.484   2.786   2.922  0.3781 -0.5746  0.6758
  100TCq2    C8 1529   0.340   2.976   2.935 -0.5727 -0.2731  0.5901
  100TCq2    O4 1530   0.278   3.055   3.008  0.1246  0.0282 -0.5030
  100TCq2    C9 1531   0.616   2.882   3.313  0.1335  0.5149 -0.1081
  100TCq2    O5 1532   0.561   2.983   3.367 -0.0344  0.0740 -0.0306
  100TCq2    O6 1533   0.705   2.808   3.366  0.2038 -0.0150 -0.0409
  100TCq2    H2 1534   0.709   2.681   3.150 -0.0395  1.2745  2.0366
  100TCq2    H3 1535   0.421   3.003   3.178 -0.0260 -1.4278  3.8080
  100TCq2    H4 1536   0.437   2.749   2.832 -2.4335  1.1350  1.4591
  101MPD2     C 1537   2.128   4.326  13.350  0.1575  0.1183 -1.0352
  101MPD2    C1 1538   2.001   4.373  13.317  0.1158  0.2590  0.3672
  101MPD2    C2 1539   1.888   4.314  13.374 -0.0839 -0.2807 -0.1906
  101MPD2    C3 1540   1.902   4.229  13.484  0.7799  0.4580 -0.1517
  101MPD2    C4 1541   2.030   4.190  13.518 -0.7428  0.3997  0.9952
  101MPD2    C5 1542   2.138   4.228  13.444 -0.3042 -0.0376 -0.7557
  101MPD2     H 1543   1.786   4.347  13.361  0.4337  1.1092 -0.7240
  101MPD2    H1 1544   2.053   4.126  13.603  0.4570  0.3665  0.6346
  101MPD2    H2 1545   2.215   4.365  13.296 -0.3234  0.2814 -1.6937
  101MPD2    H3 1546   2.235   4.183  13.458  0.4510  2.2300  1.3136
  101MPD2     N 1547   1.789   4.198  13.566  0.0716  0.2676 -0.1825
  101MPD2    H5 1548   1.696   4.211  13.529  0.1450  0.2762 -0.3647
  101MPD2    N1 1549   1.996   4.481  13.227  0.0439  0.5122 -0.2384
  101MPD2    H7 1550   2.086   4.497  13.181  0.2427  0.2965  0.0749
  102TCq2    C1 1551   2.025   0.054  12.810 -0.4728  0.0935  0.0755
  102TCq2    O2 1552   2.135   0.004  12.789 -0.0100 -0.0227 -0.7610
  102TCq2    C2 1553   1.973   0.072  12.950  0.3000  0.4503 -0.5828
  102TCq2    C3 1554   1.891   0.180  12.972  0.1747  0.5227 -0.4990
  102TCq2    C4 1555   1.807   0.169  13.078  0.7635 -1.1363  0.0014
  102TCq2    C5 1556   1.809   0.063  13.159 -0.0296 -0.3426  0.0656
  102TCq2    C6 1557   1.887   4.672  13.125  0.3410 -0.8188 -0.7941
  102TCq2    C7 1558   1.971   4.682  13.019 -0.5471  0.0694  0.3343
  102TCq2    C8 1559   1.879   4.552  13.208 -0.0032  0.0782 -0.5693
  102TCq2    O4 1560   1.770   4.538  13.256  0.4227  0.5369  0.4011
  102TCq2    C9 1561   1.710   0.273  13.095  0.3283  0.2999  0.0402
  102TCq2    O5 1562   1.637   0.277  13.195  0.0977  0.2248  0.1674
  102TCq2    O6 1563   1.720   0.368  13.009  0.2110 -0.6918 -0.6761
  102TCq2    H2 1564   1.894   0.261  12.901  0.7825  0.0872 -0.9754
  102TCq2    H3 1565   1.741   0.062  13.243  1.9604  1.6170  1.6931
  102TCq2    H4 1566   2.040   4.602  12.994  2.1594  2.9291 -1.2066
  103TMC2    C1 1567   0.624   4.425  13.267  0.3813  0.0046 -0.2154
  103TMC2    C2 1568   0.711   4.517  13.214  0.2299  0.1116 -0.0565
  103TMC2    C3 1569   0.734   4.632  13.292 -0.0316 -0.2543  0.1479
  103TMC2    C4 1570   0.564   4.445  13.395 -0.3062 -0.7051 -0.7673
  103TMC2    C5 1571   0.594   4.560  13.468  0.2938 -0.1969 -0.4710
  103TMC2    C6 1572   0.682   4.652  13.413  0.6556  0.1899  0.6940
  103TMC2     C 1573   0.561   4.318  13.182 -0.5934 -0.5800  0.4599
  103TMC2     O 1574   0.452   4.271  13.220  0.3488  0.3236  0.2694
  103TMC2     H 1575   0.757   4.515  13.116  0.0761  0.4308 -0.1339
  103TMC2    H1 1576   0.504   4.363  13.435 -1.4646  1.1853  1.3699
  103TMC2    H2 1577   0.709   0.017  13.469 -3.0640  2.6553 -1.4713
  103TMC2    C7 1578   0.509   4.593  13.583 -0.4160 -0.3723 -0.3989
  103TMC2    C8 1579   0.845   4.712  13.241 -0.2675  0.3604 -0.2485
  103TMC2    O1 1580   0.412   4.519  13.586  0.6713  0.1114  0.2182
  103TMC2    O2 1581   0.929   4.664  13.165  0.0147 -0.6255  0.1492
  103TMC2    O5 1582   0.830   0.121  13.273 -0.5278  0.0081  0.5044
  103TMC2    H5 1583   0.741   0.150  13.304 -0.7214  0.6667 -0.6628
  104MPD2     C 1584   0.676   4.108  12.929 -0.1658 -0.7165 -0.6739
  104MPD2    C1 1585   0.586   4.193  12.988  0.0736 -0.7686 -0.4040
  104MPD2    C2 1586   0.453   4.189  12.950 -0.2996 -0.5121 -0.1024
  104MPD2    C3 1587   0.409   4.093  12.863 -0.1268  0.5891  0.4395
  104MPD2    C4 1588   0.501   4.007  12.806 -0.2602 -0.0433  0.3432
  104MPD2    C5 1589   0.634   4.018  12.841  0.2642  0.4523 -0.4102
  104MPD2     H 1590   0.385   4.268  12.981  1.4019  1.8952 -2.5135
  104MPD2    H1 1591   0.477   3.913  12.757 -0.0538 -1.4818  3.0099
  104MPD2    H2 1592   0.783   4.111  12.949 -0.3803  3.5075 -0.0558
  104MPD2    H3 1593   0.708   3.943  12.814 -0.6866 -0.3946 -0.6353
  104MPD2     N 1594   0.274   4.095  12.817  0.9997  0.1912 -0.4481
  104MPD2    H5 1595   0.211   4.162  12.861  1.3005 -1.0069  1.8131
  104MPD2    N1 1596   0.640   4.292  13.071  0.3928 -0.4353 -0.0956
  104MPD2    H7 1597   0.737   4.322  13.066  0.1550  0.6341  1.8869
  105MPD2     C 1598   2.037   3.359   0.271  0.1330  0.1660 -0.6046
  105MPD2    C1 1599   1.935   3.442   0.308 -0.2136 -0.0185  0.3892
  105MPD2    C2 1600   1.895   3.424   0.442 -0.2074 -0.1344 -0.6028
  105MPD2    C3 1601   1.975   3.358   0.532  0.9037  0.6656 -0.0055
  105MPD2    C4 1602   2.085   3.286   0.497 -0.3338 -0.7533 -0.4092
  105MPD2    C5 1603   2.117   3.289   0.361  0.1972 -0.0763 -0.9890
  105MPD2     H 1604   1.821   3.488   0.489  0.1125 -0.1186 -0.1160
  105MPD2    H1 1605   2.140   3.226   0.568 -0.6814 -0.7946 -0.1760
  105MPD2    H2 1606   2.073   3.347   0.169 -0.5683  1.4230 -1.0010
  105MPD2    H3 1607   2.188   3.218   0.320  0.4930 -0.2903 -0.0864
  105MPD2     N 1608   1.916   3.349   0.659 -0.1712  0.1430 -0.4954
  105MPD2    H5 1609   1.828   3.397   0.676  1.1062  2.9518 -1.7126
  105MPD2    N1 1610   1.876   3.520   0.206 -0.3624  0.2657  0.1167
  105MPD2    H7 1611   1.902   3.495   0.111 -0.8139 -1.8030  0.5326
  106TCq2    C1 1612   1.957   3.268   0.761 -0.0233  0.3963 -0.3050
  106TCq2    O2 1613   2.062   3.228   0.797 -0.1617 -0.5643  0.4477
  106TCq2    C2 1614   1.835   3.218   0.842 -0.1231  0.0194 -0.0244
  106TCq2    C3 1615   1.710   3.213   0.789 -0.3960  0.1352  0.2698
  106TCq2    C4 1616   1.622   3.127   0.843 -0.1919  0.8337 -0.0362
  106TCq2    C5 1617   1.657   3.060   0.958  0.3439 -0.5949 -0.7341
  106TCq2    C6 1618   1.775   3.083   1.021 -0.1201 -0.5881  0.9083
  106TCq2    C7 1619   1.873   3.150   0.955 -0.1591 -0.4329  0.1923
  106TCq2    C8 1620   1.773   3.072   1.166 -0.3324  0.5482  0.0722
  106TCq2    O4 1621   1.880   3.058   1.224 -0.0284  0.1922 -0.2592
  106TCq2    C9 1622   1.497   3.106   0.785 -1.0883 -0.6497 -0.2646
  106TCq2    O5 1623   1.428   3.012   0.834 -0.1784  0.0415 -0.1319
  106TCq2    O6 1624   1.459   3.170   0.680  0.2593 -0.2214 -0.2710
  106TCq2    H2 1625   1.686   3.253   0.691 -0.5381  3.6392  1.7305
  106TCq2    H3 1626   1.579   2.995   0.996  1.2196 -0.3935  1.4148
  106TCq2    H4 1627   1.971   3.158   1.000 -0.1897 -0.7620  0.3142
  107TMC2    C1 1628   2.034   2.857  11.453 -0.2039 -0.5117 -0.3692
  107TMC2    C2 1629   1.987   2.981  11.455  0.1556 -0.3460 -0.6987
  107TMC2    C3 1630   2.014   3.060  11.345  0.1356 -0.0815  0.3325
  107TMC2    C4 1631   2.101   2.811  11.349 -0.1215  0.6610 -0.5349
  107TMC2    C5 1632   2.100   2.886  11.235  0.0041  0.1443 -0.1297
  107TMC2    C6 1633   2.050   3.009  11.225  0.1985  0.1093 -0.5456
  107TMC2     C 1634   2.014   2.780  11.578  0.2184  0.3375 -0.1336
  107TMC2     O 1635   1.930   2.829  11.651  0.1181 -0.2300  0.2610
  107TMC2     H 1636   1.947   3.023  11.547 -0.1174 -2.6549  0.2389
  107TMC2    H1 1637   2.099   2.703  11.340  2.2287  0.4921  1.0461
  107TMC2    H2 1638   2.085   3.074  11.146  1.1338  0.4764  0.1758
  107TMC2    C7 1639   2.163   2.838  11.116 -0.2546  0.0630  0.1574
  107TMC2    C8 1640   1.967   3.197  11.344  0.5627  0.1171  0.1794
  107TMC2    O1 1641   2.113   2.868  11.012 -0.0560  0.3978  0.0587
  107TMC2    O2 1642   1.966   3.273  11.438  0.5695 -0.5813 -0.3635
  107TMC2    O5 1643   1.892   3.209  11.236 -0.7391  0.0533 -0.5162
  107TMC2    H5 1644   1.885   3.129  11.179  1.8058 -0.0647 -0.6879
  108MPD2     C 1645   2.191   2.495  11.750 -0.1441 -0.4342  0.4222
  108MPD2    C1 1646   2.110   2.606  11.728  0.3980  0.2796  0.1667
  108MPD2    C2 1647   2.032   2.633  11.840  0.3780 -0.5888  0.3154
  108MPD2    C3 1648   2.042   2.571  11.969 -0.3023  0.1541  0.5953
  108MPD2    C4 1649   2.112   2.453  11.975 -0.0788 -0.0642 -0.0749
  108MPD2    C5 1650   2.198   2.425  11.874  0.9356  0.1587 -0.1811
  108MPD2     H 1651   1.957   2.712  11.834 -0.1577 -1.1402 -0.2064
  108MPD2    H1 1652   2.099   2.412  12.074  0.1473  0.4766  0.1821
  108MPD2    H2 1653   2.264   2.467  11.675  2.5252  2.4485  1.9046
  108MPD2    H3 1654   2.258   2.334  11.877  0.6725  0.0015  0.2690
  108MPD2     N 1655   1.969   2.620  12.085 -0.8689  0.1036 -0.0084
  108MPD2    H5 1656   1.964   2.563  12.169  0.5848  1.9314  1.3378
  108MPD2    N1 1657   2.101   2.678  11.601  0.0897  0.0642  0.1049
  108MPD2    H7 1658   2.163   2.648  11.527 -0.4197  0.2820 -0.4119
  109MPD2     C 1659   3.073   0.119   2.491 -0.4621 -1.3212  0.0476
  109MPD2    C1 1660   2.952   0.186   2.464 -0.1111 -1.1246 -1.1414
  109MPD2    C2 1661   2.960   0.310   2.412  0.3214 -0.4369  0.3146
  109MPD2    C3 1662   3.084   0.365   2.376 -0.3105 -0.0016  0.1163
  109MPD2    C4 1663   3.201   0.299   2.407 -0.1355  0.4171 -0.1095
  109MPD2    C5 1664   3.197   0.183   2.470 -0.3281 -0.5831  0.8186
  109MPD2     H 1665   2.875   0.356   2.362  1.2329  2.0284  1.0363
  109MPD2    H1 1666   3.296   0.349   2.390  0.6642 -1.3306 -0.7060
  109MPD2    H2 1667   3.073   0.015   2.521 -0.9762 -1.4328 -0.3412
  109MPD2    H3 1668   3.291   0.133   2.492  1.3004  1.7383 -0.7903
  109MPD2     N 1669   3.080   0.492   2.308  0.1487 -0.5406  0.0919
  109MPD2    H5 1670   2.990   0.521   2.272  0.0247  1.7347  2.2877
  109MPD2    N1 1671   2.826   0.137   2.490 -0.5103 -0.0885 -0.3183
  109MPD2    H7 1672   2.753   0.207   2.476 -0.1900  0.5804  1.3149
  110TCq2    C1 1673   3.185   0.576   2.292 -0.2736  0.2443 -0.0637
  110TCq2    O2 1674   3.305   0.563   2.314 -0.4324 -0.7567 -0.1218
  110TCq2    C2 1675   3.149   0.689   2.208  0.0841  0.4959  0.6029
  110TCq2    C3 1676   3.235   0.794   2.212  0.0480 -0.3800 -0.0894
  110TCq2    C4 1677   3.207   0.908   2.146 -0.2481  0.1984 -0.6708
  110TCq2    C5 1678   3.093   0.911   2.069 -0.3370  0.1327 -0.8569
  110TCq2    C6 1679   3.010   0.802   2.059  0.3166 -0.3979 -0.2814
  110TCq2    C7 1680   3.037   0.689   2.136  0.1301  0.2631  0.3068
  110TCq2    C8 1681   2.878   0.813   2.001 -0.0668  0.0810  0.4214
  110TCq2    O4 1682   2.832   0.925   1.978  0.4604 -0.3842  0.4617
  110TCq2    C9 1683   3.294   1.021   2.153 -0.1917  0.7333 -0.3956
  110TCq2    O5 1684   3.267   1.124   2.091  0.1571  0.3808  0.1197
  110TCq2    O6 1685   3.376   1.020   2.250  0.3199 -0.0732  0.4532
  110TCq2    H2 1686   3.328   0.781   2.266  0.9120  0.5968 -1.3421
  110TCq2    H3 1687   3.079   0.996   2.004  0.1011  0.6074 -0.3310
  110TCq2    H4 1688   2.971   0.604   2.122  0.2814 -0.3810  3.5372
  111TMC2    C1 1689   1.684   0.412  11.376  0.0061  0.3322 -1.1831
  111TMC2    C2 1690   1.585   0.453  11.463 -0.2671 -0.1224  0.1988
  111TMC2    C3 1691   1.606   0.430  11.597 -0.0572 -0.1527  0.3474
  111TMC2    C4 1692   1.798   0.342  11.419 -0.0923 -0.3351 -0.6732
  111TMC2    C5 1693   1.808   0.321  11.553  0.0682  0.1915 -0.8679
  111TMC2    C6 1694   1.712   0.361  11.638  0.1589 -0.6983 -0.0455
  111TMC2     C 1695   1.653   0.419  11.235 -0.0107 -0.0057  0.1596
  111TMC2     O 1696   1.558   0.494  11.207  0.1172 -0.2009  0.0499
  111TMC2     H 1697   1.495   0.502  11.426  1.3354  1.0828 -2.1103
  111TMC2    H1 1698   1.884   0.323  11.356 -0.0640  1.4028 -1.1537
  111TMC2    H2 1699   1.721   0.346  11.745  0.2198  1.2243  0.2104
  111TMC2    C7 1700   1.906   0.238  11.616 -0.5237 -0.0596 -0.0900
  111TMC2    C8 1701   1.496   0.425  11.696  0.4391 -0.0244 -0.1196
  111TMC2    O1 1702   1.912   0.240  11.736  0.1697 -0.3055  0.4933
  111TMC2    O2 1703   1.488   0.332  11.772 -0.2601 -0.2584  0.4803
  111TMC2    O5 1704   1.439   0.543  11.714  0.4058  0.3194 -0.1345
  111TMC2    H5 1705   1.466   0.609  11.648 -0.8193  1.3296  0.3781
  112MPD2     C 1706   1.686   0.315  10.737  0.3551  0.2550 -0.0691
  112MPD2    C1 1707   1.616   0.407  10.803 -0.3195 -0.4573  0.3926
  112MPD2    C2 1708   1.638   0.426  10.937 -0.2970  0.2275 -0.0311
  112MPD2    C3 1709   1.722   0.343  11.012  0.1582 -0.2314  0.0826
  112MPD2    C4 1710   1.802   0.257  10.938 -0.0409 -0.1627 -0.1653
  112MPD2    C5 1711   1.789   0.248  10.802  0.0623 -0.2347 -0.4665
  112MPD2     H 1712   1.566   0.495  10.981 -0.6044  0.5844 -1.0995
  112MPD2    H1 1713   1.868   0.182  10.981  0.1940  2.1010  3.4537
  112MPD2    H2 1714   1.675   0.301  10.630 -4.9168 -0.2549  0.5424
  112MPD2    H3 1715   1.841   0.168  10.751  3.1704  0.8390  0.9757
  112MPD2     N 1716   1.728   0.342  11.153 -0.6218 -0.1546 -0.2644
  112MPD2    H5 1717   1.795   0.280  11.197 -2.2594 -0.4002  1.8417
  112MPD2    N1 1718   1.518   0.488  10.745 -0.2441 -0.0471 -0.1067
  112MPD2    H7 1719   1.460   0.554  10.795  1.4682  1.5322 -0.2195
  113MPD2     C 1720   1.024   2.710   1.779 -0.4227 -0.1687  0.4738
  113MPD2    C1 1721   0.932   2.807   1.766 -0.5190  0.9034  1.4328
  113MPD2    C2 1722   0.883   2.835   1.637  0.1319 -0.0101  0.2144
  113MPD2    C3 1723   0.936   2.773   1.525 -0.5322 -0.2134  1.1772
  113MPD2    C4 1724   1.033   2.679   1.536  0.5180 -0.6904 -0.4134
  113MPD2    C5 1725   1.072   2.648   1.660  0.0113  0.0917  0.7051
  113MPD2     H 1726   0.819   2.922   1.623  2.8464  2.0992  0.8230
  113MPD2    H1 1727   1.073   2.630   1.448 -0.6164 -2.7889  0.2650
  113MPD2    H2 1728   1.048   2.676   1.879  1.8023  0.3392  0.0946
  113MPD2    H3 1729   1.142   2.565   1.668  2.6703  2.0539 -2.6039
  113MPD2     N 1730   0.898   2.798   1.393 -0.0654  0.8588  0.0273
  113MPD2    H5 1731   0.931   2.749   1.310 -1.4336 -1.8821  1.1004
  113MPD2    N1 1732   0.881   2.883   1.872  0.5476  0.4803 -0.2411
  113MPD2    H7 1733   0.801   2.943   1.852  1.2927  1.2656 -0.8540
  114TCq2    C1 1734   0.787   2.878   1.359  0.4001  0.3645  0.2377
  114TCq2    O2 1735   0.699   2.915   1.435  0.4220 -0.7418 -0.0553
  114TCq2    C2 1736   0.782   2.903   1.217 -0.5753  0.5048 -0.1310
  114TCq2    C3 1737   0.901   2.916   1.156 -0.9647  0.0657 -0.3313
  114TCq2    C4 1738   0.903   2.978   1.037  0.0867  0.4635 -0.8693
  114TCq2    C5 1739   0.783   3.015   0.979 -0.2783 -0.0219 -1.0734
  114TCq2    C6 1740   0.662   3.007   1.045 -0.0072 -0.1727  0.4606
  114TCq2    C7 1741   0.659   2.945   1.168 -0.2323 -0.0359  0.2556
  114TCq2    C8 1742   0.540   3.064   0.985  0.4222  0.4905  0.1619
  114TCq2    O4 1743   0.553   3.125   0.877 -0.1160  0.1162 -0.0414
  114TCq2    C9 1744   1.021   2.985   0.961 -0.5486 -0.2131  0.3357
  114TCq2    O5 1745   1.124   2.933   1.009 -0.4960 -0.1715  0.3935
  114TCq2    O6 1746   1.015   3.032   0.845  0.3366 -0.2996 -0.4416
  114TCq2    H2 1747   0.992   2.888   1.206 -0.4220  0.3103 -1.1729
  114TCq2    H3 1748   0.790   3.065   0.882 -0.2102 -1.3739 -1.7640
  114TCq2    H4 1749   0.569   2.944   1.228 -0.9339 -1.0095 -0.8227
  115TMC2    C1 1750   0.782   0.647   0.518 -0.0430 -0.1683  0.3755
  115TMC2    C2 1751   0.915   0.630   0.524  0.1895  0.0447 -0.3990
  115TMC2    C3 1752   0.986   0.747   0.518 -0.2755  0.3270  0.5466
  115TMC2    C4 1753   0.719   0.772   0.514 -0.1309  0.5799  0.8449
  115TMC2    C5 1754   0.801   0.884   0.507  0.2564  0.1495 -0.5295
  115TMC2    C6 1755   0.934   0.870   0.521  0.2660 -0.9441  0.7782
  115TMC2     C 1756   0.694   0.530   0.509 -0.5821 -0.0432  0.0261
  115TMC2     O 1757   0.749   0.425   0.477 -0.0081 -0.2137 -0.4227
  115TMC2     H 1758   0.961   0.533   0.510 -1.6142 -1.3111  2.9910
  115TMC2    H1 1759   0.614   0.787   0.492  0.1525  1.6996  0.2393
  115TMC2    H2 1760   1.008   0.950   0.514 -1.2622  0.4640  0.8145
  115TMC2    C7 1761   0.739   1.012   0.466 -0.0950 -0.6180 -0.1321
  115TMC2    C8 1762   1.129   0.734   0.550  0.9153  0.1334 -0.7090
  115TMC2    O1 1763   0.617   1.013   0.465 -0.5294  0.2666 -0.5063
  115TMC2    O2 1764   1.192   0.644   0.501 -0.3445  0.6841 -0.1037
  115TMC2    O5 1765   1.123   0.772   0.678 -0.1878  0.5296 -0.3170
  115TMC2    H5 1766   1.039   0.820   0.695 -1.0007 -0.8309 -0.4526
  116MPD2     C 1767   0.233   0.313   0.576 -0.4370  0.8750  0.2350
  116MPD2    C1 1768   0.344   0.263   0.519  0.1075  0.1469  0.1012
  116MPD2    C2 1769   0.461   0.342   0.521 -1.0414 -0.3395  0.8724
  116MPD2    C3 1770   0.456   0.472   0.570 -0.4258 -0.4366  0.2203
  116MPD2    C4 1771   0.337   0.518   0.622 -0.2423 -0.1267 -0.2096
  116MPD2    C5 1772   0.226   0.442   0.627 -0.5574  0.0454 -0.1407
  116MPD2     H 1773   0.542   0.309   0.458 -1.2562  0.6088  0.1008
  116MPD2    H1 1774   0.337   0.624   0.646 -4.3092  0.1962 -1.5465
  116MPD2    H2 1775   0.140   0.259   0.588  0.3840 -0.6376 -0.2475
  116MPD2    H3 1776   0.136   0.480   0.675 -0.5017 -1.5811  1.2267
  116MPD2     N 1777   0.563   0.558   0.561  0.5638 -0.4194 -0.1178
  116MPD2    H5 1778   0.553   0.654   0.592  0.1846  0.1593 -2.0486
  116MPD2    N1 1779   0.336   0.139   0.457  0.0667  0.2973  0.0934
  116MPD2    H7 1780   0.242   0.107   0.436 -0.1586  0.4293  0.9037
  117TMC2    C1 1781   4.180   2.341  14.200  0.1648  0.0763  0.5724
  117TMC2    C2 1782   4.279   2.246  14.208  0.2850  0.4143  0.2065
  117TMC2    C3 1783   4.401   2.288  14.248  0.9488 -0.5307 -0.3096
  117TMC2    C4 1784   4.204   2.472  14.226  0.9992  0.5489  0.2655
  117TMC2    C5 1785   4.327   2.510  14.270 -0.7049  0.0930 -0.1090
  117TMC2    C6 1786   4.418   2.413  14.298 -0.1941  0.4544  0.7578
  117TMC2     C 1787   4.041   2.302  14.186 -0.0026 -0.3201  0.3904
  117TMC2     O 1788   4.018   2.183  14.193  0.3898 -0.5666  0.0541
  117TMC2     H 1789   4.263   2.141  14.187  0.2718  0.5686 -0.5774
  117TMC2    H1 1790   4.122   2.543  14.220 -0.6938 -1.2295  2.0300
  117TMC2    H2 1791   4.513   2.439  14.345 -1.1023  1.9543  1.7594
  117TMC2    C7 1792   4.380   2.645  14.292  0.6783 -0.3574 -0.5480
  117TMC2    C8 1793   4.504   2.194  14.274  0.0538  0.5613  0.6734
  117TMC2    O1 1794   4.492   2.661  14.326  0.2983 -0.2164  0.4666
  117TMC2    O2 1795   4.588   2.208  14.359 -0.2217 -0.1276  0.1397
  117TMC2    O5 1796   4.484   2.079  14.207  0.1442  0.0095 -0.2709
  117TMC2    H5 1797   4.432   2.089  14.125 -1.1156 -1.5639  0.3300
  118MPD2     C 1798   4.264   2.944  14.110 -0.4746 -0.0878 -1.4381
  118MPD2    C1 1799   4.359   2.865  14.170 -0.2433 -0.6525  0.4298
  118MPD2    C2 1800   4.479   2.930  14.210  0.3292 -0.4688 -0.0301
  118MPD2    C3 1801   4.494   3.068  14.179  0.0864  0.1256 -0.2748
  118MPD2    C4 1802   4.404   3.138  14.105 -0.2094 -0.2857 -0.0110
  118MPD2    C5 1803   4.286   3.076  14.068  0.4229  1.4788  0.1667
  118MPD2     H 1804   4.556   2.878  14.265 -0.9607 -1.3218  0.9664
  118MPD2    H1 1805   4.415   3.245  14.088 -1.9328 -0.2068 -0.6031
  118MPD2    H2 1806   4.162   2.909  14.097 -0.7278  1.0187 -2.3353
  118MPD2    H3 1807   4.207   3.133  14.022  0.0910  0.0273 -1.0487
  118MPD2     N 1808   4.615   3.138  14.205 -0.1322  0.6816 -0.0847
  118MPD2    H5 1809   4.633   3.232  14.172  1.0486  0.4753 -0.0350
  118MPD2    N1 1810   4.316   2.735  14.209 -0.1193 -0.9261  0.0024
  118MPD2    H7 1811   4.227   2.708  14.168  0.6289  0.9468 -2.8189
  119MPD2     C 1812   2.992   3.998  14.114  0.2844 -0.2297  0.2230
  119MPD2    C1 1813   2.871   4.009  14.174  0.4195  0.7106 -0.1996
  119MPD2    C2 1814   2.752   3.997  14.102 -0.3035  0.4939 -0.7158
  119MPD2    C3 1815   2.758   3.976  13.961  0.3802  0.3952 -0.0766
  119MPD2    C4 1816   2.879   3.972  13.899  0.4490  0.0440  0.3306
  119MPD2    C5 1817   2.994   3.979  13.979  0.3225 -0.4113 -0.6847
  119MPD2     H 1818   2.657   4.021  14.148  0.6155  0.7453  1.0704
  119MPD2    H1 1819   2.892   3.966  13.791  0.6432  0.8205  0.3094
  119MPD2    H2 1820   3.082   4.001  14.174  0.7176 -2.7403 -0.2935
  119MPD2    H3 1821   3.088   3.972  13.926  0.0049 -1.1826 -1.1513
  119MPD2     N 1822   2.640   3.970  13.874  0.9122 -0.4753 -0.4748
  119MPD2    H5 1823   2.665   3.973  13.775 -1.3525  0.8862 -1.0058
  119MPD2    N1 1824   2.881   4.013  14.318 -0.5533  0.1125  0.5141
  119MPD2    H7 1825   2.969   4.028  14.366  0.6563  0.4394 -1.8399
  120TCq2    C1 1826   2.507   3.952  13.914  0.2299 -0.5065  0.0509
  120TCq2    O2 1827   2.458   3.929  14.027 -0.5812 -0.2197  0.2845
  120TCq2    C2 1828   2.413   3.943  13.806  0.8611  0.2124 -0.3240
  120TCq2    C3 1829   2.457   3.954  13.677  0.3453  0.1504  0.4942
  120TCq2    C4 1830   2.367   3.927  13.576  0.0225 -0.5466  0.0521
  120TCq2    C5 1831   2.239   3.889  13.599  0.1351 -0.3775 -0.1317
  120TCq2    C6 1832   2.200   3.877  13.732  0.0680  0.3604 -0.0905
  120TCq2    C7 1833   2.287   3.904  13.839 -0.1545 -0.2925  0.5953
  120TCq2    C8 1834   2.065   3.820  13.758 -0.3427  0.1280 -0.2541
  120TCq2    O4 1835   1.996   3.802  13.661 -0.1685  0.0874 -0.2569
  120TCq2    C9 1836   2.416   3.927  13.441  0.2329 -0.4368 -0.3220
  120TCq2    O5 1837   2.544   3.940  13.422  0.5957  0.3518 -0.0551
  120TCq2    O6 1838   2.332   3.913  13.349  0.4295 -0.5496  0.4609
  120TCq2    H2 1839   2.561   3.959  13.647  0.3489 -1.5291  0.2168
  120TCq2    H3 1840   2.165   3.878  13.521 -1.6179  2.1302  1.1546
  120TCq2    H4 1841   2.250   3.887  13.940 -0.3427 -0.9127  0.4213
  121TMC2    C1 1842   4.068   1.108  14.338 -0.0583 -0.1963  0.3215
  121TMC2    C2 1843   4.048   1.031  14.451  0.2382  0.4281 -0.3200
  121TMC2    C3 1844   3.928   0.968  14.468 -0.1409 -0.1559  0.3351
  121TMC2    C4 1845   3.973   1.121  14.240 -0.0867 -0.3863  0.4331
  121TMC2    C5 1846   3.857   1.055  14.259  0.0829  0.0379  1.0982
  121TMC2    C6 1847   3.834   0.970  14.371  0.5978  0.0788  0.5560
  121TMC2     C 1848   4.207   1.146  14.306 -0.0407 -1.0908 -0.6696
  121TMC2     O 1849   4.215   1.231  14.221 -0.2603  0.4435 -0.3605
  121TMC2     H 1850   4.124   1.044  14.527  0.6683 -2.0789 -0.3211
  121TMC2    H1 1851   3.980   1.204  14.170 -3.1712  0.0006  0.5580
  121TMC2    H2 1852   3.729   0.952  14.394 -0.0174  1.6801 -0.9757
  121TMC2    C7 1853   3.745   1.079  14.175  0.2067  0.6528 -0.0643
  121TMC2    C8 1854   3.885   0.930  14.598  0.0746 -0.3712 -0.1452
  121TMC2    O1 1855   3.748   1.195  14.132  0.0754 -0.4846  0.0322
  121TMC2    O2 1856   3.935   0.989  14.695 -0.1660 -0.5484 -0.5038
  121TMC2    O5 1857   3.767   0.864  14.595 -0.8395  0.3574  0.0390
  121TMC2    H5 1858   3.759   0.805  14.516  0.5785  1.5094 -0.9685
  122MPD2     C 1859   4.515   0.943  14.354  0.9606 -0.8411 -0.1765
  122MPD2    C1 1860   4.436   1.034  14.287 -0.0974  0.3956  0.1547
  122MPD2    C2 1861   4.492   1.102  14.180 -0.1663 -0.0230  0.5547
  122MPD2    C3 1862   4.615   1.079  14.127  0.2422  0.0908 -0.4732
  122MPD2    C4 1863   4.690   0.988  14.202  0.4298 -0.6334 -0.6766
  122MPD2    C5 1864   4.641   0.918  14.310  0.0723  0.2793  0.0411
  122MPD2     H 1865   4.428   1.167  14.121 -0.4166  0.8421  1.7849
  122MPD2    H1 1866   0.059   0.950  14.161  0.6635 -1.3350  0.4998
  122MPD2    H2 1867   4.476   0.887  14.438 -0.4269 -1.1470 -1.0172
  122MPD2    H3 1868   4.701   0.838  14.352  0.5091  0.5623 -0.0483
  122MPD2     N 1869   4.666   1.129  14.006  0.1016 -0.5625  0.3974
  122MPD2    H5 1870   0.041   1.110  13.993  0.8302  2.1594  1.9798
  122MPD2    N1 1871   4.300   1.053  14.335 -0.0349  0.0778  0.7654
  122MPD2    H7 1872   4.265   0.978  14.393 -2.5779  0.0964 -0.7521
  123MPD2     C 1873   1.844   3.567   9.744  0.0435 -0.3631  0.2610
  123MPD2    C1 1874   1.767   3.451   9.762 -0.7006 -0.5974 -0.0450
  123MPD2    C2 1875   1.711   3.391   9.651  0.2156 -0.2236 -0.3202
  123MPD2    C3 1876   1.740   3.440   9.523  0.1279  0.0257  0.5567
  123MPD2    C4 1877   1.829   3.542   9.509 -0.3987  0.2711 -0.1789
  123MPD2    C5 1878   1.874   3.606   9.619  0.1273  0.0115 -0.4860
  123MPD2     H 1879   1.658   3.297   9.660  2.6426 -1.5826 -0.0504
  123MPD2    H1 1880   1.863   3.588   9.417 -0.1026 -0.0919 -0.2524
  123MPD2    H2 1881   1.898   3.604   9.830 -1.0341  0.0874  0.7274
  123MPD2    H3 1882   1.936   3.694   9.605  0.4284 -0.4420 -1.9274
  123MPD2     N 1883   1.677   3.371   9.414 -0.0062  0.5463 -0.1307
  123MPD2    H5 1884   1.620   3.294   9.448  1.9178 -1.2848 -1.0546
  123MPD2    N1 1885   1.734   3.406   9.890  0.3975  0.3695 -0.3341
  123MPD2    H7 1886   1.779   3.441   9.974  0.2744 -0.4070  0.0514
  124TCq2    C1 1887   1.690   3.405   9.284  0.3718  0.6424 -0.1411
  124TCq2    O2 1888   1.742   3.508   9.238  0.8531  0.2574 -0.0681
  124TCq2    C2 1889   1.616   3.309   9.199  0.6229  1.2140 -0.1838
  124TCq2    C3 1890   1.625   3.337   9.062  0.1604 -0.0763 -0.5220
  124TCq2    C4 1891   1.528   3.291   8.978  0.3882  0.7207  0.1311
  124TCq2    C5 1892   1.422   3.217   9.021 -0.2655  0.0796 -0.0720
  124TCq2    C6 1893   1.412   3.195   9.161  0.9015 -0.2388 -0.4526
  124TCq2    C7 1894   1.512   3.242   9.249  0.6326 -0.4386 -0.1564
  124TCq2    C8 1895   1.325   3.083   9.196  0.1510 -1.2663 -0.3782
  124TCq2    O4 1896   1.344   3.046   9.312  0.1503  0.2395  0.0331
  124TCq2    C9 1897   1.535   3.319   8.838  0.5794  0.4470 -0.0708
  124TCq2    O5 1898   1.443   3.275   8.761 -0.3932  0.5428 -0.0074
  124TCq2    O6 1899   1.639   3.372   8.796  0.7759 -0.4145 -0.6971
  124TCq2    H2 1900   1.713   3.387   9.022 -0.0016  0.1113 -0.6422
  124TCq2    H3 1901   1.348   3.171   8.956 -0.7817 -1.2491  1.4471
  124TCq2    H4 1902   1.489   3.231   9.354 -3.3991  1.5087 -0.8572
  125TMC2    C1 1903   2.763   1.588  10.068  0.6684 -0.7536 -0.1245
  125TMC2    C2 1904   2.800   1.527  10.184 -0.1475  0.3196  0.2766
  125TMC2    C3 1905   2.931   1.486  10.200  0.7041 -0.4809  0.0139
  125TMC2    C4 1906   2.856   1.591   9.961 -0.5559 -0.1316 -0.3900
  125TMC2    C5 1907   2.985   1.555   9.986  0.8013  0.1996 -0.8040
  125TMC2    C6 1908   3.025   1.500  10.104 -0.1856 -0.3763 -1.0586
  125TMC2     C 1909   2.638   1.665  10.062  0.6627  0.1820 -0.0087
  125TMC2     O 1910   2.611   1.701   9.949 -0.3453  0.3265  0.1487
  125TMC2     H 1911   2.730   1.504  10.264  0.5411  0.1912  0.8468
  125TMC2    H1 1912   2.833   1.627   9.861  0.9508  0.1795 -0.6244
  125TMC2    H2 1913   3.127   1.483  10.137 -0.2212 -0.5918 -1.0600
  125TMC2    C7 1914   3.087   1.564   9.883  0.2232 -0.5542 -0.3830
  125TMC2    C8 1915   2.968   1.399  10.320  0.4904  0.1291  0.0047
  125TMC2    O1 1916   3.054   1.627   9.782  0.2273  0.4697  0.1453
  125TMC2    O2 1917   3.062   1.324  10.318  0.4457  0.4652  0.1069
  125TMC2    O5 1918   2.915   1.451  10.433 -0.1340  0.4199 -0.5370
  125TMC2    H5 1919   2.861   1.532  10.421 -2.3909 -0.3524  4.3413
  126MPD1     C 1920   2.194   1.846  10.221  0.4744  0.6875  0.7891
  126MPD1    C1 1921   2.273   1.823  10.328 -0.0902  0.0418  0.1685
  126MPD1    C2 1922   2.402   1.775  10.313  0.7549 -0.4120 -0.5043
  126MPD1    C3 1923   2.453   1.761  10.190  0.5576 -0.7362 -0.1748
  126MPD1    C4 1924   2.376   1.791  10.076  0.3884  0.0368  0.1380
  126MPD1    C5 1925   2.245   1.836  10.092 -0.6018 -0.5535 -0.0443
  126MPD1     H 1926   2.468   1.741  10.392 -1.1915  1.9970  2.1724
  126MPD1    H1 1927   2.415   1.794   9.975  0.8066  0.3333  0.3113
  126MPD1    H2 1928   2.091   1.873  10.242 -0.3250 -2.3634  0.7573
  126MPD1    H3 1929   2.188   1.867  10.005 -2.4050 -0.5739  1.1234
  126MPD1     N 1930   2.577   1.700  10.180  0.0239 -0.1280 -0.1853
  126MPD1    H5 1931   2.625   1.684  10.268 -0.0159  0.4554 -0.0517
  126MPD1    N1 1932   2.218   1.829  10.457 -0.1024  0.1202 -0.4752
  126MPD1    H6 1933   2.144   1.897  10.473 -1.4117 -1.0282 -1.6865
  126MPD1    H7 1934   2.290   1.852  10.525 -3.2582 -1.5875  3.4534
  127MPD2     C 1935   4.309   4.405   9.785  0.5395  0.5596 -0.1906
  127MPD2    C1 1936   4.349   4.350   9.906 -0.0339 -0.2621 -0.0448
  127MPD2    C2 1937   4.347   4.433  10.021 -0.1443  0.5666  0.2348
  127MPD2    C3 1938   4.349   4.568  10.006 -0.0708  0.3064  0.6518
  127MPD2    C4 1939   4.314   4.619   9.884 -0.0652 -0.4716  0.2060
  127MPD2    C5 1940   4.280   4.538   9.777 -0.0687  0.1412 -0.1227
  127MPD2     H 1941   4.370   4.380  10.112 -1.1668 -0.7775 -0.2974
  127MPD2    H1 1942   4.289   4.723   9.867  0.2746 -0.1698  1.5287
  127MPD2    H2 1943   4.300   4.334   9.704 -2.1516 -1.1478  1.6289
  127MPD2    H3 1944   4.249   4.578   9.682 -0.2634  1.5986  0.5506
  127MPD2     N 1945   4.384   4.642  10.119 -0.3964  0.0625  0.0168
  127MPD2    H5 1946   4.411   4.586  10.199  0.9344  1.3497  0.4628
  127MPD2    N1 1947   4.368   4.208   9.903 -0.1882  0.7112  0.0603
  127MPD2    H7 1948   4.344   4.152   9.822  1.3359  0.0324  0.0772
  128TCq2    C1 1949   4.409   4.129  10.008  0.3544  0.2516 -0.0881
  128TCq2    O2 1950   4.423   4.168  10.124  0.5051  0.3019 -0.2112
  128TCq2    C2 1951   4.440   3.989   9.984 -0.2448  0.2035  0.0853
  128TCq2    C3 1952   4.497   3.921  10.085 -0.5275 -0.2264 -0.5233
  128TCq2    C4 1953   4.581   3.814  10.070 -0.4521 -1.7165 -0.3952
  128TCq2    C5 1954   4.598   3.765   9.945  0.2897  0.5013 -0.2245
  128TCq2    C6 1955   4.535   3.836   9.838  0.0032  0.0105  0.3314
  128TCq2    C7 1956   4.457   3.947   9.852 -0.6952  0.7350 -0.3460
  128TCq2    C8 1957   4.563   3.794   9.707  0.1173  0.1620  0.0391
  128TCq2    O4 1958   4.572   3.881   9.627 -0.3113  0.1843  0.1745
  128TCq2    C9 1959   4.648   3.748  10.179  0.4759  0.5929  0.6775
  128TCq2    O5 1960   4.620   3.781  10.298 -0.0608 -0.1028  0.0165
  128TCq2    O6 1961   4.723   3.649  10.154  0.3436 -0.1576 -0.0499
  128TCq2    H2 1962   4.482   3.962  10.184  1.6019 -2.1237  0.6060
  128TCq2    H3 1963   4.672   3.687   9.929 -1.8364 -1.3748 -0.8109
  128TCq2    H4 1964   4.418   3.997   9.764 -0.6147  1.8270  0.2403
  129MPD2     C 1965   3.299   0.665   1.874 -0.0926  0.3351 -0.5374
  129MPD2    C1 1966   3.226   0.549   1.859 -0.4178  0.1786  0.3800
  129MPD2    C2 1967   3.105   0.553   1.784  0.6838 -0.1464  0.0192
  129MPD2    C3 1968   3.068   0.665   1.722 -1.4244  0.0085 -0.0834
  129MPD2    C4 1969   3.140   0.778   1.744  0.8352  0.5064 -0.6184
  129MPD2    C5 1970   3.258   0.779   1.810  0.3377  0.3033 -0.7462
  129MPD2     H 1971   3.043   0.464   1.777 -0.1739  0.5762 -1.6069
  129MPD2    H1 1972   3.114   0.878   1.712 -0.7099  0.8717  1.7851
  129MPD2    H2 1973   3.389   0.668   1.934  0.2871  1.1354 -1.1531
  129MPD2    H3 1974   3.311   0.873   1.821  1.3133 -0.3617  0.2016
  129MPD2     N 1975   2.942   0.656   1.655 -0.1630  0.0208  0.2735
  129MPD2    H5 1976   2.890   0.570   1.669 -0.1760  0.0102  0.1611
  129MPD2    N1 1977   3.250   0.433   1.934  0.0208 -0.4183 -0.3959
  129MPD2    H7 1978   3.182   0.358   1.930 -0.1876 -0.1990 -0.9913
  130TCq2    C1 1979   3.367   0.413   2.007  0.3937 -0.2827  0.5376
  130TCq2    O2 1980   3.459   0.489   2.009 -0.0688  0.4553  0.2734
  130TCq2    C2 1981   3.384   0.273   2.040 -0.1950  0.0497  0.1749
  130TCq2    C3 1982   3.511   0.219   2.024 -0.3700  0.7511  0.1760
  130TCq2    C4 1983   3.531   0.090   2.059  0.0812  0.4693  0.8295
  130TCq2    C5 1984   3.429   0.012   2.112 -0.4520  0.4556  0.0324
  130TCq2    C6 1985   3.300   0.061   2.101 -0.1606 -0.0594  0.3118
  130TCq2    C7 1986   3.276   0.193   2.067  0.1993  0.3377  0.5557
  130TCq2    C8 1987   3.196   4.718   2.170  0.3179 -0.4561  0.3167
  130TCq2    O4 1988   3.083   0.014   2.136 -0.0683  0.0734 -0.0157
  130TCq2    C9 1989   3.663   0.038   2.044  0.2694  0.4419 -0.3386
  130TCq2    O5 1990   3.746   0.106   1.981 -0.7840 -0.1784 -0.3319
  130TCq2    O6 1991   3.694   4.654   2.103  0.6848 -0.3645  0.1514
  130TCq2    H2 1992   3.587   0.279   1.977 -1.0677  0.0123 -1.8741
  130TCq2    H3 1993   3.447   4.636   2.151  0.1027  0.9977  1.1530
  130TCq2    H4 1994   3.182   0.244   2.086  0.3994  0.5181  1.0383
  131MPD2     C 1995   2.112   3.529  10.637 -0.0753  0.2178 -0.3568
  131MPD2    C1 1996   2.091   3.594  10.519  0.1874  0.7184 -0.6864
  131MPD2    C2 1997   1.997   3.545  10.424  0.2267  0.3998  0.7322
  131MPD2    C3 1998   1.933   3.423  10.454 -0.2439  1.2264  0.5752
  131MPD2    C4 1999   1.949   3.371  10.581 -0.0670  0.1126  0.0929
  131MPD2    C5 2000   2.042   3.416  10.667  0.1923 -0.0843 -0.6211
  131MPD2     H 2001   1.979   3.598  10.331 -1.2239  1.3143  1.5488
  131MPD2    H1 2002   1.906   3.275  10.608 -0.7378  0.4989  0.4085
  131MPD2    H2 2003   2.191   3.566  10.702  0.3891  0.7318 -1.2135
  131MPD2    H3 2004   2.042   3.361  10.760 -1.4426 -1.9668 -1.7318
  131MPD2     N 2005   1.851   3.363  10.357  0.7959 -0.3706 -0.4571
  131MPD2    H5 2006   1.839   3.404  10.265  2.0217 -1.4733 -1.1068
  131MPD2    N1 2007   2.168   3.713  10.504  0.1700 -0.4454 -0.3718
  131MPD2    H7 2008   2.223   3.743  10.583  3.2846 -1.5245 -2.1161
  132TCq2    C1 2009   2.374   4.064  10.109  0.1359 -0.2802  0.2561
  132TCq2    O2 2010   2.312   3.984  10.041 -0.0116 -0.4405  0.1070
  132TCq2    C2 2011   2.376   4.031  10.247 -0.4664  0.5397  0.2005
  132TCq2    C3 2012   2.480   4.054  10.333 -0.3308 -0.4210  0.1444
  132TCq2    C4 2013   2.467   4.003  10.457 -0.7786  0.2142 -0.6302
  132TCq2    C5 2014   2.363   3.922  10.489  0.2725  0.1735  0.3004
  132TCq2    C6 2015   2.266   3.901  10.393 -0.3376  0.4488  0.3183
  132TCq2    C7 2016   2.271   3.962  10.272 -0.4007 -0.3547 -1.3098
  132TCq2    C8 2017   2.174   3.791  10.395 -0.0977 -0.3459 -0.2434
  132TCq2    O4 2018   2.133   3.752  10.287 -0.0983 -0.5179  0.1017
  132TCq2    C9 2019   2.567   4.015  10.556  0.2953  1.0300  0.3915
  132TCq2    O5 2020   2.528   3.994  10.670  0.0271  0.5114  0.3764
  132TCq2    O6 2021   2.670   4.072  10.521  0.3723  0.3863  0.3225
  132TCq2    H2 2022   2.566   4.111  10.301 -1.0471  0.2881 -0.5179
  132TCq2    H3 2023   2.359   3.872  10.585  4.4258 -0.3885  0.2032
  132TCq2    H4 2024   2.188   3.953  10.203 -0.3583 -2.0368 -1.1410
  133MPD2     C 2025   1.772   0.788   9.415  0.3365 -0.7386  0.0410
  133MPD2    C1 2026   1.845   0.672   9.403 -0.1229 -0.2734 -0.4384
  133MPD2    C2 2027   1.772   0.554   9.386  0.1097 -0.4506 -0.4496
  133MPD2    C3 2028   1.633   0.559   9.367  0.6416  0.2401  0.3624
  133MPD2    C4 2029   1.571   0.679   9.378  0.4403  0.0731 -0.5161
  133MPD2    C5 2030   1.633   0.790   9.414 -0.7568 -0.2167 -0.0277
  133MPD2     H 2031   1.824   0.461   9.366  0.1182 -0.4704 -0.3395
  133MPD2    H1 2032   1.465   0.699   9.379  0.7971  1.8470  1.4499
  133MPD2    H2 2033   1.819   0.883   9.433  1.2543 -1.0230 -0.8579
  133MPD2    H3 2034   1.581   0.885   9.409  0.7174  0.7348  2.2842
  133MPD2     N 2035   1.559   0.446   9.329  0.2336 -0.7291 -0.0307
  133MPD2    H5 2036   1.460   0.466   9.317  0.2287 -0.7391 -0.0065
  133MPD2    N1 2037   1.985   0.678   9.406 -0.5208 -0.0831  0.2102
  133MPD2    H7 2038   2.023   0.769   9.385  0.6935 -0.7050 -0.2584
  134TCq2    C1 2039   2.068   0.568   9.415 -0.1282  0.1333  0.1449
  134TCq2    O2 2040   2.039   0.453   9.453  0.0370  0.2818 -0.6303
  134TCq2    C2 2041   2.202   0.590   9.366  0.2803 -0.2028 -0.4310
  134TCq2    C3 2042   2.217   0.672   9.259  0.6244 -1.0996 -0.4290
  134TCq2    C4 2043   2.330   0.651   9.183 -0.2094 -0.1616  0.5852
  134TCq2    C5 2044   2.410   0.544   9.198  0.2181  0.4569 -0.3778
  134TCq2    C6 2045   2.391   0.465   9.306 -0.2696 -0.2200  0.2303
  134TCq2    C7 2046   2.286   0.487   9.387 -0.3726 -0.0055  0.4602
  134TCq2    C8 2047   2.491   0.360   9.343  0.2909  0.3659 -0.6846
  134TCq2    O4 2048   2.443   0.253   9.385  1.0455 -0.3116 -0.0319
  134TCq2    C9 2049   2.355   0.740   9.076 -0.9027  0.1084 -0.2443
  134TCq2    O5 2050   2.275   0.837   9.063  0.4050 -0.6438 -0.0059
  134TCq2    O6 2051   2.448   0.720   8.993 -0.4400 -0.3786  0.2333
  134TCq2    H2 2052   2.145   0.752   9.249 -0.3370 -2.0742 -1.4259
  134TCq2    H3 2053   2.493   0.527   9.131  2.8134  1.6211  2.5173
  134TCq2    H4 2054   2.265   0.429   9.475  0.6457 -0.1585  0.6095
  135MPD2     C 2055   4.208   1.283  10.297  1.0118  0.5148  0.4723
  135MPD2    C1 2056   4.145   1.259  10.180 -0.3092 -1.0573 -0.3630
  135MPD2    C2 2057   4.186   1.155  10.089 -0.5437 -0.9379  0.0749
  135MPD2    C3 2058   4.288   1.064  10.130 -1.0378 -0.5269  0.1260
  135MPD2    C4 2059   4.354   1.091  10.242  0.5392 -0.1032  0.0188
  135MPD2    C5 2060   4.311   1.190  10.327  0.5073 -0.2665  0.2080
  135MPD2     H 2061   4.129   1.127  10.001  0.9269 -0.0702 -1.1292
  135MPD2    H1 2062   4.433   1.030  10.284  0.9650  0.8142  0.5421
  135MPD2    H2 2063   4.171   1.359  10.364  3.3829  0.8884  1.3527
  135MPD2    H3 2064   4.373   1.197  10.416  1.0661  0.4265 -0.2343
  135MPD2     N 2065   4.318   0.944  10.060 -0.3262 -0.2871 -0.1560
  135MPD2    H5 2066   4.390   0.885  10.102 -0.2477  0.2983  0.5367
  135MPD2    N1 2067   4.033   1.340  10.149  0.1421 -0.3232 -0.5834
  135MPD2    H7 2068   3.997   1.403  10.220  0.7439 -1.7893  1.0105
  136TCq2    C1 2069   3.975   1.351  10.025  0.0070 -0.4123 -0.5979
  136TCq2    O2 2070   4.024   1.339   9.915 -0.0559  0.5435 -0.0486
  136TCq2    C2 2071   3.858   1.435  10.026 -0.1940  1.1654 -0.3190
  136TCq2    C3 2072   3.853   1.536   9.936 -0.6363  0.7021  0.5662
  136TCq2    C4 2073   3.761   1.633   9.951  0.5713 -0.0643 -0.1729
  136TCq2    C5 2074   3.670   1.636  10.051 -0.4065  0.0329  0.3403
  136TCq2    C6 2075   3.676   1.534  10.143 -0.8959 -0.0750  0.7068
  136TCq2    C7 2076   3.764   1.436  10.130 -0.1072  0.7463  0.5533
  136TCq2    C8 2077   3.588   1.530  10.253 -0.2292 -0.2554 -0.7708
  136TCq2    O4 2078   3.582   1.631  10.321  0.7791 -0.6671  0.3203
  136TCq2    C9 2079   3.764   1.751   9.862 -0.1905  0.4500 -0.5377
  136TCq2    O5 2080   3.692   1.844   9.894  0.4647 -0.4801  0.0832
  136TCq2    O6 2081   3.853   1.762   9.775  0.4717 -0.3085  0.2709
  136TCq2    H2 2082   3.928   1.541   9.857 -1.1299 -2.5158 -0.0839
  136TCq2    H3 2083   3.614   1.728  10.065 -1.9480 -0.5511 -2.0460
  136TCq2    H4 2084   3.762   1.355  10.201  1.2860 -1.0272 -1.4311
  137MPD2     C 2085   3.376   3.974  10.412 -0.4853  0.1366 -0.7275
  137MPD2    C1 2086   3.432   4.101  10.376 -0.8451  0.1944  0.2983
  137MPD2    C2 2087   3.414   4.197  10.471 -0.0506 -0.4193  0.2593
  137MPD2    C3 2088   3.342   4.185  10.587 -0.4762  0.1289 -0.1530
  137MPD2    C4 2089   3.293   4.060  10.619  0.0437  0.0041  0.1114
  137MPD2    C5 2090   3.310   3.953  10.531 -0.4705 -0.3415  0.2411
  137MPD2     H 2091   3.452   4.297  10.453  0.7400 -0.8847 -0.6230
  137MPD2    H1 2092   3.229   4.040  10.704  0.5291 -1.3066  0.1777
  137MPD2    H2 2093   3.390   3.887  10.349  0.3950 -0.3217  0.1191
  137MPD2    H3 2094   3.269   3.854  10.550 -0.6110 -0.5181 -0.9991
  137MPD2     N 2095   3.321   4.292  10.676  0.1801 -0.4738  0.5158
  137MPD2    H5 2096   3.379   4.373  10.657 -0.5822  0.1551  0.8648
  137MPD2    N1 2097   3.486   4.113  10.246  0.0818 -0.0008  0.4991
  137MPD2    H7 2098   3.478   4.030  10.188  3.8689  0.3494 -0.5535
  138TCq2    C1 2099   3.547   4.226  10.196 -0.3389  0.5625 -0.7198
  138TCq2    O2 2100   3.567   4.334  10.247  0.0800 -0.3311 -0.4083
  138TCq2    C2 2101   3.576   4.219  10.055 -0.7789  0.0199 -0.0456
  138TCq2    C3 2102   3.593   4.091   9.994  0.0562  0.5350 -0.3366
  138TCq2    C4 2103   3.652   4.092   9.869 -0.3626 -0.5483  0.1800
  138TCq2    C5 2104   3.674   4.203   9.795  0.2297  0.1333  0.7526
  138TCq2    C6 2105   3.641   4.322   9.849  0.8405 -0.6022 -0.2170
  138TCq2    C7 2106   3.602   4.335   9.986 -0.3083  0.0586 -0.0339
  138TCq2    C8 2107   3.634   4.433   9.757 -0.3004  0.0389 -0.8809
  138TCq2    O4 2108   3.695   4.427   9.652 -0.0693 -0.0901  0.3814
  138TCq2    C9 2109   3.677   3.961   9.809  0.8732  0.1541 -0.2175
  138TCq2    O5 2110   3.684   3.958   9.681  0.4156 -0.1709 -0.4004
  138TCq2    O6 2111   3.671   3.862   9.883  0.4373  0.5878 -0.5334
  138TCq2    H2 2112   3.578   3.996  10.044 -1.3288  1.0327  0.1943
  138TCq2    H3 2113   3.715   4.197   9.695  1.0069 -0.1079  1.0871
  138TCq2    H4 2114   3.592   4.431  10.035 -0.8651  0.4304 -0.8661
  139TMC2    C1 2115   4.050   3.359  13.410 -0.2873  0.1298  0.7422
  139TMC2    C2 2116   4.035   3.415  13.284  0.4253 -0.2128  0.1398
  139TMC2    C3 2117   3.956   3.522  13.274 -0.0229 -0.5712 -0.2839
  139TMC2    C4 2118   3.980   3.409  13.515  0.1373  0.3398 -0.6934
  139TMC2    C5 2119   3.899   3.522  13.493 -0.5081  0.2747  0.1209
  139TMC2    C6 2120   3.873   3.568  13.372 -0.2908  0.1875 -0.3048
  139TMC2     C 2121   4.140   3.244  13.421  0.5325 -0.0434  0.0620
  139TMC2     O 2122   4.182   3.193  13.318 -0.2439  0.2068  0.3997
  139TMC2     H 2123   4.080   3.374  13.195 -0.9841  0.5683 -0.9209
  139TMC2    H1 2124   3.982   3.364  13.613  2.1488  2.7570  0.3602
  139TMC2    H2 2125   3.794   3.642  13.359 -1.7228 -1.2927 -0.0148
  139TMC2    C7 2126   3.825   3.583  13.596  0.2416  0.8608  0.0770
  139TMC2    C8 2127   3.950   3.583  13.140  0.1387 -0.1913  0.0144
  139TMC2    O1 2128   3.726   3.649  13.559 -0.4888 -0.5010 -0.2549
  139TMC2    O2 2129   3.982   3.515  13.040 -0.0573  0.7195  0.4895
  139TMC2    O5 2130   3.884   3.694  13.143 -0.3384 -0.4030  0.6105
  139TMC2    H5 2131   3.895   3.753  13.221 -0.2638 -0.6000  0.7507
  140MPD2     C 2132   4.352   3.185  13.706  0.0959  0.2075 -0.2667
  140MPD2    C1 2133   4.298   3.160  13.588  0.0034 -0.2101 -0.2232
  140MPD2    C2 2134   4.361   3.068  13.506  0.2825 -0.3360  0.4672
  140MPD2    C3 2135   4.473   2.992  13.549 -0.5147  0.0987  0.0037
  140MPD2    C4 2136   4.529   3.022  13.673  0.4610  0.6906  0.2211
  140MPD2    C5 2137   4.471   3.122  13.743  0.5468 -0.8434 -0.5275
  140MPD2     H 2138   4.320   3.037  13.410  0.7950 -0.1076  0.1768
  140MPD2    H1 2139   4.614   2.970  13.716 -0.1007 -1.4521 -1.2047
  140MPD2    H2 2140   4.322   3.267  13.771  2.0115  0.6816  0.0316
  140MPD2    H3 2141   4.514   3.146  13.840  0.0075 -0.6883 -0.3238
  140MPD2     N 2142   4.528   2.906  13.462 -0.7439  0.3059  0.3145
  140MPD2    H5 2143   4.500   2.914  13.365  1.9199 -1.5344 -0.6195
  140MPD2    N1 2144   4.192   3.238  13.544 -0.0304 -0.1272 -0.3464
  140MPD2    H7 2145   4.166   3.306  13.614  1.2396 -0.3732  0.3756
  141TCq2    C1 2146   4.613   4.102  14.662 -0.1262  0.2596 -0.0123
  141TCq2    O2 2147   4.655   4.218  14.665  0.2182  0.4123  0.6728
  141TCq2    C2 2148   4.622   4.046  14.795  0.0334 -0.3662 -0.2532
  141TCq2    C3 2149   4.665   3.916  14.805 -0.1136 -0.6281  0.9003
  141TCq2    C4 2150   4.684   3.871  14.933  0.5177  0.1568 -0.4321
  141TCq2    C5 2151   4.657   3.951  15.037  0.0132  0.3302  0.1083
  141TCq2    C6 2152   4.625   4.082  15.022 -0.2595 -0.1018 -0.3473
  141TCq2    C7 2153   4.603   4.130  14.898 -0.5538  0.4970  0.2355
  141TCq2    C8 2154   4.599   4.172  15.129 -0.7435 -0.1460 -0.5711
  141TCq2    O4 2155   4.532   4.120  15.221 -0.1061 -0.0549  0.6230
  141TCq2    C9 2156   0.028   3.745  14.960  0.2357 -0.1457 -0.4480
  141TCq2    O5 2157   0.043   3.704  15.076  0.9344 -0.6214 -0.1530
  141TCq2    O6 2158   0.086   3.688  14.869 -0.0794 -0.0077 -0.4156
  141TCq2    H2 2159   4.689   3.848  14.724  0.5769 -1.2004  1.5808
  141TCq2    H3 2160   4.673   3.920  15.140  0.1255  1.7690  0.5240
  141TCq2    H4 2161   4.565   4.231  14.889 -1.9403 -0.0921 -0.6484
  142MPD2     C 2162   1.560   2.534  10.151  1.0586 -0.2735  0.3066
  142MPD2    C1 2163   1.431   2.495  10.188 -0.2077  0.2402  0.3636
  142MPD2    C2 2164   1.333   2.498  10.095 -0.7103 -0.9830 -0.6362
  142MPD2    C3 2165   1.350   2.552   9.971  0.5205  0.1450 -0.0771
  142MPD2    C4 2166   1.480   2.591   9.933 -0.2271 -0.3907  0.1336
  142MPD2    C5 2167   1.582   2.577  10.021  0.3169 -0.0442  0.3948
  142MPD2     H 2168   1.232   2.467  10.122 -1.8588 -0.5565 -4.4107
  142MPD2    H1 2169   1.492   2.629   9.832 -1.5823 -1.6255 -0.4876
  142MPD2    H2 2170   1.643   2.521  10.220 -0.4334 -1.7956  1.8179
  142MPD2    H3 2171   1.682   2.599   9.985  0.6939  0.5726  1.8200
  142MPD2     N 2172   1.253   2.536   9.865  0.1855 -0.0648  0.4872
  142MPD2    H5 2173   1.267   2.577   9.773  0.9811  0.1241  0.6929
  142MPD2    N1 2174   1.424   2.437  10.319 -0.0676  0.1760 -0.7410
  142MPD2    H7 2175   1.507   2.444  10.377  0.0091 -0.3854 -0.7875
  143TCq2    C1 2176   1.137   2.466   9.868 -0.3901 -0.5115  0.2518
  143TCq2    O2 2177   1.108   2.375   9.945  0.4659 -0.3724 -0.1789
  143TCq2    C2 2178   1.059   2.475   9.748 -0.0205  0.1092  0.1332
  143TCq2    C3 2179   0.997   2.358   9.704 -0.1316  0.0137 -0.0172
  143TCq2    C4 2180   0.952   2.347   9.576 -0.7058 -0.1467  0.2664
  143TCq2    C5 2181   0.973   2.449   9.492 -0.2145  0.0521  0.3739
  143TCq2    C6 2182   1.049   2.556   9.531 -0.1228  1.0030 -0.0415
  143TCq2    C7 2183   1.098   2.568   9.660 -0.1901  0.3181  0.2550
  143TCq2    C8 2184   1.089   2.660   9.435  0.9031  0.5665 -0.7059
  143TCq2    O4 2185   1.192   2.714   9.463  0.1738  0.1414 -0.2425
  143TCq2    C9 2186   0.875   2.233   9.535 -1.4286 -0.1868  0.4916
  143TCq2    O5 2187   0.876   2.136   9.614 -1.2531 -0.3386 -0.5618
  143TCq2    O6 2188   0.867   2.222   9.412  0.3204 -0.5006 -0.2337
  143TCq2    H2 2189   0.978   2.271   9.767  0.3779  1.6736  2.4047
  143TCq2    H3 2190   0.926   2.449   9.394  0.0630  0.8034  0.2423
  143TCq2    H4 2191   1.141   2.662   9.696 -0.6962  0.6516 -0.0177
  144MPD2     C 2192   4.677   2.205   1.095 -0.0666 -0.4105  0.3596
  144MPD2    C1 2193   0.008   2.080   1.082  0.4565 -0.5721 -0.0040
  144MPD2    C2 2194   0.131   2.053   1.126  0.0009 -0.2014 -0.0012
  144MPD2    C3 2195   0.210   2.150   1.200 -0.4500  0.5197  0.4023
  144MPD2    C4 2196   0.164   2.281   1.203 -0.4077  0.1942  0.0057
  144MPD2    C5 2197   0.034   2.298   1.157 -0.3062 -0.2193 -0.5356
  144MPD2     H 2198   0.175   1.955   1.113  0.2596 -0.2733  1.3882
  144MPD2    H1 2199   0.219   2.361   1.252  0.0356  0.5314 -1.0499
  144MPD2    H2 2200   4.575   2.225   1.065  0.6763  0.6750 -1.4550
  144MPD2    H3 2201   4.720   2.399   1.152 -0.2067 -0.2656 -2.2161
  144MPD2     N 2202   0.330   2.116   1.266 -0.2284 -0.8126 -0.1494
  144MPD2    H5 2203   0.368   2.185   1.330 -1.0272 -0.3729 -0.1443
  144MPD2    N1 2204   4.662   1.968   1.028  0.2201 -0.1720  0.2101
  144MPD2    H7 2205   4.709   1.878   1.028  1.1403  0.2917 -1.0958
  145TCq2    C1 2206   0.395   1.995   1.253 -0.3052  0.6411 -0.7839
  145TCq2    O2 2207   0.370   1.894   1.189  0.3325  0.6291 -0.5996
  145TCq2    C2 2208   0.500   1.980   1.342 -0.3989  0.1454  0.2051
  145TCq2    C3 2209   0.611   1.917   1.302 -1.0832 -0.5279  0.1769
  145TCq2    C4 2210   0.700   1.882   1.400  0.6065  0.1584  1.0329
  145TCq2    C5 2211   0.685   1.927   1.531 -0.1415 -0.3666  0.0301
  145TCq2    C6 2212   0.568   1.998   1.560 -0.5299 -0.0460 -0.0314
  145TCq2    C7 2213   0.478   2.031   1.462  0.4235  0.0110  0.1080
  145TCq2    C8 2214   0.540   2.026   1.701  0.1846 -0.7090  0.2852
  145TCq2    O4 2215   0.611   1.965   1.778 -0.1060 -0.5443 -0.5013
  145TCq2    C9 2216   0.817   1.810   1.370 -0.5982  0.6570 -0.4012
  145TCq2    O5 2217   0.919   1.810   1.448  0.1763  0.6726  0.1564
  145TCq2    O6 2218   0.839   1.766   1.253 -0.1784  0.1970  0.7414
  145TCq2    H2 2219   0.611   1.881   1.199 -1.3007 -1.1588  0.4001
  145TCq2    H3 2220   0.750   1.890   1.609 -1.6572  0.6572  1.7941
  145TCq2    H4 2221   0.387   2.084   1.490 -0.1515 -0.8742 -0.0984
  146TMC2    C1 2222   2.545   0.338  12.119  0.2891  0.0131  0.1091
  146TMC2    C2 2223   2.602   0.281  11.998  0.7125 -0.4602  0.1901
  146TMC2    C3 2224   2.722   0.325  11.967 -0.9816 -0.2189 -0.8469
  146TMC2    C4 2225   2.612   0.426  12.196 -0.2275 -0.0420 -0.2181
  146TMC2    C5 2226   2.746   0.443  12.165 -0.0221  0.1678 -0.1206
  146TMC2    C6 2227   2.800   0.401  12.047 -0.0799  0.7987  0.1827
  146TMC2     C 2228   2.410   0.310  12.161  0.3610 -0.5663 -0.0462
  146TMC2     O 2229   2.322   0.299  12.074 -0.0110  0.4600  0.5724
  146TMC2     H 2230   2.543   0.206  11.946  0.8373 -0.3390 -0.1206
  146TMC2    H1 2231   2.575   0.481  12.281 -0.1171 -1.5925  0.8261
  146TMC2    H2 2232   2.908   0.391  12.041 -0.0694  0.6046  0.6228
  146TMC2    C7 2233   2.826   0.531  12.259 -0.0830 -0.1875 -0.0112
  146TMC2    C8 2234   2.786   0.241  11.874 -0.0826  0.2886 -0.0386
  146TMC2    O1 2235   2.895   0.623  12.213  0.0674  0.0170  0.7063
  146TMC2    O2 2236   2.744   0.126  11.855 -0.3696  0.3956 -0.2979
  146TMC2    O5 2237   2.875   0.313  11.802 -0.1642  0.4817  0.6691
  146TMC2    H5 2238   2.879   0.404  11.837  3.2512  0.1013  1.2775
  147MPD2     C 2239   3.008   0.612  12.738  0.1798 -0.7948  0.6063
  147MPD2    C1 2240   2.943   0.487  12.737  0.5147  0.8534  0.0954
  147MPD2    C2 2241   2.879   0.455  12.618 -0.5725  0.7261 -0.8916
  147MPD2    C3 2242   2.884   0.530  12.504  0.1164  0.0059 -0.1088
  147MPD2    C4 2243   2.947   0.654  12.511  0.7401 -0.3064  0.1554
  147MPD2    C5 2244   3.010   0.695  12.629 -0.1037  0.6619  0.3847
  147MPD2     H 2245   2.816   0.367  12.608 -1.0926  1.1735 -1.5416
  147MPD2    H1 2246   2.952   0.728  12.432 -1.3988  1.1095  1.3303
  147MPD2    H2 2247   3.050   0.653  12.829  0.5396 -1.2831  0.6590
  147MPD2    H3 2248   3.054   0.794  12.639 -0.3060  0.8612 -0.6733
  147MPD2     N 2249   2.818   0.481  12.387  0.4594 -0.1647  0.0429
  147MPD2    H5 2250   2.752   0.405  12.404 -0.4895  1.1391  2.1415
  147MPD2    N1 2251   2.952   0.404  12.851  0.1166 -0.3366  0.0414
  147MPD2    H7 2252   3.015   0.441  12.921  0.3977  0.5669 -0.6890
  148MPD2     C 2253   1.537   0.229  10.026  0.0287 -0.0684  0.0787
  148MPD2    C1 2254   1.572   0.103  10.061  0.0072  0.4463 -0.2424
  148MPD2    C2 2255   1.503   4.716  10.023  0.1124 -0.0852 -0.6317
  148MPD2    C3 2256   1.386   4.722   9.947 -0.9336  0.8772 -0.7600
  148MPD2    C4 2257   1.342   0.131   9.926 -0.9428 -0.0715  0.0921
  148MPD2    C5 2258   1.417   0.243   9.958 -0.1607  0.7498  0.1631
  148MPD2     H 2259   1.525   4.621  10.069  0.0162  2.0783  3.9167
  148MPD2    H1 2260   1.252   0.165   9.876 -0.2865  0.5749 -0.6686
  148MPD2    H2 2261   1.592   0.320  10.049 -0.0084 -0.3157  1.1157
  148MPD2    H3 2262   1.394   0.343   9.924  0.1243  0.7951  0.1089
  148MPD2     N 2263   1.305   4.607   9.918 -0.5288 -0.0379  0.2522
  148MPD2    H5 2264   1.208   4.620   9.890 -0.0723  1.1524 -0.7811
  148MPD2    N1 2265   1.677   0.078  10.153 -0.8628 -0.0191  0.3929
  148MPD2    H7 2266   1.706   4.705  10.161  1.0540  0.6174  1.1708
  149TCq2    C1 2267   1.739   0.171  10.230  0.1755 -0.4743 -0.6411
  149TCq2    O2 2268   1.738   0.292  10.225  0.4542 -0.5746  0.2105
  149TCq2    C2 2269   1.835   0.114  10.328  0.6033  0.8533  0.8205
  149TCq2    C3 2270   1.926   0.197  10.380 -0.7481  0.2401  0.1398
  149TCq2    C4 2271   2.005   0.153  10.481  0.6459 -0.8318 -0.9167
  149TCq2    C5 2272   2.008   0.020  10.512 -0.7452  0.2742  0.2491
  149TCq2    C6 2273   1.905   4.667  10.473  0.9770 -0.1740  0.0490
  149TCq2    C7 2274   1.809   4.714  10.377  0.3242 -0.1280  0.2700
  149TCq2    C8 2275   1.919   4.521  10.480 -0.6150  0.7421 -0.7660
  149TCq2    O4 2276   1.880   4.455  10.388 -0.0486  0.0746 -0.4208
  149TCq2    C9 2277   2.122   0.234  10.507 -0.2520 -0.0442 -0.2233
  149TCq2    O5 2278   2.212   0.172  10.568  0.1527  0.4066 -0.0739
  149TCq2    O6 2279   2.110   0.357  10.483 -0.1528 -0.5477  0.2819
  149TCq2    H2 2280   1.949   0.294  10.338  0.7512 -0.2165 -0.0827
  149TCq2    H3 2281   2.094   4.709  10.569 -0.8786  0.5104  0.5925
  149TCq2    H4 2282   1.732   4.647  10.340  0.3693 -0.2194  0.3405
  150MPD2     C 2283   3.336   3.835  12.548 -0.7077  0.3852  0.2217
  150MPD2    C1 2284   3.412   3.762  12.463 -0.4685 -0.3764 -0.3310
  150MPD2    C2 2285   3.547   3.781  12.457 -0.0566  0.5858  0.5931
  150MPD2    C3 2286   3.612   3.882  12.518  0.3517 -0.2107  0.2517
  150MPD2    C4 2287   3.536   3.960  12.602  0.2971 -0.4577 -0.2119
  150MPD2    C5 2288   3.398   3.942  12.604 -0.7602 -0.0307 -0.3112
  150MPD2     H 2289   3.610   3.721  12.392 -1.6293  1.0802 -1.3721
  150MPD2    H1 2290   3.577   4.049  12.647 -5.1800  2.6792 -1.3596
  150MPD2    H2 2291   3.230   3.818  12.565 -0.0628 -1.9162  1.9552
  150MPD2    H3 2292   3.344   4.010  12.669 -0.1258 -0.8972  1.1330
  150MPD2     N 2293   3.751   3.902  12.512 -0.3113 -1.0529  0.0836
  150MPD2    H5 2294   3.797   3.826  12.462 -0.6828  0.6808 -2.8831
  150MPD2    N1 2295   3.348   3.659  12.393  0.4949  0.1697  0.4954
  150MPD2    H7 2296   3.249   3.652  12.412  0.7641 -3.2543  0.6189
  151TCq2    C1 2297   3.831   4.007  12.554  0.8634 -0.7386  0.0040
  151TCq2    O2 2298   3.795   4.111  12.610  0.3630 -0.5823 -0.1673
  151TCq2    C2 2299   3.974   3.985  12.519  0.4877  0.2950 -0.5215
  151TCq2    C3 2300   4.013   3.885  12.437 -0.1722  0.1907  0.5529
  151TCq2    C4 2301   4.151   3.851  12.450  0.1172  0.2454 -0.5630
  151TCq2    C5 2302   4.234   3.918  12.530  0.3917 -0.4960  0.1351
  151TCq2    C6 2303   4.184   4.028  12.595  0.6794 -0.3059 -0.2345
  151TCq2    C7 2304   4.053   4.062  12.592 -0.0562 -0.0202  0.2375
  151TCq2    C8 2305   4.250   4.085  12.722  0.5012 -0.0697 -0.1487
  151TCq2    O4 2306   4.221   4.194  12.763  1.0014 -0.1069 -0.0007
  151TCq2    C9 2307   4.200   3.735  12.382  1.0301  0.0004 -0.5764
  151TCq2    O5 2308   4.325   3.732  12.370 -0.0641 -0.0628 -0.0443
  151TCq2    O6 2309   4.119   3.659  12.320  0.3162 -0.0268  0.2567
  151TCq2    H2 2310   3.944   3.835  12.370 -0.3505  1.8065 -0.4793
  151TCq2    H3 2311   4.332   3.874  12.548  0.1275 -1.4197 -0.6584
  151TCq2    H4 2312   4.018   4.137  12.662  0.9418 -1.2260  2.0344
  152MPD2     C 2313   3.479   3.791  13.114  0.2424 -0.3765  0.2297
  152MPD2    C1 2314   3.523   3.755  12.989  0.1128 -0.3029  0.2124
  152MPD2    C2 2315   3.426   3.710  12.895 -0.2673  0.2634  0.8837
  152MPD2    C3 2316   3.297   3.682  12.934  0.1692 -0.8848  0.0790
  152MPD2    C4 2317   3.257   3.717  13.055  0.5968 -0.6593  0.0441
  152MPD2    C5 2318   3.345   3.772  13.142  0.3656 -0.0069 -0.3175
  152MPD2     H 2319   3.449   3.668  12.798 -2.7247 -0.1601  0.4958
  152MPD2    H1 2320   3.159   3.692  13.094  0.8394 -3.6681 -1.1981
  152MPD2    H2 2321   3.540   3.842  13.186  1.5430 -2.7105  0.7855
  152MPD2    H3 2322   3.317   3.799  13.243 -2.3902 -1.6862 -0.6521
  152MPD2     N 2323   3.206   3.639  12.839  0.3408 -0.3670 -0.5372
  152MPD2    H5 2324   3.237   3.635  12.743  0.5442  0.0914 -0.4907
  152MPD2    N1 2325   3.661   3.774  12.949  0.4319 -0.0224  0.3545
  152MPD2    H7 2326   3.732   3.800  13.017 -0.0685  1.0215  0.4799
  153TCq2    C1 2327   3.716   3.723  12.833  0.5962  0.2075 -0.3894
  153TCq2    O2 2328   3.667   3.649  12.755 -0.4437 -0.1904 -0.3937
  153TCq2    C2 2329   3.853   3.767  12.824  0.3714  0.5650 -0.7737
  153TCq2    C3 2330   3.941   3.682  12.767  1.1951 -0.0134 -0.0683
  153TCq2    C4 2331   4.074   3.693  12.790 -0.0443 -0.1275 -0.2390
  153TCq2    C5 2332   4.125   3.788  12.869  0.2383 -0.6742  0.3536
  153TCq2    C6 2333   4.042   3.889  12.914  0.3971 -0.7639  0.0641
  153TCq2    C7 2334   3.903   3.871  12.893 -0.4018 -0.2691 -0.2910
  153TCq2    C8 2335   4.076   3.958  13.034 -0.1219  0.3759  0.2733
  153TCq2    O4 2336   4.004   4.058  13.047  0.0111  1.0194 -0.1072
  153TCq2    C9 2337   4.159   3.603  12.732  0.7930  0.3842  0.7648
  153TCq2    O5 2338   4.104   3.504  12.678 -0.2884  0.6563  0.3202
  153TCq2    O6 2339   4.280   3.615  12.760  0.0111 -0.5404 -0.3693
  153TCq2    H2 2340   3.902   3.599  12.709 -0.5253  0.1665  0.8404
  153TCq2    H3 2341   4.233   3.792  12.879  0.4808  1.3108 -3.1335
  153TCq2    H4 2342   3.847   3.954  12.934 -0.7560 -1.5849  1.9293
  154MPD2     C 2343   0.926   3.267   1.198  0.4467  0.0590 -0.8413
  154MPD2    C1 2344   0.892   3.234   1.325  0.9119 -0.0174  0.5572
  154MPD2    C2 2345   0.772   3.274   1.385  0.1618  0.1959  0.2976
  154MPD2    C3 2346   0.676   3.321   1.303 -0.5893 -0.0183  0.4574
  154MPD2    C4 2347   0.705   3.342   1.170 -0.2448 -0.6043 -0.6028
  154MPD2    C5 2348   0.832   3.315   1.114  0.0289  0.9872  0.5721
  154MPD2     H 2349   0.757   3.262   1.492 -1.3753 -0.6004  0.0006
  154MPD2    H1 2350   0.630   3.382   1.101 -0.1659  0.9647  0.2286
  154MPD2    H2 2351   1.024   3.240   1.159 -0.7774 -1.6575 -2.7331
  154MPD2    H3 2352   0.858   3.347   1.014 -1.6031 -0.6968 -0.3846
  154MPD2     N 2353   0.549   3.332   1.361 -0.1263 -0.5282  0.1848
  154MPD2    H5 2354   0.527   3.304   1.456 -0.5800  0.8274  0.4824
  154MPD2    N1 2355   0.994   3.168   1.404 -0.5687 -0.7793  0.1257
  154MPD2    H7 2356   1.080   3.143   1.355  0.6773 -0.2433  2.0591
  155TCq2    C1 2357   1.004   3.155   1.540 -0.8124 -0.2405  0.2063
  155TCq2    O2 2358   0.926   3.192   1.628 -0.0492 -0.4824 -0.9370
  155TCq2    C2 2359   1.128   3.107   1.586 -0.1195 -0.2525 -0.2594
  155TCq2    C3 2360   1.161   3.135   1.716  0.6281  0.3101  0.9557
  155TCq2    C4 2361   1.243   3.046   1.780  0.9302 -0.1770  0.2239
  155TCq2    C5 2362   1.294   2.943   1.710 -0.1465 -0.2754 -0.5088
  155TCq2    C6 2363   1.281   2.931   1.573  0.0750  0.3330  0.3355
  155TCq2    C7 2364   1.188   3.014   1.509  0.4510 -0.4316  0.5902
  155TCq2    C8 2365   1.359   2.834   1.505 -0.3598  0.0332  0.1720
  155TCq2    O4 2366   1.421   2.758   1.578  0.1438 -0.9218  0.7041
  155TCq2    C9 2367   1.252   3.064   1.922 -0.6106  0.1051 -0.5092
  155TCq2    O5 2368   1.203   3.171   1.969  0.3809  0.0449  0.7854
  155TCq2    O6 2369   1.336   2.983   1.980 -0.8909  0.0412 -0.2966
  155TCq2    H2 2370   1.112   3.210   1.777 -2.2383 -0.7834  0.0209
  155TCq2    H3 2371   1.357   2.877   1.768  2.0561  2.3643  0.0856
  155TCq2    H4 2372   1.155   2.980   1.412 -1.9566 -0.6563  1.4868
  156MPD2     C 2373   4.314   1.010  12.634 -0.0273 -0.3784 -0.0428
  156MPD2    C1 2374   4.236   1.046  12.530 -0.3917 -0.7136  0.3859
  156MPD2    C2 2375   4.106   1.096  12.554 -0.2606 -0.0751 -0.1535
  156MPD2    C3 2376   4.065   1.099  12.685  0.4892  0.8484 -0.6707
  156MPD2    C4 2377   4.152   1.067  12.791  0.0557  0.4122  0.0039
  156MPD2    C5 2378   4.278   1.019  12.764 -0.2069  0.1692 -0.3250
  156MPD2     H 2379   4.041   1.116  12.470  2.4330  0.0137 -2.2377
  156MPD2    H1 2380   4.115   1.070  12.893 -3.7564 -0.6534 -1.3530
  156MPD2    H2 2381   4.414   0.972  12.617  0.0275 -0.9281  1.4241
  156MPD2    H3 2382   4.345   0.989  12.844  0.3355  4.7298  0.8926
  156MPD2     N 2383   3.940   1.162  12.712  0.1949  0.1922  0.9827
  156MPD2    H5 2384   3.888   1.208  12.637  0.8808  0.6658  0.7918
  156MPD2    N1 2385   4.273   1.035  12.393 -0.4029 -0.8062  0.0064
  156MPD2    H7 2386   4.200   1.069  12.330  0.1473 -0.3431 -0.3848
  157TCq2    C1 2387   4.383   0.976  12.341  0.2210 -0.0870  0.2352
  157TCq2    O2 2388   4.476   0.914  12.387 -0.4097 -0.6341  0.3267
  157TCq2    C2 2389   4.357   0.961  12.200  0.2250 -0.0807  0.3507
  157TCq2    C3 2390   4.362   0.838  12.156  0.5939 -0.2701 -0.4302
  157TCq2    C4 2391   4.291   0.806  12.043  0.6633 -0.3236  0.1764
  157TCq2    C5 2392   4.231   0.901  11.967 -0.7545 -0.6022  0.2213
  157TCq2    C6 2393   4.224   1.029  12.020  0.3655  0.4819 -0.4355
  157TCq2    C7 2394   4.284   1.062  12.139 -0.2130 -0.1870 -0.0243
  157TCq2    C8 2395   4.138   1.120  11.959 -0.2323 -0.4325  0.0138
  157TCq2    O4 2396   4.146   1.243  11.973  0.2159  0.1214  0.6105
  157TCq2    C9 2397   4.279   0.666  12.011  0.0147  0.1978 -0.0977
  157TCq2    O5 2398   4.366   0.583  12.033  0.4642 -0.1886  0.6360
  157TCq2    O6 2399   4.176   0.632  11.940  0.0185  0.3384 -0.0142
  157TCq2    H2 2400   4.417   0.760  12.208  2.3687  0.9912 -0.4236
  157TCq2    H3 2401   4.192   0.872  11.870  2.6247 -0.9781 -1.0098
  157TCq2    H4 2402   4.272   1.164  12.174 -1.0491 -0.4588  0.4926
  158TMC2    C1 2403   4.075   0.127  13.874 -0.0301 -0.5826  0.2048
  158TMC2    C2 2404   4.153   0.220  13.815 -0.6267 -0.1857 -0.0332
  158TMC2    C3 2405   4.089   0.323  13.746 -0.2976 -0.5852  0.0970
  158TMC2    C4 2406   3.939   0.126  13.868  0.0198  0.1377 -0.4715
  158TMC2    C5 2407   3.877   0.227  13.796 -0.3568  0.8454 -0.1461
  158TMC2    C6 2408   3.954   0.329  13.731  0.0027  0.1854 -0.4186
  158TMC2     C 2409   4.152   0.004  13.900 -0.2805  0.2535 -0.3602
  158TMC2     O 2410   4.264   4.716  13.855 -0.6458  0.9058  0.2082
  158TMC2     H 2411   4.260   0.207  13.817 -0.4137  1.6100  0.7807
  158TMC2    H1 2412   3.877   0.053  13.919 -0.8564  0.6771 -0.7620
  158TMC2    H2 2413   3.906   0.411  13.678 -0.2915 -0.1201 -0.6190
  158TMC2    C7 2414   3.776   0.191  13.703  0.0261 -0.5018  0.1130
  158TMC2    C8 2415   4.172   0.402  13.652  0.5883  0.3364 -0.1301
  158TMC2    O1 2416   3.788   0.233  13.586 -0.5486  0.2838  0.5227
  158TMC2    O2 2417   4.126   0.465  13.561 -0.7697 -0.2329 -0.7556
  158TMC2    O5 2418   4.293   0.422  13.710 -0.2988  0.2421 -0.2163
  158TMC2    H5 2419   4.292   0.403  13.806  1.7615  1.4834  0.0445
  159MPD2     C 2420   4.218   4.300  14.160 -0.1035 -0.1008  0.0646
  159MPD2    C1 2421   4.122   4.370  14.231 -0.2133 -0.2596  0.5872
  159MPD2    C2 2422   4.070   4.488  14.176 -0.0090  0.6077  0.3382
  159MPD2    C3 2423   4.126   4.535  14.055 -1.0256 -0.3439  0.2361
  159MPD2    C4 2424   4.225   4.462  13.988  0.0636 -0.8327 -0.0437
  159MPD2    C5 2425   4.268   4.340  14.042 -0.0825 -0.8705 -0.6963
  159MPD2     H 2426   4.002   4.546  14.238  0.2515  0.8336  0.4106
  159MPD2    H1 2427   4.269   4.497  13.895 -0.9168 -1.2656 -0.6729
  159MPD2    H2 2428   4.240   4.202  14.199 -0.6033  0.3087  1.3633
  159MPD2    H3 2429   4.331   4.271  13.987 -0.6192 -1.2132 -0.8805
  159MPD2     N 2430   4.087   4.660  13.998 -0.2538 -0.1153  0.0486
  159MPD2    H5 2431   4.017   4.714  14.049 -1.2093  1.1163 -2.5321
  159MPD2    N1 2432   4.070   4.302  14.344  0.0717  0.4405 -0.0790
  159MPD2    H7 2433   4.117   4.213  14.360  2.1924  0.5903 -5.5176
  160TMC2    C1 2434   4.139   2.546   1.896  0.5499 -0.2152 -0.6252
  160TMC2    C2 2435   4.143   2.413   1.923 -0.1740 -0.7222 -0.1609
  160TMC2    C3 2436   4.126   2.317   1.829  0.1453  0.3878  0.5725
  160TMC2    C4 2437   4.127   2.588   1.764  0.1794 -0.4142  0.3185
  160TMC2    C5 2438   4.130   2.489   1.665 -0.7227  0.2561  0.4020
  160TMC2    C6 2439   4.132   2.355   1.696 -0.6320 -0.2265  0.1775
  160TMC2     C 2440   4.107   2.634   1.997 -0.0991  0.9538  0.1830
  160TMC2     O 2441   4.145   2.610   2.112 -0.3054 -0.5820  0.0346
  160TMC2     H 2442   4.171   2.384   2.024 -1.1196 -2.5363 -0.4160
  160TMC2    H1 2443   4.115   2.694   1.742  2.6713 -0.1018  0.5626
  160TMC2    H2 2444   4.137   2.278   1.620  2.3565 -0.1024  0.2516
  160TMC2    C7 2445   4.116   2.520   1.526  0.6620  0.2586 -0.0116
  160TMC2    C8 2446   4.077   2.178   1.856  0.5407  0.8424  0.0979
  160TMC2    O1 2447   4.034   2.456   1.461  0.4575  0.0465 -0.3876
  160TMC2    O2 2448   4.084   2.085   1.773 -0.4149 -0.0357  0.3153
  160TMC2    O5 2449   4.049   2.175   1.988  0.3814  0.3029  0.7513
  160TMC2    H5 2450   4.018   2.257   2.032  0.9460 -0.0101  1.7174
  161MPD2     C 2451   3.981   2.844   2.176 -0.4067  0.3872  0.1604
  161MPD2    C1 2452   3.930   2.802   2.056 -0.0434  0.3883 -0.4233
  161MPD2    C2 2453   3.795   2.833   2.022  1.0642 -0.0941 -0.9893
  161MPD2    C3 2454   3.711   2.893   2.115  1.1284 -0.0580 -0.1694
  161MPD2    C4 2455   3.766   2.947   2.234 -0.1776 -0.6684  0.2698
  161MPD2    C5 2456   3.903   2.925   2.256  0.4012 -0.0744  1.2898
  161MPD2     H 2457   3.758   2.791   1.929  2.4694 -0.1455 -1.5194
  161MPD2    H1 2458   3.711   2.999   2.312 -1.0061 -1.8539  0.4847
  161MPD2    H2 2459   4.087   2.838   2.199 -0.5540  1.3187  1.1261
  161MPD2    H3 2460   3.951   2.969   2.342  1.6687 -0.5093  0.8085
  161MPD2     N 2461   3.568   2.908   2.095  0.3089  0.0320  0.0584
  161MPD2    H5 2462   3.520   2.962   2.166  1.0574  1.8732 -0.8201
  161MPD2    N1 2463   3.999   2.710   1.964  0.0501  0.5929  0.4727
  161MPD2    H7 2464   3.970   2.717   1.867  0.1171 -1.9586  0.2556
  162TMC2    C1 2465   2.000   0.134   1.643  0.3159  0.0574  0.3711
  162TMC2    C2 2466   1.961   0.263   1.621  0.2338 -0.6029  0.7656
  162TMC2    C3 2467   1.921   0.339   1.730  0.1002  0.3924 -0.8836
  162TMC2    C4 2468   2.012   0.084   1.770  0.4518  0.0483  0.7409
  162TMC2    C5 2469   1.975   0.161   1.877 -0.1392  0.4305 -0.3447
  162TMC2    C6 2470   1.917   0.286   1.858  0.1838  0.5801 -0.7830
  162TMC2     C 2471   2.022   0.043   1.533  0.3574 -0.2218 -0.1764
  162TMC2     O 2472   2.076   4.660   1.550 -0.0827 -0.4921 -0.1399
  162TMC2     H 2473   1.960   0.310   1.524 -2.4715 -0.6939  0.7227
  162TMC2    H1 2474   2.047   4.705   1.772 -0.1358 -0.1694 -0.4629
  162TMC2    H2 2475   1.898   0.354   1.941  0.2887 -1.7584  1.1588
  162TMC2    C7 2476   1.942   0.099   2.004  0.0379 -0.0996  0.3753
  162TMC2    C8 2477   1.868   0.472   1.710 -0.6635 -0.3548 -0.6809
  162TMC2    O1 2478   1.856   0.150   2.073 -0.3749 -0.1323 -0.6000
  162TMC2    O2 2479   1.858   0.554   1.800 -0.2472 -0.2068 -0.2228
  162TMC2    O5 2480   1.800   0.477   1.595 -0.5476 -0.0608  0.2517
  162TMC2    H5 2481   1.784   0.388   1.558  0.6559 -0.2711  0.2156
  163MPD2     C 2482   1.910   4.616   1.062 -0.7379 -0.9971  0.0633
  163MPD2    C1 2483   2.014   4.570   1.135 -0.0403  0.2670  0.0323
  163MPD2    C2 2484   2.028   4.629   1.259  0.0826 -0.4374 -0.2623
  163MPD2    C3 2485   1.935   0.007   1.304  0.0529 -0.0741  0.2635
  163MPD2    C4 2486   1.838   0.057   1.218 -1.0366  0.6791  0.5098
  163MPD2    C5 2487   1.835   4.721   1.091  0.1269  0.6918  0.0166
  163MPD2     H 2488   2.104   4.604   1.332 -1.5443 -3.4576  0.4000
  163MPD2    H1 2489   1.769   0.132   1.256 -1.3314 -0.1999  1.7133
  163MPD2    H2 2490   1.888   4.575   0.964  1.7936 -1.4455 -0.3331
  163MPD2    H3 2491   1.754   0.023   1.025 -1.4125 -1.9268  0.8788
  163MPD2     N 2492   1.951   0.079   1.424 -0.2437 -0.1099  0.2625
  163MPD2    H5 2493   1.897   0.164   1.441 -0.4464 -0.7723  2.8422
  163MPD2    N1 2494   2.080   4.459   1.081 -0.1151 -0.2597  0.4727
  163MPD2    H7 2495   2.044   4.428   0.991 -0.2887  0.7329  0.2022
  164TCq2    C1 2496   2.444   4.471  10.935 -0.2492  0.6132  0.2182
  164TCq2    O2 2497   2.451   4.587  10.972  0.1862 -0.1250 -0.1531
  164TCq2    C2 2498   2.334   4.398  10.988  0.0790  0.5598  0.2908
  164TCq2    C3 2499   2.326   4.258  10.984  0.3632 -0.1787 -0.6683
  164TCq2    C4 2500   2.229   4.194  11.050  0.0161  0.3921  0.0584
  164TCq2    C5 2501   2.140   4.261  11.125 -0.5262 -0.1000 -0.5583
  164TCq2    C6 2502   2.140   4.398  11.123  0.2466 -0.3286 -0.4600
  164TCq2    C7 2503   2.238   4.472  11.049  0.6819  0.0323  1.0211
  164TCq2    C8 2504   2.045   4.477  11.200  0.2232  0.2249 -0.2244
  164TCq2    O4 2505   2.010   4.583  11.151 -0.4015 -0.1670  0.1187
  164TCq2    C9 2506   2.222   4.054  11.042 -0.7587  0.2415 -0.2450
  164TCq2    O5 2507   2.148   3.995  11.125 -0.3823  0.0206 -0.2485
  164TCq2    O6 2508   2.275   3.998  10.943  0.3312 -0.1232 -0.0377
  164TCq2    H2 2509   2.405   4.208  10.930 -0.1276 -0.3657 -1.2089
  164TCq2    H3 2510   2.061   4.207  11.175  0.8679  0.1556  1.8962
  164TCq2    H4 2511   2.231   4.580  11.057 -0.0330  0.0935 -0.5961
  165MPD2     C 2512   3.102   2.074   0.799 -0.4418  0.4046  0.3336
  165MPD2    C1 2513   3.114   1.955   0.871 -0.5582  0.6725 -0.1092
  165MPD2    C2 2514   3.236   1.892   0.876 -0.8408 -0.5186  0.1361
  165MPD2    C3 2515   3.350   1.952   0.825 -0.4067 -0.6555  0.0729
  165MPD2    C4 2516   3.339   2.079   0.766  0.6575  0.1502 -0.3573
  165MPD2    C5 2517   3.211   2.132   0.752 -0.2057 -0.1093 -0.0578
  165MPD2     H 2518   3.244   1.789   0.910 -0.5848 -0.5854 -0.1213
  165MPD2    H1 2519   3.430   2.127   0.733  1.7134 -1.7079 -0.1203
  165MPD2    H2 2520   3.006   2.123   0.786  0.1028  0.7797 -2.1841
  165MPD2    H3 2521   3.197   2.228   0.704 -2.0975 -0.4053 -0.1002
  165MPD2     N 2522   3.479   1.908   0.857  0.5589 -0.2002 -0.5041
  165MPD2    H5 2523   3.558   1.965   0.831  1.2829 -0.0497  2.0151
  165MPD2    N1 2524   2.995   1.912   0.936  0.4424  0.7050 -0.3589
  165MPD2    H7 2525   2.913   1.969   0.917 -0.2119 -1.0215 -2.6968
  166TCq2    C1 2526   3.515   1.791   0.920  0.8010  0.1224 -0.2185
  166TCq2    O2 2527   3.443   1.709   0.972 -0.5504  0.1721 -0.9402
  166TCq2    C2 2528   3.651   1.793   0.973 -0.5890 -0.2015  0.3348
  166TCq2    C3 2529   3.696   1.673   1.029 -0.4756  0.0794 -0.1616
  166TCq2    C4 2530   3.826   1.662   1.075  0.0082 -0.2813  1.0402
  166TCq2    C5 2531   3.913   1.767   1.051 -0.0273 -0.8420  0.4079
  166TCq2    C6 2532   3.872   1.880   0.990  0.3267  0.2376  0.1859
  166TCq2    C7 2533   3.737   1.900   0.954  0.4569 -0.0479 -0.1572
  166TCq2    C8 2534   3.964   2.000   0.980 -0.1295 -0.0150  0.3092
  166TCq2    O4 2535   4.059   1.989   1.057  0.0077  0.2920 -0.0217
  166TCq2    C9 2536   3.878   1.538   1.137 -0.0831 -0.2042  0.1780
  166TCq2    O5 2537   3.795   1.451   1.166  0.3387  0.6957  0.0373
  166TCq2    O6 2538   4.003   1.516   1.121  0.3953 -0.5023  0.1874
  166TCq2    H2 2539   3.632   1.586   1.030  0.3556 -0.5579 -1.8723
  166TCq2    H3 2540   4.017   1.756   1.081 -0.0467  0.0143  0.7838
  166TCq2    H4 2541   3.696   1.990   0.909 -1.1062 -0.3005  0.7522
  167TMC2    C1 2542   1.490   4.714  12.945 -0.5739  0.2521 -0.5944
  167TMC2    C2 2543   1.465   0.056  13.066 -0.2970  0.4043 -0.2410
  167TMC2    C3 2544   1.450   4.702  13.182  0.4563 -0.6542  0.3527
  167TMC2    C4 2545   1.539   4.585  12.944 -0.1008  0.1013 -0.3797
  167TMC2    C5 2546   1.529   4.518  13.067 -0.2397  0.1463  0.9296
  167TMC2    C6 2547   1.473   4.566  13.185  0.2845 -0.4197  0.1442
  167TMC2     C 2548   1.468   0.069  12.823  0.4957 -0.7509 -0.4114
  167TMC2     O 2549   1.496   0.189  12.826 -0.4647 -0.2579 -0.3444
  167TMC2     H 2550   1.424   0.156  13.064  0.7993  0.8062 -2.8629
  167TMC2    H1 2551   1.564   4.535  12.851  0.2127 -1.7791  0.7307
  167TMC2    H2 2552   1.481   4.515  13.281 -0.2036  0.6336  0.7482
  167TMC2    C7 2553   1.576   4.376  13.065  0.3584  0.3656 -0.4949
  167TMC2    C8 2554   1.384   0.051  13.286  0.1131  0.2868 -0.7774
  167TMC2    O1 2555   1.530   4.310  13.156 -0.2946  0.0056 -0.1276
  167TMC2    O2 2556   1.312   4.717  13.367 -0.0193  0.0219  0.1083
  167TMC2    O5 2557   1.434   0.175  13.304  0.1498  0.8246  0.4970
  167TMC2    H5 2558   1.504   0.205  13.242 -1.3711  2.5257 -0.3908
  168MPD2     C 2559   1.472   0.146  12.532  0.6655  0.3070  0.8343
  168MPD2    C1 2560   1.482   0.017  12.584  0.6718 -0.3217 -0.0247
  168MPD2    C2 2561   1.479   4.632  12.493 -0.5755  0.4354  0.2122
  168MPD2    C3 2562   1.475   4.660  12.357  0.0379  0.0446 -0.1806
  168MPD2    C4 2563   1.484   0.070  12.309 -0.2009  0.3541 -0.2858
  168MPD2    C5 2564   1.476   0.174  12.396  0.6145  0.1836  1.3182
  168MPD2     H 2565   1.474   4.530  12.529 -0.1460 -0.4200 -2.1203
  168MPD2    H1 2566   1.515   0.096  12.208  1.6579  3.7575  1.1622
  168MPD2    H2 2567   1.465   0.232  12.596  0.1276  1.6513 -1.0336
  168MPD2    H3 2568   1.512   0.273  12.368  0.1917 -0.4480 -1.4849
  168MPD2     N 2569   1.491   4.552  12.266  0.2987  0.2913  0.6892
  168MPD2    H5 2570   1.508   4.589  12.173 -0.4610  2.7451  1.5121
  168MPD2    N1 2571   1.457   4.711  12.719 -0.4568 -0.6927 -1.0061
  168MPD2    H7 2572   1.423   4.617  12.732  2.1742 -1.2168  2.0471
  169MPD1     C 2573   4.286   2.239   9.830 -0.0882  0.2120  0.4963
  169MPD1    C1 2574   4.348   2.173   9.730  0.3061 -0.0826 -0.2002
  169MPD1    C2 2575   4.406   2.238   9.629  0.6531  0.2233  0.3389
  169MPD1    C3 2576   4.413   2.378   9.627  0.2584 -0.2876 -0.4416
  169MPD1    C4 2577   4.357   2.441   9.734  0.1814  0.6055 -0.2598
  169MPD1    C5 2578   4.306   2.376   9.840  0.2188 -0.8984  0.1659
  169MPD1     H 2579   4.451   2.181   9.549  1.0442 -1.7671  1.9823
  169MPD1    H1 2580   4.355   2.549   9.742  0.0253  0.6738 -1.1798
  169MPD1    H2 2581   4.212   2.195   9.896 -0.8463 -2.7270 -2.3131
  169MPD1    H3 2582   4.258   2.434   9.918 -0.7089 -1.0801 -0.2646
  169MPD1     N 2583   4.454   2.441   9.508 -0.3885 -0.8393  0.5989
  169MPD1    H5 2584   4.457   2.382   9.425 -0.7141  2.0160 -1.4509
  169MPD1    N1 2585   4.329   2.031   9.716  0.1283  0.0546 -0.4000
  169MPD1    H6 2586   4.398   1.979   9.662  0.3528  0.4490 -0.4914
  169MPD1    H7 2587   4.311   1.992   9.808  1.1261  1.1525  0.2629
  170MPD1     C 2588   1.604   1.633  13.580  0.3019  0.2584  0.3532
  170MPD1    C1 2589   1.608   1.677  13.711  0.3513 -0.0846 -0.4293
  170MPD1    C2 2590   1.713   1.753  13.754  0.8131 -0.6248 -0.3293
  170MPD1    C3 2591   1.825   1.759  13.674  0.1241 -0.6766  0.4829
  170MPD1    C4 2592   1.823   1.709  13.544 -0.7098  0.4276  0.1939
  170MPD1    C5 2593   1.705   1.650  13.487  0.1209  0.0166  0.1730
  170MPD1     H 2594   1.726   1.787  13.856  0.1316  1.2802 -0.8861
  170MPD1    H1 2595   1.914   1.707  13.485  0.2183  0.3493  1.6179
  170MPD1    H2 2596   1.519   1.576  13.544  0.9085  1.1099 -2.4340
  170MPD1    H3 2597   1.712   1.608  13.387 -1.0599 -1.2720  0.6311
  170MPD1     N 2598   1.935   1.828  13.731 -0.1624 -0.5838 -0.2708
  170MPD1    H5 2599   1.934   1.860  13.827 -2.5599  0.9832 -0.8234
  170MPD1    N1 2600   1.502   1.645  13.796 -0.1441 -0.1081  0.0204
  170MPD1    H6 2601   1.496   1.716  13.869  1.4233 -1.2069  1.2086
  170MPD1    H7 2602   1.414   1.662  13.748  1.6054 -1.2064 -3.5577
  171MPD1     C 2603   1.294   3.077  15.751  0.6777  0.1552 -0.3755
  171MPD1    C1 2604   1.306   2.976  15.658 -0.3842  0.1653  0.0034
  171MPD1    C2 2605   1.312   2.853  15.718 -1.1246  0.3726 -0.9652
  171MPD1    C3 2606   1.333   2.826  15.855  0.1209 -0.2914 -0.7982
  171MPD1    C4 2607   1.340   2.936  15.938 -1.1249  0.3184 -0.0292
  171MPD1    C5 2608   1.321   3.057  15.883  0.2423  0.0993  0.0469
  171MPD1     H 2609   1.303   2.768  15.651 -0.4975 -2.2195  2.2658
  171MPD1    H1 2610   1.362   2.936  16.044  1.9772 -0.6688 -0.6672
  171MPD1    H2 2611   1.292   3.182  15.723 -0.3997  0.1140 -0.4663
  171MPD1    H3 2612   1.332   3.149  15.940  0.6329 -0.1648  0.3969
  171MPD1     N 2613   1.330   2.696  15.908 -0.0423 -0.0619 -0.1672
  171MPD1    H5 2614   1.339   2.693  16.009  1.4938  0.4564 -0.2796
  171MPD1    N1 2615   1.289   2.988  15.519  0.2025  0.3842  0.0135
  171MPD1    H6 2616   1.338   2.919  15.462  1.7063  2.0567 -0.7060
  171MPD1    H7 2617   1.326   3.079  15.494 -0.9644  0.6196 -0.8474
  172MPD1     C 2618   0.429   1.276   1.027 -0.4575  0.2086  0.0550
  172MPD1    C1 2619   0.327   1.341   0.967 -0.2285  0.4415 -0.2481
  172MPD1    C2 2620   0.338   1.471   0.942  0.2343  0.1382 -0.1420
  172MPD1    C3 2621   0.450   1.548   0.960  0.5606 -0.3253  0.3189
  172MPD1    C4 2622   0.555   1.477   1.012  0.7332 -0.3779  0.1644
  172MPD1    C5 2623   0.548   1.345   1.041 -0.3278  0.1308 -0.4541
  172MPD1     H 2624   0.263   1.525   0.887  0.6191  1.5440  0.7024
  172MPD1    H1 2625   0.655   1.518   1.016  0.4411  0.3359  0.2112
  172MPD1    H2 2626   0.433   1.169   1.045 -0.0445  0.5525  2.0429
  172MPD1    H3 2627   0.634   1.298   1.088 -0.5014  0.2260 -0.0353
  172MPD1     N 2628   0.475   1.680   0.910  0.1024 -0.3086  0.7385
  172MPD1    H5 2629   0.571   1.708   0.927 -0.3115  1.2919  0.4669
  172MPD1    N1 2630   0.221   1.265   0.906 -0.1648  0.0162 -0.5485
  172MPD1    H6 2631   0.140   1.322   0.880 -0.3262 -0.5334 -1.2318
  172MPD1    H7 2632   0.203   1.187   0.968  3.6243 -1.8659 -1.8481
  173MPD1     C 2633   1.606   2.292  14.777  0.3662  0.5407 -0.2425
  173MPD1    C1 2634   1.606   2.242  14.903  0.2849  0.6915 -0.8151
  173MPD1    C2 2635   1.499   2.160  14.949 -0.8043 -0.4072 -0.7201
  173MPD1    C3 2636   1.401   2.113  14.860 -0.7829 -0.1755  0.1343
  173MPD1    C4 2637   1.408   2.163  14.730  0.3113 -0.3975 -0.7520
  173MPD1    C5 2638   1.504   2.257  14.694  0.1300 -0.1526 -0.1239
  173MPD1     H 2639   1.500   2.133  15.054  3.4132  0.7232 -0.4306
  173MPD1    H1 2640   1.332   2.135  14.658  0.2343 -0.7142 -0.5457
  173MPD1    H2 2641   1.682   2.363  14.745  0.4279 -1.0504 -3.6305
  173MPD1    H3 2642   1.500   2.307  14.598  1.4039 -0.0720 -0.1328
  173MPD1     N 2643   1.308   2.016  14.903  0.0418 -0.0414  0.1689
  173MPD1    H5 2644   1.305   1.990  15.001  0.8434  0.5285  0.3493
  173MPD1    N1 2645   1.727   2.268  14.974  0.8190  0.3490 -0.3501
  173MPD1    H6 2646   1.721   2.278  15.075 -2.5267 -0.6187 -0.4529
  173MPD1    H7 2647   1.767   2.358  14.950  2.3872 -0.0462  0.8053
  174MPD1     C 2648   1.083   1.295  14.272  0.3966  0.1835 -0.0439
  174MPD1    C1 2649   1.131   1.222  14.386 -0.0210 -0.0663 -0.4657
  174MPD1    C2 2650   1.145   1.296  14.498  0.2264  0.1796 -0.1169
  174MPD1    C3 2651   1.095   1.422  14.516  0.4429  0.3391  0.3995
  174MPD1    C4 2652   1.029   1.477  14.407 -0.0397 -0.0281  0.4137
  174MPD1    C5 2653   1.022   1.415  14.288 -0.1434  0.5889  0.1689
  174MPD1     H 2654   1.198   1.249  14.581 -2.1497  0.3258  1.4822
  174MPD1    H1 2655   0.972   1.569  14.419 -2.7122 -1.5233 -0.7594
  174MPD1    H2 2656   1.059   1.245  14.178 -1.3725  0.7394  0.1263
  174MPD1    H3 2657   0.975   1.475  14.211  0.4792  0.9483  0.0660
  174MPD1     N 2658   1.104   1.506  14.631  0.6586  0.4071 -0.1014
  174MPD1    H5 2659   1.080   1.604  14.620  2.0233  0.7718  0.1734
  174MPD1    N1 2660   1.179   1.089  14.373 -0.2422  0.6421  0.1789
  174MPD1    H6 2661   1.157   1.029  14.452  1.4608 -1.1359 -0.7160
  174MPD1    H7 2662   1.150   1.040  14.288  0.9944  0.4564 -0.1408
  175MPD1     C 2663   0.283   2.376  15.840 -0.8831 -0.1052  0.4022
  175MPD1    C1 2664   0.166   2.383  15.908 -0.0540  0.6471 -0.0460
  175MPD1    C2 2665   0.156   2.323  16.036  0.2798 -0.7396  0.3105
  175MPD1    C3 2666   0.270   2.267  16.090 -0.0296  0.4182 -0.4859
  175MPD1    C4 2667   0.386   2.255  16.018  0.2102  0.0670 -0.5441
  175MPD1    C5 2668   0.391   2.307  15.896  0.2615  0.5326  0.1110
  175MPD1     H 2669   0.066   2.330  16.097  0.6279  2.2168  0.5090
  175MPD1    H1 2670   0.471   2.196  16.054 -0.0885  0.4675  0.8212
  175MPD1    H2 2671   0.293   2.412  15.738  0.0085  1.5740  1.0718
  175MPD1    H3 2672   0.475   2.296  15.830  1.4460  0.7839  1.5797
  175MPD1     N 2673   0.274   2.208  16.215  0.3920 -0.3835  0.1339
  175MPD1    H5 2674   0.368   2.205  16.254  0.2640 -0.0809  0.4640
  175MPD1    N1 2675   0.055   2.451  15.854  0.3009 -0.3072 -0.2781
  175MPD1    H6 2676   4.690   2.407  15.878  0.9522 -1.1842  0.5201
  175MPD1    H7 2677   0.051   2.446  15.752  0.1231 -1.9582 -0.1830
  176MPD1     C 2678   1.020   0.058   0.988 -0.4249  0.2221  0.5967
  176MPD1    C1 2679   0.988   0.085   0.858 -0.0686 -0.7578 -0.6635
  176MPD1    C2 2680   1.070   0.183   0.796  0.3909 -0.0540  0.1029
  176MPD1    C3 2681   1.162   0.260   0.860 -0.4498  0.1257  0.2840
  176MPD1    C4 2682   1.178   0.243   0.995 -0.0182  0.2507  0.5108
  176MPD1    C5 2683   1.107   0.143   1.055 -0.2713  0.5027  0.3361
  176MPD1     H 2684   1.064   0.187   0.687  1.0404  1.8070  0.1414
  176MPD1    H1 2685   1.250   0.285   1.064 -0.4982 -0.1229  1.2273
  176MPD1    H2 2686   0.972   4.699   1.039  0.2404  0.4453  1.6029
  176MPD1    H3 2687   1.141   0.118   1.155  1.1176 -0.4243 -0.3751
  176MPD1     N 2688   1.243   0.352   0.790 -0.1170  0.2871 -0.6854
  176MPD1    H5 2689   1.235   0.348   0.689  1.6220  1.7548 -0.8849
  176MPD1    N1 2690   0.903   4.718   0.792  0.4561  0.0851  0.1853
  176MPD1    H6 2691   0.869   0.034   0.704 -1.3694 -0.2747  0.7361
  176MPD1    H7 2692   0.836   4.666   0.848 -2.1766  2.5128 -0.7279
  177MPD1     C 2693   0.211   4.389  10.699 -0.2460  0.1622  0.8288
  177MPD1    C1 2694   0.120   4.331  10.610  0.6164  0.0049  0.4195
  177MPD1    C2 2695   0.062   4.422  10.526  0.0561  0.1957  0.2397
  177MPD1    C3 2696   0.088   4.562  10.531 -0.0071 -0.0027 -0.6010
  177MPD1    C4 2697   0.199   4.604  10.601  0.2449  0.8691  0.0710
  177MPD1    C5 2698   0.252   4.518  10.697  0.1593 -0.2722 -0.2066
  177MPD1     H 2699   4.704   4.391  10.461  1.0598 -2.2701  0.1565
  177MPD1    H1 2700   0.227   4.709  10.606 -0.8166  1.0485  2.3509
  177MPD1    H2 2701   0.259   4.319  10.767 -2.1449 -0.4300  1.5545
  177MPD1    H3 2702   0.324   4.555  10.769 -1.4680 -1.2861  1.9269
  177MPD1     N 2703   0.007   4.643  10.445  0.1463  0.0443 -0.1599
  177MPD1    H5 2704   4.658   4.600  10.387  1.2254 -1.7034 -0.2149
  177MPD1    N1 2705   0.068   4.204  10.612  0.3790  0.4676 -0.2346
  177MPD1    H6 2706   0.012   4.190  10.528  1.2046 -3.1011 -0.2200
  177MPD1    H7 2707   0.134   4.129  10.634  0.8717  0.9653 -0.0362
  178MPD1     C 2708   2.398   0.733   0.664 -0.3981  0.4932 -0.1175
  178MPD1    C1 2709   2.302   0.655   0.603 -0.5377 -0.2333 -0.0994
  178MPD1    C2 2710   2.333   0.593   0.482  1.0870 -0.4385  0.1570
  178MPD1    C3 2711   2.460   0.608   0.424  0.0336 -0.4523 -0.0770
  178MPD1    C4 2712   2.560   0.669   0.493  0.8505  0.1498 -0.2289
  178MPD1    C5 2713   2.523   0.731   0.607 -0.8163 -0.5871 -0.3265
  178MPD1     H 2714   2.249   0.563   0.420  1.9140 -0.9188 -0.7338
  178MPD1    H1 2715   2.663   0.673   0.460  0.2970  1.2898 -1.8165
  178MPD1    H2 2716   2.397   0.778   0.763 -1.0820  1.0109 -0.3626
  178MPD1    H3 2717   2.603   0.785   0.656 -0.1557 -0.4978 -1.5020
  178MPD1     N 2718   2.493   0.545   0.299  0.7097 -0.3335  0.2335
  178MPD1    H5 2719   2.580   0.570   0.252  0.5840  1.9288  1.1683
  178MPD1    N1 2720   2.174   0.639   0.659 -0.1159  0.4668 -0.2530
  178MPD1    H6 2721   2.104   0.666   0.590 -0.1615  0.9529 -0.0153
  178MPD1    H7 2722   2.175   0.707   0.734 -0.2166 -1.1146  1.1623
  179MPD1     C 2723   2.307   4.232  16.297 -0.1127 -0.4917 -0.7233
  179MPD1    C1 2724   2.326   4.181  16.168  0.3827  0.5579 -0.0659
  179MPD1    C2 2725   2.318   4.044  16.145  0.1826  0.4209 -0.1509
  179MPD1    C3 2726   2.291   3.961  16.254  0.1963  0.6706 -0.3399
  179MPD1    C4 2727   2.280   4.013  16.386 -0.0738 -0.1300 -0.9369
  179MPD1    C5 2728   2.294   4.150  16.409  0.3767  0.4297 -0.2637
  179MPD1     H 2729   2.327   4.001  16.046 -3.0204  0.4411 -0.4516
  179MPD1    H1 2730   2.262   3.952  16.474  0.2071  1.1529  0.0038
  179MPD1    H2 2731   2.314   4.340  16.307 -1.7119 -0.4405 -0.0578
  179MPD1    H3 2732   2.287   4.188  16.510  0.5163  1.0274 -0.4825
  179MPD1     N 2733   2.272   3.827  16.243  0.5454  1.0372  0.0674
  179MPD1    H5 2734   2.247   3.783  16.331 -0.4384  1.0004 -0.2252
  179MPD1    N1 2735   2.332   4.266  16.056 -0.3148 -0.1025  0.5392
  179MPD1    H6 2736   2.376   4.220  15.977  2.1818  3.8487 -0.3344
  179MPD1    H7 2737   2.375   4.356  16.075 -0.5624 -0.1986  1.5251
  180MPD1     C 2738   1.183   4.453  15.417 -0.0099  0.1521 -0.3939
  180MPD1    C1 2739   1.174   4.436  15.282 -0.1609  1.1224 -0.1137
  180MPD1    C2 2740   1.266   4.483  15.192  0.5936  0.4110  0.3944
  180MPD1    C3 2741   1.379   4.549  15.241 -0.5106 -0.2766  0.3747
  180MPD1    C4 2742   1.388   4.567  15.378 -0.2038 -0.4540  0.5245
  180MPD1    C5 2743   1.286   4.530  15.463  0.5589 -0.0219  0.3328
  180MPD1     H 2744   1.261   4.462  15.085  0.8590 -3.0291  1.0411
  180MPD1    H1 2745   1.478   4.610  15.421  0.6525 -1.3856 -0.3406
  180MPD1    H2 2746   1.113   4.419  15.493  0.2613  1.1416  0.2956
  180MPD1    H3 2747   1.297   4.543  15.570 -0.0699 -1.7033  0.6017
  180MPD1     N 2748   1.483   4.585  15.152  0.8761 -0.5959  0.0573
  180MPD1    H5 2749   1.462   4.577  15.053  1.1221  2.6139 -0.2385
  180MPD1    N1 2750   1.063   4.363  15.235 -0.3306 -0.5960  0.3608
  180MPD1    H6 2751   1.082   4.319  15.146 -0.8367  1.3024 -0.6762
  180MPD1    H7 2752   1.044   4.298  15.312 -1.0463 -0.7870  0.0205
  181MPD1     C 2753   0.174   2.599   9.065  0.6292  0.4727 -0.4068
  181MPD1    C1 2754   0.092   2.484   9.076  0.0500  0.1982  0.1505
  181MPD1    C2 2755   0.071   2.437   9.205  0.1432 -0.3815 -0.2306
  181MPD1    C3 2756   0.120   2.512   9.316  0.3348  0.2115  0.5975
  181MPD1    C4 2757   0.191   2.625   9.298  0.0996 -0.6549  0.0595
  181MPD1    C5 2758   0.218   2.664   9.169 -0.5402 -0.1628 -0.0153
  181MPD1     H 2759   0.000   2.356   9.212 -1.6509  1.2191  0.1554
  181MPD1    H1 2760   0.228   2.690   9.377 -1.4375  1.0404 -0.6112
  181MPD1    H2 2761   0.197   2.640   8.967 -0.8112  0.2964 -0.8195
  181MPD1    H3 2762   0.282   2.750   9.154 -0.7817  0.0785  0.3202
  181MPD1     N 2763   0.099   2.477   9.452 -0.0448 -0.0764 -0.0482
  181MPD1    H5 2764   0.140   2.539   9.521  0.9502 -1.5088  0.6450
  181MPD1    N1 2765   0.058   2.410   8.963  0.5255  0.2783  0.7584
  181MPD1    H6 2766   4.690   2.367   8.967  0.7349 -0.3052 -0.9434
  181MPD1    H7 2767   0.067   2.462   8.877  0.7235 -1.5020 -0.3007
  182MPD1     C 2768   4.198   1.043   0.706  0.3906  0.0011 -0.0337
  182MPD1    C1 2769   4.168   0.973   0.817  0.0338 -0.2827  0.0792
  182MPD1    C2 2770   4.160   0.836   0.806  0.6187  0.3504  0.0385
  182MPD1    C3 2771   4.201   0.769   0.688  0.3448  0.0370 -0.4339
  182MPD1    C4 2772   4.225   0.840   0.579 -0.0326  0.8306 -0.1571
  182MPD1    C5 2773   4.222   0.978   0.588  1.0843 -0.0380 -0.2341
  182MPD1     H 2774   4.141   0.770   0.890  0.7788  0.5113  0.2005
  182MPD1    H1 2775   4.245   0.790   0.485  1.0789 -0.8169  0.9422
  182MPD1    H2 2776   4.193   1.152   0.706 -1.5445 -0.0792 -1.0223
  182MPD1    H3 2777   4.230   1.039   0.498  1.7698  1.1235  0.6220
  182MPD1     N 2778   4.188   0.628   0.669  1.0974  0.2137  0.6648
  182MPD1    H5 2779   4.214   0.585   0.581 -1.6600  0.9371 -0.5032
  182MPD1    N1 2780   4.115   1.044   0.928 -0.2055  0.5579  0.0378
  182MPD1    H6 2781   4.138   0.994   1.014  0.9847 -1.3043 -1.3727
  182MPD1    H7 2782   4.152   1.139   0.934 -0.1330  0.5579 -0.4479
  183MPD1     C 2783   0.062   1.391   9.180 -0.4765  0.0154  0.2315
  183MPD1    C1 2784   0.056   1.382   9.321 -0.2304 -0.6518  0.0961
  183MPD1    C2 2785   0.102   1.490   9.391  0.2969  0.1194  0.0596
  183MPD1    C3 2786   0.153   1.610   9.335  0.0791 -0.1494  0.0697
  183MPD1    C4 2787   0.153   1.608   9.191  0.0658  0.0118 -0.4130
  183MPD1    C5 2788   0.118   1.496   9.128  0.2176 -0.1850  0.6597
  183MPD1     H 2789   0.102   1.487   9.500  1.2224  0.0082  0.0588
  183MPD1    H1 2790   0.200   1.692   9.141 -1.8264  2.0320  1.2105
  183MPD1    H2 2791   0.023   1.311   9.118  0.8578 -1.3725  1.1824
  183MPD1    H3 2792   0.118   1.495   9.020  1.5074  1.8680  0.6323
  183MPD1     N 2793   0.193   1.724   9.418 -0.0812  0.4487 -0.3182
  183MPD1    H5 2794   0.189   1.700   9.517 -2.8811 -0.9115 -0.7670
  183MPD1    N1 2795   4.705   1.280   9.387 -0.1446 -0.2037  0.0543
  183MPD1    H6 2796   4.710   1.188   9.344 -1.3475  0.4222 -1.4101
  183MPD1    H7 2797   0.001   1.273   9.487  2.1166 -1.3540 -0.4540
  184MPD1     C 2798   4.048   3.945  10.085  0.1387  0.4351 -1.0764
  184MPD1    C1 2799   4.005   4.037  10.168 -0.1730 -0.1352  0.0305
  184MPD1    C2 2800   3.986   4.167  10.128 -0.0445 -0.1715 -0.5294
  184MPD1    C3 2801   3.986   4.202   9.991  1.0807  0.7108  0.3635
  184MPD1    C4 2802   4.020   4.103   9.905 -0.0566 -0.9171  0.9609
  184MPD1    C5 2803   4.046   3.976   9.954 -0.1930 -0.5749 -0.7796
  184MPD1     H 2804   3.967   4.244  10.201 -1.8252 -0.0438 -1.1412
  184MPD1    H1 2805   4.037   4.126   9.800  0.9236 -0.4092  1.2371
  184MPD1    H2 2806   4.077   3.846  10.119 -0.6433  0.6534  0.2236
  184MPD1    H3 2807   4.073   3.896   9.886 -0.3791 -1.4665  0.1954
  184MPD1     N 2808   3.985   4.331   9.942 -0.8909  0.8504 -0.3350
  184MPD1    H5 2809   4.017   4.351   9.847  0.2161 -0.9078 -0.3334
  184MPD1    N1 2810   4.019   4.014  10.306  0.0149 -0.0357 -1.1181
  184MPD1    H6 2811   4.019   3.913  10.315 -0.2537 -0.1214 -2.0963
  184MPD1    H7 2812   3.945   4.055  10.363  0.4808 -0.2112 -0.3859
  185MPD1     C 2813   3.827   0.229   9.173 -0.3201  0.1555 -0.4935
  185MPD1    C1 2814   3.857   0.101   9.199  0.0642  0.2250 -0.2067
  185MPD1    C2 2815   3.876   0.061   9.328 -0.6067 -0.1270 -0.4167
  185MPD1    C3 2816   3.846   0.141   9.436 -0.6986 -0.9909 -0.4309
  185MPD1    C4 2817   3.795   0.268   9.409 -0.0207  0.7425  0.6592
  185MPD1    C5 2818   3.792   0.312   9.279 -0.0449  0.6916  0.0197
  185MPD1     H 2819   3.921   4.688   9.349  1.4897  1.0123  0.2929
  185MPD1    H1 2820   3.772   0.348   9.478 -0.8851  0.1682  1.0451
  185MPD1    H2 2821   3.816   0.273   9.075 -1.9659  1.2714  0.1744
  185MPD1    H3 2822   3.772   0.416   9.253 -2.6258  0.2063  0.0054
  185MPD1     N 2823   3.856   0.107   9.568  0.7538 -0.0325 -0.2967
  185MPD1    H5 2824   3.827   0.170   9.641  0.3519  0.9489 -1.3105
  185MPD1    N1 2825   3.894   0.014   9.094 -0.5143 -0.2138 -0.3847
  185MPD1    H6 2826   3.852   0.039   9.005 -0.3731  0.3132 -0.3023
  185MPD1    H7 2827   3.897   4.638   9.114 -2.1628 -0.1820  0.0362
  186MPD1     C 2828   2.806   3.211  16.223  0.5968 -1.3058 -0.2251
  186MPD1    C1 2829   2.861   3.340  16.203 -0.4389  0.4240 -0.1465
  186MPD1    C2 2830   2.805   3.455  16.261  0.4234 -0.9499 -0.2603
  186MPD1    C3 2831   2.691   3.436  16.344  0.5059 -0.1801 -0.4368
  186MPD1    C4 2832   2.647   3.310  16.363 -0.2678 -0.2940  0.1722
  186MPD1    C5 2833   2.700   3.199  16.301 -0.4051 -0.8941  0.1854
  186MPD1     H 2834   2.840   3.554  16.234 -0.5641 -0.2063  1.1825
  186MPD1    H1 2835   2.573   3.277  16.435 -0.6366 -0.0124 -0.0804
  186MPD1    H2 2836   2.847   3.118  16.185 -0.0135 -1.3570 -0.7683
  186MPD1    H3 2837   2.677   3.097  16.332 -0.6249 -1.8465 -3.1534
  186MPD1     N 2838   2.631   3.538  16.412  0.8305 -0.0831  0.1465
  186MPD1    H5 2839   2.551   3.518  16.471  1.0812  2.2819  1.2875
  186MPD1    N1 2840   2.955   3.355  16.093 -0.4904  0.4780 -0.5012
  186MPD1    H6 2841   3.021   3.429  16.118 -0.8253  0.7664 -0.4751
  186MPD1    H7 2842   3.011   3.271  16.076  1.2061  1.2614  1.1181
  187MPD1     C 2843   2.342   0.960   0.360  0.0337  0.3332 -0.9374
  187MPD1    C1 2844   2.246   0.886   0.300  0.4055 -0.0165 -0.1030
  187MPD1    C2 2845   2.117   0.928   0.309 -1.0674 -0.4794  0.4231
  187MPD1    C3 2846   2.060   1.027   0.385  0.7467 -0.0105 -0.7157
  187MPD1    C4 2847   2.162   1.082   0.458  0.0084 -0.3664  0.0117
  187MPD1    C5 2848   2.292   1.055   0.448 -0.1776  0.3742 -0.8627
  187MPD1     H 2849   2.052   0.872   0.242  0.9293 -1.0949 -0.9917
  187MPD1    H1 2850   2.133   1.165   0.522  0.4358 -1.4922  1.6606
  187MPD1    H2 2851   2.449   0.945   0.349  0.1575  0.4389  0.1057
  187MPD1    H3 2852   2.360   1.119   0.503  2.1382 -3.0324  0.1904
  187MPD1     N 2853   1.923   1.056   0.386 -0.2134  0.1214  0.0650
  187MPD1    H5 2854   1.901   1.137   0.443  0.6070  2.2123 -2.5944
  187MPD1    N1 2855   2.277   0.794   0.202 -0.2260  0.0104 -0.4336
  187MPD1    H6 2856   2.368   0.750   0.213 -0.5201 -0.5481 -0.2171
  187MPD1    H7 2857   2.205   0.723   0.217  0.4690 -0.5656  0.1998
  188MPD1     C 2858   2.412   1.253  10.124 -0.4659  0.3204  0.6120
  188MPD1    C1 2859   2.276   1.284  10.138  0.2184  0.4699  0.1425
  188MPD1    C2 2860   2.184   1.185  10.105  1.1142  0.9921 -0.3898
  188MPD1    C3 2861   2.226   1.057  10.066 -0.2263  0.7326  0.0378
  188MPD1    C4 2862   2.359   1.029  10.069  0.2371  0.0888  0.2161
  188MPD1    C5 2863   2.451   1.126  10.104  0.1363 -0.1515 -0.4780
  188MPD1     H 2864   2.079   1.211  10.095  0.1606 -2.4812  0.4150
  188MPD1    H1 2865   2.396   0.932  10.036  0.1816  0.6686 -1.5193
  188MPD1    H2 2866   2.491   1.326  10.140 -0.4921  0.6351 -0.6558
  188MPD1    H3 2867   2.556   1.101  10.100  0.5711  1.7222 -0.4914
  188MPD1     N 2868   2.148   0.942  10.030 -0.2233 -0.2979  0.1962
  188MPD1    H5 2869   2.187   0.849  10.022  1.7088  0.6707 -1.3557
  188MPD1    N1 2870   2.233   1.418  10.157 -0.3081 -0.1294 -0.3658
  188MPD1    H6 2871   2.285   1.474  10.225 -1.6220 -0.0057  0.5325
  188MPD1    H7 2872   2.136   1.414  10.185  0.2627  0.3010  1.7006
  189MPD1     C 2873   2.020   1.088  17.118 -0.0959  0.1792  0.3964
  189MPD1    C1 2874   1.997   1.033  17.241  0.3173  0.1337  0.3859
  189MPD1    C2 2875   2.062   1.082  17.350  0.2394  0.1582 -0.1949
  189MPD1    C3 2876   2.139   1.197  17.343 -0.1620  0.2559 -0.1158
  189MPD1    C4 2877   2.131   1.275  17.230  0.0738 -0.7447  0.2029
  189MPD1    C5 2878   2.075   1.217  17.119  0.3282  0.2573  0.0629
  189MPD1     H 2879   2.056   1.042  17.450  2.7217 -2.5587 -1.1363
  189MPD1    H1 2880   2.172   1.375  17.216 -2.8923  0.6549  1.4449
  189MPD1    H2 2881   1.995   1.033  17.028  0.1294 -0.6778  0.8635
  189MPD1    H3 2882   2.079   1.270  17.024  3.2038  0.7016  0.4270
  189MPD1     N 2883   2.188   1.241  17.470 -0.7451 -0.2488  0.2753
  189MPD1    H5 2884   2.178   1.181  17.551  1.2578 -2.4912 -1.1212
  189MPD1    N1 2885   1.935   0.907  17.246  1.2717 -0.5519  0.5316
  189MPD1    H6 2886   1.902   0.891  17.341 -0.8362 -1.2544 -0.3007
  189MPD1    H7 2887   1.854   0.896  17.184  1.0466  2.1659  0.3575
  190MPD1     C 2888   1.623   4.643  15.832  0.1580  0.6193  0.2455
  190MPD1    C1 2889   1.703   4.708  15.741 -0.0120 -0.1572 -0.6128
  190MPD1    C2 2890   1.822   0.035  15.794 -0.2932  0.0642  0.2617
  190MPD1    C3 2891   1.852   0.033  15.935 -0.1030  0.2979  0.0752
  190MPD1    C4 2892   1.763   4.686  16.015 -0.1619  0.3792  0.2079
  190MPD1    C5 2893   1.650   4.634  15.963 -0.0479  0.1706  0.6664
  190MPD1     H 2894   1.888   0.101  15.739 -2.4422  0.5483 -1.7267
  190MPD1    H1 2895   1.778   4.681  16.122 -1.2278  0.8872  0.3812
  190MPD1    H2 2896   1.532   4.595  15.797  0.1755 -0.6809  1.9835
  190MPD1    H3 2897   1.576   4.578  16.020  0.5821  1.8037  3.0806
  190MPD1     N 2898   1.969   0.103  15.982 -0.1558 -0.2805  0.1486
  190MPD1    H5 2899   2.022   0.160  15.917  0.2980 -0.5200  0.3116
  190MPD1    N1 2900   1.651   0.025  15.618  0.0609 -0.0043  0.0367
  190MPD1    H6 2901   1.721   0.018  15.544  0.4271  1.0538  0.2910
  190MPD1    H7 2902   1.571   4.689  15.596  0.0096 -0.0537  0.3531
  191MPD1     C 2903   1.941   1.946  12.934  0.2640  0.7641  0.0949
  191MPD1    C1 2904   1.875   1.837  12.884  0.0340 -0.3590  0.5824
  191MPD1    C2 2905   1.858   1.831  12.748  0.0513 -0.2559 -0.8689
  191MPD1    C3 2906   1.907   1.930  12.663 -0.5432  0.1878  0.4663
  191MPD1    C4 2907   1.990   2.027  12.716  0.3229  0.3832  0.1401
  191MPD1    C5 2908   2.006   2.034  12.854  0.9596 -0.2620  0.0715
  191MPD1     H 2909   1.798   1.751  12.706  0.8283 -0.5632 -1.3912
  191MPD1    H1 2910   2.033   2.109  12.659 -2.2956  2.4410  1.1411
  191MPD1    H2 2911   1.958   1.959  13.041 -1.6887 -0.5341  0.5516
  191MPD1    H3 2912   2.044   2.120  12.907  0.7998  0.1610 -0.5042
  191MPD1     N 2913   1.866   1.933  12.530  0.0003  0.3462  0.2269
  191MPD1    H5 2914   1.819   1.847  12.502  2.6345 -0.6448 -1.2235
  191MPD1    N1 2915   1.825   1.733  12.976 -0.1947  0.4573 -0.2847
  191MPD1    H6 2916   1.789   1.783  13.057  0.6134  0.9528 -0.2291
  191MPD1    H7 2917   1.751   1.684  12.927 -0.1622  1.2630 -1.1498
  192MPD1     C 2918   1.542   2.724  11.882  0.8563  0.6390 -0.1471
  192MPD1    C1 2919   1.505   2.683  12.010 -0.6233  0.4791 -0.7155
  192MPD1    C2 2920   1.564   2.568  12.064 -0.3016 -0.6686  0.3213
  192MPD1    C3 2921   1.666   2.500  11.990 -0.7311 -0.4610  0.2214
  192MPD1    C4 2922   1.703   2.551  11.867 -0.2886 -0.1152 -0.2856
  192MPD1    C5 2923   1.636   2.658  11.814 -0.2376  0.4816 -0.0957
  192MPD1     H 2924   1.536   2.533  12.163 -0.4553  0.7493  0.7774
  192MPD1    H1 2925   1.791   2.516  11.815  0.0227 -1.2610  0.9893
  192MPD1    H2 2926   1.490   2.807  11.835  0.9272 -0.4821 -2.1723
  192MPD1    H3 2927   1.677   2.682  11.716  0.4420  1.8559  0.5251
  192MPD1     N 2928   1.742   2.390  12.038 -0.2554  0.3347  0.2780
  192MPD1    H5 2929   1.801   2.350  11.965  0.4421  1.8142  0.0200
  192MPD1    N1 2930   1.395   2.747  12.075  0.1403  0.4423 -0.5287
  192MPD1    H6 2931   1.383   2.722  12.173  1.6393  0.2996 -0.3870
  192MPD1    H7 2932   1.412   2.847  12.065  3.0372 -0.0073  0.0158
  193MPD1     C 2933   1.250   2.031   0.045 -0.5185  0.4487 -0.4176
  193MPD1    C1 2934   1.144   2.088  17.681  0.9079 -1.1547  0.1281
  193MPD1    C2 2935   1.177   2.193  17.609  0.0644 -0.8763  0.2144
  193MPD1    C3 2936   1.313   2.249  17.615  1.2664  0.6015  0.0005
  193MPD1    C4 2937   1.413   2.194  17.693  0.1780 -0.2497 -0.4191
  193MPD1    C5 2938   1.382   2.074   0.051  0.1294  0.9046  0.2685
  193MPD1     H 2939   1.105   2.242  17.545 -0.6063 -2.5328 -0.2968
  193MPD1    H1 2940   1.515   2.231   0.005  0.6349 -1.7878  0.6843
  193MPD1    H2 2941   1.223   1.940   0.098  0.0672  1.5683  1.7901
  193MPD1    H3 2942   1.454   2.009   0.100 -0.4395 -0.8960 -1.2476
  193MPD1     N 2943   1.346   2.371  17.546 -0.4185  0.2431 -0.0873
  193MPD1    H5 2944   1.441   2.406  17.553 -1.4541  3.0585 -0.0669
  193MPD1    N1 2945   1.020   2.022  17.655 -0.2984  0.7952 -0.3208
  193MPD1    H6 2946   0.986   1.976   0.043  0.3258 -0.1140 -0.5659
  193MPD1    H7 2947   0.949   2.077  17.608 -0.6418  0.4432 -0.2132
  194MPD1     C 2948   3.950   4.122  16.322 -0.0422  0.3975 -1.1981
  194MPD1    C1 2949   3.949   4.170  16.450  0.1971  0.3035 -0.6125
  194MPD1    C2 2950   4.061   4.134  16.537  0.2724 -0.1184  0.3601
  194MPD1    C3 2951   4.155   4.043  16.487 -0.4816  0.3076  0.2289
  194MPD1    C4 2952   4.147   3.997  16.366 -0.4040  0.9272  0.1384
  194MPD1    C5 2953   4.046   4.033  16.283  0.6760 -0.1488 -0.1193
  194MPD1     H 2954   4.079   4.165  16.639  1.8232  2.8204 -0.8192
  194MPD1    H1 2955   4.219   3.935  16.313  1.8423  3.1061  0.6410
  194MPD1    H2 2956   3.864   4.150  16.262 -0.3589  2.1951  0.0843
  194MPD1    H3 2957   4.043   3.993  16.182 -1.3862 -0.4033  0.0312
  194MPD1     N 2958   4.266   3.997  16.563  0.3959 -0.1624 -0.6861
  194MPD1    H5 2959   4.309   3.913  16.526  0.3106 -0.1870 -0.7314
  194MPD1    N1 2960   3.836   4.238  16.488  0.6901 -0.4868  0.6377
  194MPD1    H6 2961   3.807   4.297  16.411  1.7727 -1.9158 -0.8744
  194MPD1    H7 2962   3.869   4.311  16.551  2.0606  0.2089 -0.8859
  195MPD1     C 2963   0.395   1.951   0.369  0.0294  0.1059  0.7685
  195MPD1    C1 2964   0.314   1.856   0.424  0.2079  0.1323 -0.0683
  195MPD1    C2 2965   0.370   1.753   0.496 -0.4476 -0.1586  0.2617
  195MPD1    C3 2966   0.508   1.723   0.490  0.0430  0.3599  0.7987
  195MPD1    C4 2967   0.579   1.808   0.407 -0.1715  0.9164  0.3354
  195MPD1    C5 2968   0.527   1.921   0.349 -0.1124  0.1883  0.3739
  195MPD1     H 2969   0.298   1.689   0.547  1.5941 -0.9716  2.1287
  195MPD1    H1 2970   0.687   1.800   0.403 -0.2358 -0.0208  0.2738
  195MPD1    H2 2971   0.352   2.039   0.323  0.8104  0.1654  0.1460
  195MPD1    H3 2972   0.594   1.998   0.313 -0.4496  0.2423 -0.1321
  195MPD1     N 2973   0.574   1.617   0.557  0.5732 -0.1184  0.2112
  195MPD1    H5 2974   0.675   1.616   0.569  0.4866  0.3497  0.9596
  195MPD1    N1 2975   0.178   1.892   0.445 -0.4411 -0.0112 -0.9118
  195MPD1    H6 2976   0.116   1.812   0.461  0.1796 -0.0508  1.2721
  195MPD1    H7 2977   0.143   1.948   0.368 -0.7283  1.5017  0.3123
  196MPD1     C 2978   4.692   4.659   1.340 -0.3825 -0.0900  1.3066
  196MPD1    C1 2979   0.051   0.023   1.264 -0.2728  0.4952 -0.8015
  196MPD1    C2 2980   0.158   0.093   1.324  0.4199  0.0380  0.4345
  196MPD1    C3 2981   0.172   0.090   1.463 -1.0270  0.1189 -0.3340
  196MPD1    C4 2982   0.091   0.011   1.537  0.5472  0.1768  0.8574
  196MPD1    C5 2983   4.718   4.661   1.474 -0.2703  0.6261  0.3075
  196MPD1     H 2984   0.235   0.137   1.261  0.3553 -0.1286  0.2375
  196MPD1    H1 2985   0.103   0.002   1.645  0.6053 -0.5761  0.7858
  196MPD1    H2 2986   4.608   4.598   1.313  0.2324  0.3823 -1.6656
  196MPD1    H3 2987   4.662   4.592   1.537  1.2666 -1.0244 -0.1197
  196MPD1     N 2988   0.271   0.162   1.540 -0.3735  0.6521 -0.3388
  196MPD1    H5 2989   0.265   0.144   1.639 -2.0421  1.2261 -0.3367
  196MPD1    N1 2990   0.041   0.020   1.122  0.4898 -0.5697  0.1142
  196MPD1    H6 2991   0.075   0.103   1.074 -0.6718  0.0841  0.4357
  196MPD1    H7 2992   4.670   0.011   1.086  0.6061 -0.0296 -0.3219
  197MPD1     C 2993   4.502   2.238   0.213 -0.0288 -0.0368  0.1371
  197MPD1    C1 2994   4.597   2.315   0.262  1.1586 -0.2415  0.8009
  197MPD1    C2 2995   4.638   2.416   0.177  0.1316  0.4143  0.2626
  197MPD1    C3 2996   4.586   2.431   0.048 -0.3042 -0.0806 -0.3111
  197MPD1    C4 2997   4.494   2.340  17.692  0.6295  0.5761 -0.3558
  197MPD1    C5 2998   4.452   2.247   0.087  0.6592 -0.0892 -0.1601
  197MPD1     H 2999   4.706   2.488   0.220  2.4424 -1.3218 -0.5121
  197MPD1    H1 3000   4.463   2.350  17.589 -0.2176 -1.2423 -0.2874
  197MPD1    H2 3001   4.456   2.165   0.279  0.3184 -1.0244 -0.7108
  197MPD1    H3 3002   4.365   2.188   0.061  0.3758 -0.3108  1.3388
  197MPD1     N 3003   4.637   2.529  17.657 -0.1586 -0.0873  0.2988
  197MPD1    H5 3004   4.597   2.524  17.564  0.3788  1.4642 -0.0121
  197MPD1    N1 3005   4.634   2.302   0.397 -0.3462  0.2357  0.6201
  197MPD1    H6 3006   4.640   2.206   0.428 -0.4046  0.7144  2.0978
  197MPD1    H7 3007   0.006   2.334   0.383 -0.0588 -0.6105  0.6842
  198MPD1     C 3008   1.964   2.293  15.801 -0.2540 -0.2325  0.1496
  198MPD1    C1 3009   1.908   2.194  15.730  0.4910 -0.3346 -0.2211
  198MPD1    C2 3010   1.964   2.069  15.737 -0.3347  0.2213 -0.4701
  198MPD1    C3 3011   2.068   2.049  15.828 -0.0683  0.2507  0.2374
  198MPD1    C4 3012   2.126   2.150  15.897  0.5185  0.6063 -0.2740
  198MPD1    C5 3013   2.072   2.276  15.882 -0.1651 -0.4695  0.0033
  198MPD1     H 3014   1.924   1.980  15.690 -1.8223  0.6703 -0.0845
  198MPD1    H1 3015   2.208   2.136  15.966 -0.6123  3.2920  1.6147
  198MPD1    H2 3016   1.919   2.391  15.799  0.9787  0.3420  0.3492
  198MPD1    H3 3017   2.108   2.361  15.939  0.5494 -1.4955  1.0804
  198MPD1     N 3018   2.107   1.914  15.839 -0.1172 -0.1299  0.5076
  198MPD1    H5 3019   2.067   1.850  15.772 -1.5854  0.8105  0.4958
  198MPD1    N1 3020   1.804   2.218  15.637 -0.3189  0.0156 -0.7918
  198MPD1    H6 3021   1.734   2.275  15.684  0.4417  0.0345  0.3145
  198MPD1    H7 3022   1.753   2.142  15.592  0.2944 -0.7891 -0.1328
  199MPD1     C 3023   3.380   2.973   9.828 -0.1243 -0.0204 -0.3591
  199MPD1    C1 3024   3.262   2.916   9.775  0.2460 -0.4098 -0.1822
  199MPD1    C2 3025   3.281   2.831   9.664 -0.5880  0.1032 -0.3998
  199MPD1    C3 3026   3.405   2.781   9.636 -0.0362  0.4170 -0.1566
  199MPD1    C4 3027   3.513   2.824   9.708  0.0439 -0.2013 -0.5947
  199MPD1    C5 3028   3.506   2.921   9.797  0.9850  0.2209 -0.5669
  199MPD1     H 3029   3.194   2.807   9.605 -0.6421  0.8292 -0.6125
  199MPD1    H1 3030   3.613   2.783   9.696  0.6573  1.4150 -0.9682
  199MPD1    H2 3031   3.380   3.049   9.906  3.1886 -0.6429  0.2268
  199MPD1    H3 3032   3.595   2.954   9.850  0.5399  0.8612 -0.2056
  199MPD1     N 3033   3.433   2.688   9.536  0.6084  0.0556  0.2327
  199MPD1    H5 3034   3.532   2.666   9.528  0.9091  0.2639  3.7202
  199MPD1    N1 3035   3.132   2.970   9.803  0.2675 -0.3487  0.6639
  199MPD1    H6 3036   3.132   3.009   9.897  2.2792  0.0649  0.4851
  199MPD1    H7 3037   3.061   2.898   9.790 -0.1441  0.2047 -0.1311
  200MPD1     C 3038   2.597   2.160  14.724 -1.1536 -0.2388 -0.0682
  200MPD1    C1 3039   2.556   2.274  14.666 -0.3207  0.3704 -0.1616
  200MPD1    C2 3040   2.646   2.364  14.620 -0.1062  0.1110 -0.0041
  200MPD1    C3 3041   2.783   2.343  14.619 -0.1183  0.4080  0.2212
  200MPD1    C4 3042   2.826   2.224  14.678  1.3220 -0.5829 -0.1426
  200MPD1    C5 3043   2.730   2.140  14.725 -0.7461  0.0837  0.1617
  200MPD1     H 3044   2.607   2.451  14.567  1.1136  1.6059  1.5545
  200MPD1    H1 3045   2.927   2.184  14.672  2.0169  1.1487  0.0496
  200MPD1    H2 3046   2.534   2.077  14.753 -1.7633  0.7747  1.5833
  200MPD1    H3 3047   2.771   2.043  14.750  1.0266  0.0563 -2.7719
  200MPD1     N 3048   2.869   2.429  14.545 -0.1571 -0.0626 -0.1607
  200MPD1    H5 3049   2.829   2.510  14.499 -0.4205 -0.9731 -1.5401
  200MPD1    N1 3050   2.420   2.304  14.664  0.0017  0.6759  0.0316
  200MPD1    H6 3051   2.360   2.221  14.658  0.5894  0.2762 -0.2912
  200MPD1    H7 3052   2.397   2.349  14.576  0.6954 -1.7262 -1.3926
  201MPD1     C 3053   1.025   1.887  13.261  0.5670  0.0110  0.3225
  201MPD1    C1 3054   0.987   1.765  13.213  0.0900 -0.1301  0.1005
  201MPD1    C2 3055   1.055   1.662  13.268 -0.3375 -0.2023 -0.2897
  201MPD1    C3 3056   1.123   1.673  13.387  0.0074  0.4097  0.3132
  201MPD1    C4 3057   1.170   1.798  13.424  0.1109  0.2653 -0.2792
  201MPD1    C5 3058   1.118   1.904  13.361 -0.1772  0.3787 -0.4984
  201MPD1     H 3059   1.023   1.563  13.236 -1.8238  0.8317 -2.0494
  201MPD1    H1 3060   1.239   1.813  13.506 -0.4323 -0.9666  0.4084
  201MPD1    H2 3061   0.982   1.976  13.216  0.9414  0.4656  0.8570
  201MPD1    H3 3062   1.157   1.999  13.397 -1.3451  0.4505  0.5792
  201MPD1     N 3063   1.162   1.552  13.457  0.5163 -0.0283  0.1274
  201MPD1    H5 3064   1.127   1.464  13.421 -1.3499  0.5136  0.6581
  201MPD1    N1 3065   0.906   1.749  13.096  0.3304 -0.9453  0.4844
  201MPD1    H6 3066   0.841   1.827  13.092 -0.1019 -1.3734 -0.7486
  201MPD1    H7 3067   0.843   1.668  13.099 -0.1471 -0.5596  0.9262
  202MPD1     C 3068   0.155   0.530   9.628 -0.0877 -0.1240  0.0147
  202MPD1    C1 3069   0.210   0.652   9.592  0.3530  0.5440 -0.3148
  202MPD1    C2 3070   0.240   0.742   9.689 -0.3723  0.9131  0.2669
  202MPD1    C3 3071   0.195   0.707   9.823  0.7740 -0.5333 -0.1094
  202MPD1    C4 3072   0.139   0.587   9.857  0.1841 -0.1288 -0.4212
  202MPD1    C5 3073   0.122   0.502   9.757  0.1860  0.1207  0.6187
  202MPD1     H 3074   0.284   0.838   9.666 -0.1663  0.0542 -2.9432
  202MPD1    H1 3075   0.113   0.560   9.959  0.3462 -0.7470 -0.5389
  202MPD1    H2 3076   0.144   0.449   9.556  1.7902 -0.5685  0.2382
  202MPD1    H3 3077   0.098   0.398   9.777  0.6625  0.3382  2.3167
  202MPD1     N 3078   0.216   0.792   9.936 -0.0556  0.8329 -0.5478
  202MPD1    H5 3079   0.196   0.757  10.029 -2.3018 -0.3519 -1.4693
  202MPD1    N1 3080   0.291   0.650   9.481 -0.2849 -0.2631 -0.3126
  202MPD1    H6 3081   0.306   0.748   9.459  2.8795 -0.6811  0.0753
  202MPD1    H7 3082   0.247   0.602   9.403  4.4476 -1.8302 -2.0049
  203MPD1     C 3083   4.644   2.683  12.657  0.2122  0.1653 -0.2860
  203MPD1    C1 3084   4.611   2.562  12.599  0.4721  1.1865 -1.0816
  203MPD1    C2 3085   4.645   2.450  12.673 -0.6952 -0.2806  0.2823
  203MPD1    C3 3086   4.708   2.456  12.800 -0.0384  0.2429  0.1227
  203MPD1    C4 3087   0.012   2.580  12.854  0.4988  0.3318 -0.4843
  203MPD1    C5 3088   4.702   2.691  12.782  1.4226 -0.4897  0.4963
  203MPD1     H 3089   4.617   2.349  12.644 -1.2861  0.4066 -1.5665
  203MPD1    H1 3090   0.065   2.580  12.949  1.6911  2.1217 -1.1596
  203MPD1    H2 3091   4.608   2.776  12.615  0.9352  0.6428  0.1601
  203MPD1    H3 3092   4.714   2.790  12.826 -0.8618 -0.1407  0.3040
  203MPD1     N 3093   0.016   2.328  12.859 -0.0449 -0.4826 -0.2268
  203MPD1    H5 3094   0.004   2.244  12.804 -0.9473  0.0324 -0.8165
  203MPD1    N1 3095   4.525   2.552  12.489  0.2183 -0.2722  0.3602
  203MPD1    H6 3096   4.541   2.618  12.413  3.1707  0.2918  1.4779
  203MPD1    H7 3097   4.533   2.457  12.455 -0.1806 -0.6696  1.3684
  204MPD1     C 3098   2.809   2.425   0.383  0.0234 -0.3620  0.0056
  204MPD1    C1 3099   2.886   2.330   0.445  0.5157 -0.1094 -0.3688
  204MPD1    C2 3100   2.993   2.275   0.372  0.3757  0.1461  0.0032
  204MPD1    C3 3101   3.024   2.317   0.247 -0.0896 -0.0901 -1.2809
  204MPD1    C4 3102   2.934   2.406   0.187  0.4161  0.4594  0.1269
  204MPD1    C5 3103   2.826   2.459   0.253 -0.4932 -0.1282  0.4019
  204MPD1     H 3104   3.072   2.215   0.417 -1.7043 -2.0033  0.7636
  204MPD1    H1 3105   2.942   2.439   0.084  1.9410 -0.2561  0.0140
  204MPD1    H2 3106   2.722   2.471   0.429 -2.0927 -3.7387 -0.6140
  204MPD1    H3 3107   2.773   2.534   0.197 -1.8061 -0.7706  0.7981
  204MPD1     N 3108   3.141   2.260   0.182 -0.8562  0.0867 -0.1471
  204MPD1    H5 3109   3.206   2.217   0.248 -3.0643 -0.6570  1.5597
  204MPD1    N1 3110   2.879   2.310   0.584  0.0820 -0.1499  0.3132
  204MPD1    H6 3111   2.785   2.335   0.617  0.1829  1.1852 -0.4046
  204MPD1    H7 3112   2.904   2.215   0.609  2.7699  0.6960  0.8449
  205MPD1     C 3113   4.581   1.339  17.554  0.1104 -0.1470 -0.2025
  205MPD1    C1 3114   4.474   1.424  17.533  0.1031 -0.1924 -0.2387
  205MPD1    C2 3115   4.343   1.376  17.560  0.2416  0.9899 -0.4262
  205MPD1    C3 3116   4.321   1.262  17.629 -0.0171 -0.2829  1.0407
  205MPD1    C4 3117   4.432   1.177  17.647 -1.1202  0.3235  0.4982
  205MPD1    C5 3118   4.555   1.213  17.606  0.6654  0.1894 -0.2052
  205MPD1     H 3119   4.260   1.443  17.542 -1.2298 -0.7795 -0.2694
  205MPD1    H1 3120   4.429   1.079  17.693  2.4363 -0.1472 -0.3588
  205MPD1    H2 3121   4.680   1.375  17.531 -0.7076  1.7602 -0.7093
  205MPD1    H3 3122   4.642   1.153  17.627  1.1887  0.7285 -0.8195
  205MPD1     N 3123   4.191   1.227  17.679  0.1363 -0.6006 -0.0076
  205MPD1    H5 3124   4.181   1.134   0.023  1.7488 -1.1066 -0.7744
  205MPD1    N1 3125   4.496   1.532  17.450 -0.5345  0.4861 -0.2689
  205MPD1    H6 3126   4.585   1.577  17.468 -0.1303 -1.4382  2.7234
  205MPD1    H7 3127   4.424   1.604  17.450 -2.4336 -1.3823  2.0763
  206MPD1     C 3128   0.235   4.321  16.380  0.3195  0.1126 -0.3104
  206MPD1    C1 3129   0.228   4.416  16.280  0.5903 -1.2011  0.0108
  206MPD1    C2 3130   0.111   4.430  16.211 -0.5245 -0.8322 -0.0201
  206MPD1    C3 3131   0.000   4.355  16.232 -0.1042 -1.0468  0.8346
  206MPD1    C4 3132   0.004   4.254  16.328 -0.6697  0.1667 -0.5779
  206MPD1    C5 3133   0.115   4.252  16.407 -0.6769  0.4737  0.3212
  206MPD1     H 3134   0.108   4.501  16.128 -2.5564  0.2552  0.9939
  206MPD1    H1 3135   4.638   4.200  16.357  0.2241 -2.0582 -1.9233
  206MPD1    H2 3136   0.327   4.310  16.435 -0.5736  1.2495  1.4255
  206MPD1    H3 3137   0.112   4.174  16.483  1.4733  2.0825  2.0648
  206MPD1     N 3138   4.605   4.398  16.172 -0.2714 -0.0547 -0.1345
  206MPD1    H5 3139   4.606   4.493  16.137 -2.7273  0.3249  0.8374
  206MPD1    N1 3140   0.329   4.496  16.233 -0.1629  0.1254  0.1312
  206MPD1    H6 3141   0.404   4.530  16.293  0.7903 -0.7211 -0.5770
  206MPD1    H7 3142   0.296   4.573  16.176  0.1824 -1.0670 -1.6659
  207MPD1     C 3143   0.668   2.004  10.969 -0.1132  0.1100  0.1167
  207MPD1    C1 3144   0.708   1.946  10.853  0.3328 -0.2056 -0.1303
  207MPD1    C2 3145   0.829   1.980  10.796  0.7685  0.5119  0.4412
  207MPD1    C3 3146   0.906   2.091  10.843 -0.4540  0.0140  0.3971
  207MPD1    C4 3147   0.846   2.160  10.952 -0.5080 -0.9560 -0.4479
  207MPD1    C5 3148   0.737   2.116  11.014  0.0101 -0.0967  0.2986
  207MPD1     H 3149   0.854   1.921  10.709 -1.3159  0.5004 -0.1684
  207MPD1    H1 3150   0.890   2.252  10.989 -1.2323 -0.6475 -0.3377
  207MPD1    H2 3151   0.588   1.966  11.031 -0.2483 -0.4699 -0.4213
  207MPD1    H3 3152   0.707   2.163  11.106 -1.5819  1.1631 -0.8613
  207MPD1     N 3153   1.035   2.123  10.793  0.2398  0.5975  0.5383
  207MPD1    H5 3154   1.094   2.172  10.860  1.4871  1.9609 -1.5686
  207MPD1    N1 3155   0.639   1.833  10.806 -0.1856  0.1194 -0.1514
  207MPD1    H6 3156   0.653   1.821  10.706  0.6856 -1.8762  0.2104
  207MPD1    H7 3157   0.540   1.837  10.829  0.2519  1.6272  1.4524
  208MPD1     C 3158   4.382   0.446  16.780  0.0604  0.1358  0.2294
  208MPD1    C1 3159   4.264   0.380  16.767  0.7524  0.3914 -0.5695
  208MPD1    C2 3160   4.207   0.324  16.882  0.3864  0.5594 -0.6748
  208MPD1    C3 3161   4.283   0.308  17.001  0.0819 -0.9264  0.4595
  208MPD1    C4 3162   4.404   0.371  17.006 -1.2128  0.5323  0.0952
  208MPD1    C5 3163   4.444   0.447  16.903 -0.4195  0.2457 -0.1279
  208MPD1     H 3164   4.108   0.281  16.893  1.3705 -1.3547  0.6759
  208MPD1    H1 3165   4.473   0.370  17.090 -1.3027  2.3070  0.1947
  208MPD1    H2 3166   4.420   0.498  16.694 -1.7427  1.3175  0.1457
  208MPD1    H3 3167   4.534   0.506  16.906  0.8825 -1.7100 -0.2294
  208MPD1     N 3168   4.234   0.240  17.118 -0.1963 -0.2030  0.3927
  208MPD1    H5 3169   4.136   0.217  17.125 -0.3277 -0.3757 -2.0277
  208MPD1    N1 3170   4.187   0.391  16.651 -0.5242 -0.5205 -0.2536
  208MPD1    H6 3171   4.251   0.368  16.575  0.8013  0.1141  0.6651
  208MPD1    H7 3172   4.112   0.324  16.637 -1.8465  0.4895  2.0877
  209MPD1     C 3173   1.786   1.293  11.531  0.3285  0.6639  0.0832
  209MPD1    C1 3174   1.702   1.392  11.571  0.3711 -0.3863 -0.0020
  209MPD1    C2 3175   1.730   1.525  11.540  0.1724 -0.4858 -0.4890
  209MPD1    C3 3176   1.858   1.554  11.493  0.4130  0.6440  0.4291
  209MPD1    C4 3177   1.956   1.451  11.463 -0.1547  0.5240 -0.0051
  209MPD1    C5 3178   1.917   1.321  11.479  0.7127  0.6168 -0.5747
  209MPD1     H 3179   1.661   1.599  11.578 -0.4960 -0.2841 -2.0886
  209MPD1    H1 3180   2.047   1.471  11.407 -0.7498  0.7694 -0.8810
  209MPD1    H2 3181   1.756   1.189  11.538 -0.7337  0.8601 -1.5640
  209MPD1    H3 3182   1.988   1.243  11.455  0.0611 -0.7382  1.9208
  209MPD1     N 3183   1.888   1.690  11.498 -0.5909 -0.0631 -0.7394
  209MPD1    H5 3184   1.816   1.756  11.525 -0.6601 -0.9916  1.3595
  209MPD1    N1 3185   1.576   1.368  11.624 -0.0327 -0.3685  0.4420
  209MPD1    H6 3186   1.541   1.453  11.668  2.6930  1.5545 -1.1371
  209MPD1    H7 3187   1.565   1.287  11.684 -2.0462 -0.6771 -0.3605
  210MPD1     C 3188   2.611   2.367  11.769  0.3700 -0.0621 -0.4204
  210MPD1    C1 3189   2.585   2.390  11.634  0.0903 -0.0269  0.6684
  210MPD1    C2 3190   2.492   2.310  11.571 -0.0273 -0.0420 -0.9499
  210MPD1    C3 3191   2.443   2.193  11.632  0.0217 -0.0180  0.2568
  210MPD1    C4 3192   2.490   2.164  11.754  0.2368  0.2679  0.6389
  210MPD1    C5 3193   2.564   2.256  11.826 -0.2470  0.0669 -0.3992
  210MPD1     H 3194   2.455   2.332  11.471 -0.3601 -1.6503 -1.1869
  210MPD1    H1 3195   2.450   2.088  11.821 -0.7849  0.6655  0.4757
  210MPD1    H2 3196   2.677   2.425  11.833 -1.6346  1.2698  0.4504
  210MPD1    H3 3197   2.585   2.248  11.932 -0.1341 -1.6448 -0.5411
  210MPD1     N 3198   2.333   2.121  11.582  0.1782  0.3635 -0.2460
  210MPD1    H5 3199   2.308   2.039  11.636 -4.4080  2.1669  0.3774
  210MPD1    N1 3200   2.632   2.506  11.573  0.1709 -0.1874  0.4144
  210MPD1    H6 3201   2.716   2.540  11.619  0.2781 -1.2157  0.9815
  210MPD1    H7 3202   2.643   2.492  11.472 -0.8384 -0.4604  0.3446
  211MPD1     C 3203   4.415   0.906  17.431 -0.0050  0.1182 -0.4268
  211MPD1    C1 3204   4.422   0.996  17.326 -0.1299  0.9987 -0.1847
  211MPD1    C2 3205   4.307   1.061  17.280  0.2099 -0.0487  0.7692
  211MPD1    C3 3206   4.194   1.044  17.351  0.9581 -0.1651 -0.2293
  211MPD1    C4 3207   4.189   0.958  17.458 -0.5414  0.1051  0.9258
  211MPD1    C5 3208   4.301   0.897  17.504 -0.2809 -0.5021 -0.3519
  211MPD1     H 3209   4.311   1.135  17.200 -3.1091 -0.3791  0.3068
  211MPD1    H1 3210   4.109   0.964  17.531  0.2235  0.0572  1.7690
  211MPD1    H2 3211   4.502   0.852  17.467  1.3901  1.8069 -1.2893
  211MPD1    H3 3212   4.295   0.838  17.595  1.4916 -0.2299 -0.0733
  211MPD1     N 3213   4.079   1.119  17.316 -0.2694 -0.3103  0.6445
  211MPD1    H5 3214   4.090   1.182  17.237  0.7562 -2.6137 -1.0744
  211MPD1    N1 3215   4.546   1.035  17.269  0.1959  0.4225 -0.7202
  211MPD1    H6 3216   4.628   0.976  17.272 -0.1269  0.0371  0.4197
  211MPD1    H7 3217   4.540   1.065  17.172 -0.5976 -2.2619 -1.4793
  212MPD1     C 3218   3.364   0.086  16.665 -0.3785  0.3553  0.4312
  212MPD1    C1 3219   3.320   0.107  16.793  0.2269 -0.5142 -0.6463
  212MPD1    C2 3220   3.258   0.002  16.857  0.5936 -0.3463  0.2635
  212MPD1    C3 3221   3.250   4.596  16.806 -0.7963  0.0415  0.0991
  212MPD1    C4 3222   3.295   4.582  16.675 -0.1216 -0.8300 -0.0785
  212MPD1    C5 3223   3.351   4.689  16.606  0.4117 -0.6398  0.1816
  212MPD1     H 3224   3.222   0.040  16.951 -0.8526 -2.3615  0.5133
  212MPD1    H1 3225   3.292   4.488  16.622 -0.3752 -0.3604 -0.8991
  212MPD1    H2 3226   3.413   0.167  16.612  0.0137  0.4045  0.8700
  212MPD1    H3 3227   3.384   4.669  16.505  0.7357  0.1079  0.1368
  212MPD1     N 3228   3.196   4.485  16.877 -0.4111  0.0135 -0.0289
  212MPD1    H5 3229   3.195   4.393  16.832  1.2917 -0.0865  0.1257
  212MPD1    N1 3230   3.340   0.231  16.846 -0.0014  0.1431 -0.1859
  212MPD1    H6 3231   3.375   0.310  16.792 -1.3634  0.8580 -0.0178
  212MPD1    H7 3232   3.373   0.235  16.942  1.5323  0.1341 -0.7167
  213MPD1     C 3233   1.635   1.340  16.283 -0.1532 -0.1756 -0.0635
  213MPD1    C1 3234   1.528   1.261  16.308 -0.2142  0.1357 -0.2333
  213MPD1    C2 3235   1.484   1.191  16.198 -0.0599  0.4761 -0.8598
  213MPD1    C3 3236   1.565   1.163  16.089  0.1882 -0.1135 -0.4650
  213MPD1    C4 3237   1.696   1.218  16.084  0.1287  0.3680  0.2783
  213MPD1    C5 3238   1.720   1.313  16.177  0.0857 -0.0455 -0.0560
  213MPD1     H 3239   1.383   1.151  16.200  0.3915 -0.6293  0.0061
  213MPD1    H1 3240   1.763   1.204  16.000  0.6359 -0.3419  0.8010
  213MPD1    H2 3241   1.674   1.399  16.366 -0.0873  0.1922 -0.3571
  213MPD1    H3 3242   1.811   1.372  16.176  0.3734 -0.4294  3.0750
  213MPD1     N 3243   1.506   1.079  15.990 -0.4079 -0.1606  0.3121
  213MPD1    H5 3244   1.412   1.042  16.000 -0.5325  0.0049 -0.2170
  213MPD1    N1 3245   1.453   1.299  16.418  0.6826 -0.1153 -0.2847
  213MPD1    H6 3246   1.508   1.314  16.502  1.1436 -0.6655 -0.4901
  213MPD1    H7 3247   1.380   1.229  16.433 -1.3241  1.1623 -4.0395
  214MPD1     C 3248   0.924   0.401  15.921  0.6789  0.0232 -0.0849
  214MPD1    C1 3249   1.007   0.364  15.820 -0.0796  0.5746  0.1125
  214MPD1    C2 3250   1.113   0.449  15.790 -0.4235 -0.5234 -0.1273
  214MPD1    C3 3251   1.145   0.562  15.872 -0.8037  0.7947 -0.3939
  214MPD1    C4 3252   1.064   0.597  15.969  0.9173  0.1054 -0.1541
  214MPD1    C5 3253   0.957   0.516  15.993 -0.2856 -0.9924 -0.0582
  214MPD1     H 3254   1.168   0.425  15.700  0.8907  0.0500  0.5182
  214MPD1    H1 3255   1.077   0.683  16.033 -1.0226  0.7501 -0.6197
  214MPD1    H2 3256   0.832   0.354  15.953  2.5060 -1.9259  2.3432
  214MPD1    H3 3257   0.895   0.560  16.071 -1.3306 -1.1220 -0.8070
  214MPD1     N 3258   1.253   0.659  15.846  0.1576 -0.7621  0.2461
  214MPD1    H5 3259   1.269   0.735  15.911 -3.6770  0.6698 -0.4707
  214MPD1    N1 3260   0.976   0.257  15.736  0.1533  0.4690  0.5634
  214MPD1    H6 3261   1.060   0.206  15.711  0.0488  0.7317 -0.3046
  214MPD1    H7 3262   0.908   0.191  15.773 -0.7863 -0.2286 -2.4214
  215MPD1     C 3263   0.772   1.801  11.364 -0.5672 -0.0426 -0.7017
  215MPD1    C1 3264   0.791   1.829  11.497  0.0963 -0.6456  0.8279
  215MPD1    C2 3265   0.873   1.937  11.532 -0.1706 -0.0539  0.0151
  215MPD1    C3 3266   0.922   2.020  11.429  0.1742 -0.4409  0.0439
  215MPD1    C4 3267   0.894   1.988  11.298  0.3124 -0.2042  0.7645
  215MPD1    C5 3268   0.815   1.883  11.264  0.0650 -0.0178  0.5580
  215MPD1     H 3269   0.898   1.962  11.634 -1.8167 -0.7134  0.5706
  215MPD1    H1 3270   0.931   2.048  11.216  0.8977 -2.8896 -0.9246
  215MPD1    H2 3271   0.725   1.707  11.338  0.7660 -0.6494 -0.8948
  215MPD1    H3 3272   0.793   1.865  11.160 -1.2443  1.7259  0.5314
  215MPD1     N 3273   0.999   2.133  11.464 -0.1067  0.4683  0.0114
  215MPD1    H5 3274   1.042   2.131  11.556  1.8550  0.0564 -0.9146
  215MPD1    N1 3275   0.784   1.731  11.598  0.1709 -0.8537 -0.3724
  215MPD1    H6 3276   0.788   1.774  11.690  0.3677  1.4806 -1.4825
  215MPD1    H7 3277   0.710   1.663  11.582 -0.3706 -0.2003 -0.6701
  216MPD1     C 3278   3.957   3.725  16.479 -0.5290  0.4337  0.4862
  216MPD1    C1 3279   3.934   3.596  16.437  0.4216  0.6462  0.0398
  216MPD1    C2 3280   3.925   3.497  16.533 -0.2710 -0.2697 -0.6650
  216MPD1    C3 3281   3.954   3.527  16.669  0.4437 -0.0931 -0.6558
  216MPD1    C4 3282   3.961   3.660  16.704  0.4423  0.1570  0.1741
  216MPD1    C5 3283   3.975   3.756  16.609  0.1009 -0.0096  0.2102
  216MPD1     H 3284   3.920   3.395  16.497  0.3926 -0.4257 -0.3095
  216MPD1    H1 3285   3.979   3.681  16.809 -0.1213 -0.0759  0.3147
  216MPD1    H2 3286   3.961   3.803  16.405 -0.6655 -0.9920 -1.0207
  216MPD1    H3 3287   3.975   3.861  16.633  1.8777  0.1542 -0.5063
  216MPD1     N 3288   3.934   3.418  16.754  0.3003  0.2525 -0.4534
  216MPD1    H5 3289   3.889   3.339  16.708  0.9719 -0.5123  0.2136
  216MPD1    N1 3290   3.930   3.557  16.303  0.1236  0.6085 -0.7879
  216MPD1    H6 3291   3.861   3.601  16.243 -0.0859  0.6500 -0.5145
  216MPD1    H7 3292   3.884   3.466  16.300  1.0917  0.1864 -3.1383
  217MPD1     C 3293   4.042   0.584   9.154 -0.2470 -0.1071 -0.3919
  217MPD1    C1 3294   4.167   0.531   9.178 -0.4780 -0.4705 -0.3508
  217MPD1    C2 3295   4.211   0.545   9.308  0.1547 -0.3485  0.2179
  217MPD1    C3 3296   4.126   0.599   9.409 -0.0360 -0.8654 -0.2434
  217MPD1    C4 3297   4.003   0.645   9.383  0.6572  0.2422 -0.7406
  217MPD1    C5 3298   3.965   0.642   9.253  1.0331 -0.2156  0.0304
  217MPD1     H 3299   4.313   0.516   9.327  0.0872 -0.1561  0.8715
  217MPD1    H1 3300   3.934   0.690   9.454 -0.0906  0.2352 -1.4570
  217MPD1    H2 3301   4.007   0.589   9.052  2.5342 -1.0743 -1.3824
  217MPD1    H3 3302   3.864   0.675   9.231  1.0114 -1.3511 -1.4997
  217MPD1     N 3303   4.173   0.627   9.538 -0.0546 -0.5813 -0.2563
  217MPD1    H5 3304   4.121   0.693   9.595  1.9165 -0.5564  1.5363
  217MPD1    N1 3305   4.253   0.476   9.079  0.1771  0.7335  0.0334
  217MPD1    H6 3306   4.200   0.432   9.004 -0.3742 -1.0388  1.4899
  217MPD1    H7 3307   4.289   0.558   9.028  0.0134 -0.2692 -1.6922
  218MPD1     C 3308   1.214   2.500  13.195  0.3269 -0.5871  0.0638
  218MPD1    C1 3309   1.240   2.530  13.062 -0.1668 -0.2516 -0.4917
  218MPD1    C2 3310   1.277   2.422  12.978 -0.3498 -0.0509 -0.1132
  218MPD1    C3 3311   1.284   2.292  13.032  0.5184 -0.3130 -0.2498
  218MPD1    C4 3312   1.248   2.278  13.164 -0.2970 -0.7859 -0.4517
  218MPD1    C5 3313   1.205   2.379  13.243  0.5464 -0.9302  0.3787
  218MPD1     H 3314   1.315   2.439  12.878 -0.1307 -1.2110 -0.2246
  218MPD1    H1 3315   1.241   2.183  13.215 -0.1657 -0.4349  0.2206
  218MPD1    H2 3316   1.201   2.588  13.256 -0.2686 -0.7257  0.1347
  218MPD1    H3 3317   1.184   2.357  13.347 -0.5376 -0.3918  0.2749
  218MPD1     N 3318   1.332   2.190  12.952  0.1069 -0.2817 -0.0714
  218MPD1    H5 3319   1.353   2.219  12.857 -1.1999 -1.8135 -0.8132
  218MPD1    N1 3320   1.260   2.667  13.025 -0.3390 -0.8218  0.0410
  218MPD1    H6 3321   1.262   2.676  12.924  0.2131 -0.0029  0.1280
  218MPD1    H7 3322   1.194   2.731  13.068 -0.3865 -0.5317 -0.4744
  219MPD1     C 3323   1.396   1.916  11.995 -0.8734  0.4816 -0.2291
  219MPD1    C1 3324   1.437   2.024  12.072 -0.0683 -0.1109  0.3961
  219MPD1    C2 3325   1.429   2.023  12.210  0.4874 -0.1912  0.2610
  219MPD1    C3 3326   1.387   1.911  12.280  0.1594  0.0708 -0.7676
  219MPD1    C4 3327   1.338   1.812  12.204  0.3954 -0.1622  0.6513
  219MPD1    C5 3328   1.334   1.824  12.066  0.1538 -0.3258 -0.1707
  219MPD1     H 3329   1.454   2.114  12.263  1.0218 -0.0917 -0.1577
  219MPD1    H1 3330   1.290   1.728  12.253  0.0431 -0.2551  0.1473
  219MPD1    H2 3331   1.399   1.922  11.887  2.4301  2.7687 -0.0251
  219MPD1    H3 3332   1.274   1.745  12.023  2.3922 -0.9521 -2.1196
  219MPD1     N 3333   1.403   1.891  12.418 -0.4861  0.7111 -0.9450
  219MPD1    H5 3334   1.376   1.795  12.440  1.4213  0.3458 -0.2179
  219MPD1    N1 3335   1.493   2.134  12.003  1.0704  0.0885 -0.2512
  219MPD1    H6 3336   1.463   2.225  12.038  2.4875  1.7123 -3.2679
  219MPD1    H7 3337   1.457   2.139  11.908 -0.3116 -1.1929  0.2096
  220MPD1     C 3338   1.111   2.944   9.820 -0.2609 -0.4854  0.2783
  220MPD1    C1 3339   1.206   2.952   9.923  0.0430 -0.3718  0.2514
  220MPD1    C2 3340   1.185   2.883  10.042  0.3499  0.7360 -0.4267
  220MPD1    C3 3341   1.079   2.790  10.048 -0.4826  0.1826 -0.2822
  220MPD1    C4 3342   0.985   2.785   9.946 -0.4199 -0.0218  0.5168
  220MPD1    C5 3343   1.006   2.850   9.827 -0.0965 -0.3811 -0.5470
  220MPD1     H 3344   1.248   2.897  10.129  0.2818 -0.6788 -0.1517
  220MPD1    H1 3345   0.895   2.725   9.944  0.5078 -1.3641 -1.0486
  220MPD1    H2 3346   1.128   2.995   9.726 -2.1693  1.3635  0.9307
  220MPD1    H3 3347   0.937   2.843   9.743  2.6083  0.4086 -2.8366
  220MPD1     N 3348   1.072   2.708  10.160  0.3496  0.5744 -0.2295
  220MPD1    H5 3349   1.144   2.720  10.231 -0.3224  1.3723  0.3246
  220MPD1    N1 3350   1.313   3.039   9.907  0.3872  0.0712 -0.5942
  220MPD1    H6 3351   1.337   3.058   9.810 -3.3264 -0.7142 -1.6684
  220MPD1    H7 3352   1.391   2.990   9.950  0.2299 -1.9030 -2.5703
  221MPD1     C 3353   4.576   0.502  17.650  0.0346 -0.1267 -0.2254
  221MPD1    C1 3354   4.444   0.493  17.670  0.0819 -0.1940  0.6050
  221MPD1    C2 3355   4.368   0.533  17.560  0.6348 -0.2443  0.9480
  221MPD1    C3 3356   4.428   0.553  17.435  0.2377  0.6434 -0.1409
  221MPD1    C4 3357   4.565   0.536  17.419  0.0648  0.7098  0.5118
  221MPD1    C5 3358   4.638   0.512  17.529 -0.4339 -0.1926 -0.6900
  221MPD1     H 3359   4.263   0.559  17.569  1.3021  1.3921  3.9399
  221MPD1    H1 3360   4.608   0.539  17.320  2.1120 -0.9133  1.3698
  221MPD1    H2 3361   4.647   0.486   0.034  0.1137 -0.9385 -0.4516
  221MPD1    H3 3362   0.020   0.492  17.519 -0.3988 -0.0896 -0.5276
  221MPD1     N 3363   4.355   0.585  17.318 -0.1085 -0.1587 -0.0609
  221MPD1    H5 3364   4.415   0.614  17.241 -0.9702  1.3376 -0.1784
  221MPD1    N1 3365   4.396   0.472   0.109  0.7209 -0.5747 -0.0907
  221MPD1    H6 3366   4.435   0.385   0.146  1.1930 -0.4376 -0.2612
  221MPD1    H7 3367   4.295   0.461   0.103  0.7194  1.1594 -3.0934
  222MPD1     C 3368   3.698   4.399  17.042  0.0590  0.5924 -0.4926
  222MPD1    C1 3369   3.559   4.414  17.032  0.0073 -0.1801  0.5715
  222MPD1    C2 3370   3.481   4.391  17.143 -0.0367  0.7131 -0.9569
  222MPD1    C3 3371   3.533   4.325  17.255  0.3603  0.1397  0.5107
  222MPD1    C4 3372   3.667   4.287  17.252  0.1475 -0.3964 -0.4567
  222MPD1    C5 3373   3.748   4.333  17.150 -0.2875  0.2894 -0.1138
  222MPD1     H 3374   3.374   4.409  17.146 -0.2193 -0.4392 -0.1191
  222MPD1    H1 3375   3.705   4.235  17.339 -0.2458 -2.7777 -1.7305
  222MPD1    H2 3376   3.753   4.422  16.951  1.6280  0.5482  0.4311
  222MPD1    H3 3377   3.855   4.318  17.160 -0.5036  0.0610  1.7094
  222MPD1     N 3378   3.458   4.311  17.378 -0.0736 -0.0921  0.6949
  222MPD1    H5 3379   3.496   4.248  17.448 -0.7027 -1.0065  0.2253
  222MPD1    N1 3380   3.503   4.442  16.903  0.0695  0.0744  0.3206
  222MPD1    H6 3381   3.422   4.503  16.903  1.0740  1.4096 -2.2400
  222MPD1    H7 3382   3.565   4.476  16.830  1.8198 -0.7968  1.4027
  223MPD1     C 3383   3.520   3.558   0.048 -0.0440 -0.0747  0.2674
  223MPD1    C1 3384   3.506   3.586  17.614 -0.2596  0.2501 -0.0040
  223MPD1    C2 3385   3.445   3.703  17.582 -0.3117 -0.4149  0.1902
  223MPD1    C3 3386   3.398   3.787  17.686 -0.4845  0.5172 -0.2704
  223MPD1    C4 3387   3.407   3.760   0.122  0.1127  0.1276  0.0074
  223MPD1    C5 3388   3.466   3.639   0.144 -0.2325 -0.2229  0.0665
  223MPD1     H 3389   3.445   3.732  17.478 -1.6795 -0.1562  0.2636
  223MPD1    H1 3390   3.367   3.822   0.202 -1.1857 -3.5417  2.2413
  223MPD1    H2 3391   3.587   3.481   0.086 -0.1105 -0.6822 -0.8433
  223MPD1    H3 3392   3.482   3.612   0.248 -1.3075 -2.7910 -0.4330
  223MPD1     N 3393   3.324   3.902  17.640 -0.2568 -0.0738  0.3343
  223MPD1    H5 3394   3.318   3.913  17.540 -0.2491 -2.3199  0.0881
  223MPD1    N1 3395   3.576   3.510  17.515  0.0671 -0.3296  0.2282
  223MPD1    H6 3396   3.535   3.520  17.422  2.2357 -0.5258 -0.7326
  223MPD1    H7 3397   3.571   3.413  17.546 -3.7115 -0.0695  0.5146
  224MPD1     C 3398   4.547   0.749   9.540 -0.1037  0.6314  0.4052
  224MPD1    C1 3399   4.484   0.871   9.511 -0.1535  0.5495  0.1488
  224MPD1    C2 3400   4.507   0.975   9.604  0.1325 -0.2698  0.0561
  224MPD1    C3 3401   4.557   0.952   9.729 -0.4351 -0.2842  0.7988
  224MPD1    C4 3402   4.602   0.825   9.760 -1.0801 -0.1731  0.4362
  224MPD1    C5 3403   4.600   0.730   9.659 -0.2227 -0.4961  0.5191
  224MPD1     H 3404   4.472   1.073   9.576  0.0456  0.0995  1.4428
  224MPD1    H1 3405   4.649   0.789   9.851  1.0583  1.7601  0.0791
  224MPD1    H2 3406   4.548   0.666   9.471  1.2673  1.4229 -0.5294
  224MPD1    H3 3407   4.656   0.639   9.674  1.8838  0.6715 -0.1964
  224MPD1     N 3408   4.566   1.048   9.835 -0.2398  0.1217  0.3391
  224MPD1    H5 3409   4.597   1.013   9.925  0.8277 -1.9259 -0.8198
  224MPD1    N1 3410   4.443   0.910   9.381 -0.3984 -0.5284  0.0207
  224MPD1    H6 3411   4.381   0.989   9.365  0.8975  0.1597 -1.6716
  224MPD1    H7 3412   4.400   0.831   9.335  0.3865 -1.2869  0.5856
  225MPD1     C 3413   1.801   3.647  12.392  0.3777 -0.0013 -0.0575
  225MPD1    C1 3414   1.801   3.525  12.463 -0.4747 -0.3717 -1.1003
  225MPD1    C2 3415   1.685   3.446  12.458 -0.2983 -0.3921  0.1216
  225MPD1    C3 3416   1.562   3.507  12.423 -0.5065 -0.2775  0.1370
  225MPD1    C4 3417   1.568   3.626  12.351 -0.1838  0.5170  0.7092
  225MPD1    C5 3418   1.683   3.690  12.338 -0.1456  0.0163 -0.1140
  225MPD1     H 3419   1.694   3.342  12.489 -1.7470 -0.1166  1.5113
  225MPD1    H1 3420   1.483   3.674  12.305 -0.8715 -0.8102  0.5745
  225MPD1    H2 3421   1.890   3.703  12.363 -1.3294  3.1787  0.8100
  225MPD1    H3 3422   1.687   3.774  12.270 -1.5705 -0.4898 -0.8131
  225MPD1     N 3423   1.436   3.456  12.449 -0.2709  0.0290  0.4220
  225MPD1    H5 3424   1.360   3.512  12.412  1.0113  0.4323 -1.6073
  225MPD1    N1 3425   1.924   3.460  12.475  0.3202  0.2501  0.0464
  225MPD1    H6 3426   1.988   3.537  12.491  1.5798 -0.8750  0.4670
  225MPD1    H7 3427   1.918   3.404  12.560  0.1456  1.5212  0.8604
  226MPD1     C 3428   0.328   2.688   8.716 -0.3258  0.4673 -0.2028
  226MPD1    C1 3429   0.389   2.601   8.805 -0.4524 -0.4887 -0.3268
  226MPD1    C2 3430   0.473   2.655   8.899  0.3386  1.0827 -1.0813
  226MPD1    C3 3431   0.472   2.795   8.918 -1.3882 -0.2461  0.0869
  226MPD1    C4 3432   0.404   2.877   8.832 -0.3082 -0.2887  0.3671
  226MPD1    C5 3433   0.328   2.819   8.736  0.1898  0.4793 -0.0854
  226MPD1     H 3434   0.530   2.591   8.966  1.4705  1.9005 -1.2587
  226MPD1    H1 3435   0.398   2.985   8.837 -1.0012 -0.3139  0.0390
  226MPD1    H2 3436   0.267   2.645   8.638  1.9963  1.7220 -2.7000
  226MPD1    H3 3437   0.271   2.885   8.673 -0.2383  2.6312  2.5588
  226MPD1     N 3438   0.550   2.850   9.027 -0.3665  0.4825 -0.8589
  226MPD1    H5 3439   0.579   2.785   9.100 -1.7863 -0.8558 -1.4702
  226MPD1    N1 3440   0.391   2.463   8.781  0.8463 -0.4141  0.3054
  226MPD1    H6 3441   0.310   2.439   8.725  0.5119 -1.8392  1.4168
  226MPD1    H7 3442   0.395   2.395   8.857  2.4136 -1.7832 -1.0299
  227MPD1     C 3443   1.306   3.564   9.365  0.2826  0.0277 -0.0067
  227MPD1    C1 3444   1.296   3.475   9.466 -0.3278  0.7960 -0.3394
  227MPD1    C2 3445   1.189   3.394   9.467  0.3049 -0.2834 -0.2930
  227MPD1    C3 3446   1.111   3.374   9.356 -0.2763 -0.5040 -0.3828
  227MPD1    C4 3447   1.130   3.459   9.246  0.1144  0.3825  0.1551
  227MPD1    C5 3448   1.227   3.550   9.253  0.3148 -0.1589  0.2131
  227MPD1     H 3449   1.183   3.336   9.558 -0.4295  1.5417  0.8226
  227MPD1    H1 3450   1.083   3.453   9.148 -1.0731 -2.1500  0.8961
  227MPD1    H2 3451   1.390   3.633   9.358 -0.4381  1.0551  1.5264
  227MPD1    H3 3452   1.255   3.620   9.175  1.0447  2.9035  3.2025
  227MPD1     N 3453   1.004   3.282   9.351 -0.0123 -0.2666 -0.3055
  227MPD1    H5 3454   0.988   3.223   9.433  0.0534  0.4657  0.2375
  227MPD1    N1 3455   1.389   3.480   9.565 -0.0280 -0.0211 -0.6074
  227MPD1    H6 3456   1.482   3.500   9.530  0.7767 -3.1688 -0.1694
  227MPD1    H7 3457   1.396   3.396   9.621 -0.0002  0.5842  0.3099
  228MPD1     C 3458   3.690   0.379  13.228  0.0114  0.0900  0.6614
  228MPD1    C1 3459   3.618   0.443  13.134  0.7911 -0.3339 -0.5615
  228MPD1    C2 3460   3.494   0.401  13.102 -0.1865  0.1705 -1.0566
  228MPD1    C3 3461   3.432   0.292  13.162 -0.3972 -0.1813  0.5746
  228MPD1    C4 3462   3.508   0.222  13.257 -0.3916  0.2743  0.0568
  228MPD1    C5 3463   3.640   0.267  13.289 -0.5080 -0.5376  0.2466
  228MPD1     H 3464   3.451   0.458  13.020 -1.0902 -0.2048 -0.8408
  228MPD1    H1 3465   3.464   0.136  13.307 -1.0385 -0.2416 -1.4252
  228MPD1    H2 3466   3.786   0.410  13.267 -0.0683  0.9853  0.1366
  228MPD1    H3 3467   3.708   0.214  13.355 -0.0866  0.4399  0.6037
  228MPD1     N 3468   3.299   0.258  13.117 -0.4789  0.4387  0.6142
  228MPD1    H5 3469   3.245   0.314  13.052  0.1158 -1.0972 -1.2121
  228MPD1    N1 3470   3.689   0.525  13.046 -0.2466  0.1818  0.1769
  228MPD1    H6 3471   3.771   0.562  13.093  1.3825  0.3151 -2.8247
  228MPD1    H7 3472   3.630   0.599  13.009 -0.2855  0.6310  1.1273
  229MPD1     C 3473   2.058   4.201  14.742 -0.5070 -0.0521 -0.8927
  229MPD1    C1 3474   2.032   4.237  14.871  0.1985  0.1392 -0.0449
  229MPD1    C2 3475   2.106   4.176  14.967 -0.7451 -0.1569  0.2022
  229MPD1    C3 3476   2.169   4.059  14.936  0.4308 -0.0159  0.4240
  229MPD1    C4 3477   2.175   4.013  14.806 -0.5447 -0.1795  0.2323
  229MPD1    C5 3478   2.139   4.100  14.710 -0.6275  0.1179 -0.6583
  229MPD1     H 3479   2.085   4.205  15.069 -2.9783 -1.2300  0.0638
  229MPD1    H1 3480   2.227   3.925  14.772 -0.4448 -0.0977  0.1726
  229MPD1    H2 3481   2.017   4.263  14.663 -1.1449  0.3552 -0.2395
  229MPD1    H3 3482   2.152   4.059  14.610 -2.1501  1.7398 -1.5104
  229MPD1     N 3483   2.229   3.973  15.028 -0.3234  0.4920 -0.0577
  229MPD1    H5 3484   2.262   3.883  14.996 -1.1951 -1.0009  3.2418
  229MPD1    N1 3485   1.961   4.349  14.896 -0.1027  0.0151  0.8187
  229MPD1    H6 3486   1.890   4.363  14.825  0.7786  0.1951 -0.0295
  229MPD1    H7 3487   1.915   4.353  14.987  0.0533  0.1046  0.8940
  230MPD1     C 3488   2.554   3.575  16.018  0.4591 -0.4834 -0.1780
  230MPD1    C1 3489   2.534   3.470  15.931  0.4033 -0.5207  0.2064
  230MPD1    C2 3490   2.517   3.506  15.801  0.0525 -0.1228 -0.6138
  230MPD1    C3 3491   2.500   3.636  15.763 -1.0234  0.2229  0.0517
  230MPD1    C4 3492   2.521   3.734  15.853  0.4396 -0.0528  0.5831
  230MPD1    C5 3493   2.551   3.703  15.978 -0.0422  0.0610  0.3771
  230MPD1     H 3494   2.508   3.431  15.723  2.7258 -0.7727 -0.2958
  230MPD1    H1 3495   2.517   3.838  15.823 -1.7207 -0.6395 -1.1106
  230MPD1    H2 3496   2.576   3.569  16.124 -0.2439  0.5749  0.0132
  230MPD1    H3 3497   2.576   3.783  16.047  1.1201 -0.1958  0.2475
  230MPD1     N 3498   2.481   3.661  15.624  0.2925 -0.0933  0.0940
  230MPD1    H5 3499   2.476   3.583  15.560  0.9093 -0.4532  0.4893
  230MPD1    N1 3500   2.568   3.339  15.971  0.5640  0.1063  0.7504
  230MPD1    H6 3501   2.569   3.337  16.073  2.0155 -2.3612  0.6926
  230MPD1    H7 3502   2.506   3.271  15.928  2.0464 -1.2311  0.7404
  231MPD1     C 3503   0.366   0.586  15.956 -0.1384  0.0770  0.3031
  231MPD1    C1 3504   0.420   0.504  15.862  0.5741  0.0554  0.4425
  231MPD1    C2 3505   0.541   0.540  15.801  0.4754 -0.0584  0.5901
  231MPD1    C3 3506   0.600   0.661  15.830  0.4369 -0.0352 -0.3323
  231MPD1    C4 3507   0.542   0.744  15.926 -0.0649  0.3672 -0.6772
  231MPD1    C5 3508   0.430   0.702  15.994  0.4111  0.0068 -0.4380
  231MPD1     H 3509   0.590   0.479  15.727 -0.1490 -1.2457  1.1663
  231MPD1    H1 3510   0.579   0.845  15.932  0.9402 -0.0576  0.1872
  231MPD1    H2 3511   0.290   0.545  16.021 -0.5503  1.1054  0.4687
  231MPD1    H3 3512   0.406   0.760  16.083 -0.4087  0.6642 -1.0855
  231MPD1     N 3513   0.714   0.700  15.748 -0.0793 -0.5493  0.3194
  231MPD1    H5 3514   0.731   0.648  15.663 -0.8521 -1.0714  0.4903
  231MPD1    N1 3515   0.366   0.381  15.816  0.1805  0.2950 -0.2932
  231MPD1    H6 3516   0.336   0.404  15.722  2.0830 -2.0653 -1.4868
  231MPD1    H7 3517   0.289   0.343  15.871 -0.2644  1.7142  0.0707
  232MPD1     C 3518   2.517   1.957   0.651  0.3970 -0.2696 -0.4325
  232MPD1    C1 3519   2.407   2.012   0.713  0.3259 -0.0243  0.4431
  232MPD1    C2 3520   2.356   2.132   0.667 -0.4872 -0.1407  0.0977
  232MPD1    C3 3521   2.416   2.191   0.555 -1.1389  0.4127 -0.5374
  232MPD1    C4 3522   2.513   2.119   0.483 -0.4239  0.6227  0.2578
  232MPD1    C5 3523   2.561   2.002   0.534 -0.1325 -0.3117  0.1293
  232MPD1     H 3524   2.269   2.178   0.712 -0.8766  0.8036 -1.6203
  232MPD1    H1 3525   2.548   2.145   0.383 -0.8514 -0.3681 -0.1467
  232MPD1    H2 3526   2.563   1.872   0.699 -0.4147 -0.1463  0.5503
  232MPD1    H3 3527   2.649   1.949   0.499 -0.6206 -0.1864 -1.2763
  232MPD1     N 3528   2.367   2.310   0.502 -0.1884  0.0590  0.0198
  232MPD1    H5 3529   2.305   2.363   0.563 -0.4129  0.6677 -0.7478
  232MPD1    N1 3530   2.385   1.970   0.843 -0.3579 -0.3541 -0.0373
  232MPD1    H6 3531   2.402   1.870   0.845 -1.1107 -0.4531  2.3398
  232MPD1    H7 3532   2.291   1.993   0.876 -1.1506 -0.6323 -2.0927
  233MPD1     C 3533   2.732   0.715   1.132 -0.5957  1.4663 -0.2503
  233MPD1    C1 3534   2.692   0.616   1.046  0.1612  0.1366 -0.0206
  233MPD1    C2 3535   2.788   0.524   1.009  0.3435  0.5568 -0.3105
  233MPD1    C3 3536   2.892   0.498   1.093 -0.1374  0.2364 -0.3207
  233MPD1    C4 3537   2.917   0.580   1.194  0.1486 -0.0518  0.2753
  233MPD1    C5 3538   2.843   0.688   1.205  0.0172 -0.7288  0.2871
  233MPD1     H 3539   2.761   0.449   0.935 -1.3401  1.3024 -0.4643
  233MPD1    H1 3540   3.002   0.571   1.261 -1.0197 -0.0630  1.7660
  233MPD1    H2 3541   2.671   0.805   1.142 -1.3152  1.0935 -1.3241
  233MPD1    H3 3542   2.863   0.756   1.287 -1.1395 -1.3040  1.0501
  233MPD1     N 3543   2.975   0.382   1.094  0.5904  0.2697  0.3032
  233MPD1    H5 3544   3.053   0.387   1.158  1.5783 -1.1023 -0.8205
  233MPD1    N1 3545   2.577   0.635   0.958  0.2024  0.1559  0.1807
  233MPD1    H6 3546   2.501   0.671   1.015 -0.0953 -1.0371  0.5357
  233MPD1    H7 3547   2.544   0.551   0.911 -0.4781 -0.2784  1.4347
  234MPD1     C 3548   0.603   4.560  10.862 -1.1477  0.2671 -0.3337
  234MPD1    C1 3549   0.611   4.577  10.722  0.2018 -0.4816  0.0830
  234MPD1    C2 3550   0.551   4.689  10.663  0.5046 -0.0190 -0.0223
  234MPD1    C3 3551   0.483   0.062  10.740  0.1973  0.6323  0.9115
  234MPD1    C4 3552   0.480   0.048  10.880 -0.5391 -0.0445 -0.9981
  234MPD1    C5 3553   0.544   4.663  10.941 -0.0370 -0.0397 -0.3387
  234MPD1     H 3554   0.556   4.702  10.556 -1.6054 -1.3864 -0.2873
  234MPD1    H1 3555   0.427   0.120  10.941  0.5322  1.0055 -1.3002
  234MPD1    H2 3556   0.624   4.464  10.907 -0.1899  0.6118 -0.0476
  234MPD1    H3 3557   0.540   4.654  11.049  2.1995  0.2061 -0.2305
  234MPD1     N 3558   0.430   0.181  10.680 -0.4716  0.0590  0.1377
  234MPD1    H5 3559   0.438   0.184  10.579  1.6513  2.8728  0.3902
  234MPD1    N1 3560   0.650   4.470  10.645  1.3224 -0.2011  0.3404
  234MPD1    H6 3561   0.736   4.427  10.678  1.2304 -0.8673 -0.2914
  234MPD1    H7 3562   0.648   4.485  10.544  2.0785 -2.6959 -0.0379
  235MPD1     C 3563   0.797   3.217  10.219  0.4764 -1.0190 -0.8246
  235MPD1    C1 3564   0.872   3.224  10.335 -0.5104 -1.1029  0.8937
  235MPD1    C2 3565   1.008   3.245  10.319  0.4970 -0.5792 -0.2399
  235MPD1    C3 3566   1.073   3.218  10.194  0.1410 -0.4912 -0.1038
  235MPD1    C4 3567   0.994   3.186  10.092  1.2171  0.0962 -0.4527
  235MPD1    C5 3568   0.855   3.202  10.093  0.4026 -0.3568  0.0950
  235MPD1     H 3569   1.067   3.284  10.401 -0.7287 -2.1227  1.3827
  235MPD1    H1 3570   1.024   3.178   9.989 -3.1246 -2.4394 -1.5323
  235MPD1    H2 3571   0.690   3.231  10.220  0.5703 -0.1335 -2.2728
  235MPD1    H3 3572   0.790   3.183  10.008  0.1848  1.2293 -0.0850
  235MPD1     N 3573   1.210   3.214  10.166  0.3985  0.3656 -0.1412
  235MPD1    H5 3574   1.249   3.198  10.073  0.0526 -3.2709  0.3286
  235MPD1    N1 3575   0.810   3.264  10.458 -0.2242 -0.1784 -0.3354
  235MPD1    H6 3576   0.720   3.217  10.459 -0.2309 -0.1213  1.8015
  235MPD1    H7 3577   0.864   3.255  10.544 -1.0174 -1.9085 -0.0147
  236MPD1     C 3578   0.484   4.598   9.647  0.1062  0.2960  0.5131
  236MPD1    C1 3579   0.598   4.656   9.597  0.0294  0.2903  0.0289
  236MPD1    C2 3580   0.721   4.607   9.631 -0.5545 -0.0987  0.0968
  236MPD1    C3 3581   0.738   4.497   9.717  0.6696  0.4633 -0.4305
  236MPD1    C4 3582   0.621   4.439   9.769 -0.5952 -0.9083  0.2897
  236MPD1    C5 3583   0.500   4.499   9.740 -0.3540  0.4150 -0.4214
  236MPD1     H 3584   0.813   4.651   9.594 -0.2696 -0.2141  0.6718
  236MPD1    H1 3585   0.632   4.352   9.833  1.3206 -0.3821  0.6564
  236MPD1    H2 3586   0.384   4.630   9.620  0.9389  0.9475 -1.8243
  236MPD1    H3 3587   0.410   4.454   9.780  1.4519 -1.2057  1.8144
  236MPD1     N 3588   0.867   4.455   9.745  0.0273  0.1250 -0.0721
  236MPD1    H5 3589   0.948   4.505   9.708  0.5412 -1.6079 -1.2817
  236MPD1    N1 3590   0.581   0.039   9.500 -0.3449  0.4263  0.0402
  236MPD1    H6 3591   0.501   0.094   9.529 -2.0808 -2.3263  0.4914
  236MPD1    H7 3592   0.668   0.092   9.491 -1.3213  2.0745  0.3816
  237MPD1     C 3593   1.194   1.569  15.812 -0.7737  0.6246  0.0822
  237MPD1    C1 3594   1.076   1.512  15.852  0.3447  0.3323  0.2399
  237MPD1    C2 3595   0.957   1.538  15.785 -0.2018 -0.9855  0.4279
  237MPD1    C3 3596   0.960   1.634  15.680 -0.5580  0.3803 -0.3832
  237MPD1    C4 3597   1.076   1.699  15.652  0.0814 -0.4480 -0.2344
  237MPD1    C5 3598   1.192   1.673  15.717 -0.2832  0.5989 -0.0561
  237MPD1     H 3599   0.865   1.486  15.812 -0.8856 -0.0990 -0.2058
  237MPD1    H1 3600   1.076   1.773  15.572  0.9519  0.4565  0.6111
  237MPD1    H2 3601   1.292   1.555  15.854 -0.2323 -1.2967 -1.8027
  237MPD1    H3 3602   1.281   1.725  15.685 -1.5737  1.7382 -1.8188
  237MPD1     N 3603   0.837   1.673  15.613  0.1730  0.4529  0.1011
  237MPD1    H5 3604   0.851   1.743  15.542  0.6044  0.2813  0.0158
  237MPD1    N1 3605   1.080   1.411  15.945  0.0580 -0.1897 -0.2087
  237MPD1    H6 3606   1.152   1.425  16.016 -0.7569  0.6052  0.4603
  237MPD1    H7 3607   0.983   1.403  15.974  0.0192  2.9187  0.4897
  238MPD1     C 3608   1.871   1.671  15.797 -0.2552  0.8381  0.2004
  238MPD1    C1 3609   1.943   1.646  15.678 -0.2045 -0.0738 -0.0661
  238MPD1    C2 3610   1.932   1.517  15.621  0.3908 -0.4693  0.0794
  238MPD1    C3 3611   1.876   1.415  15.696 -0.2231  0.0427 -0.8706
  238MPD1    C4 3612   1.822   1.445  15.819 -0.5163  0.5551 -0.0483
  238MPD1    C5 3613   1.812   1.571  15.862  0.4770 -0.5665  0.0595
  238MPD1     H 3614   1.988   1.498  15.530 -0.3774 -1.2526 -0.2279
  238MPD1    H1 3615   1.770   1.368  15.875 -1.1059  0.5653 -0.5828
  238MPD1    H2 3616   1.841   1.772  15.822 -1.7701  0.4410 -0.0246
  238MPD1    H3 3617   1.757   1.594  15.952 -1.6464  0.0911 -1.3933
  238MPD1     N 3618   1.865   1.282  15.653 -0.2077  0.5682 -0.0834
  238MPD1    H5 3619   1.837   1.205  15.714 -1.9276  3.3875  2.6905
  238MPD1    N1 3620   2.017   1.742  15.607  0.3896 -0.3836  0.5210
  238MPD1    H6 3621   1.959   1.775  15.529  0.7811  0.7792  0.7198
  238MPD1    H7 3622   2.088   1.700  15.548 -0.3821 -1.4647  0.3621
  239MPD1     C 3623   2.408   1.206  14.896  0.0132  0.2172  0.2829
  239MPD1    C1 3624   2.534   1.248  14.896 -0.3804  0.2366  0.2393
  239MPD1    C2 3625   2.566   1.368  14.837 -0.2082  0.1709  0.6855
  239MPD1    C3 3626   2.475   1.422  14.745  0.1389  0.6367 -0.0290
  239MPD1    C4 3627   2.346   1.374  14.741  0.3458 -0.2184 -0.3393
  239MPD1    C5 3628   2.318   1.257  14.812 -0.1700 -0.3212 -0.1981
  239MPD1     H 3629   2.659   1.415  14.867 -0.2906  1.6402 -1.3352
  239MPD1    H1 3630   2.273   1.412  14.670 -0.3939  0.6808  0.9108
  239MPD1    H2 3631   2.378   1.119  14.954 -0.2250 -0.3813 -0.7399
  239MPD1    H3 3632   2.220   1.212  14.806 -0.9362  1.2355  0.5159
  239MPD1     N 3633   2.497   1.539  14.667 -0.3281  0.1593 -0.3947
  239MPD1    H5 3634   2.418   1.578  14.618 -0.8280 -0.7529 -0.3122
  239MPD1    N1 3635   2.623   1.194  14.986  0.0382 -0.5671  0.2455
  239MPD1    H6 3636   2.602   1.099  15.017 -2.1568 -0.2614 -0.3544
  239MPD1    H7 3637   2.722   1.205  14.964 -0.6390  0.0812 -2.4459
  240MPD1     C 3638   1.811   1.488  14.020 -0.6738  0.1014  0.7281
  240MPD1    C1 3639   1.694   1.435  14.077  0.0778 -0.2258  0.1736
  240MPD1    C2 3640   1.693   1.382  14.204 -0.2413 -0.7480 -0.8047
  240MPD1    C3 3641   1.806   1.407  14.284 -0.0595 -0.5581 -0.4011
  240MPD1    C4 3642   1.918   1.474  14.242  0.2336 -0.6337  0.2703
  240MPD1    C5 3643   1.919   1.507  14.108  0.0258  0.0492 -0.7192
  240MPD1     H 3644   1.596   1.340  14.226 -0.6239  0.7566  0.4160
  240MPD1    H1 3645   2.012   1.477  14.296 -0.3142 -0.1339  1.2070
  240MPD1    H2 3646   1.823   1.512  13.915 -0.9876 -0.7939  0.4807
  240MPD1    H3 3647   2.014   1.543  14.069  0.4679  0.9734  1.2300
  240MPD1     N 3648   1.799   1.355  14.414  0.5272 -0.1008 -0.1664
  240MPD1    H5 3649   1.720   1.292  14.425  0.3078  0.1653 -0.2392
  240MPD1    N1 3650   1.585   1.422  13.997  0.7745 -0.9320  0.1436
  240MPD1    H6 3651   1.499   1.435  14.051  0.5652 -0.3289 -0.3462
  240MPD1    H7 3652   1.575   1.493  13.926  1.8670 -0.0079  0.9113
  241MPD1     C 3653   2.313   1.100  15.265 -0.3746 -0.1797  0.1816
  241MPD1    C1 3654   2.244   1.218  15.277 -0.0342 -0.6779  0.1300
  241MPD1    C2 3655   2.138   1.256  15.187 -0.8032  0.0986 -0.7204
  241MPD1    C3 3656   2.102   1.163  15.094 -0.3620  0.1763  0.2161
  241MPD1    C4 3657   2.149   1.036  15.104 -0.2127  0.1950 -0.0519
  241MPD1    C5 3658   2.255   1.006  15.182  0.5113  0.0015  0.1854
  241MPD1     H 3659   2.096   1.355  15.188  0.8446  0.8079 -0.3413
  241MPD1    H1 3660   2.103   0.956  15.047 -0.0819  0.3250 -0.3412
  241MPD1    H2 3661   2.399   1.075  15.326 -1.0991 -1.1611  0.8151
  241MPD1    H3 3662   2.304   0.910  15.180  2.2866  0.8348  2.8264
  241MPD1     N 3663   2.007   1.189  14.992 -0.1893  0.4196 -0.5409
  241MPD1    H5 3664   1.987   1.109  14.933  0.6897 -0.8667  0.9198
  241MPD1    N1 3665   2.300   1.329  15.347 -0.2235  0.1948 -0.3618
  241MPD1    H6 3666   2.219   1.379  15.383 -0.5591  0.6890 -1.7835
  241MPD1    H7 3667   2.360   1.304  15.425 -1.7599  0.0971  0.7909
  242MPD1     C 3668   2.068   4.416  16.619 -0.1407  0.0419 -0.2996
  242MPD1    C1 3669   2.014   4.310  16.554 -0.3499 -0.3856 -0.3068
  242MPD1    C2 3670   1.982   4.328  16.422  0.3403 -0.0880 -0.0621
  242MPD1    C3 3671   2.015   4.439  16.350 -0.3714  0.0204 -0.3176
  242MPD1    C4 3672   2.058   4.551  16.424  0.2496  0.0250  1.1195
  242MPD1    C5 3673   2.086   4.533  16.554 -0.6471 -0.4064 -0.5254
  242MPD1     H 3674   1.948   4.236  16.375  0.2591 -0.3960  0.5930
  242MPD1    H1 3675   2.073   4.650  16.382  2.5657 -0.6088  0.4291
  242MPD1    H2 3676   2.087   4.418  16.726 -1.3150 -1.0719 -0.0669
  242MPD1    H3 3677   2.115   4.618  16.614 -0.9872 -1.6247  1.3455
  242MPD1     N 3678   1.994   4.449  16.214 -0.2215  0.6713  0.0170
  242MPD1    H5 3679   2.009   4.543  16.177  0.9772  0.3654 -0.2748
  242MPD1    N1 3680   1.983   4.192  16.620  0.0524 -0.2386  0.4623
  242MPD1    H6 3681   2.050   4.159  16.690  0.5535  1.3661  0.7256
  242MPD1    H7 3682   1.969   4.110  16.561 -0.8512  1.4063 -1.6055
  243MPD1     C 3683   4.204   2.012  17.633 -0.0907  0.0947 -0.1556
  243MPD1    C1 3684   4.127   2.097   0.013  0.8078  0.5572  0.8707
  243MPD1    C2 3685   4.059   2.203  17.648  0.1823  0.3920  0.0845
  243MPD1    C3 3686   4.074   2.222  17.509  0.0158 -0.6380  0.2372
  243MPD1    C4 3687   4.168   2.149  17.441  0.2857 -0.5081 -0.0187
  243MPD1    C5 3688   4.224   2.042  17.501 -0.0378  0.0336 -0.1149
  243MPD1     H 3689   3.992   2.266   0.009 -0.7671 -0.9844  0.4974
  243MPD1    H1 3690   4.176   2.152  17.333  0.7981 -0.6856  0.0167
  243MPD1    H2 3691   4.251   1.923  17.674  2.3752  0.8758 -1.3527
  243MPD1    H3 3692   4.295   1.984  17.442  0.6705 -2.2685  2.9659
  243MPD1     N 3693   3.998   2.322  17.446  0.3909 -0.2773  0.4220
  243MPD1    H5 3694   3.945   2.377  17.514  1.6439  0.4170  0.8342
  243MPD1    N1 3695   4.114   2.066   0.150  0.3033 -0.8061 -0.7363
  243MPD1    H6 3696   4.107   2.147   0.211  0.1887 -1.1365 -0.3139
  243MPD1    H7 3697   4.194   2.012   0.183 -0.2817 -0.9520  0.4402
  244MPD1     C 3698   3.355   2.588   0.203  0.3417  0.5998 -0.3134
  244MPD1    C1 3699   3.483   2.547   0.221  0.0509 -0.2905 -0.4553
  244MPD1    C2 3700   3.558   2.519   0.109  0.1162 -0.5648 -0.2453
  244MPD1    C3 3701   3.513   2.562  17.683  0.2311  0.3923  0.5523
  244MPD1    C4 3702   3.390   2.614  17.671 -0.0491  0.2697 -1.0792
  244MPD1    C5 3703   3.310   2.621   0.081 -0.5771  0.5194  0.0087
  244MPD1     H 3704   3.662   2.491   0.121  0.3613  0.2789 -0.3978
  244MPD1    H1 3705   3.348   2.639  17.574 -0.3062  3.2396 -0.1987
  244MPD1    H2 3706   3.287   2.599   0.287 -0.0188  2.1265 -0.8103
  244MPD1    H3 3707   3.211   2.665   0.071 -0.9591 -0.3992 -0.2593
  244MPD1     N 3708   3.606   2.561  17.568  0.1559  0.5147  0.1336
  244MPD1    H5 3709   3.694   2.516  17.588 -0.1996  0.1831  0.9542
  244MPD1    N1 3710   3.523   2.501   0.345  0.2778 -0.6005  0.0103
  244MPD1    H6 3711   3.480   2.553   0.421 -0.9742 -2.6168  0.6846
  244MPD1    H7 3712   3.625   2.503   0.350  0.2855 -0.4551 -0.2173
  245MPD1     C 3713   0.616   3.497  13.651  0.3950 -0.2763  1.1131
  245MPD1    C1 3714   0.544   3.515  13.765 -0.2086 -0.3260  0.3645
  245MPD1    C2 3715   0.557   3.636  13.824  0.3633 -0.4330 -0.1282
  245MPD1    C3 3716   0.615   3.748  13.769 -0.1282  0.0545  0.4451
  245MPD1    C4 3717   0.682   3.729  13.654 -0.7320 -0.0729 -0.0556
  245MPD1    C5 3718   0.672   3.608  13.587 -0.3415 -0.0601  0.2218
  245MPD1     H 3719   0.519   3.645  13.926 -0.0316  1.3305 -0.4274
  245MPD1    H1 3720   0.745   3.809  13.616  0.1463 -1.3519 -1.2623
  245MPD1    H2 3721   0.620   3.399  13.603 -0.4387  0.6690 -0.8639
  245MPD1    H3 3722   0.725   3.601  13.493 -0.2732  0.8104  0.1971
  245MPD1     N 3723   0.623   3.865  13.857 -0.0655 -0.6221  0.3713
  245MPD1    H5 3724   0.582   3.866  13.950 -1.6302 -2.8430 -0.2933
  245MPD1    N1 3725   0.497   3.401  13.841  0.0964 -0.1663  0.2252
  245MPD1    H6 3726   0.418   3.434  13.896  0.1607 -1.0737  0.8607
  245MPD1    H7 3727   0.469   3.325  13.779  1.1650  2.0685 -2.9515
  246MPD1     C 3728   2.944   0.127   9.298  0.5890 -0.3536 -0.1306
  246MPD1    C1 3729   2.947   0.240   9.221 -0.6014 -0.3021  0.1485
  246MPD1    C2 3730   2.838   0.328   9.234 -0.3842 -0.4632  0.5157
  246MPD1    C3 3731   2.730   0.295   9.308 -0.8190  1.1338  0.4075
  246MPD1    C4 3732   2.720   0.173   9.369 -0.2370 -0.4883 -0.1578
  246MPD1    C5 3733   2.838   0.095   9.380  0.2913  0.3842 -0.1186
  246MPD1     H 3734   2.838   0.429   9.196  0.4532  0.3836  2.7343
  246MPD1    H1 3735   2.635   0.146   9.431  0.4581  0.1301  1.0515
  246MPD1    H2 3736   3.032   0.064   9.297 -0.8858 -2.4136  0.0288
  246MPD1    H3 3737   2.833   0.003   9.437 -3.3027  2.6000  3.1336
  246MPD1     N 3738   2.622   0.385   9.306  0.1760  0.5619  0.7424
  246MPD1    H5 3739   2.639   0.477   9.265 -1.7299  0.6037  0.0157
  246MPD1    N1 3740   3.064   0.284   9.163  0.4693  0.5980  0.6755
  246MPD1    H6 3741   3.054   0.333   9.074  0.7225  0.9310  0.8356
  246MPD1    H7 3742   3.119   0.200   9.143  0.2055  0.1872  1.6896
  247MPD1     C 3743   4.592   2.974  17.127  0.4427  0.3899 -0.3418
  247MPD1    C1 3744   4.660   3.064  17.044 -0.3476 -0.1798 -0.0756
  247MPD1    C2 3745   4.688   3.030  16.910  0.6222  0.4885 -0.0761
  247MPD1    C3 3746   4.650   2.911  16.857  0.0799  0.1461  0.4898
  247MPD1    C4 3747   4.575   2.833  16.936 -0.0553  0.1409  0.7438
  247MPD1    C5 3748   4.549   2.861  17.067 -0.3394  0.3488  0.1625
  247MPD1     H 3749   0.023   3.102  16.852  1.8367  0.6449  1.3451
  247MPD1    H1 3750   4.541   2.738  16.898 -0.7064 -0.1971  2.1862
  247MPD1    H2 3751   4.581   2.977  17.235 -0.5939  0.8436 -0.4661
  247MPD1    H3 3752   4.499   2.783  17.122 -0.9546  0.2190 -0.5926
  247MPD1     N 3753   4.678   2.860  16.737 -0.1656 -0.2806  0.3158
  247MPD1    H5 3754   4.637   2.771  16.711 -2.5767  1.3012 -1.3180
  247MPD1    N1 3755   0.005   3.174  17.104 -0.2920  0.4891 -0.3506
  247MPD1    H6 3756   0.018   3.254  17.042  2.4149  0.2784 -0.0886
  247MPD1    H7 3757   4.684   3.201  17.191  2.4417  0.3673  1.0915
  248MPD1     C 3758   1.561   2.621   1.093 -0.9655 -0.3173  0.2045
  248MPD1    C1 3759   1.502   2.737   1.045  0.1146  0.5773  0.3811
  248MPD1    C2 3760   1.432   2.814   1.142 -0.9675  0.1459  0.0209
  248MPD1    C3 3761   1.433   2.775   1.276  0.0759  0.1526  0.0672
  248MPD1    C4 3762   1.504   2.663   1.318  0.4981  0.0580  0.2245
  248MPD1    C5 3763   1.565   2.587   1.228 -0.1396  0.3191  0.1785
  248MPD1     H 3764   1.390   2.909   1.113 -3.3967 -2.1495 -4.0730
  248MPD1    H1 3765   1.510   2.632   1.422  0.3589 -0.8257 -0.0323
  248MPD1    H2 3766   1.608   2.552   1.024 -0.6421  0.3666 -0.2661
  248MPD1    H3 3767   1.612   2.492   1.252 -0.4521  0.5975  1.8412
  248MPD1     N 3768   1.374   2.863   1.371  0.5719 -0.3830 -0.4705
  248MPD1    H5 3769   1.322   2.944   1.338  3.8428  1.5574 -0.7941
  248MPD1    N1 3770   1.498   2.759   0.908  0.5114 -0.3351 -0.3503
  248MPD1    H6 3771   1.459   2.852   0.893 -0.8895 -0.1319  4.4656
  248MPD1    H7 3772   1.592   2.749   0.869  1.1004 -0.0930  0.9865
  249MPD1     C 3773   2.682   2.396  10.086  0.3258  0.4405 -0.1820
  249MPD1    C1 3774   2.731   2.388  10.215  0.1626 -0.3630  0.3412
  249MPD1    C2 3775   2.859   2.345  10.228 -0.0628 -0.0147  0.0607
  249MPD1    C3 3776   2.939   2.321  10.121  0.1488 -0.0518  0.2423
  249MPD1    C4 3777   2.880   2.323   9.992 -0.9086  0.0615 -0.3395
  249MPD1    C5 3778   2.752   2.359   9.978  0.0235  1.1466 -0.2490
  249MPD1     H 3779   2.908   2.329  10.324 -1.6826  0.3113  0.9468
  249MPD1    H1 3780   2.937   2.295   9.904 -0.3721 -1.9625  0.6435
  249MPD1    H2 3781   2.582   2.436  10.072  0.1713  0.8167  1.9892
  249MPD1    H3 3782   2.711   2.373   9.879  0.0838 -2.1759 -0.7241
  249MPD1     N 3783   3.070   2.269  10.151  0.0355 -0.3519  0.3669
  249MPD1    H5 3784   3.103   2.268  10.247 -1.3239 -0.8892  0.8369
  249MPD1    N1 3785   2.673   2.457  10.323  0.3689 -0.1176 -0.2908
  249MPD1    H6 3786   2.711   2.417  10.409  1.4602 -0.6041 -0.9924
  249MPD1    H7 3787   2.571   2.454  10.326  0.3421  0.9252 -0.2149
  250MPD2     C 3788   3.284   2.486  13.563  0.4122 -0.2416 -0.4102
  250MPD2    C1 3789   3.334   2.456  13.441  0.0394 -0.6518  0.1045
  250MPD2    C2 3790   3.287   2.339  13.377  0.2446 -0.6018  0.7771
  250MPD2    C3 3791   3.189   2.260  13.442  0.5986  0.3052 -0.6213
  250MPD2    C4 3792   3.160   2.281  13.573  0.1731  0.2935 -0.9040
  250MPD2    C5 3793   3.206   2.397  13.628  0.0298  0.7740 -0.5736
  250MPD2     H 3794   3.332   2.314  13.282  0.4353 -0.3690  0.8051
  250MPD2    H1 3795   3.096   2.217  13.634 -0.7494  2.3499  0.3172
  250MPD2    H2 3796   3.322   2.577  13.609 -0.4373 -1.3042  2.3801
  250MPD2    H3 3797   3.178   2.423  13.730 -1.5056 -1.1438 -0.5068
  250MPD2     N 3798   3.122   2.150  13.374  0.7125 -0.4124 -0.1323
  250MPD2    H5 3799   3.070   2.089  13.437 -1.4721  1.1278 -0.4126
  250MPD2    N1 3800   3.437   2.532  13.386 -0.1490 -0.6408 -0.0321
  250MPD2    H7 3801   3.438   2.625  13.428 -0.2972 -0.4079 -0.5379
  251TMC3    C1 3802   3.609   2.603  13.239 -0.2170  0.4075  0.2473
  251TMC3    C2 3803   3.584   2.730  13.292 -0.3139 -0.7192 -0.6153
  251TMC3    C3 3804   3.639   2.836  13.230 -0.2454 -0.3432 -0.7804
  251TMC3    C4 3805   3.677   2.591  13.119  0.4766  0.0937  0.0657
  251TMC3    C5 3806   3.727   2.706  13.068  0.4112  0.5451  0.2114
  251TMC3    C6 3807   3.704   2.827  13.115 -0.1276  0.3706  0.8643
  251TMC3     C 3808   3.529   2.492  13.285 -0.1518  0.2591  0.3382
  251TMC3     O 3809   3.544   2.379  13.232  0.2322 -0.5107  0.3793
  251TMC3     H 3810   3.522   2.748  13.379  2.5249 -2.3121  1.7474
  251TMC3    H1 3811   3.699   2.493  13.078  0.4442 -0.6721  1.8428
  251TMC3    H2 3812   3.737   2.914  13.060 -1.7173  1.1358  1.1211
  251TMC3    C7 3813   3.859   2.685  13.008  0.5765 -0.2780  0.7004
  251TMC3    C8 3814   3.576   2.964  13.261 -0.6163 -0.2551  0.5994
  251TMC3    O1 3815   3.918   2.579  13.031 -0.0409  0.3637  0.3961
  251TMC3    O2 3816   3.481   2.970  13.332  0.0455  0.0914  0.4211
  252TMC3    C1 3817   4.506   2.593   9.359 -0.4273  0.3444  0.2418
  252TMC3    C2 3818   4.584   2.704   9.324  0.1899  0.2261 -0.7776
  252TMC3    C3 3819   4.590   2.734   9.192  0.2488 -0.4401  0.3550
  252TMC3    C4 3820   4.437   2.516   9.268 -0.2128  0.1860 -0.6441
  252TMC3    C5 3821   4.452   2.548   9.138 -0.5767  0.1863  0.2317
  252TMC3    C6 3822   4.547   2.647   9.094 -0.3357  0.9799  1.1370
  252TMC3     C 3823   4.477   2.570   9.494 -0.6353  0.0941 -0.2103
  252TMC3     O 3824   4.497   2.661   9.573 -0.2430  0.1484  0.3843
  252TMC3     H 3825   4.630   2.755   9.409  0.8843 -2.6714  0.5736
  252TMC3    H1 3826   4.368   2.437   9.294 -0.2961  0.6411  0.5260
  252TMC3    H2 3827   4.549   2.669   8.988  2.2211  0.1163  1.0234
  252TMC3    C7 3828   4.367   2.489   9.039  0.2306  0.5190 -0.0126
  252TMC3    C8 3829   4.663   2.852   9.147  0.4985 -0.5077 -0.4749
  252TMC3    O1 3830   4.399   2.508   8.923  0.1294  0.0741 -0.5620
  252TMC3    O2 3831   4.667   2.880   9.031  0.0816  0.8285 -0.7769
  253MPD2     C 3832   0.271   2.154  15.378 -0.1613 -0.0974 -0.4666
  253MPD2    C1 3833   0.139   2.118  15.417 -0.2867 -0.3386  0.5353
  253MPD2    C2 3834   0.110   2.070  15.541 -0.2205 -0.2048  0.2006
  253MPD2    C3 3835   0.212   2.067  15.634  0.0472 -0.1028  0.2609
  253MPD2    C4 3836   0.341   2.091  15.595  0.7689 -0.5654 -0.0330
  253MPD2    C5 3837   0.370   2.132  15.469 -0.3788  0.2286  0.2210
  253MPD2     H 3838   0.009   2.037  15.564 -0.4206  1.1555  1.2314
  253MPD2    H1 3839   0.413   2.087  15.676  1.1135 -0.0029 -0.3088
  253MPD2    H2 3840   0.300   2.181  15.277 -1.9433 -0.2769 -1.0227
  253MPD2    H3 3841   0.473   2.160  15.450 -0.2200 -0.1455  0.5191
  253MPD2     N 3842   0.182   2.024  15.771 -0.4346  0.2217  0.3208
  253MPD2    H5 3843   0.259   1.976  15.817  1.1625  0.2537 -2.2892
  253MPD2    N1 3844   0.026   2.144  15.338 -0.2834  0.6259 -0.2935
  253MPD2    H7 3845   4.659   2.131  15.381  0.5417 -1.6117  0.7445
  254TMC3    C1 3846   0.038   1.933  15.941  0.2841  1.0197  0.2952
  254TMC3    C2 3847   4.633   1.915  15.979 -0.6048  0.2845  0.8024
  254TMC3    C3 3848   4.614   1.846  16.096  0.2331  0.3577 -0.1482
  254TMC3    C4 3849   0.147   1.891  16.016  0.1222 -0.7979  0.3065
  254TMC3    C5 3850   0.122   1.831  16.135  1.2814 -0.0418  0.2010
  254TMC3    C6 3851   4.716   1.800  16.173 -0.2427  0.5180 -0.2693
  254TMC3     C 3852   0.054   2.018  15.826 -0.2669  0.4324  0.4380
  254TMC3     O 3853   4.679   2.079  15.785  0.0384  0.7459  0.5827
  254TMC3     H 3854   4.552   1.913  15.906  0.1183 -1.1124  0.0390
  254TMC3    H1 3855   0.247   1.903  15.977 -0.6560  3.0105 -0.5671
  254TMC3    H2 3856   4.695   1.754  16.269  3.2318 -0.3895  0.0463
  254TMC3    C7 3857   0.218   1.817  16.243  0.3482  0.0996 -0.8904
  254TMC3    C8 3858   4.485   1.856  16.162 -0.7476 -0.3527 -0.0782
  254TMC3    O1 3859   0.182   1.757  16.341 -0.0955  0.1649  0.0444
  254TMC3    O2 3860   4.465   1.777  16.251 -0.0999 -0.3932 -0.1805
  255MPD2     C 3861   2.768   0.387  10.857  0.7314  0.6202 -0.2786
  255MPD2    C1 3862   2.901   0.408  10.827  1.1844  0.6759  0.4293
  255MPD2    C2 3863   2.982   0.298  10.854  0.0106 -0.7391  0.2817
  255MPD2    C3 3864   2.937   0.178  10.907 -0.0337 -0.9081  0.0354
  255MPD2    C4 3865   2.800   0.165  10.940 -0.0195  0.2476  0.5635
  255MPD2    C5 3866   2.717   0.273  10.910  0.0552  0.2652 -0.0686
  255MPD2     H 3867   3.087   0.299  10.827 -0.3942 -2.1629 -1.3494
  255MPD2    H1 3868   2.755   0.084  10.996  0.6139 -0.2990  0.2823
  255MPD2    H2 3869   2.698   0.465  10.829  1.3740  0.7570 -1.4978
  255MPD2    H3 3870   2.612   0.270  10.937  0.3701 -2.5613  0.7852
  255MPD2     N 3871   3.036   0.079  10.926  0.1597  0.2106 -0.5107
  255MPD2    H5 3872   3.132   0.105  10.905  0.8063 -2.2226 -0.5633
  255MPD2    N1 3873   2.955   0.526  10.769  0.5234 -0.1355 -0.4182
  255MPD2    H7 3874   2.891   0.585  10.716 -1.0570 -2.7605 -1.4183
  256TMC3    C1 3875   3.105   0.663  10.651  0.0631  0.2550 -0.2997
  256TMC3    C2 3876   3.201   0.755  10.660  0.0623  0.5048  0.8536
  256TMC3    C3 3877   3.227   0.822  10.549 -0.3858 -0.2254 -0.6921
  256TMC3    C4 3878   3.028   0.645  10.537  0.2335 -0.0484  0.3053
  256TMC3    C5 3879   3.061   0.708  10.424 -0.3051  0.3245 -0.3105
  256TMC3    C6 3880   3.165   0.806  10.425 -0.7716  0.1950 -0.4674
  256TMC3     C 3881   3.089   0.566  10.755 -0.0972  0.2862 -0.2946
  256TMC3     O 3882   3.184   0.533  10.826 -0.1768  0.4484  0.5699
  256TMC3     H 3883   3.258   0.756  10.752 -1.1878  2.3741  1.5947
  256TMC3    H1 3884   2.941   0.581  10.539  0.1216  0.1610  2.3827
  256TMC3    H2 3885   3.195   0.865  10.340  0.2416  0.9678  0.4198
  256TMC3    C7 3886   3.004   0.669  10.298 -0.2749  0.6428  0.2611
  256TMC3    C8 3887   3.279   0.958  10.579 -0.2672  0.5548 -0.1779
  256TMC3    O1 3888   2.941   0.563  10.293  0.0063 -0.0929 -0.2745
  256TMC3    O2 3889   3.297   0.984  10.697  0.6025 -0.9372 -0.3539
  257MPD2     C 3890   2.455   2.565  13.476  0.4477 -0.3404 -0.3270
  257MPD2    C1 3891   2.428   2.461  13.393 -0.3175  0.0065  0.9432
  257MPD2    C2 3892   2.435   2.326  13.431  0.2782  0.0939  0.6446
  257MPD2    C3 3893   2.454   2.304  13.566  0.3380  0.0489  0.4540
  257MPD2    C4 3894   2.496   2.412  13.650 -0.4799  0.7280  0.0437
  257MPD2    C5 3895   2.495   2.541  13.601  0.3020 -0.5600 -0.3585
  257MPD2     H 3896   2.397   2.245  13.369 -2.4552  2.4596 -0.7568
  257MPD2    H1 3897   2.530   2.392  13.751 -1.3796  1.2255  0.4434
  257MPD2    H2 3898   2.455   2.670  13.451 -0.3022 -1.0545 -3.3258
  257MPD2    H3 3899   2.539   2.617  13.665  0.4985 -1.0622  0.1031
  257MPD2     N 3900   2.428   2.173  13.609 -0.0691  0.4157  0.2218
  257MPD2    H5 3901   2.392   2.111  13.537  1.0925 -1.0830  0.9448
  257MPD2    N1 3902   2.392   2.503  13.259  0.1066  0.1180  0.4012
  257MPD2    H7 3903   2.393   2.603  13.246 -0.6035 -0.1924 -2.0206
  258TMC3    C1 3904   2.363   2.011  13.757  0.1976  0.5211 -0.3189
  258TMC3    C2 3905   2.241   1.995  13.689  0.0789  0.2639 -0.0913
  258TMC3    C3 3906   2.160   1.896  13.739  0.0131 -1.0105  0.2712
  258TMC3    C4 3907   2.391   1.931  13.870 -0.0416  0.3298 -0.6098
  258TMC3    C5 3908   2.296   1.850  13.916 -0.6279 -0.3038 -0.5060
  258TMC3    C6 3909   2.181   1.834  13.860  0.1977 -0.9048  1.1442
  258TMC3     C 3910   2.448   2.125  13.739 -0.2041 -0.0327 -0.1626
  258TMC3     O 3911   2.503   2.174  13.838  0.1518 -0.6778 -0.0114
  258TMC3     H 3912   2.203   2.047  13.602  1.2621 -0.0764 -0.8144
  258TMC3    H1 3913   2.480   1.949  13.929 -0.2567 -0.4917 -0.0408
  258TMC3    H2 3914   2.109   1.765  13.903 -0.9393 -0.1441  0.4869
  258TMC3    C7 3915   2.312   1.758  14.031  0.4289  0.1898 -0.5412
  258TMC3    C8 3916   2.046   1.868  13.656  0.6766 -0.5404  0.4862
  258TMC3    O1 3917   2.217   1.732  14.103 -1.0393  0.0397 -0.1567
  258TMC3    O2 3918   2.070   1.869  13.538 -0.3738  0.3631  0.4772
  259MPD2     C 3919   1.711   3.468   1.444  0.7827  0.0983  0.4788
  259MPD2    C1 3920   1.821   3.452   1.517  0.2049  0.2116  0.1369
  259MPD2    C2 3921   1.942   3.425   1.458 -1.0406 -0.4832  0.6675
  259MPD2    C3 3922   1.949   3.412   1.315  0.1210  0.3218  0.1856
  259MPD2    C4 3923   1.832   3.430   1.242  0.4342  0.1941  0.2486
  259MPD2    C5 3924   1.720   3.454   1.307 -0.3400 -0.3560 -0.3497
  259MPD2     H 3925   2.030   3.408   1.519  0.1675 -0.6998 -1.1092
  259MPD2    H1 3926   1.830   3.435   1.134 -3.5143  1.8527  0.3910
  259MPD2    H2 3927   1.619   3.486   1.497  0.8692 -0.4825  0.8226
  259MPD2    H3 3928   1.625   3.473   1.258 -0.5658 -0.6033 -0.0205
  259MPD2     N 3929   2.068   3.382   1.259  0.0305  0.4282  0.5853
  259MPD2    H5 3930   2.141   3.342   1.318 -2.3863 -4.8834 -0.0858
  259MPD2    N1 3931   1.806   3.475   1.658 -0.2579 -0.2168 -0.6859
  259MPD2    H7 3932   1.714   3.493   1.696  0.2076 -0.2976  0.4633
  260TMC3    C1 3933   2.208   3.314   1.097  0.2625 -0.2421 -0.7587
  260TMC3    C2 3934   2.302   3.362   1.002 -0.3852  0.2038  0.5457
  260TMC3    C3 3935   2.383   3.270   0.952 -0.4490 -0.1173  0.4927
  260TMC3    C4 3936   2.195   3.181   1.117 -0.6737  0.3329 -0.8552
  260TMC3    C5 3937   2.287   3.095   1.071 -0.9790 -0.3095 -0.4545
  260TMC3    C6 3938   2.389   3.141   0.984  0.6124 -0.5025  0.4342
  260TMC3     C 3939   2.092   3.391   1.127 -0.5778 -0.2063 -0.7252
  260TMC3     O 3940   2.036   3.463   1.045 -0.3777  0.0177 -0.0167
  260TMC3     H 3941   2.310   3.466   0.975 -0.4009 -0.6888 -2.8915
  260TMC3    H1 3942   2.108   3.146   1.170  0.0197 -1.1572 -0.7022
  260TMC3    H2 3943   2.470   3.075   0.955 -0.4708 -1.8849  0.5483
  260TMC3    C7 3944   2.237   2.979   1.002  0.0731  0.1752 -0.8736
  260TMC3    C8 3945   2.419   3.299   0.816  0.4258  0.3324  0.8241
  260TMC3    O1 3946   2.270   2.971   0.883  0.1631  0.6422 -0.0747
  260TMC3    O2 3947   2.471   3.407   0.794  0.0029  0.0422  0.6470
  261MPD2     C 3948   2.897   1.890  12.575  0.0609  0.0752  0.3717
  261MPD2    C1 3949   2.963   1.979  12.649 -0.8495 -0.8882  0.7099
  261MPD2    C2 3950   3.050   2.062  12.579  0.7406 -0.6352 -0.4549
  261MPD2    C3 3951   3.080   2.042  12.448 -0.0318  0.5988  1.0522
  261MPD2    C4 3952   3.013   1.945  12.375 -0.2932 -0.4435 -0.2058
  261MPD2    C5 3953   2.916   1.875  12.436  0.5026 -0.4326  0.2403
  261MPD2     H 3954   3.103   2.140  12.632 -2.8669  0.7873  1.0848
  261MPD2    H1 3955   3.035   1.928  12.270 -1.8089 -0.4745 -0.5206
  261MPD2    H2 3956   2.813   1.834  12.614 -0.2151 -1.4816 -2.4955
  261MPD2    H3 3957   2.864   1.795  12.384 -0.9808  0.0108  1.0492
  261MPD2     N 3958   3.177   2.129  12.389 -0.2249  0.6383  0.4243
  261MPD2    H5 3959   3.225   2.184  12.459 -0.4773 -0.1218  1.1965
  261MPD2    N1 3960   2.950   1.985  12.794 -0.4591 -0.4505  0.0912
  261MPD2    H7 3961   3.017   2.046  12.841 -2.2441  3.2200 -2.1577
  262TMC3    C1 3962   3.318   2.232  12.227  0.8071  0.2790 -0.0026
  262TMC3    C2 3963   3.299   2.356  12.285  0.4122 -0.2143 -0.4629
  262TMC3    C3 3964   3.356   2.462  12.219  0.3452 -1.5082 -0.1095
  262TMC3    C4 3965   3.399   2.206  12.123  0.3957 -0.4889  0.3593
  262TMC3    C5 3966   3.456   2.319  12.068 -0.4171  0.1988 -0.6067
  262TMC3    C6 3967   3.436   2.449  12.114 -0.3264  0.5027  0.3853
  262TMC3     C 3968   3.223   2.122  12.253  0.8711 -0.3638 -0.5305
  262TMC3     O 3969   3.213   2.040  12.158 -0.2391 -0.3949 -0.0543
  262TMC3     H 3970   3.221   2.358  12.360 -1.1366 -3.2980 -1.9768
  262TMC3    H1 3971   3.412   2.109  12.076  1.0420 -0.3684  0.2912
  262TMC3    H2 3972   3.500   2.527  12.075 -0.7738 -0.7174 -2.7869
  262TMC3    C7 3973   3.542   2.295  11.947 -0.7096  0.0801  0.2641
  262TMC3    C8 3974   3.326   2.596  12.257  0.0482  0.6843  0.0483
  262TMC3    O1 3975   3.586   2.184  11.933 -0.7079  0.0945 -0.6530
  262TMC3    O2 3976   3.357   2.688  12.179  0.2205  0.3687 -0.2214
  263MPD2     C 3977   4.361   1.864  12.240 -0.2652  0.3039  0.4732
  263MPD2    C1 3978   4.454   1.857  12.138 -0.2608  0.0412  0.0641
  263MPD2    C2 3979   4.438   1.937  12.030  0.3546 -0.3843  0.2344
  263MPD2    C3 3980   4.328   2.023  12.018 -0.7169 -0.3059 -0.0223
  263MPD2    C4 3981   4.231   2.029  12.123 -0.2029 -0.5703  0.3577
  263MPD2    C5 3982   4.259   1.950  12.235  0.5135  0.7938  0.9758
  263MPD2     H 3983   4.503   1.927  11.944 -0.8009  1.9903 -0.9057
  263MPD2    H1 3984   4.146   2.097  12.116 -0.1515 -0.5174  0.2452
  263MPD2    H2 3985   4.352   1.793  12.321 -1.7580 -1.3139 -1.1170
  263MPD2    H3 3986   4.190   1.943  12.319  0.2244  2.5549  0.9073
  263MPD2     N 3987   4.310   2.097  11.890  0.3499 -0.0950  0.2929
  263MPD2    H5 3988   4.380   2.095  11.817 -0.7883  0.9814 -0.8328
  263MPD2    N1 3989   4.562   1.768  12.166 -0.1212  0.2448  0.1877
  263MPD2    H7 3990   4.558   1.722  12.256  4.7780 -2.2842 -0.8920
  264TMC3    C1 3991   4.204   2.228  11.729 -0.9084 -0.8530 -0.6098
  264TMC3    C2 3992   4.125   2.339  11.704  0.1895  0.0982  0.1471
  264TMC3    C3 3993   4.148   2.408  11.588 -0.1725  0.2300 -0.1708
  264TMC3    C4 3994   4.262   2.165  11.627  0.3089 -0.3423  0.7483
  264TMC3    C5 3995   4.259   2.220  11.509 -0.6267 -0.0511 -0.6036
  264TMC3    C6 3996   4.211   2.342  11.483 -1.0779 -0.2986  0.6069
  264TMC3     C 3997   4.198   2.174  11.864 -0.4126 -0.3864  0.2540
  264TMC3     O 3998   4.109   2.211  11.935  0.3286 -0.1785 -0.3389
  264TMC3     H 3999   4.092   2.387  11.796  0.0291 -0.4969  0.3962
  264TMC3    H1 4000   4.303   2.065  11.635 -0.2092 -0.4716  1.8530
  264TMC3    H2 4001   4.224   2.396  11.390  2.8214 -0.1018  1.2685
  264TMC3    C7 4002   4.335   2.161  11.395  0.5389  0.2470 -0.3618
  264TMC3    C8 4003   4.153   2.554  11.587  0.5783 -0.2772 -0.0574
  264TMC3    O1 4004   4.293   2.161  11.279 -0.3381  0.4675  0.5681
  264TMC3    O2 4005   4.203   2.603  11.490 -0.0576 -0.3230 -0.1886
  265MPD2     C 4006   1.482   1.835  15.805 -0.3516  0.0553 -0.3316
  265MPD2    C1 4007   1.480   1.959  15.736 -0.1585 -0.4993 -0.1661
  265MPD2    C2 4008   1.524   1.959  15.602  0.0021  0.2706  0.4713
  265MPD2    C3 4009   1.571   1.836  15.548  0.0466 -0.7482 -0.2915
  265MPD2    C4 4010   1.591   1.723  15.623  0.8102 -0.4034  0.2914
  265MPD2    C5 4011   1.539   1.722  15.749 -0.2932  0.2735 -0.1179
  265MPD2     H 4012   1.510   2.046  15.539 -0.3402 -0.6313 -0.7200
  265MPD2    H1 4013   1.630   1.628  15.589  2.5507  0.3982  0.0402
  265MPD2    H2 4014   1.447   1.826  15.907  0.0308 -0.6041 -0.2539
  265MPD2    H3 4015   1.548   1.634  15.811 -0.5980  2.4588  3.0430
  265MPD2     N 4016   1.602   1.816  15.415  0.0737  1.0332  0.1696
  265MPD2    H5 4017   1.624   1.721  15.387 -0.8498  1.0666 -0.6716
  265MPD2    N1 4018   1.430   2.081  15.792 -0.0575 -0.2725  0.2909
  265MPD2    H7 4019   1.426   2.161  15.729 -0.2886 -1.2036 -0.8875
  266TMC3    C1 4020   1.350   2.237  15.961 -0.3201  0.3716  0.1689
  266TMC3    C2 4021   1.315   2.246  16.093 -0.1176 -0.3101  0.3596
  266TMC3    C3 4022   1.292   2.375  16.139 -0.2160 -0.1392 -1.0046
  266TMC3    C4 4023   1.343   2.340  15.869 -0.1769  0.0104 -0.3655
  266TMC3    C5 4024   1.322   2.460  15.925 -0.1401  0.6560 -0.1012
  266TMC3    C6 4025   1.294   2.481  16.057  0.3800  0.1248 -0.2764
  266TMC3     C 4026   1.387   2.101  15.925 -0.6295  0.1990  0.5907
  266TMC3     O 4027   1.394   2.024  16.017  0.2111  0.3934  0.4127
  266TMC3     H 4028   1.316   2.165  16.164  0.1866 -2.2073 -1.8223
  266TMC3    H1 4029   1.356   2.328  15.762 -0.4053 -1.6732 -0.2150
  266TMC3    H2 4030   1.258   2.575  16.097  0.1437 -0.3076  0.5361
  266TMC3    C7 4031   1.321   2.578  15.838  1.4063  0.3418  0.4351
  266TMC3    C8 4032   1.220   2.399  16.264 -0.4883  0.8245  0.5321
  266TMC3    O1 4033   1.326   2.560  15.719 -0.5038 -0.0817 -0.3119
  266TMC3    O2 4034   1.172   2.299  16.317  0.2219  0.0819  0.3552
  267MPD2     C 4035   4.114   3.204   0.109 -0.9102 -0.6877 -0.0938
  267MPD2    C1 4036   4.185   3.274   0.014 -0.5522 -0.1851 -0.4308
  267MPD2    C2 4037   4.152   3.260  17.575  0.1804 -0.3071 -0.0048
  267MPD2    C3 4038   4.042   3.174  17.538 -0.1899  0.5926 -0.0999
  267MPD2    C4 4039   3.975   3.107  17.636 -0.2122  0.1164 -0.0316
  267MPD2    C5 4040   4.003   3.131   0.069  0.0079 -0.4232  0.5226
  267MPD2     H 4041   4.204   3.317  17.499  1.8336 -3.0818 -0.9714
  267MPD2    H1 4042   3.882   3.055  17.615 -1.4052  2.8875 -1.6846
  267MPD2    H2 4043   4.134   3.204   0.215  3.3003  0.6840 -0.8480
  267MPD2    H3 4044   3.936   3.097   0.148 -0.4290 -0.3411  0.1850
  267MPD2     N 4045   3.993   3.158  17.405 -0.3781  0.0664 -0.0453
  267MPD2    H5 4046   3.896   3.130  17.399 -0.5809  0.4330  1.3439
  267MPD2    N1 4047   4.295   3.353   0.052  0.9215  0.0819  0.1994
  267MPD2    H7 4048   4.313   3.363   0.151  1.7073  2.6082 -0.1837
  268TMC3    C1 4049   4.474   3.499   0.051  0.5324 -0.4221  0.3619
  268TMC3    C2 4050   4.531   3.612   0.001  0.1467  0.2429 -0.5314
  268TMC3    C3 4051   4.632   3.671   0.066  0.0029  0.1334 -0.2100
  268TMC3    C4 4052   4.525   3.438   0.164  1.0577 -0.4556 -0.4843
  268TMC3    C5 4053   4.635   3.495   0.227 -0.5334 -0.0181 -0.0938
  268TMC3    C6 4054   4.687   3.617   0.182 -0.2999  0.5734 -0.5605
  268TMC3     C 4055   4.371   3.435  17.669 -0.1017  0.4425 -0.2768
  268TMC3     O 4056   4.368   3.464  17.549 -0.8609 -0.4504  0.3101
  268TMC3     H 4057   4.482   3.645  17.606  0.6767 -2.4519 -1.8054
  268TMC3    H1 4058   4.479   3.346   0.198  2.7856  0.3740  4.0455
  268TMC3    H2 4059   0.032   3.674   0.244  1.2839 -0.4338 -1.3862
  268TMC3    C7 4060   4.657   3.453   0.366  0.1345  0.3774  0.6614
  268TMC3    C8 4061   4.723   3.752  17.684  0.5108 -0.8855 -0.0423
  268TMC3    O1 4062   4.599   3.351   0.409 -1.1716 -0.0406  0.5127
  268TMC3    O2 4063   0.106   3.776   0.041  0.2976  0.1741 -0.2385
  269MPD2     C 4064   3.956   2.249  15.789 -0.3829  0.0537 -0.4577
  269MPD2    C1 4065   3.821   2.290  15.809 -1.0722 -0.5272  0.1824
  269MPD2    C2 4066   3.784   2.419  15.780 -0.0507 -1.4022  0.2018
  269MPD2    C3 4067   3.877   2.511  15.737 -0.6035  0.1893  0.5812
  269MPD2    C4 4068   4.002   2.465  15.701  0.1750  0.9721 -0.0484
  269MPD2    C5 4069   4.040   2.339  15.733 -0.1923  0.5739  0.5135
  269MPD2     H 4070   3.687   2.457  15.810  0.4175  1.5988 -2.0533
  269MPD2    H1 4071   4.076   2.525  15.649  0.8815  2.0768  2.2340
  269MPD2    H2 4072   3.989   2.150  15.820  0.0319 -0.3178 -2.0872
  269MPD2    H3 4073   4.140   2.311  15.700 -0.6499  0.2782 -0.6411
  269MPD2     N 4074   3.841   2.643  15.712  0.1340  0.0431  0.5476
  269MPD2    H5 4075   3.758   2.687  15.750 -0.0123  1.3032 -1.2067
  269MPD2    N1 4076   3.741   2.192  15.868 -0.4397 -0.1073  0.3735
  269MPD2    H7 4077   3.772   2.098  15.888 -2.7744 -1.3181 -1.6585
  270TMC3    C1 4078   3.555   2.078  15.935  0.1090 -0.0562  0.3331
  270TMC3    C2 4079   3.440   2.049  15.871 -0.5638 -0.1577  0.0658
  270TMC3    C3 4080   3.374   1.934  15.910 -0.0223 -0.6811  0.3143
  270TMC3    C4 4081   3.603   2.007  16.042  0.2590 -0.5894 -0.3807
  270TMC3    C5 4082   3.537   1.898  16.077  0.6869 -0.2496 -0.3821
  270TMC3    C6 4083   3.419   1.854  16.013  0.5562  0.4940  0.2860
  270TMC3     C 4084   3.608   2.208  15.896  0.0034 -0.1436 -0.1072
  270TMC3     O 4085   3.527   2.303  15.888  0.6544  0.0126 -0.2142
  270TMC3     H 4086   3.402   2.108  15.788 -0.7719 -1.0686 -0.4841
  270TMC3    H1 4087   3.695   2.043  16.088 -0.1802 -0.0643  0.0830
  270TMC3    H2 4088   3.353   1.783  16.061  1.9665 -0.9659  0.0853
  270TMC3    C7 4089   3.628   1.794  16.111  0.0584 -0.8744  0.1320
  270TMC3    C8 4090   3.312   1.857  15.809 -0.6917  0.1038 -1.3246
  270TMC3    O1 4091   3.745   1.826  16.135 -0.2184 -0.4424 -0.6334
  270TMC3    O2 4092   3.244   1.762  15.847 -0.3009  0.5686 -0.4712
  271MPD2     C 4093   3.120   2.289  14.085 -0.1705 -0.1817 -0.5474
  271MPD2    C1 4094   3.038   2.218  14.172  0.0966 -0.3784  0.3400
  271MPD2    C2 4095   2.905   2.251  14.181  0.1060  1.1435  0.1081
  271MPD2    C3 4096   2.852   2.347  14.103  0.7661  0.0373  0.7920
  271MPD2    C4 4097   2.932   2.422  14.023  0.0005  0.2844 -0.5176
  271MPD2    C5 4098   3.063   2.390  14.017 -0.3079 -0.6372 -0.3012
  271MPD2     H 4099   2.839   2.199  14.249 -0.9102  0.9468 -1.0494
  271MPD2    H1 4100   2.890   2.506  13.968  2.3630  0.3288 -2.2153
  271MPD2    H2 4101   3.228   2.279  14.088 -0.0573  1.4629  0.6502
  271MPD2    H3 4102   3.124   2.443  13.945 -0.7833  0.8438  0.3852
  271MPD2     N 4103   2.710   2.392  14.118 -0.0806  0.7162 -0.3154
  271MPD2    H5 4104   2.675   2.477  14.074 -0.7909  1.0629  0.9490
  271MPD2    N1 4105   3.085   2.122  14.266 -0.2087  0.1834  0.0092
  271MPD2    H7 4106   3.011   2.061  14.301  0.9403 -1.8433 -1.0606
  272TMC3    C1 4107   3.237   2.000  14.400  0.7772 -0.6624 -0.5923
  272TMC3    C2 4108   3.373   1.966  14.422  0.1000 -0.2343  0.5521
  272TMC3    C3 4109   3.408   1.922  14.548  0.1413  0.1489 -0.0432
  272TMC3    C4 4110   3.140   1.973  14.494  0.2000 -0.3567 -0.1806
  272TMC3    C5 4111   3.184   1.936  14.618 -0.0296  0.3545  0.4478
  272TMC3    C6 4112   3.312   1.900  14.646  1.2041  0.2703  0.1934
  272TMC3     C 4113   3.218   2.088  14.288 -0.7430 -0.6658 -0.4522
  272TMC3     O 4114   3.315   2.143  14.240  0.0528 -0.3087 -0.1358
  272TMC3     H 4115   3.453   1.979  14.350  1.3885  0.6568  2.1687
  272TMC3    H1 4116   3.033   1.989  14.484 -0.0371  0.0572  3.1636
  272TMC3    H2 4117   3.348   1.864  14.742  0.6020 -2.3792 -0.5914
  272TMC3    C7 4118   3.102   1.956  14.728 -0.0605 -0.0470  0.8927
  272TMC3    C8 4119   3.551   1.914  14.583 -0.7694 -0.5281  0.4279
  272TMC3    O1 4120   2.987   1.915  14.720  0.3075 -0.5018  0.0414
  272TMC3    O2 4121   3.626   1.985  14.515  0.3973 -0.2174 -0.3718
  273MPD2     C 4122   4.660   0.230  12.105 -0.5195  0.1417 -0.3322
  273MPD2    C1 4123   0.059   0.294  12.101  0.3259  0.3771 -1.0288
  273MPD2    C2 4124   0.095   0.344  11.978 -0.5616  0.0705 -0.0353
  273MPD2    C3 4125   0.025   0.330  11.863 -0.3049 -0.1257  0.1911
  273MPD2    C4 4126   4.633   0.258  11.863  0.1806 -0.3617  0.2334
  273MPD2    C5 4127   4.596   0.210  11.985 -0.0423  0.0989  0.5906
  273MPD2     H 4128   0.192   0.394  11.975 -1.1513  1.1267 -1.5017
  273MPD2    H1 4129   4.570   0.249  11.775 -0.7738 -1.2893  1.0249
  273MPD2    H2 4130   4.616   0.200  12.199  1.9294  2.0622  1.4353
  273MPD2    H3 4131   4.502   0.155  11.983 -0.2100  0.5110 -2.9801
  273MPD2     N 4132   0.057   0.393  11.740  0.8768  0.5550  0.9594
  273MPD2    H5 4133   0.007   0.366  11.656  1.2376 -2.1537  1.6083
  273MPD2    N1 4134   0.131   0.306  12.223  0.0312 -0.5917 -0.3192
  273MPD2    H7 4135   0.099   0.271  12.312  1.6681 -1.3199 -0.0115
  274TMC3    C1 4136   0.166   0.572  11.619 -0.2787  0.0917  0.0929
  274TMC3    C2 4137   0.052   0.586  11.547  0.1847  0.5805 -0.3366
  274TMC3    C3 4138   0.014   0.711  11.503 -0.4336 -0.5318 -0.2279
  274TMC3    C4 4139   0.231   0.683  11.656 -0.6134 -0.1829 -0.0523
  274TMC3    C5 4140   0.179   0.807  11.631 -0.3248  1.1704 -1.0061
  274TMC3    C6 4141   0.068   0.822  11.557  0.0755  0.5328 -0.0000
  274TMC3     C 4142   0.146   0.498  11.735  0.3043  0.3995  0.7849
  274TMC3     O 4143   0.192   0.557  11.833 -0.0230  0.3864  0.3055
  274TMC3     H 4144   0.011   0.500  11.496  1.1601  1.1898 -2.1200
  274TMC3    H1 4145   0.328   0.671  11.703  0.1228  0.9710 -1.2996
  274TMC3    H2 4146   0.010   0.913  11.555 -2.0780 -0.8828 -2.5914
  274TMC3    C7 4147   0.222   0.931  11.713  0.0923 -0.3827 -0.2020
  274TMC3    C8 4148   4.626   0.724  11.413 -1.1232  0.1039 -0.2481
  274TMC3    O1 4149   0.159   1.036  11.692 -0.8155  0.6103  0.0520
  274TMC3    O2 4150   4.600   0.832  11.365  0.2861 -0.4225 -0.0910
  275MPD2     C 4151   4.473   3.253  14.555 -0.4149  0.2538  0.1683
  275MPD2    C1 4152   4.420   3.214  14.667  0.2189 -0.4587  0.8605
  275MPD2    C2 4153   4.295   3.160  14.670  0.2693  0.1148 -0.3494
  275MPD2    C3 4154   4.213   3.156  14.558 -0.3657  0.3616  0.0438
  275MPD2    C4 4155   4.275   3.201  14.437  0.1103 -0.0510 -0.6129
  275MPD2    C5 4156   4.406   3.237  14.434 -0.2728  0.1140  0.0886
  275MPD2     H 4157   4.260   3.122  14.766  1.3420  0.0827  0.0271
  275MPD2    H1 4158   4.222   3.197  14.342  0.2680 -0.7770 -0.6700
  275MPD2    H2 4159   4.576   3.287  14.548 -0.5265  0.5095 -0.2231
  275MPD2    H3 4160   4.449   3.266  14.338 -0.6010 -1.2298 -0.4662
  275MPD2     N 4161   4.081   3.117  14.545 -0.1796 -0.0136  0.2648
  275MPD2    H5 4162   4.049   3.120  14.449  2.3878  0.1077 -0.5727
  275MPD2    N1 4163   4.481   3.233  14.792  0.4516 -0.4780 -0.1584
  275MPD2    H7 4164   4.419   3.215  14.871  0.8686  4.5520  1.3086
  276TMC3    C1 4165   4.619   3.313  14.970 -0.0554 -0.1437 -0.4845
  276TMC3    C2 4166   4.514   3.278  15.054  0.0497  0.6715  0.3456
  276TMC3    C3 4167   4.528   3.299  15.194  0.0616  0.0626  0.8833
  276TMC3    C4 4168   0.008   3.373  15.019 -0.1538  0.5121 -0.2190
  276TMC3    C5 4169   0.017   3.379  15.157  0.0035 -0.5215 -0.7360
  276TMC3    C6 4170   4.645   3.343  15.247  0.3166 -0.1631 -0.0871
  276TMC3     C 4171   4.601   3.296  14.823  0.6158 -0.2240  0.6468
  276TMC3     O 4172   4.680   3.352  14.744 -0.2356 -0.0169  0.4048
  276TMC3     H 4173   4.412   3.255  15.025 -0.2194  1.3635  0.7257
  276TMC3    H1 4174   0.088   3.398  14.950 -1.0656 -2.4395 -2.3182
  276TMC3    H2 4175   4.670   3.329  15.351  0.7350  3.1749  0.2479
  276TMC3    C7 4176   0.151   3.392  15.213  0.6429 -0.2381  0.5387
  276TMC3    C8 4177   4.456   3.216  15.286 -0.2891  0.3106 -0.2475
  276TMC3    O1 4178   0.190   3.307  15.292  0.1913 -0.2793  0.6275
  276TMC3    O2 4179   4.451   3.269  15.395 -0.7386  0.3396 -0.1032
  277MPD2     C 4180   1.405   2.051  13.618 -0.1653  0.1725  0.4336
  277MPD2    C1 4181   1.371   2.184  13.617 -0.4251  0.3323 -0.4850
  277MPD2    C2 4182   1.269   2.209  13.707 -0.1782  0.0412  0.6696
  277MPD2    C3 4183   1.207   2.113  13.788  0.1679  0.5084 -0.6769
  277MPD2    C4 4184   1.247   1.986  13.785  0.1050 -0.2578  0.3728
  277MPD2    C5 4185   1.346   1.955  13.697  0.1265  0.4316 -0.6565
  277MPD2     H 4186   1.238   2.311  13.722 -0.4621 -0.0370  0.6226
  277MPD2    H1 4187   1.203   1.902  13.835 -1.1869 -1.2041 -2.3411
  277MPD2    H2 4188   1.481   2.021  13.546 -0.2580  0.2694  0.2955
  277MPD2    H3 4189   1.371   1.850  13.683  1.8447  0.6622  0.5798
  277MPD2     N 4190   1.095   2.159  13.860 -0.3046  0.5135  0.1982
  277MPD2    H5 4191   1.084   2.260  13.866 -1.1219  0.3967  0.6894
  277MPD2    N1 4192   1.427   2.284  13.538  0.1110  0.4948 -0.2241
  277MPD2    H7 4193   1.411   2.381  13.564 -0.8789 -0.1485  1.5283
  278TMC3    C1 4194   0.891   2.170  13.969  0.9114  0.3147 -0.0815
  278TMC3    C2 4195   0.814   2.102  14.058 -0.9527 -0.0479 -0.4399
  278TMC3    C3 4196   0.679   2.089  14.042 -0.2314  0.4476 -0.1980
  278TMC3    C4 4197   0.828   2.247  13.875 -0.3305 -0.1097 -0.2719
  278TMC3    C5 4198   0.691   2.256  13.873 -0.2926 -0.0574  0.0037
  278TMC3    C6 4199   0.616   2.176  13.954  0.2586  0.5071 -0.2659
  278TMC3     C 4200   1.003   2.089  13.931 -0.2769 -0.2775 -0.4187
  278TMC3     O 4201   0.991   1.966  13.941 -0.0538 -0.1956 -0.1231
  278TMC3     H 4202   0.873   2.040  14.126  0.8474  0.8737 -1.1632
  278TMC3    H1 4203   0.890   2.311  13.813  1.5597 -1.1782  0.5161
  278TMC3    H2 4204   0.512   2.165  13.927 -0.0763 -0.4532  1.4108
  278TMC3    C7 4205   0.646   2.384  13.814  0.0297  0.3647  0.2184
  278TMC3    C8 4206   0.623   1.959  14.047 -0.3643  0.1254  0.4910
  278TMC3    O1 4207   0.727   2.462  13.764  0.4628 -0.3016  0.0736
  278TMC3    O2 4208   0.501   1.943  14.049 -0.4352  0.0875 -0.1939
  279MPD2     C 4209   1.020   2.302   0.796 -0.0637 -0.7203 -0.4985
  279MPD2    C1 4210   0.924   2.231   0.718 -0.1896 -0.1354  0.3148
  279MPD2    C2 4211   0.921   2.249   0.580  0.1031 -0.0311  0.4198
  279MPD2    C3 4212   1.011   2.337   0.517 -0.1996 -0.5244 -0.1085
  279MPD2    C4 4213   1.104   2.397   0.594 -0.0803 -0.5694 -0.3282
  279MPD2    C5 4214   1.110   2.382   0.726 -0.0728 -0.4116 -0.0328
  279MPD2     H 4215   0.838   2.207   0.525  0.7473  1.0131 -1.3640
  279MPD2    H1 4216   1.181   2.460   0.550 -0.5539  0.8205  0.8178
  279MPD2    H2 4217   1.026   2.295   0.904  0.3548  0.4375 -0.4402
  279MPD2    H3 4218   1.191   2.428   0.782 -0.7227 -0.3562  0.8743
  279MPD2     N 4219   1.001   2.363   0.377  0.3009  0.8317  0.6047
  279MPD2    H5 4220   1.062   2.438   0.349  0.5881  1.5541  3.1360
  279MPD2    N1 4221   0.834   2.147   0.791  0.1480 -0.2768  0.4487
  279MPD2    H7 4222   0.828   2.163   0.891  1.3424 -1.6579  0.7411
  280TMC3    C1 4223   0.641   2.010   0.830  0.1116 -0.5077  0.1059
  280TMC3    C2 4224   0.575   1.897   0.796  0.1704  1.0671 -0.1457
  280TMC3    C3 4225   0.441   1.893   0.823  0.5968  0.3402 -0.0111
  280TMC3    C4 4226   0.572   2.107   0.896  0.0462  0.3039  0.6266
  280TMC3    C5 4227   0.440   2.112   0.894 -0.2701  0.5249  1.1273
  280TMC3    C6 4228   0.369   1.998   0.866 -0.1798 -0.1177  0.0909
  280TMC3     C 4229   0.750   2.055   0.739  0.2607 -0.0713  0.0579
  280TMC3     O 4230   0.735   2.015   0.624  0.0937  0.0160 -0.0179
  280TMC3     H 4231   0.628   1.815   0.748  2.0497  3.1398 -1.6093
  280TMC3    H1 4232   0.626   2.200   0.910  1.3754 -0.3868  0.0144
  280TMC3    H2 4233   0.263   1.980   0.881 -0.3913  1.7016  0.6631
  280TMC3    C7 4234   0.374   2.236   0.930 -1.0600 -0.3277 -0.1855
  280TMC3    C8 4235   0.388   1.758   0.846 -0.1666  0.0006 -0.9359
  280TMC3    O1 4236   0.443   2.317   0.989  0.2397 -0.4003  0.2603
  280TMC3    O2 4237   0.268   1.742   0.845  0.4752 -0.7786  0.0887
  281TMC3    C1 4238   4.663   2.735  13.386 -0.3145 -0.6972  0.2269
  281TMC3    C2 4239   4.638   2.785  13.260  0.2771  0.0383 -0.0810
  281TMC3    C3 4240   4.576   2.702  13.169  1.2240  0.2600  0.2186
  281TMC3    C4 4241   4.639   2.606  13.415  0.6009  0.3780 -0.1843
  281TMC3    C5 4242   4.587   2.528  13.320 -0.2701  0.4233  0.9887
  281TMC3    C6 4243   4.542   2.574  13.197 -0.3062  0.1411  0.2285
  281TMC3     C 4244   4.620   2.809  13.499  0.0462 -0.3785  0.0647
  281TMC3     O 4245   4.666   2.776  13.609 -0.0372  0.3777  0.7489
  281TMC3     H 4246   4.657   2.890  13.241  0.7128 -0.0093  0.0898
  281TMC3    H1 4247   4.660   2.560  13.511 -0.9703  0.3955  0.1598
  281TMC3    H2 4248   4.534   2.500  13.118  1.0870  0.4027 -0.1577
  281TMC3    C7 4249   4.554   2.390  13.349 -0.0484 -0.8109 -0.0544
  281TMC3    C8 4250   4.504   2.773  13.063 -0.1506  0.2111 -0.6079
  281TMC3    O1 4251   4.643   2.322  13.394  0.8762  0.3900 -0.5697
  281TMC3    O2 4252   4.545   2.886  13.040  0.0203  0.4932 -0.0734
  282MPD2     C 4253   1.656   3.784  15.744  0.0939 -0.0911 -0.0127
  282MPD2    C1 4254   1.515   3.796  15.742 -0.6163 -0.4104  0.5828
  282MPD2    C2 4255   1.446   3.830  15.628 -0.5509 -0.2742  0.1250
  282MPD2    C3 4256   1.516   3.835  15.508  0.3330 -0.2325  0.3490
  282MPD2    C4 4257   1.650   3.829  15.504  0.0502 -0.4341 -0.2986
  282MPD2    C5 4258   1.716   3.809  15.624  0.8186 -0.4499 -0.1417
  282MPD2     H 4259   1.338   3.838  15.624 -0.4620  0.6693 -0.3419
  282MPD2    H1 4260   1.709   3.857  15.417  1.9211  2.1792  1.8252
  282MPD2    H2 4261   1.718   3.780  15.833 -0.7393  1.5649  0.6440
  282MPD2    H3 4262   1.824   3.818  15.621  0.6926  1.1033  0.2474
  282MPD2     N 4263   1.436   3.851  15.390 -0.4190  0.3228 -0.4179
  282MPD2    H5 4264   1.338   3.863  15.411 -0.0715  1.1792  0.7121
  282MPD2    N1 4265   1.436   3.797  15.862 -0.1147  0.0878  0.5277
  282MPD2    H7 4266   1.335   3.802  15.858 -0.1751 -1.4031  0.3891
  283TMC3    C1 4267   1.383   3.794  16.086 -0.6396  0.6203  0.0831
  283TMC3    C2 4268   1.362   3.900  16.167 -0.3739  0.6253  0.0360
  283TMC3    C3 4269   1.271   3.876  16.267 -0.6038  0.2530  0.6693
  283TMC3    C4 4270   1.328   3.669  16.095 -0.4735 -0.9523 -0.4719
  283TMC3    C5 4271   1.238   3.650  16.201  0.5812  0.3677 -0.3352
  283TMC3    C6 4272   1.209   3.755  16.285  0.5184 -0.6524 -0.4131
  283TMC3     C 4273   1.491   3.797  15.989 -0.1577 -0.9776  0.0044
  283TMC3     O 4274   1.613   3.804  16.024  0.7253 -0.4023 -0.1796
  283TMC3     H 4275   1.435   3.981  16.158  0.9951 -0.6288 -0.1750
  283TMC3    H1 4276   1.353   3.583  16.035  2.2860 -1.3044  1.1933
  283TMC3    H2 4277   1.125   3.740  16.352  0.9185 -1.7210 -0.1531
  283TMC3    C7 4278   1.182   3.522  16.228 -0.1857  0.2406 -0.1007
  283TMC3    C8 4279   1.208   3.990  16.331  0.4733  0.1788 -0.2361
  283TMC3    O1 4280   1.147   3.509  16.349 -0.2149  0.3175  0.0642
  283TMC3    O2 4281   1.149   3.984  16.437  0.2403 -0.3540 -0.3342
  284MPD2     C 4282   0.352   3.474  12.266  0.2482  0.2785  0.0611
  284MPD2    C1 4283   0.308   3.445  12.143  0.4348  0.6928 -0.4937
  284MPD2    C2 4284   0.254   3.322  12.115 -0.3637  0.5471  0.4386
  284MPD2    C3 4285   0.246   3.225  12.206  0.9298  0.4334  0.2199
  284MPD2    C4 4286   0.288   3.253  12.335 -0.5130  0.0421 -0.1257
  284MPD2    C5 4287   0.340   3.377  12.365  0.3748 -0.2258  0.1652
  284MPD2     H 4288   0.227   3.296  12.013  0.0972 -1.0222  0.7259
  284MPD2    H1 4289   0.280   3.185  12.419  1.8881  0.8023  0.6967
  284MPD2    H2 4290   0.401   3.566  12.296 -0.5251 -0.0934  2.4772
  284MPD2    H3 4291   0.375   3.402  12.465  1.4759 -2.2390  0.2758
  284MPD2     N 4292   0.176   3.100  12.206  0.4856 -0.3026 -0.0200
  284MPD2    H5 4293   0.188   3.039  12.286 -0.6973 -0.6238 -0.0781
  284MPD2    N1 4294   0.323   3.533  12.032 -0.1215 -0.9206 -0.0336
  284MPD2    H7 4295   0.275   3.506  11.947 -1.0625 -0.9330  0.4892
  285TMC3    C1 4296   0.379   3.712  11.895 -0.1389 -1.3299  0.5508
  285TMC3    C2 4297   0.385   3.626  11.789  0.0182  0.5744 -0.1991
  285TMC3    C3 4298   0.347   3.676  11.671 -0.2665 -0.0337  0.3278
  285TMC3    C4 4299   0.366   3.851  11.884 -0.1403  0.4678  0.2467
  285TMC3    C5 4300   0.326   3.893  11.761  0.3526  0.0922  0.3516
  285TMC3    C6 4301   0.311   3.808  11.655 -0.5902  0.0209  0.3120
  285TMC3     C 4302   0.378   3.656  12.034 -0.0744  0.5824  0.3228
  285TMC3     O 4303   0.432   3.716  12.123 -0.3636  0.1000  0.0894
  285TMC3     H 4304   0.409   3.522  11.810 -1.2362  0.0026 -1.5421
  285TMC3    H1 4305   0.374   3.910  11.974 -0.6936  0.6352  0.1888
  285TMC3    H2 4306   0.285   3.849  11.558  2.1196 -0.8259 -0.7834
  285TMC3    C7 4307   0.322   4.035  11.731 -1.2259 -0.9568 -0.1490
  285TMC3    C8 4308   0.295   3.581  11.578  0.1177 -0.5714  0.1091
  285TMC3    O1 4309   0.405   4.108  11.782  0.5577  0.7728  0.7999
  285TMC3    O2 4310   0.233   3.483  11.625 -0.8903  0.1098  0.5500
  286MPD2     C 4311   4.424   2.263   1.637 -0.4136 -0.1969 -0.4169
  286MPD2    C1 4312   4.438   2.224   1.506  0.4498  0.4017 -0.2354
  286MPD2    C2 4313   4.453   2.093   1.464  0.4474 -0.1558  1.3247
  286MPD2    C3 4314   4.456   1.992   1.563  0.2071  0.5993  0.1901
  286MPD2    C4 4315   4.440   2.025   1.697  0.0051 -0.0060  0.4846
  286MPD2    C5 4316   4.422   2.164   1.734  0.3402 -0.3543 -0.1055
  286MPD2     H 4317   4.463   2.063   1.361 -1.3673  1.7055  0.5890
  286MPD2    H1 4318   4.450   1.957   1.780  1.0383 -3.0230 -2.1216
  286MPD2    H2 4319   4.407   2.367   1.661  0.6063  0.0309 -0.7059
  286MPD2    H3 4320   4.404   2.197   1.835  2.4461 -0.4730  0.3095
  286MPD2     N 4321   4.499   1.860   1.532  0.1083  0.5492 -0.3448
  286MPD2    H5 4322   4.508   1.800   1.613  0.1733  1.2781  0.1862
  286MPD2    N1 4323   4.444   2.325   1.404 -0.3568  0.3452 -0.3227
  286MPD2    H7 4324   4.430   2.290   1.310 -1.9699 -1.6458  0.6742
  287TMC3    C1 4325   4.620   1.686   1.427  0.8931  0.5971 -0.0053
  287TMC3    C2 4326   4.627   1.610   1.310  0.2467 -0.8160 -0.1393
  287TMC3    C3 4327   4.679   1.485   1.320  0.0509 -0.0482  0.2640
  287TMC3    C4 4328   4.679   1.649   1.543 -0.2263  0.3759 -0.4251
  287TMC3    C5 4329   0.014   1.525   1.544 -0.0087  0.5392  0.0283
  287TMC3    C6 4330   0.013   1.437   1.432 -0.1995 -0.3196 -0.1528
  287TMC3     C 4331   4.542   1.811   1.410 -0.5041 -0.3200 -0.1081
  287TMC3     O 4332   4.498   1.843   1.298  0.2310 -0.3621 -0.0953
  287TMC3     H 4333   4.584   1.657   1.222 -1.0894  0.2121  1.0631
  287TMC3    H1 4334   4.682   1.710   1.632 -0.9165 -0.7980  0.4067
  287TMC3    H2 4335   0.049   1.335   1.428 -0.5078 -0.3766 -1.7493
  287TMC3    C7 4336   0.086   1.468   1.658 -0.5390 -0.3503  0.5903
  287TMC3    C8 4337   4.654   1.391   1.208 -0.2755 -0.1540  0.3186
  287TMC3    O1 4338   0.077   1.523   1.768  0.5572 -0.0478  0.0903
  287TMC3    O2 4339   4.609   1.284   1.246 -0.0418  0.2043  0.3641
  288TMC3    C1 4340   1.166   1.581  14.852 -0.4952  0.4512 -0.6532
  288TMC3    C2 4341   1.183   1.550  14.987 -0.0761  0.5466 -1.1137
  288TMC3    C3 4342   1.198   1.662  15.068  0.2922  0.0453  0.8215
  288TMC3    C4 4343   1.194   1.702  14.795 -0.2972  0.6112  0.1993
  288TMC3    C5 4344   1.216   1.806  14.884  0.8037  0.3672 -0.1608
  288TMC3    C6 4345   1.209   1.789  15.021  0.0493 -0.2473  0.3990
  288TMC3     C 4346   1.143   1.468  14.757 -0.5784  0.2651 -0.2691
  288TMC3     O 4347   1.157   1.353  14.800 -0.3548 -0.6358  0.4370
  288TMC3     H 4348   1.182   1.447  15.021  2.7148  0.6931 -0.5520
  288TMC3    H1 4349   1.197   1.716  14.688 -1.7189  0.4796  0.1403
  288TMC3    H2 4350   1.223   1.871  15.091 -2.0238  0.5746 -0.1277
  288TMC3    C7 4351   1.245   1.932  14.818 -0.2298  0.1310  0.3703
  288TMC3    C8 4352   1.237   1.645  15.197 -0.1080 -0.2884  0.6813
  288TMC3    O1 4353   1.230   1.941  14.698  0.0269  0.0608 -0.3534
  288TMC3    O2 4354   1.305   1.730  15.255 -0.2564  0.0767  0.2862
  289MPD2     C 4355   1.569   0.769  14.983 -0.3457 -0.3967 -0.8101
  289MPD2    C1 4356   1.561   0.852  14.873 -0.8898  0.4009 -0.9744
  289MPD2    C2 4357   1.440   0.859  14.802  0.3934  0.2625  0.4855
  289MPD2    C3 4358   1.336   0.776  14.827  0.1575  0.1998  0.3572
  289MPD2    C4 4359   1.360   0.682  14.929  0.0084  0.5346  0.1090
  289MPD2    C5 4360   1.472   0.678  14.998 -0.4274  0.2619 -0.4714
  289MPD2     H 4361   1.428   0.939  14.729  0.7775  0.2457  0.3999
  289MPD2    H1 4362   1.278   0.620  14.961 -1.3213  1.5035 -1.3949
  289MPD2    H2 4363   1.657   0.767  15.045 -2.1793  1.8421  1.8833
  289MPD2    H3 4364   1.478   0.609  15.081  0.2073  2.2511  1.1238
  289MPD2     N 4365   1.205   0.793  14.785 -0.4264 -0.5212 -0.0790
  289MPD2    H5 4366   1.134   0.730  14.820  0.4249 -0.5875  1.4904
  289MPD2    N1 4367   1.669   0.935  14.847 -0.0227 -0.0234  0.0247
  289MPD2    H7 4368   1.739   0.947  14.919 -0.3372  1.1409  0.1361
  290TMC3    C1 4369   1.018   0.887  14.687 -0.1588  0.3789  0.3680
  290TMC3    C2 4370   0.960   1.009  14.672  0.1216 -0.0598  0.2916
  290TMC3    C3 4371   0.828   1.010  14.622 -0.2909 -0.2695 -0.2149
  290TMC3    C4 4372   0.961   0.771  14.655 -0.2132  0.1565 -0.2140
  290TMC3    C5 4373   0.844   0.781  14.586  0.7785 -0.3544 -0.4844
  290TMC3    C6 4374   0.769   0.894  14.577 -0.4824  0.3559  0.6340
  290TMC3     C 4375   1.161   0.897  14.707  0.1375  0.1871 -0.3108
  290TMC3     O 4376   1.225   0.985  14.651 -0.7386  0.6720  0.4113
  290TMC3     H 4377   1.019   1.095  14.701  0.4125 -0.2446  0.2416
  290TMC3    H1 4378   1.016   0.678  14.658 -0.5861 -0.0703 -0.3750
  290TMC3    H2 4379   0.669   0.886  14.535  0.4923 -0.3181 -1.5937
  290TMC3    C7 4380   0.779   0.655  14.554  0.4216  0.6501  0.3118
  290TMC3    C8 4381   0.762   1.139  14.581 -0.0768 -0.1330 -0.6050
  290TMC3    O1 4382   0.709   0.648  14.453  0.4273 -0.3188 -0.5216
  290TMC3    O2 4383   0.686   1.137  14.484 -0.2033  0.5414  0.4105
  291MPD2     C 4384   0.235   0.710   0.884  0.4465 -0.2884  0.4219
  291MPD2    C1 4385   0.374   0.706   0.903 -0.7558  0.4047  0.3559
  291MPD2    C2 4386   0.454   0.815   0.872  0.6074 -0.6182 -0.3094
  291MPD2    C3 4387   0.395   0.937   0.838 -0.0134  0.5887  0.2656
  291MPD2    C4 4388   0.257   0.942   0.831  0.2125  0.4070 -0.2856
  291MPD2    C5 4389   0.181   0.829   0.843  1.0071 -0.6542 -0.1103
  291MPD2     H 4390   0.562   0.807   0.874  0.8229  2.3211 -0.6013
  291MPD2    H1 4391   0.208   1.030   0.791 -1.5021  0.0502  1.0125
  291MPD2    H2 4392   0.168   0.628   0.909  0.2109  0.4094  2.0968
  291MPD2    H3 4393   0.075   0.837   0.823  0.8754  0.8492  1.1853
  291MPD2     N 4394   0.451   1.059   0.806  0.3506  0.0113 -0.1036
  291MPD2    H5 4395   0.390   1.133   0.771  0.9539  1.4988  2.0357
  291MPD2    N1 4396   0.430   0.583   0.950  0.0303 -0.0850 -0.1042
  291MPD2    H7 4397   0.531   0.580   0.965  0.0012 -0.6583 -0.0318
  292TMC3    C1 4398   0.466   0.360   0.980 -0.2756  0.9182 -0.8777
  292TMC3    C2 4399   0.561   0.366   1.086 -0.5270 -0.0593 -0.5683
  292TMC3    C3 4400   0.632   0.249   1.105  0.2836 -0.2358 -0.0692
  292TMC3    C4 4401   0.449   0.251   0.904  0.2875 -0.1536  0.8451
  292TMC3    C5 4402   0.527   0.141   0.923  0.3094 -0.5287  0.2358
  292TMC3    C6 4403   0.620   0.141   1.021  0.8459 -0.1368  0.1159
  292TMC3     C 4404   0.362   0.463   0.967  0.4121 -0.6795 -0.0344
  292TMC3     O 4405   0.242   0.433   0.953  0.1596  0.2641  0.0825
  292TMC3     H 4406   0.580   0.461   1.134 -0.6587  0.5375 -1.7006
  292TMC3    H1 4407   0.368   0.260   0.833  1.3438  1.1436 -0.1978
  292TMC3    H2 4408   0.665   0.046   1.047 -1.7213 -1.7942 -1.4993
  292TMC3    C7 4409   0.518   0.016   0.842  0.0341  0.3688 -0.0861
  292TMC3    C8 4410   0.688   0.232   1.240 -0.1008 -0.2128 -0.5324
  292TMC3    O1 4411   0.613   4.657   0.847  0.2099  0.3615 -0.3071
  292TMC3    O2 4412   0.721   0.336   1.292 -0.1306  0.3274  0.2339
  293MPD2     C 4413   2.698   2.255  12.743  0.3608  0.4449  0.4184
  293MPD2    C1 4414   2.619   2.171  12.818  0.9606 -0.4487  0.6663
  293MPD2    C2 4415   2.630   2.182  12.960 -0.3732 -0.1800  0.6512
  293MPD2    C3 4416   2.714   2.276  13.020 -0.0654 -0.4362 -0.4163
  293MPD2    C4 4417   2.786   2.357  12.938 -0.1455  0.3714  0.5756
  293MPD2    C5 4418   2.781   2.346  12.804  0.1461  0.3112  0.2247
  293MPD2     H 4419   2.568   2.120  13.024 -0.0506 -0.7264  0.4363
  293MPD2    H1 4420   2.853   2.437  12.968 -0.4504  0.0844  2.0452
  293MPD2    H2 4421   2.697   2.260  12.635  1.0432 -0.2789  0.3797
  293MPD2    H3 4422   2.837   2.418  12.747  1.7587 -0.5823  0.7024
  293MPD2     N 4423   2.722   2.289  13.161  0.5434 -0.3498  0.4834
  293MPD2    H5 4424   2.677   2.216  13.216 -1.6707  0.5181 -0.1791
  293MPD2    N1 4425   2.543   2.071  12.748 -0.3213 -0.0877  0.0304
  293MPD2    H7 4426   2.561   2.071  12.648 -1.1751  1.3355 -0.1205
  294TMC3    C1 4427   2.389   1.889  12.716  0.9346  1.2572 -0.6088
  294TMC3    C2 4428   2.313   1.786  12.767  0.7709 -0.7183 -0.4672
  294TMC3    C3 4429   2.231   1.718  12.681  0.0068 -0.7840 -0.4009
  294TMC3    C4 4430   2.387   1.931  12.583  0.0526 -0.9392  0.3569
  294TMC3    C5 4431   2.317   1.844  12.499 -0.2281  1.3236 -0.1029
  294TMC3    C6 4432   2.239   1.742  12.552  0.1308  0.0417  1.0176
  294TMC3     C 4433   2.456   1.979  12.810  0.2394 -0.3306 -0.3663
  294TMC3     O 4434   2.454   1.955  12.930 -0.2314  0.5515  0.2626
  294TMC3     H 4435   2.311   1.763  12.873  0.1833 -0.5819 -0.4463
  294TMC3    H1 4436   2.427   2.023  12.541  0.2841 -1.2558 -0.1116
  294TMC3    H2 4437   2.169   1.689  12.489  1.3700 -0.9470  0.4853
  294TMC3    C7 4438   2.335   1.833  12.359 -0.9071  0.1964  0.0915
  294TMC3    C8 4439   2.130   1.620  12.730 -0.0569  0.4406  0.1349
  294TMC3    O1 4440   2.256   1.768  12.301  0.0198  0.0526 -0.4003
  294TMC3    O2 4441   2.107   1.616  12.852  0.0357 -0.3742 -0.0811
  295MPD2     C 4442   2.778   0.040   1.138  0.2987  0.4887 -0.6301
  295MPD2    C1 4443   2.698   0.144   1.086  0.2368  0.3346 -0.3544
  295MPD2    C2 4444   2.653   0.241   1.172 -0.0616 -0.3099 -0.1208
  295MPD2    C3 4445   2.690   0.244   1.306  0.2678  0.9778  0.6168
  295MPD2    C4 4446   2.778   0.145   1.352 -0.0267 -0.0884  0.2757
  295MPD2    C5 4447   2.812   0.042   1.268 -1.0106 -0.5755  0.5762
  295MPD2     H 4448   2.597   0.327   1.137 -0.7226 -0.8914 -0.4938
  295MPD2    H1 4449   2.822   0.143   1.451  1.2256  1.2228 -0.2698
  295MPD2    H2 4450   2.818   4.688   1.072  0.9625 -0.2102  0.5717
  295MPD2    H3 4451   2.865   4.681   1.309 -1.0737 -0.6200  0.5672
  295MPD2     N 4452   2.654   0.348   1.401 -1.2222  0.3662  0.4071
  295MPD2    H5 4453   2.713   0.353   1.483 -0.2261 -1.0907 -0.2316
  295MPD2    N1 4454   2.669   0.144   0.947 -0.2313 -0.0248  0.5649
  295MPD2    H7 4455   2.624   0.227   0.911 -1.2345 -0.3709  1.0275
  296TMC3    C1 4456   2.589   0.564   1.482 -0.5781  0.4733 -0.1284
  296TMC3    C2 4457   2.501   0.664   1.462 -0.2497  0.3587 -0.3680
  296TMC3    C3 4458   2.531   0.791   1.467  0.3511 -0.8993 -0.2765
  296TMC3    C4 4459   2.723   0.597   1.513  0.6268  0.6675  0.0892
  296TMC3    C5 4460   2.749   0.729   1.538  1.2217  0.1199  0.3509
  296TMC3    C6 4461   2.660   0.833   1.511  0.1400 -0.3888  0.1073
  296TMC3     C 4462   2.573   0.460   1.378 -0.1930  0.2482 -0.4911
  296TMC3     O 4463   2.487   0.456   1.289 -0.0056 -0.0964 -0.4956
  296TMC3     H 4464   2.399   0.638   1.434  0.4200 -1.9647 -0.6999
  296TMC3    H1 4465   2.802   0.522   1.508 -0.4272 -0.4376 -0.0086
  296TMC3    H2 4466   2.701   0.931   1.533  0.5270 -1.0625  2.2919
  296TMC3    C7 4467   2.879   0.759   1.577 -0.1591  0.1061  0.1127
  296TMC3    C8 4468   2.436   0.889   1.432 -0.2295 -0.3923 -0.2480
  296TMC3    O1 4469   2.918   0.869   1.534 -0.2577  0.1891 -0.4097
  296TMC3    O2 4470   2.319   0.851   1.428  0.0902 -0.4744  0.6577
  297MPD2     C 4471   0.629   2.324  16.837 -0.2326 -0.0341  0.3539
  297MPD2    C1 4472   0.591   2.357  16.708  0.2457 -0.0774 -0.1122
  297MPD2    C2 4473   0.641   2.463  16.644 -0.0028  0.5950  0.2047
  297MPD2    C3 4474   0.734   2.539  16.706 -0.0445 -0.2862 -0.5540
  297MPD2    C4 4475   0.778   2.506  16.834 -0.1722  0.3834 -0.2443
  297MPD2    C5 4476   0.728   2.392  16.902 -0.0136  1.1223  0.0782
  297MPD2     H 4477   0.598   2.473  16.545  2.6582  3.9504 -0.5900
  297MPD2    H1 4478   0.867   2.555  16.871  1.3894 -2.7630  0.2002
  297MPD2    H2 4479   0.594   2.246  16.903 -1.5994  0.0784 -0.2501
  297MPD2    H3 4480   0.758   2.371  17.004 -1.8883  3.2107  1.0785
  297MPD2     N 4481   0.767   2.665  16.649  0.3911 -0.2189 -0.2581
  297MPD2    H5 4482   0.735   2.690  16.556 -1.0070 -0.7282  0.0903
  297MPD2    N1 4483   0.479   2.292  16.656  0.1145  0.0302  0.4631
  297MPD2    H7 4484   0.435   2.341  16.579  0.5489  1.7769  1.3245
  298TMC3    C1 4485   0.290   2.156  16.641 -0.0538 -0.0195  0.0749
  298TMC3    C2 4486   0.297   2.168  16.502  0.9716 -0.8196  0.2863
  298TMC3    C3 4487   0.179   2.150  16.440  0.3587 -0.5203 -0.5040
  298TMC3    C4 4488   0.179   2.159  16.712  0.7727 -0.1071  0.3160
  298TMC3    C5 4489   0.066   2.133  16.643  0.8447 -0.4745 -0.0993
  298TMC3    C6 4490   0.059   2.131  16.505  0.5613  0.7878 -0.2105
  298TMC3     C 4491   0.406   2.185  16.715  0.3183 -0.1989 -0.1165
  298TMC3     O 4492   0.402   2.154  16.834 -0.1925  0.1056  0.9583
  298TMC3     H 4493   0.386   2.162  16.440  0.3268 -1.4900 -0.5855
  298TMC3    H1 4494   0.179   2.160  16.821  3.1389  1.7952  0.2867
  298TMC3    H2 4495   4.686   2.129  16.458  0.5760 -0.3679 -0.2063
  298TMC3    C7 4496   4.672   2.189  16.708 -0.3478 -0.3235  0.5981
  298TMC3    C8 4497   0.163   2.178  16.294  0.6438  0.7596  0.7489
  298TMC3    O1 4498   4.694   2.259  16.809 -0.6896  0.7293  0.1619
  298TMC3    O2 4499   0.050   2.173  16.257 -0.4056  0.5258 -0.2127
  299MPD2     C 4500   1.025   2.947  10.475 -0.2190  0.1228  0.2909
  299MPD2    C1 4501   0.982   2.909  10.598 -0.9551 -0.5135 -0.4619
  299MPD2    C2 4502   0.857   2.841  10.590 -0.1023 -0.4746  0.0620
  299MPD2    C3 4503   0.779   2.823  10.476 -0.8128 -0.6216  0.0759
  299MPD2    C4 4504   0.833   2.867  10.363  0.4520  0.8239 -0.1375
  299MPD2    C5 4505   0.958   2.921  10.363  0.3199  1.5416 -0.3564
  299MPD2     H 4506   0.822   2.802  10.685 -1.5101 -3.0157 -1.5260
  299MPD2    H1 4507   0.777   2.844  10.272  0.9964 -1.0724  0.0030
  299MPD2    H2 4508   1.121   2.996  10.477  0.9642 -2.1786 -0.3350
  299MPD2    H3 4509   0.999   2.963  10.272  2.8232  0.8021  0.4312
  299MPD2     N 4510   0.661   2.742  10.475  0.2271  0.5673  0.9418
  299MPD2    H5 4511   0.624   2.728  10.381  0.8687  1.0301  0.6208
  299MPD2    N1 4512   1.067   2.935  10.710 -0.6099  0.3245  0.1011
  299MPD2    H7 4513   1.152   2.989  10.696 -1.0812  1.3262  1.0727
  300TMC3    C1 4514   0.460   2.640  10.549 -0.0361 -0.1223 -0.0876
  300TMC3    C2 4515   0.430   2.596  10.418  0.1449  0.1649  0.7098
  300TMC3    C3 4516   0.303   2.553  10.382 -0.2215 -0.3125  0.3884
  300TMC3    C4 4517   0.363   2.620  10.651 -0.2137  0.1499  0.9403
  300TMC3    C5 4518   0.242   2.571  10.603 -0.6464 -0.3343 -0.0803
  300TMC3    C6 4519   0.207   2.540  10.474 -0.0251  0.5543  0.0153
  300TMC3     C 4520   0.585   2.699  10.584  0.1505  0.1290  0.0730
  300TMC3     O 4521   0.589   2.720  10.705 -0.3429 -0.2675 -0.0551
  300TMC3     H 4522   0.506   2.595  10.341 -0.0609 -0.0916  0.5111
  300TMC3    H1 4523   0.389   2.626  10.756  4.0744 -2.5567  0.0199
  300TMC3    H2 4524   0.102   2.537  10.446 -0.5090 -0.4826  1.9530
  300TMC3    C7 4525   0.154   2.526  10.704  0.1354 -0.6175  0.0154
  300TMC3    C8 4526   0.260   2.615  10.266  0.4872 -0.0687 -0.8811
  300TMC3    O1 4527   0.070   2.441  10.672  0.4266 -0.0999 -0.2029
  300TMC3    O2 4528   0.191   2.555  10.182 -0.2358 -0.0448 -0.5372
  301MPD2     C 4529   3.416   3.727   2.003 -0.2283 -0.4930  0.3772
  301MPD2    C1 4530   3.287   3.682   1.989  0.0277 -0.1180 -1.4131
  301MPD2    C2 4531   3.269   3.543   1.982 -0.3512 -0.2398  0.6093
  301MPD2    C3 4532   3.376   3.454   1.977 -0.9187  0.4985  0.6174
  301MPD2    C4 4533   3.502   3.507   2.003 -0.2282 -0.7472 -0.0190
  301MPD2    C5 4534   3.524   3.644   2.019 -0.0033  0.1045  0.0320
  301MPD2     H 4535   3.169   3.503   1.975  0.3789 -2.0402  0.6223
  301MPD2    H1 4536   3.595   3.456   2.027  0.3038  0.9457  1.5339
  301MPD2    H2 4537   3.438   3.831   2.024  0.0263 -0.5380  0.3438
  301MPD2    H3 4538   3.621   3.669   2.060  0.3853  0.6478 -1.2307
  301MPD2     N 4539   3.363   3.316   1.957  0.0739 -0.4376  1.0260
  301MPD2    H5 4540   3.448   3.261   1.969  1.0788  0.4889 -2.1091
  301MPD2    N1 4541   3.173   3.764   1.982  0.2574 -0.1585 -0.5538
  301MPD2    H7 4542   3.083   3.719   1.975  0.5019 -0.5868 -1.0340
  302TMC3    C1 4543   3.264   3.108   1.912  0.7053 -0.4428  0.2809
  302TMC3    C2 4544   3.379   3.041   1.956  0.0067 -0.3048 -0.2188
  302TMC3    C3 4545   3.371   2.905   1.976  0.1305 -0.0078  0.2742
  302TMC3    C4 4546   3.149   3.038   1.881  0.4802  0.0983 -0.0306
  302TMC3    C5 4547   3.154   2.899   1.889 -0.1970  0.3953 -0.8294
  302TMC3    C6 4548   3.262   2.830   1.942  0.0821  0.1436 -0.2452
  302TMC3     C 4549   3.242   3.255   1.928  0.1331  0.1799 -0.5019
  302TMC3     O 4550   3.126   3.295   1.903 -0.1413  0.4631  0.5111
  302TMC3     H 4551   3.467   3.096   1.989  0.5020 -0.2544 -1.5984
  302TMC3    H1 4552   3.063   3.099   1.857 -0.8562 -1.1545  1.5205
  302TMC3    H2 4553   3.265   2.723   1.958 -2.9842 -0.2682 -2.3573
  302TMC3    C7 4554   3.034   2.819   1.877 -0.2146 -0.2189  0.0540
  302TMC3    C8 4555   3.499   2.838   2.002 -0.3686  0.1866 -0.4148
  302TMC3    O1 4556   3.037   2.705   1.918 -0.4222 -0.0239 -0.7978
  302TMC3    O2 4557   3.536   2.760   1.914 -1.3415 -0.4967 -0.6974
  303MPD2     C 4558   3.343   1.807  10.179  0.0214 -0.7499 -0.5144
  303MPD2    C1 4559   3.225   1.795  10.247  0.4324 -0.0908 -0.1018
  303MPD2    C2 4560   3.112   1.842  10.176 -0.1837 -0.3320  0.0104
  303MPD2    C3 4561   3.118   1.873  10.040 -0.1927  0.0976  0.5548
  303MPD2    C4 4562   3.236   1.865   9.974 -0.0239 -0.2155  0.5590
  303MPD2    C5 4563   3.347   1.846  10.048 -0.5170 -0.3100 -1.1896
  303MPD2     H 4564   3.019   1.846  10.231  0.8546  1.2139  1.6437
  303MPD2    H1 4565   3.252   1.890   9.870 -5.2796 -0.5129 -0.3343
  303MPD2    H2 4566   3.437   1.778  10.224 -0.7534 -1.7725  0.4399
  303MPD2    H3 4567   3.439   1.837   9.990  1.2343  4.5055  0.8784
  303MPD2     N 4568   2.996   1.902   9.968 -0.9201  1.0998 -0.2893
  303MPD2    H5 4569   3.006   1.938   9.873 -2.9072 -1.1593 -1.3491
  303MPD2    N1 4570   3.235   1.766  10.384 -0.3083  0.6517  0.4919
  303MPD2    H7 4571   3.325   1.755  10.429 -0.0221 -0.3498 -0.3164
  304TMC3    C1 4572   3.168   1.701  10.596 -0.1028  0.0487  0.3129
  304TMC3    C2 4573   3.201   1.801  10.681  0.1846  0.1604  0.0862
  304TMC3    C3 4574   3.185   1.788  10.815  0.1006 -0.7587  0.3574
  304TMC3    C4 4575   3.089   1.598  10.650 -0.0133  0.3081 -0.0113
  304TMC3    C5 4576   3.072   1.586  10.779  0.5173 -1.1681 -0.0737
  304TMC3    C6 4577   3.143   1.666  10.866 -0.2561 -0.5176  0.4110
  304TMC3     C 4578   3.124   1.741  10.462  0.1720 -0.2344  0.5572
  304TMC3     O 4579   3.009   1.727  10.437  0.3037 -0.3648  0.0156
  304TMC3     H 4580   3.197   1.902  10.640  0.1737  0.1702  0.1108
  304TMC3    H1 4581   3.059   1.522  10.579  0.8412 -0.8174  0.8227
  304TMC3    H2 4582   3.116   1.658  10.971 -3.0800  2.2743 -0.1185
  304TMC3    C7 4583   2.933   1.560  10.824  0.1804 -0.3211  0.6055
  304TMC3    C8 4584   3.104   1.893  10.865  1.0135  0.3950  1.1125
  304TMC3    O1 4585   2.905   1.620  10.928  0.4191  0.1448 -0.2103
  304TMC3    O2 4586   3.031   1.955  10.790 -0.0636  0.4259  0.3658
  305MPD2     C 4587   1.223   4.191  14.462 -0.0810 -0.1897  0.1497
  305MPD2    C1 4588   1.352   4.153  14.467  0.4616 -0.0792  0.3824
  305MPD2    C2 4589   1.410   4.115  14.348  0.1142 -0.6268  0.1959
  305MPD2    C3 4590   1.342   4.112  14.229  0.1126  0.0185  0.3744
  305MPD2    C4 4591   1.206   4.148  14.224  0.4258 -0.4631 -0.7097
  305MPD2    C5 4592   1.153   4.195  14.340 -0.6293 -0.0170  0.2034
  305MPD2     H 4593   1.512   4.079  14.347  0.0916 -0.6505 -0.7614
  305MPD2    H1 4594   1.141   4.139  14.138 -0.5093 -0.8538  0.0350
  305MPD2    H2 4595   1.169   4.214  14.553 -2.6426  0.7051 -1.6181
  305MPD2    H3 4596   1.046   4.216  14.344 -0.4566  0.7992  0.7408
  305MPD2     N 4597   1.394   4.072  14.103 -0.4071  0.1999  0.0003
  305MPD2    H5 4598   1.329   4.046  14.029 -1.4645  1.3315  0.5275
  305MPD2    N1 4599   1.411   4.146  14.595  0.5849 -0.0538 -0.2338
  305MPD2    H7 4600   1.361   4.193  14.669 -0.4177 -1.6233  0.0809
  306TMC3    C1 4601   1.580   4.089  14.755  0.2218  0.5730 -0.5396
  306TMC3    C2 4602   1.696   4.021  14.778 -0.4138 -0.2924 -0.5982
  306TMC3    C3 4603   1.751   4.022  14.912 -0.8903 -0.6008  0.1728
  306TMC3    C4 4604   1.512   4.155  14.856 -0.2882 -0.2423  0.6247
  306TMC3    C5 4605   1.574   4.155  14.984  0.1912 -0.3539 -0.2467
  306TMC3    C6 4606   1.689   4.084  15.012  0.0776 -0.4696  0.3414
  306TMC3     C 4607   1.538   4.098  14.615  0.9975  0.5015 -0.2837
  306TMC3     O 4608   1.625   4.060  14.537  0.3716 -0.3066  0.3759
  306TMC3     H 4609   1.739   3.962  14.698  1.5889 -2.1586  1.8559
  306TMC3    H1 4610   1.417   4.202  14.836  0.0123  0.6865  1.3896
  306TMC3    H2 4611   1.739   4.095  15.108  1.7120 -1.1210 -0.4303
  306TMC3    C7 4612   1.494   4.191  15.100  0.3434 -0.1481 -0.8362
  306TMC3    C8 4613   1.826   3.900  14.941 -0.9208 -0.6994 -0.3132
  306TMC3    O1 4614   1.371   4.186  15.080 -0.2817  0.0381  0.3459
  306TMC3    O2 4615   1.853   3.827  14.846  0.1917 -0.5901 -0.1048
  307MPD2     C 4616   3.725   0.493   0.689  0.3513  0.6144  0.2023
  307MPD2    C1 4617   3.678   0.613   0.647  0.5576 -0.4438  0.4044
  307MPD2    C2 4618   3.555   0.665   0.696  0.1330 -0.6081 -0.4828
  307MPD2    C3 4619   3.485   0.576   0.775 -0.2592  0.2081  0.1392
  307MPD2    C4 4620   3.535   0.461   0.818  0.1489  0.1700  0.7771
  307MPD2    C5 4621   3.659   0.416   0.784 -0.4033  0.9763  0.0427
  307MPD2     H 4622   3.530   0.766   0.666 -2.7995 -0.6492  1.8409
  307MPD2    H1 4623   3.477   0.398   0.884 -0.0778  0.1039  0.5128
  307MPD2    H2 4624   3.818   0.457   0.645 -0.7573 -1.3427 -0.5438
  307MPD2    H3 4625   3.691   0.316   0.808 -0.4197  0.1637 -3.3141
  307MPD2     N 4626   3.355   0.624   0.812  0.3226  0.0201  0.2152
  307MPD2    H5 4627   3.328   0.713   0.771 -0.7155  0.6509  2.2829
  307MPD2    N1 4628   3.753   0.704   0.573  0.2186  0.8647  0.2777
  307MPD2    H7 4629   3.713   0.797   0.570 -2.8630 -0.5584 -2.1329
  308TMC3    C1 4630   2.994   0.763   0.800  0.0228 -0.3290  0.1497
  308TMC3    C2 4631   2.997   0.851   0.904  0.1268 -0.2704 -0.1905
  308TMC3    C3 4632   3.067   0.817   1.013  0.1201  0.3450 -0.3755
  308TMC3    C4 4633   3.075   0.651   0.800  0.7599  0.2779  0.0975
  308TMC3    C5 4634   3.148   0.627   0.913  0.6797  0.1644  0.5775
  308TMC3    C6 4635   3.143   0.707   1.022  0.2826 -0.8776  0.3820
  308TMC3     C 4636   2.927   0.786   0.672 -1.0415 -0.0051  0.9853
  308TMC3     O 4637   2.958   0.723   0.572  0.1448 -0.0607 -0.8930
  308TMC3     H 4638   2.950   0.947   0.890 -1.0022 -0.8839 -0.6807
  308TMC3    H1 4639   3.081   0.578   0.720 -1.9146  0.3476 -0.1792
  308TMC3    H2 4640   3.215   0.689   1.101 -0.0436  0.0971  0.9062
  308TMC3    C7 4641   3.268   0.560   0.893 -0.1125  0.2045  0.7190
  308TMC3    C8 4642   3.130   0.923   1.093  0.1184  0.3921  0.4272
  308TMC3    O1 4643   3.277   0.452   0.952  0.4206 -0.3700 -0.5032
  308TMC3    O2 4644   3.210   0.895   1.182  0.2059  0.8930  0.2020
  309MPD2     C 4645   2.928   2.184  17.443 -0.5255  0.9680 -0.0142
  309MPD2    C1 4646   2.851   2.205  17.324  0.6221 -0.3574 -0.7269
  309MPD2    C2 4647   2.715   2.221  17.331  0.1246  0.8992  0.6073
  309MPD2    C3 4648   2.662   2.229  17.459 -0.4990  0.4433 -0.1006
  309MPD2    C4 4649   2.739   2.223  17.575 -0.1738  0.8880 -0.2336
  309MPD2    C5 4650   2.872   2.202  17.569 -0.0542  0.6249 -0.3770
  309MPD2     H 4651   2.652   2.222  17.243 -0.7729  1.4174  1.2599
  309MPD2    H1 4652   2.687   2.229  17.670  0.7979  0.8044  0.3048
  309MPD2    H2 4653   3.033   2.159  17.443 -0.5752  0.7407  0.8233
  309MPD2    H3 4654   2.934   2.185  17.656  0.3312  0.7491 -0.6275
  309MPD2     N 4655   2.534   2.266  17.488 -0.2331  0.5416  0.1429
  309MPD2    H5 4656   2.514   2.276  17.587 -0.9575  1.5546 -0.1118
  309MPD2    N1 4657   2.921   2.217  17.202  0.1337  0.1868  0.8160
  309MPD2    H7 4658   2.865   2.213  17.117 -1.2735  0.6572  1.7317
  310TMC3    C1 4659   3.114   2.154  17.070  0.3447 -0.1924  0.1948
  310TMC3    C2 4660   3.045   2.141  16.953  0.6850  0.7734 -0.2490
  310TMC3    C3 4661   3.115   2.105  16.840  0.6646 -0.1222 -0.1158
  310TMC3    C4 4662   3.242   2.106  17.079  1.2840 -0.6065  0.3218
  310TMC3    C5 4663   3.306   2.064  16.964  0.4683 -0.1927  0.7604
  310TMC3    C6 4664   3.241   2.054  16.846 -0.5189 -0.5073 -0.0882
  310TMC3     C 4665   3.057   2.215  17.193 -0.0604  0.4375  0.7099
  310TMC3     O 4666   3.147   2.243  17.267 -0.2965 -0.2411  0.3265
  310TMC3     H 4667   2.944   2.181  16.946  0.3200 -0.6870 -3.1016
  310TMC3    H1 4668   3.294   2.096  17.174 -0.4010 -0.0688  1.2966
  310TMC3    H2 4669   3.296   2.018  16.760  0.5143  0.3248  0.2167
  310TMC3    C7 4670   3.397   1.961  16.983  0.0426 -0.2615  0.4325
  310TMC3    C8 4671   3.044   2.107  16.716  0.7763  0.3069  0.3244
  310TMC3    O1 4672   3.395   1.907  17.094  0.2332  0.2198  0.1194
  310TMC3    O2 4673   2.964   2.202  16.707  0.4383  0.6106  0.3752
  311MPD2     C 4674   0.729   3.683  13.071  0.6509  0.1073 -0.8474
  311MPD2    C1 4675   0.734   3.792  13.156  0.1321  0.2908  0.2122
  311MPD2    C2 4676   0.632   3.802  13.243 -0.9485 -0.1877 -0.3440
  311MPD2    C3 4677   0.533   3.709  13.259  0.1438 -0.4478  0.1511
  311MPD2    C4 4678   0.532   3.606  13.181 -0.0965  0.2099 -0.6245
  311MPD2    C5 4679   0.629   3.582  13.086 -0.3850  0.7770  0.0964
  311MPD2     H 4680   0.624   3.897  13.295  1.3274  0.5221 -1.3025
  311MPD2    H1 4681   0.457   3.529  13.185 -0.0760  0.3414  2.1003
  311MPD2    H2 4682   0.808   3.657  13.002  1.3051  0.6683 -0.3035
  311MPD2    H3 4683   0.630   3.483  13.043 -1.8338 -0.3965  2.8291
  311MPD2     N 4684   0.432   3.755  13.358  0.3180  0.3483 -0.4013
  311MPD2    H5 4685   0.442   3.849  13.394 -0.7707  1.4460 -2.9585
  311MPD2    N1 4686   0.837   3.893  13.156  0.5896  0.6191  0.3640
  311MPD2    H7 4687   0.835   3.969  13.224  0.3522 -0.4581  1.5481
  312TMC3    C1 4688   0.239   3.740  13.492 -0.0209 -0.4273  0.5274
  312TMC3    C2 4689   0.109   3.732  13.447  0.1865  0.5388 -0.0254
  312TMC3    C3 4690   0.026   3.837  13.478 -0.1320  0.0781 -0.5812
  312TMC3    C4 4691   0.285   3.855  13.563  0.0496  0.0065  0.3687
  312TMC3    C5 4692   0.194   3.956  13.607  0.1823  0.1508 -0.6154
  312TMC3    C6 4693   0.063   3.951  13.553  0.2217 -0.1315 -0.3313
  312TMC3     C 4694   0.338   3.673  13.410 -0.9180 -0.2452  0.0968
  312TMC3     O 4695   0.315   3.555  13.386 -0.5296 -0.1698  0.1964
  312TMC3     H 4696   0.076   3.635  13.409 -0.0908 -0.1708  2.0009
  312TMC3    H1 4697   0.385   3.855  13.604  0.3752 -1.1006 -0.4040
  312TMC3    H2 4698   4.716   4.033  13.564  0.7322  0.1733  0.7188
  312TMC3    C7 4699   0.225   4.027  13.730 -0.0746  0.5394  0.7974
  312TMC3    C8 4700   4.619   3.846  13.401 -0.4577  0.2429 -0.0894
  312TMC3    O1 4701   0.189   4.142  13.743 -0.5444  0.3605 -0.1275
  312TMC3    O2 4702   4.607   3.765  13.311  0.3154  0.5444 -0.0413
  313MPD2     C 4703   4.266   3.167  11.240 -0.1751  0.1092  0.0739
  313MPD2    C1 4704   4.317   3.182  11.114 -0.1033  0.2067  0.5838
  313MPD2    C2 4705   4.335   3.068  11.039  0.8735 -0.6971 -1.1780
  313MPD2    C3 4706   4.328   2.943  11.097  0.7928 -0.1295  0.1211
  313MPD2    C4 4707   4.276   2.926  11.229  0.4133 -0.3830 -0.7292
  313MPD2    C5 4708   4.245   3.043  11.288  0.3972 -0.4395  0.9869
  313MPD2     H 4709   4.360   3.092  10.937 -0.3928 -1.7567 -1.7364
  313MPD2    H1 4710   4.249   2.831  11.274  0.0738  0.4141  0.7573
  313MPD2    H2 4711   4.233   3.261  11.283 -3.5306 -2.0866  2.3484
  313MPD2    H3 4712   4.205   3.030  11.388 -1.0440  2.1298  0.7335
  313MPD2     N 4713   4.370   2.834  11.013  1.1261 -0.1747  0.0522
  313MPD2    H5 4714   4.396   2.860  10.919  0.0630  1.6972  0.2809
  313MPD2    N1 4715   4.327   3.307  11.046 -0.1158 -0.4127  0.3652
  313MPD2    H7 4716   4.344   3.313  10.946  0.4894 -1.2426  0.4225
  314TMC3    C1 4717   4.333   3.532  10.996  0.0979  0.3730 -0.8126
  314TMC3    C2 4718   4.448   3.609  11.016 -0.1470 -0.1873  0.3164
  314TMC3    C3 4719   4.520   3.632  10.899  0.1786 -0.2762 -0.0022
  314TMC3    C4 4720   4.298   3.483  10.873 -0.7629  0.8230  0.3335
  314TMC3    C5 4721   4.371   3.521  10.760 -0.3411 -0.2447 -0.4601
  314TMC3    C6 4722   4.486   3.601  10.769 -0.6917 -0.4947 -0.7341
  314TMC3     C 4723   4.324   3.432  11.099 -0.0347  0.3399  0.6347
  314TMC3     O 4724   4.330   3.469  11.215  0.0121 -0.2991  0.0209
  314TMC3     H 4725   4.489   3.634  11.114  0.8665 -1.9476  0.3363
  314TMC3    H1 4726   4.206   3.428  10.857  1.2177 -1.3706 -3.4699
  314TMC3    H2 4727   4.556   3.626  10.690 -2.6459  2.5342 -1.5225
  314TMC3    C7 4728   4.351   3.437  10.641  0.2404 -0.6751  0.0027
  314TMC3    C8 4729   4.645   3.721  10.918 -0.1426 -0.2506  0.2704
  314TMC3    O1 4730   4.294   3.332  10.659  0.2953  0.2967 -0.0188
  314TMC3    O2 4731   4.631   3.804  11.007 -0.0274 -0.2665 -1.1366
  315MPD2     C 4732   4.057   1.986   0.591  0.0822 -0.6209  0.3770
  315MPD2    C1 4733   4.174   2.008   0.662  0.4504  0.7295 -0.1135
  315MPD2    C2 4734   4.243   2.122   0.622  0.5896 -0.1647 -0.0731
  315MPD2    C3 4735   4.184   2.212   0.524 -0.6532  0.6281  0.2400
  315MPD2    C4 4736   4.064   2.184   0.468  0.6635  0.5813 -0.4295
  315MPD2    C5 4737   3.999   2.069   0.500  0.0604 -0.2672  0.2004
  315MPD2     H 4738   4.344   2.142   0.655  0.2401 -0.9288  1.4463
  315MPD2    H1 4739   4.008   2.250   0.402 -0.5702 -0.2635 -0.2361
  315MPD2    H2 4740   4.004   1.892   0.605  0.1726 -0.8452 -0.7883
  315MPD2    H3 4741   3.911   2.052   0.440 -0.8400  0.6039  1.2712
  315MPD2     N 4742   4.264   2.320   0.490 -0.6124  0.0434  0.5383
  315MPD2    H5 4743   4.353   2.322   0.539 -1.0772 -0.1756  1.3805
  315MPD2    N1 4744   4.238   1.929   0.760  0.1986  0.2272 -0.1697
  315MPD2    H7 4745   4.327   1.961   0.797  0.0006  1.2275 -0.5727
  316TMC3    C1 4746   4.342   2.501   0.380 -0.4204  0.2519 -0.6643
  316TMC3    C2 4747   4.433   2.517   0.488 -0.2521 -0.4595 -0.0587
  316TMC3    C3 4748   4.502   2.635   0.500 -0.2157 -1.1139 -0.5195
  316TMC3    C4 4749   4.329   2.604   0.293  0.1322 -0.6724  0.7805
  316TMC3    C5 4750   4.411   2.714   0.308  0.0576 -0.3433  0.1586
  316TMC3    C6 4751   4.490   2.739   0.411  0.4622  0.9518 -0.1016
  316TMC3     C 4752   4.245   2.399   0.378 -0.3166  0.7281  0.2556
  316TMC3     O 4753   4.152   2.396   0.298  0.2671  0.9147  0.4222
  316TMC3     H 4754   4.448   2.442   0.565  0.6516  0.2440  0.4599
  316TMC3    H1 4755   4.259   2.596   0.210  2.7207 -2.4289 -1.2481
  316TMC3    H2 4756   4.541   2.833   0.427 -0.5197  1.2417  1.3603
  316TMC3    C7 4757   4.406   2.830   0.220 -0.3954  0.0072 -0.0485
  316TMC3    C8 4758   4.594   2.654   0.608 -0.4212 -0.5808 -0.3082
  316TMC3    O1 4759   4.433   2.941   0.264  0.4147 -1.2766 -0.3879
  316TMC3    O2 4760   4.621   2.771   0.637 -0.1078 -0.1419 -0.3115
  317MPD2     C 4761   2.160   0.325  12.332  0.6911 -0.2026 -0.2180
  317MPD2    C1 4762   2.285   0.323  12.382 -0.0413 -0.4651  0.3936
  317MPD2    C2 4763   2.312   0.336  12.520  0.5665  0.5654 -0.0139
  317MPD2    C3 4764   2.205   0.358  12.605 -0.6730 -0.0847  0.0148
  317MPD2    C4 4765   2.081   0.370  12.556  0.2888  0.5246  1.0820
  317MPD2    C5 4766   2.058   0.353  12.420  0.6059 -0.6272 -0.3297
  317MPD2     H 4767   2.411   0.325  12.562  0.7275 -0.5779 -0.6954
  317MPD2    H1 4768   1.996   0.382  12.623 -0.5986  1.9254 -0.3145
  317MPD2    H2 4769   2.134   0.328  12.227 -0.4088  0.3599  0.0740
  317MPD2    H3 4770   1.958   0.367  12.381  1.3821 -1.0178 -2.4617
  317MPD2     N 4771   2.244   0.371  12.737 -0.2332 -0.5078 -0.7643
  317MPD2    H5 4772   2.341   0.350  12.759 -0.8035 -0.5141  1.7726
  317MPD2    N1 4773   2.400   0.313  12.298 -0.4371  0.3119  0.4693
  317MPD2    H7 4774   2.484   0.319  12.355 -0.1647  0.5466  0.0474
  318TMC3    C1 4775   2.229   0.433  12.963  0.8401 -0.7901 -0.3403
  318TMC3    C2 4776   2.182   0.372  13.077 -0.6399  0.2182  0.0058
  318TMC3    C3 4777   2.273   0.347  13.182  1.2305 -0.0541  0.1668
  318TMC3    C4 4778   2.364   0.470  12.952 -0.4481 -0.5595 -0.1897
  318TMC3    C5 4779   2.449   0.449  13.056  1.2308  0.3521  0.3445
  318TMC3    C6 4780   2.408   0.378  13.168  0.4567  0.2454 -0.4085
  318TMC3     C 4781   2.159   0.406  12.838 -0.3783 -0.5875  0.1337
  318TMC3     O 4782   2.040   0.423  12.839  0.2325  0.4212  0.1828
  318TMC3     H 4783   2.077   0.347  13.077 -0.6943  0.4456 -0.0455
  318TMC3    H1 4784   2.388   0.523  12.860  1.9299 -1.1749  0.0755
  318TMC3    H2 4785   2.474   0.362  13.253  1.1042 -2.5737 -1.4577
  318TMC3    C7 4786   2.578   0.505  13.038 -1.3134 -0.1098  0.1683
  318TMC3    C8 4787   2.234   0.251  13.282 -0.7089 -0.3475 -0.5548
  318TMC3    O1 4788   2.605   0.554  12.925  0.8939 -0.4720 -0.4960
  318TMC3    O2 4789   2.321   0.185  13.337  0.2955  0.0473  0.3180
  319MPD2     C 4790   2.779   1.926  16.900 -0.1449 -0.0004 -0.8003
  319MPD2    C1 4791   2.697   1.887  17.002  0.2331 -0.6071  0.1483
  319MPD2    C2 4792   2.554   1.908  16.979 -0.0713  0.2177  0.4395
  319MPD2    C3 4793   2.504   1.943  16.852 -0.4780 -0.4427 -0.3713
  319MPD2    C4 4794   2.593   1.981  16.753 -0.7326 -0.0941  0.2580
  319MPD2    C5 4795   2.726   1.968  16.781 -0.1521 -0.5591  0.4374
  319MPD2     H 4796   2.489   1.892  17.064 -0.0286  1.2523  0.6653
  319MPD2    H1 4797   2.559   2.019  16.657  2.0594  0.5536 -0.4646
  319MPD2    H2 4798   2.887   1.929  16.907 -0.0223 -0.2206 -2.5219
  319MPD2    H3 4799   2.797   2.008  16.710 -1.6727 -0.2478 -0.9026
  319MPD2     N 4800   2.365   1.940  16.817 -0.1878 -0.7876  0.5951
  319MPD2    H5 4801   2.354   1.953  16.717  0.1241  2.3624  0.9777
  319MPD2    N1 4802   2.736   1.843  17.129 -0.1425 -0.2803  0.8240
  319MPD2    H7 4803   2.661   1.821  17.194  0.1019 -0.5790  1.0089
  320TMC3    C1 4804   2.145   1.864  16.813  0.3059  0.3103  0.9610
  320TMC3    C2 4805   2.126   1.940  16.704  0.2066  0.6679 -0.2006
  320TMC3    C3 4806   2.026   1.900  16.611 -0.1385 -0.4503  0.6510
  320TMC3    C4 4807   2.058   1.766  16.852  0.1982 -0.3842 -0.1229
  320TMC3    C5 4808   1.958   1.736  16.769  0.4888 -0.1262 -0.3213
  320TMC3    C6 4809   1.952   1.791  16.648  0.2026  0.3322 -0.4645
  320TMC3     C 4810   2.264   1.893  16.895 -0.1407 -0.0398  0.1088
  320TMC3     O 4811   2.261   1.866  17.015 -0.7881 -0.9099 -0.5618
  320TMC3     H 4812   2.187   2.026  16.676  2.0033 -0.7094 -0.5072
  320TMC3    H1 4813   2.073   1.721  16.950 -0.6085  1.5242  0.8783
  320TMC3    H2 4814   1.857   1.773  16.597  0.0896 -0.1700 -0.0721
  320TMC3    C7 4815   1.887   1.614  16.779 -0.0203 -0.0809 -0.2451
  320TMC3    C8 4816   1.996   1.992  16.502  0.3343  0.0792 -1.0760
  320TMC3    O1 4817   1.848   1.562  16.674  0.1643 -0.0606 -0.0144
  320TMC3    O2 4818   2.050   2.100  16.491  0.0635  0.9295 -0.5117
  321TMC3    C1 4819   2.888   1.776  17.303  0.1999  0.0582  0.8427
  321TMC3    C2 4820   2.787   1.698  17.364 -0.0958  1.0291 -0.9720
  321TMC3    C3 4821   2.814   1.670  17.500 -0.4366 -0.5032 -0.2104
  321TMC3    C4 4822   2.990   1.837  17.368 -1.0074  0.4995  0.3252
  321TMC3    C5 4823   3.006   1.802  17.502 -0.1985 -0.6113 -0.4164
  321TMC3    C6 4824   2.920   1.727  17.573 -0.0091  0.7904 -0.3796
  321TMC3     C 4825   2.874   1.826  17.163  0.0420  0.4120  0.0368
  321TMC3     O 4826   2.975   1.876  17.116  0.7543 -0.2504  0.4401
  321TMC3     H 4827   2.718   1.641  17.303  1.1552  0.2099 -1.6453
  321TMC3    H1 4828   3.061   1.902  17.319 -0.5931  0.2920  0.6537
  321TMC3    H2 4829   2.934   1.701  17.677 -1.8863  1.4523  0.0314
  321TMC3    C7 4830   3.147   1.761  17.504  0.0388 -0.0426  0.4784
  321TMC3    C8 4831   2.794   1.540  17.552  0.1251 -0.5347  0.4367
  321TMC3    O1 4832   3.237   1.821  17.445  0.1719  0.4251 -0.0235
  321TMC3    O2 4833   2.847   1.510  17.657 -0.0562 -0.0606 -0.7547
  322MPD2     C 4834   1.316   3.476  13.938  0.5128  0.1754 -0.2180
  322MPD2    C1 4835   1.354   3.419  14.058  0.1223 -0.3618  0.8338
  322MPD2    C2 4836   1.328   3.288  14.083 -0.9749  0.4234  0.3917
  322MPD2    C3 4837   1.285   3.207  13.980 -0.4494  0.6426  0.0438
  322MPD2    C4 4838   1.239   3.257  13.864  0.4115  0.3735  0.2611
  322MPD2    C5 4839   1.253   3.394  13.845 -0.0915 -0.2718 -0.1886
  322MPD2     H 4840   1.341   3.247  14.183 -1.0565  0.2006  0.3118
  322MPD2    H1 4841   1.192   3.187  13.797  2.7847  0.5127 -1.5502
  322MPD2    H2 4842   1.336   3.579  13.914  0.2050  0.2335 -0.2194
  322MPD2    H3 4843   1.237   3.434  13.746  0.2950 -0.5845 -0.3756
  322MPD2     N 4844   1.259   3.071  14.010 -0.1001  0.1748  0.3392
  322MPD2    H5 4845   1.265   3.039  14.106 -0.1007 -0.3653  0.1610
  322MPD2    N1 4846   1.419   3.492  14.161  0.1284 -0.3941 -0.2385
  322MPD2    H7 4847   1.438   3.442  14.247  2.1518  0.9386  0.0750
  323TMC3    C1 4848   1.506   3.652  14.294 -0.3830  0.0446 -0.1843
  323TMC3    C2 4849   1.599   3.756  14.291  0.4004  0.2587  0.2795
  323TMC3    C3 4850   1.660   3.787  14.416 -0.2244  0.1139  0.6752
  323TMC3    C4 4851   1.464   3.586  14.408 -0.3371  0.0692  0.4879
  323TMC3    C5 4852   1.531   3.623  14.522 -0.2344 -0.6991 -0.1329
  323TMC3    C6 4853   1.638   3.714  14.525 -0.1156 -0.5323  0.1171
  323TMC3     C 4854   1.447   3.620  14.163  0.4791 -0.2990 -0.1091
  323TMC3     O 4855   1.445   3.704  14.077 -0.3639 -0.4542  0.0623
  323TMC3     H 4856   1.627   3.795  14.193 -0.2562  0.3511  0.1219
  323TMC3    H1 4857   1.388   3.510  14.423  1.1591 -1.4684  0.2819
  323TMC3    H2 4858   1.692   3.736  14.616  0.6153  0.0047 -0.4563
  323TMC3    C7 4859   1.539   3.513  14.614 -0.6385 -0.2768  0.5950
  323TMC3    C8 4860   1.800   3.822  14.401  0.4416  0.0431 -0.1400
  323TMC3    O1 4861   1.512   3.400  14.573  0.1783  0.2299  0.1054
  323TMC3    O2 4862   1.880   3.751  14.456  0.3408  0.3919 -0.3361
  324MPD2     C 4863   3.471   0.341  15.100 -0.2825 -1.3260 -0.1280
  324MPD2    C1 4864   3.493   0.226  15.031  0.1534  0.0152  0.0650
  324MPD2    C2 4865   3.380   0.143  15.017 -0.4859  1.0760 -0.5671
  324MPD2    C3 4866   3.251   0.181  15.047  0.0707  0.3080  0.2670
  324MPD2    C4 4867   3.236   0.302  15.111  0.6439  0.2087 -0.2606
  324MPD2    C5 4868   3.345   0.379  15.141 -0.1896 -0.3756  0.1719
  324MPD2     H 4869   3.399   0.050  14.965  0.3097  0.7286  0.3430
  324MPD2    H1 4870   3.141   0.340  15.144  1.4440  0.7689  1.4022
  324MPD2    H2 4871   3.550   0.414  15.111 -2.4845  1.3297 -1.9850
  324MPD2    H3 4872   3.318   0.472  15.191 -3.1685 -1.2296  0.1889
  324MPD2     N 4873   3.132   0.108  15.027 -0.5766 -0.1272  0.1302
  324MPD2    H5 4874   3.046   0.162  15.026  0.9362  2.1819 -2.0359
  324MPD2    N1 4875   3.614   0.188  14.969 -0.2791 -0.0492 -0.3536
  324MPD2    H7 4876   3.620   0.100  14.920 -0.9731 -1.0495  1.3629
  325TMC3    C1 4877   2.980   4.666  14.972 -0.1142 -0.1391  0.1407
  325TMC3    C2 4878   2.951   4.591  14.858  0.5723 -0.1023 -0.0937
  325TMC3    C3 4879   2.822   4.591  14.809 -0.2067 -0.3663  0.0124
  325TMC3    C4 4880   2.892   0.014  15.038  0.8144 -0.5158  0.8564
  325TMC3    C5 4881   2.759   0.002  14.994  0.1977  0.0502  0.4395
  325TMC3    C6 4882   2.723   4.651  14.881 -0.4728 -0.4490 -0.2186
  325TMC3     C 4883   3.124   4.701  14.983 -0.7132  0.5069 -0.9523
  325TMC3     O 4884   3.204   4.616  14.943 -0.4783 -0.4560 -0.6871
  325TMC3     H 4885   3.030   4.530  14.813  0.5232 -1.8088  2.0968
  325TMC3    H1 4886   2.911   0.062  15.134  1.5035 -1.4880  1.2060
  325TMC3    H2 4887   2.631   4.670  14.826  0.7926  3.8397 -0.8675
  325TMC3    C7 4888   2.666   0.101  15.059 -0.6401  0.3152 -0.6717
  325TMC3    C8 4889   2.785   4.514  14.691  0.8483 -0.0277 -0.5559
  325TMC3    O1 4890   2.718   0.199  15.110  0.1177 -0.2843  0.7189
  325TMC3    O2 4891   2.879   4.482  14.619 -0.1990  0.0320 -0.0200
  326MPD2     C 4892   4.128   1.369  11.578 -0.0624 -0.1595  0.0277
  326MPD2    C1 4893   4.188   1.327  11.466  0.0347 -0.2643 -0.4424
  326MPD2    C2 4894   4.312   1.383  11.430  0.3745  0.8349 -0.0406
  326MPD2    C3 4895   4.388   1.457  11.516 -0.4736  0.2414 -0.2463
  326MPD2    C4 4896   4.329   1.484  11.638 -0.0528 -0.6545  0.1003
  326MPD2    C5 4897   4.199   1.444  11.665 -0.0217  0.2645 -0.1508
  326MPD2     H 4898   4.348   1.362  11.330  0.4590 -2.3201  0.6334
  326MPD2    H1 4899   4.386   1.546  11.707 -0.5478 -0.9381  0.7625
  326MPD2    H2 4900   4.028   1.332  11.598  0.2836 -2.2682 -2.1421
  326MPD2    H3 4901   4.154   1.472  11.759 -2.6306 -1.4732 -0.8858
  326MPD2     N 4902   4.519   1.497  11.495 -0.2712  0.3660 -0.1448
  326MPD2    H5 4903   4.557   1.555  11.570  0.7553 -0.1966 -0.2183
  326MPD2    N1 4904   4.114   1.256  11.371 -0.4366  0.2987 -0.4912
  326MPD2    H7 4905   4.170   1.210  11.299 -1.7648 -0.9927 -0.6988
  327TMC3    C1 4906   3.931   1.146  11.290 -0.7678 -0.1150 -0.1729
  327TMC3    C2 4907   3.828   1.186  11.210 -0.2781  0.1472  0.4252
  327TMC3    C3 4908   3.809   1.108  11.096  0.6974  0.2431  0.0505
  327TMC3    C4 4909   4.009   1.038  11.268  1.0836  0.1744  0.0070
  327TMC3    C5 4910   3.981   0.964  11.160 -0.1794 -0.6289 -0.5341
  327TMC3    C6 4911   3.877   0.995  11.073 -1.0367  1.1791  0.7792
  327TMC3     C 4912   3.974   1.248  11.373 -0.6973 -0.3543 -0.2953
  327TMC3     O 4913   3.898   1.340  11.401  0.1935  0.4109  0.1321
  327TMC3     H 4914   3.772   1.279  11.221 -1.0631 -0.0564 -1.7314
  327TMC3    H1 4915   4.095   1.016  11.330  1.0054  0.1149  0.0939
  327TMC3    H2 4916   3.851   0.940  10.983 -4.0151  0.8687  1.8335
  327TMC3    C7 4917   4.035   0.835  11.156 -0.2505  0.2971  0.5084
  327TMC3    C8 4918   3.785   1.188  10.977  0.0549 -0.2520 -0.3546
  327TMC3    O1 4919   3.967   0.746  11.104  0.3218 -0.0893 -0.2997
  327TMC3    O2 4920   3.861   1.166  10.880 -0.0665  0.3815 -0.2749
  328MPD2     C 4921   1.601   0.169   0.302  0.2584  0.0168  0.0033
  328MPD2    C1 4922   1.621   0.308   0.310 -0.6658 -0.3100  0.3549
  328MPD2    C2 4923   1.641   0.387   0.195 -0.1517 -0.6463 -0.1924
  328MPD2    C3 4924   1.617   0.320   0.073  0.2342  0.4046  0.1211
  328MPD2    C4 4925   1.569   0.195   0.068 -0.7423  0.6302 -0.5721
  328MPD2    C5 4926   1.569   0.117   0.178  0.3002 -0.2180 -0.0888
  328MPD2     H 4927   1.659   0.494   0.205  0.0877 -0.6519 -0.5466
  328MPD2    H1 4928   1.554   0.157  17.663  1.6694 -0.0302 -0.6694
  328MPD2    H2 4929   1.582   0.110   0.391  0.7896  0.1589  0.2067
  328MPD2    H3 4930   1.544   0.012   0.176  0.4271 -0.2500  0.0024
  328MPD2     N 4931   1.626   0.399  17.649  0.2911  0.2505  0.6727
  328MPD2    H5 4932   1.683   0.483  17.654  0.7374 -0.0084  0.0684
  328MPD2    N1 4933   1.621   0.366   0.437 -0.3972 -0.4840 -0.0304
  328MPD2    H7 4934   1.632   0.301   0.514  0.5350  0.9275  1.0181
  329TMC3    C1 4935   1.593   0.520   0.605  0.2025 -0.2926 -0.3135
  329TMC3    C2 4936   1.609   0.657   0.627  1.0250 -0.3941  0.6035
  329TMC3    C3 4937   1.515   0.722   0.693 -0.1451  0.0282  0.0648
  329TMC3    C4 4938   1.489   0.445   0.652 -0.6302 -0.1416  0.0816
  329TMC3    C5 4939   1.400   0.515   0.729 -0.0002 -0.0133  0.0719
  329TMC3    C6 4940   1.413   0.650   0.759 -0.2853 -0.0414  0.4517
  329TMC3     C 4941   1.625   0.497   0.470  0.3425 -1.2235 -0.9411
  329TMC3     O 4942   1.633   0.595   0.397  0.2945 -0.6873  0.0952
  329TMC3     H 4943   1.697   0.711   0.592  1.1324  0.1863  1.7893
  329TMC3    H1 4944   1.469   0.339   0.636  2.5896 -0.7246 -0.0883
  329TMC3    H2 4945   1.339   0.689   0.827  1.0806  1.2329  1.2064
  329TMC3    C7 4946   1.338   0.437   0.834 -0.0121  0.4849 -0.3798
  329TMC3    C8 4947   1.499   0.859   0.655  0.0651  0.0929  0.6774
  329TMC3    O1 4948   1.349   0.480   0.948  0.2600  0.2704  0.2662
  329TMC3    O2 4949   1.595   0.910   0.596 -0.1543  0.6906 -0.1658
  330TMC3    C1 4950   4.454   0.289  10.405  0.6858  0.0408 -0.5380
  330TMC3    C2 4951   4.386   0.227  10.295  0.5212  0.0506  0.4004
  330TMC3    C3 4952   4.441   0.114  10.238 -0.4767  0.1491 -0.8888
  330TMC3    C4 4953   4.574   0.237  10.454 -0.7294 -0.7794 -0.0369
  330TMC3    C5 4954   4.623   0.123  10.389  0.5853  0.7688 -0.1908
  330TMC3    C6 4955   4.563   0.060  10.283 -0.0986 -0.2419  0.1227
  330TMC3     C 4956   4.423   0.428  10.442 -0.0592 -0.6266  0.0311
  330TMC3     O 4957   4.472   0.479  10.541 -0.3608 -0.5756 -0.2369
  330TMC3     H 4958   4.299   0.281  10.261  1.0400  1.3877  1.1773
  330TMC3    H1 4959   4.624   0.285  10.537  0.0194 -1.0920 -0.3006
  330TMC3    H2 4960   4.613   4.699  10.237 -2.0080 -0.7997 -0.9205
  330TMC3    C7 4961   0.012   0.055  10.443 -0.7869  0.3461  0.1277
  330TMC3    C8 4962   4.380   0.054  10.119 -0.4042  0.9201  0.0233
  330TMC3    O1 4963   0.085   0.128  10.511  0.0688 -0.9664 -0.0943
  330TMC3    O2 4964   4.319   0.132  10.047 -0.0515  0.1912  0.9724
  331MPD2     C 4965   2.421   4.088  12.824 -0.0601 -0.5839 -0.1685
  331MPD2    C1 4966   2.528   4.100  12.740 -0.2168 -0.3456  0.3496
  331MPD2    C2 4967   2.597   3.992  12.708 -0.0455  0.6067  0.1312
  331MPD2    C3 4968   2.563   3.863  12.747  0.3752  0.5364 -0.3812
  331MPD2    C4 4969   2.457   3.855  12.837 -0.1718 -0.4970 -0.2556
  331MPD2    C5 4970   2.380   3.965  12.874 -0.0896  0.3033  0.2188
  331MPD2     H 4971   2.679   3.999  12.636  0.1875  0.6691  0.4029
  331MPD2    H1 4972   2.422   3.756  12.864 -0.1192 -0.7559 -1.1543
  331MPD2    H2 4973   2.361   4.175  12.848 -0.0931 -1.0486  1.4491
  331MPD2    H3 4974   2.287   3.961  12.929  0.1842 -1.3225  0.5498
  331MPD2     N 4975   2.636   3.760  12.687  0.3634 -0.4644  0.3854
  331MPD2    H5 4976   2.707   3.773  12.615  0.7790  2.7333  1.3652
  331MPD2    N1 4977   2.544   4.218  12.661  0.3734  0.0515 -0.0912
  331MPD2    H7 4978   2.476   4.294  12.666  0.8538  0.5081 -0.5402
  332TMC3    C1 4979   2.762   3.554  12.701 -0.0260 -0.0265  0.3217
  332TMC3    C2 4980   2.792   3.596  12.578 -0.4934 -0.3123  0.5301
  332TMC3    C3 4981   2.923   3.622  12.553  0.1869 -0.0927 -0.2718
  332TMC3    C4 4982   2.864   3.553  12.798  0.1340 -0.9031 -0.3723
  332TMC3    C5 4983   2.991   3.586  12.768  0.5631  0.1561  0.3203
  332TMC3    C6 4984   3.027   3.608  12.638 -0.1383 -1.0871 -0.7709
  332TMC3     C 4985   2.649   3.637  12.742 -0.2613 -0.9716 -0.3704
  332TMC3     O 4986   2.605   3.604  12.850 -0.6153  0.2081  0.2978
  332TMC3     H 4987   2.718   3.605  12.498 -0.7461  1.5811  0.9822
  332TMC3    H1 4988   2.840   3.532  12.901 -0.0667  1.8572  0.1568
  332TMC3    H2 4989   3.131   3.621  12.609  0.1187  0.0668  0.7090
  332TMC3    C7 4990   3.087   3.582  12.875  0.0372 -0.5238  0.1906
  332TMC3    C8 4991   2.969   3.632  12.422  0.1752 -0.0112 -0.6298
  332TMC3    O1 4992   3.052   3.524  12.978  0.5043 -1.0141  0.0432
  332TMC3    O2 4993   3.078   3.687  12.406  0.3068 -0.0755  0.1628
  333MPD2     C 4994   2.541   4.117  11.267  0.4979  0.6711 -0.3686
  333MPD2    C1 4995   2.639   4.020  11.267  0.1165 -0.2671  0.2035
  333MPD2    C2 4996   2.601   3.895  11.301 -0.0292  0.4450  0.3862
  333MPD2    C3 4997   2.472   3.862  11.340 -0.3684 -1.3264 -0.5309
  333MPD2    C4 4998   2.382   3.960  11.345  0.0193 -0.1534  1.0598
  333MPD2    C5 4999   2.409   4.084  11.302  0.5924  0.0054 -0.0602
  333MPD2     H 5000   2.674   3.816  11.319 -0.5652 -0.5023 -1.6233
  333MPD2    H1 5001   2.279   3.939  11.370 -0.8430  2.0516 -0.6046
  333MPD2    H2 5002   2.560   4.221  11.243  2.0019  0.1579 -1.4143
  333MPD2    H3 5003   2.332   4.159  11.308  0.4284 -0.4023  3.0723
  333MPD2     N 5004   2.433   3.726  11.376  0.2594 -0.9890  0.2799
  333MPD2    H5 5005   2.505   3.658  11.353  0.9241 -0.7342  1.6497
  333MPD2    N1 5006   2.773   4.066  11.247  0.3228 -0.6794  0.1526
  333MPD2    H7 5007   2.799   4.161  11.223  0.3881 -0.6857  0.1989
  334TMC3    C1 5008   3.006   4.052  11.207 -0.4821 -0.4439 -0.3246
  334TMC3    C2 5009   3.087   3.983  11.122  0.1130 -0.7356  0.0618
  334TMC3    C3 5010   3.200   4.048  11.073  0.1244 -0.1650 -0.6800
  334TMC3    C4 5011   3.032   4.175  11.260 -1.1600 -0.6059 -0.5575
  334TMC3    C5 5012   3.151   4.230  11.220 -0.0925 -0.1143  0.8945
  334TMC3    C6 5013   3.235   4.169  11.126  0.2717  0.5118  0.4619
  334TMC3     C 5014   2.879   3.983  11.230 -0.4458 -0.1630 -0.7594
  334TMC3     O 5015   2.876   3.862  11.205  0.6243  0.4990  0.2579
  334TMC3     H 5016   3.054   3.896  11.067  1.4633 -0.4945 -1.1288
  334TMC3    H1 5017   2.970   4.217  11.339  1.0430  1.0108  0.3138
  334TMC3    H2 5018   3.314   4.227  11.079  1.0096  0.1563  1.2413
  334TMC3    C7 5019   3.173   4.365  11.266 -0.6122 -0.3851 -0.1510
  334TMC3    C8 5020   3.279   3.971  10.974  0.7945  0.0442  1.0695
  334TMC3    O1 5021   3.069   4.421  11.297 -0.0089  0.4420 -0.0818
  334TMC3    O2 5022   3.222   3.881  10.916 -0.0830  0.6032 -0.0912
  335TMC3    C1 5023   2.478   0.403   0.110  0.3199  0.3834  0.0093
  335TMC3    C2 5024   2.399   0.369   0.008  0.1525 -0.4002 -0.4793
  335TMC3    C3 5025   2.459   0.342  17.587 -0.3046 -0.1480 -0.1823
  335TMC3    C4 5026   2.616   0.404   0.096 -0.5718  0.2177  0.0152
  335TMC3    C5 5027   2.670   0.369  17.677  0.2016  0.3616  0.2687
  335TMC3    C6 5028   2.593   0.346  17.564  0.1446  0.0042 -0.9068
  335TMC3     C 5029   2.407   0.463   0.227 -0.6010  0.5675 -0.3011
  335TMC3     O 5030   2.288   0.437   0.237 -0.0798  0.4850 -0.1675
  335TMC3     H 5031   2.292   0.383   0.010  0.4955  2.0488 -0.1105
  335TMC3    H1 5032   2.674   0.429   0.184  0.9384  1.0266 -1.1957
  335TMC3    H2 5033   2.626   0.300  17.472 -0.7214 -0.3124 -1.0591
  335TMC3    C7 5034   2.797   0.314  17.668  0.3304  0.1091  0.7037
  335TMC3    C8 5035   2.385   0.280  17.478 -1.0677  0.3689 -0.0526
  335TMC3    O1 5036   2.850   0.311  17.562  0.6791 -0.1900  0.3313
  335TMC3    O2 5037   2.414   0.307  17.365  0.0747  0.0012  0.0121
  336MPD2     C 5038   2.350   3.240  16.658  0.5340 -0.0394  0.1295
  336MPD2    C1 5039   2.302   3.181  16.539 -0.2127 -0.2221  0.0331
  336MPD2    C2 5040   2.279   3.047  16.538 -0.9179  0.0237 -0.0618
  336MPD2    C3 5041   2.294   2.971  16.659  0.7354 -0.1641 -0.2300
  336MPD2    C4 5042   2.341   3.031  16.771  0.2992 -0.3205  0.1511
  336MPD2    C5 5043   2.361   3.166  16.777 -0.1346 -0.1710  0.1321
  336MPD2     H 5044   2.245   3.001  16.447 -1.1105 -2.3046  1.1864
  336MPD2    H1 5045   2.352   2.984  16.869  1.2948 -0.2682  0.0684
  336MPD2    H2 5046   2.370   3.346  16.668 -1.0614  0.0341  2.7173
  336MPD2    H3 5047   2.391   3.221  16.865 -0.6418 -1.6192  1.2220
  336MPD2     N 5048   2.278   2.831  16.662  0.0343 -0.3519 -0.0599
  336MPD2    H5 5049   2.311   2.785  16.746 -1.7667 -2.0631 -0.2858
  336MPD2    N1 5050   2.289   3.252  16.413  0.2774 -0.2312  0.0844
  336MPD2    H7 5051   2.281   3.206  16.323 -1.2609  1.6763 -0.7517
  337TMC3    C1 5052   2.272   3.425  16.265  0.6341  0.0256 -0.5950
  337TMC3    C2 5053   2.181   3.358  16.191  0.5668  0.1306 -0.3738
  337TMC3    C3 5054   2.118   3.421  16.088 -0.3942  0.3061  0.6637
  337TMC3    C4 5055   2.306   3.554  16.221 -0.0538 -0.4326 -0.1063
  337TMC3    C5 5056   2.232   3.616  16.130 -0.2220  0.1471 -0.2590
  337TMC3    C6 5057   2.134   3.555  16.060 -0.0405  0.3259  0.7806
  337TMC3     C 5058   2.318   3.378  16.395  0.6117 -0.1751  0.5119
  337TMC3     O 5059   2.371   3.463  16.465 -0.6178  1.1110  0.0713
  337TMC3     H 5060   2.144   3.260  16.221 -1.9459  0.9102 -0.9221
  337TMC3    H1 5061   2.375   3.612  16.281 -0.3333 -0.2263  0.0159
  337TMC3    H2 5062   2.098   3.609  15.973 -1.6812 -2.5537 -0.3137
  337TMC3    C7 5063   2.233   3.761  16.125 -0.4582  0.0759 -0.7066
  337TMC3    C8 5064   1.978   3.372  16.071 -0.6791  0.5388  0.2449
  337TMC3    O1 5065   2.193   3.813  16.022 -0.4288 -0.6385 -0.0516
  337TMC3    O2 5066   1.926   3.314  16.162  0.3679  0.7916  0.1829
  338MPD2     C 5067   1.987   1.457   1.001  0.1782  0.0035  0.0442
  338MPD2    C1 5068   1.982   1.560   0.910  0.0211 -0.2985  0.0048
  338MPD2    C2 5069   1.903   1.671   0.935  0.1595  0.7330  0.8630
  338MPD2    C3 5070   1.839   1.683   1.055  0.1158  0.0850  0.1295
  338MPD2    C4 5071   1.849   1.579   1.148  0.8174 -0.6118  0.8199
  338MPD2    C5 5072   1.925   1.468   1.121 -0.1419 -0.1327  0.0602
  338MPD2     H 5073   1.903   1.753   0.863 -0.8982 -1.1411 -1.2627
  338MPD2    H1 5074   1.794   1.572   1.241  1.0695 -0.3432  0.9890
  338MPD2    H2 5075   2.051   1.372   0.977  0.5393  0.0230  0.9257
  338MPD2    H3 5076   1.936   1.388   1.194  1.2323 -0.0921 -0.1117
  338MPD2     N 5077   1.764   1.803   1.077  0.2679 -0.0320 -0.1620
  338MPD2    H5 5078   1.742   1.847   0.988  2.6554  1.9831  0.2354
  338MPD2    N1 5079   2.063   1.572   0.794  0.3691 -0.5462  0.2101
  338MPD2    H7 5080   2.065   1.662   0.747  1.3819 -1.3189 -1.2236
  339TMC3    C1 5081   1.724   2.005   1.169 -0.4962  1.3668  0.7465
  339TMC3    C2 5082   1.641   2.071   1.259 -0.3226  0.0575 -0.3442
  339TMC3    C3 5083   1.584   2.187   1.221 -0.0345  0.2869  0.0158
  339TMC3    C4 5084   1.760   2.059   1.048  0.8669  0.5728 -0.1044
  339TMC3    C5 5085   1.712   2.185   1.021  0.3204 -0.1913  0.1906
  339TMC3    C6 5086   1.624   2.249   1.105 -0.2004 -0.4436  0.0703
  339TMC3     C 5087   1.743   1.866   1.194  0.4514  0.2484  0.0364
  339TMC3     O 5088   1.788   1.838   1.303 -0.0325  0.1247  0.2742
  339TMC3     H 5089   1.624   2.026   1.356  2.3601  1.1006  0.6142
  339TMC3    H1 5090   1.817   2.001   0.976  2.0214 -0.6120  1.7799
  339TMC3    H2 5091   1.587   2.348   1.081  1.1729  0.1645  0.4438
  339TMC3    C7 5092   1.751   2.239   0.891  0.6744  0.2096 -0.6894
  339TMC3    C8 5093   1.456   2.221   1.275  1.0913  0.7575  0.3165
  339TMC3    O1 5094   1.850   2.185   0.844  0.1096  0.2632 -0.0488
  339TMC3    O2 5095   1.380   2.288   1.197  0.3779  0.0684 -0.0884
  340MPD2     C 5096   2.966   0.661   9.787  0.0661 -0.1212 -0.4529
  340MPD2    C1 5097   2.937   0.566   9.882  0.4254  0.5765  0.2800
  340MPD2    C2 5098   2.957   0.589  10.014 -0.1879  0.2647  0.9649
  340MPD2    C3 5099   3.003   0.714  10.057 -1.1160 -0.4013  0.1065
  340MPD2    C4 5100   3.010   0.817   9.964 -0.1729  0.4016 -0.1883
  340MPD2    C5 5101   2.992   0.792   9.830 -0.4389 -0.4393  0.8140
  340MPD2     H 5102   2.943   0.505  10.082 -4.5930 -0.5887 -1.0257
  340MPD2    H1 5103   3.036   0.915  10.001  1.0102  0.1781 -0.4184
  340MPD2    H2 5104   2.957   0.649   9.680 -1.4117 -1.1169 -0.2125
  340MPD2    H3 5105   3.015   0.869   9.758 -0.6709 -0.1236  1.0769
  340MPD2     N 5106   3.038   0.743  10.191 -0.0447  0.3175 -0.2583
  340MPD2    H5 5107   3.082   0.834  10.207 -1.9668  1.3197 -0.6215
  340MPD2    N1 5108   2.897   0.440   9.844 -0.4737  0.0955 -0.0708
  340MPD2    H7 5109   2.897   0.426   9.743 -2.9971 -3.2625  0.3729
  341TMC3    C1 5110   2.827   0.222   9.841 -0.2432  0.1213 -0.2617
  341TMC3    C2 5111   2.730   0.132   9.872  0.0286 -0.5027 -0.0554
  341TMC3    C3 5112   2.732   0.004   9.814 -0.1248 -0.3867  0.2717
  341TMC3    C4 5113   2.937   0.190   9.769  0.0047 -0.2449 -0.0864
  341TMC3    C5 5114   2.936   0.055   9.727  0.5421  0.5477 -0.5091
  341TMC3    C6 5115   2.836   4.690   9.745  0.2166  0.0023 -0.5185
  341TMC3     C 5116   2.830   0.346   9.917  0.2835 -0.0228  0.3630
  341TMC3     O 5117   2.801   0.342  10.037 -0.2108  0.2542 -0.4388
  341TMC3     H 5118   2.660   0.156   9.952 -2.0686 -1.0516 -1.7212
  341TMC3    H1 5119   3.024   0.254   9.764 -0.4939  0.5204  0.9331
  341TMC3    H2 5120   2.846   4.592   9.699 -1.5758 -0.6088  0.3957
  341TMC3    C7 5121   3.063   4.715   9.722 -0.1046  0.0479 -0.2463
  341TMC3    C8 5122   2.650   4.619   9.871 -0.6693 -0.3221 -0.2529
  341TMC3    O1 5123   3.070   4.594   9.751  0.1235 -0.3576  0.3966
  341TMC3    O2 5124   2.593   4.641   9.978 -0.2471 -0.4302 -0.0414
  342MPD2     C 5125   0.497   3.396   0.493  0.1793 -0.2747 -0.2022
  342MPD2    C1 5126   0.555   3.419   0.366 -0.3154 -0.0232 -0.5580
  342MPD2    C2 5127   0.607   3.545   0.337 -0.1938  0.3315 -1.0515
  342MPD2    C3 5128   0.603   3.637   0.440 -0.3765  0.3316  0.1362
  342MPD2    C4 5129   0.551   3.613   0.566  0.2619 -0.4442 -0.0862
  342MPD2    C5 5130   0.500   3.490   0.586 -0.1205  0.0178  0.0561
  342MPD2     H 5131   0.644   3.567   0.238  0.8029 -1.5738 -1.1122
  342MPD2    H1 5132   0.532   3.693   0.637  2.6390  0.8265 -0.8907
  342MPD2    H2 5133   0.459   3.298   0.520  0.1122 -0.2747 -0.2968
  342MPD2    H3 5134   0.458   3.465   0.683 -1.4919 -0.0974 -0.5718
  342MPD2     N 5135   0.613   3.777   0.410 -0.5552 -0.6588  0.3415
  342MPD2    H5 5136   0.589   3.836   0.490  1.0920 -0.5037  0.7175
  342MPD2    N1 5137   0.555   3.328   0.256  0.2980  0.6363  0.2511
  342MPD2    H7 5138   0.601   3.360   0.171  1.1816  0.0878  0.5312
  343TMC3    C1 5139   0.502   3.142   0.123  0.4123 -0.2537  0.0301
  343TMC3    C2 5140   0.546   3.206   0.009 -0.2446  0.0975  0.1206
  343TMC3    C3 5141   0.556   3.134  17.592  0.5999 -0.4750  0.8237
  343TMC3    C4 5142   0.461   3.012   0.117 -0.4499 -0.4914  0.6698
  343TMC3    C5 5143   0.451   2.952  17.688  0.0936 -0.0300  0.2458
  343TMC3    C6 5144   0.510   3.005  17.577  0.2144  0.1926  0.1703
  343TMC3     C 5145   0.492   3.207   0.256 -0.3383 -0.1971  0.2104
  343TMC3     O 5146   0.451   3.141   0.354  0.6340  0.1736  0.1888
  343TMC3     H 5147   0.579   3.309   0.010 -1.5404  0.5067 -0.2171
  343TMC3    H1 5148   0.399   2.978   0.199 -1.8814  0.4961 -0.0092
  343TMC3    H2 5149   0.520   2.949  17.485  1.5951 -0.3156  0.6407
  343TMC3    C7 5150   0.460   2.805  17.690 -0.4872 -0.1594 -0.0749
  343TMC3    C8 5151   0.651   3.186  17.494 -0.4482 -0.1162 -0.0326
  343TMC3    O1 5152   0.432   2.749  17.586  0.9831 -0.5009  0.2118
  343TMC3    O2 5153   0.654   3.309  17.474  0.4911 -0.4797 -0.9310
  344MPD2     C 5154   1.658   3.321  11.018 -0.3709  0.3834  0.7836
  344MPD2    C1 5155   1.556   3.308  10.926  0.2341 -0.5666 -0.3227
  344MPD2    C2 5156   1.550   3.393  10.810 -0.3190 -0.0035  0.4816
  344MPD2    C3 5157   1.651   3.485  10.786  0.0437 -0.1719 -0.3960
  344MPD2    C4 5158   1.755   3.488  10.877  0.7939 -0.0253  0.8328
  344MPD2    C5 5159   1.755   3.414  10.994  0.0690 -0.5041 -0.6353
  344MPD2     H 5160   1.471   3.388  10.736  1.1584 -1.3797 -1.0013
  344MPD2    H1 5161   1.841   3.552  10.860  1.2133 -0.3599  1.6548
  344MPD2    H2 5162   1.663   3.260  11.108 -1.3142 -0.9229 -0.0376
  344MPD2    H3 5163   1.829   3.431  11.072 -2.4863  1.3536  1.4026
  344MPD2     N 5164   1.663   3.567  10.676  0.3171  0.0383 -0.0872
  344MPD2    H5 5165   1.744   3.628  10.672 -0.8397  1.5362 -0.8245
  344MPD2    N1 5166   1.457   3.210  10.938  0.3953  0.1110  0.4945
  344MPD2    H7 5167   1.377   3.224  10.877 -1.0805  1.2881  2.6830
  345TMC3    C1 5168   1.634   3.668  10.458  0.3628  0.4829  0.4002
  345TMC3    C2 5169   1.719   3.766  10.497  0.3690 -0.5779  0.0039
  345TMC3    C3 5170   1.775   3.847  10.402  0.0109  0.3444  0.3956
  345TMC3    C4 5171   1.617   3.642  10.326  0.5586 -0.0503 -0.0934
  345TMC3    C5 5172   1.687   3.718  10.236  0.2205  0.3200  0.0482
  345TMC3    C6 5173   1.763   3.820  10.268 -0.6639  0.3987  0.1507
  345TMC3     C 5174   1.580   3.573  10.564  0.0112  0.4437  0.4895
  345TMC3     O 5175   1.488   3.496  10.530  0.0777 -0.4375  0.1498
  345TMC3     H 5176   1.712   3.796  10.600 -0.1524  0.8464 -0.4458
  345TMC3    H1 5177   1.557   3.556  10.297 -2.1894  1.2821  1.6331
  345TMC3    H2 5178   1.824   3.873  10.197 -2.4147  2.2733  0.0588
  345TMC3    C7 5179   1.646   3.708  10.098 -0.0607 -0.2405 -0.0222
  345TMC3    C8 5180   1.839   3.975  10.440  1.1978  0.2450  0.0782
  345TMC3    O1 5181   1.577   3.611  10.070  0.1237 -0.4064  0.3260
  345TMC3    O2 5182   1.826   4.064  10.358  0.2232  0.6297 -0.0599
  346MPD2     C 5183   1.955   4.334  14.296 -0.2813  0.1488  0.7518
  346MPD2    C1 5184   1.966   4.473  14.306 -0.6840 -0.1808  0.2343
  346MPD2    C2 5185   1.912   4.548  14.404  0.6276  0.2257 -0.0565
  346MPD2    C3 5186   1.835   4.483  14.499 -0.0748 -0.2579  0.2231
  346MPD2    C4 5187   1.805   4.351  14.484  0.0033  0.4306  0.2648
  346MPD2    C5 5188   1.870   4.278  14.386 -0.3639  0.0292 -0.0363
  346MPD2     H 5189   1.940   4.653  14.413  0.2308  0.1711  1.8154
  346MPD2    H1 5190   1.757   4.299  14.566  0.1275  1.3412  0.9128
  346MPD2    H2 5191   1.988   4.272  14.213 -0.1593 -0.5826  1.3460
  346MPD2    H3 5192   1.849   4.172  14.372  0.7836 -0.2795  0.5843
  346MPD2     N 5193   1.799   4.565  14.614 -0.6718 -0.3211  1.0078
  346MPD2    H5 5194   1.819   4.665  14.611  2.6425 -1.0264  0.7482
  346MPD2    N1 5195   2.032   4.549  14.206 -0.0423  0.0215 -0.4769
  346MPD2    H7 5196   2.032   4.650  14.216  0.4299  0.1278 -1.5656
  347TMC3    C1 5197   1.758   4.595  14.851  0.4388  0.1622  0.2282
  347TMC3    C2 5198   1.857   4.695  14.849 -0.4733  0.2368 -0.2335
  347TMC3    C3 5199   1.865   0.040  14.965  0.6513  0.6113  0.4190
  347TMC3    C4 5200   1.676   4.569  14.958 -0.6591 -0.0855 -0.8938
  347TMC3    C5 5201   1.683   4.662  15.063 -0.3199 -0.4514 -0.5082
  347TMC3    C6 5202   1.778   0.037  15.068 -0.2853  0.2715  0.6188
  347TMC3     C 5203   1.735   4.515  14.724 -0.1375 -0.3456  0.0758
  347TMC3     O 5204   1.688   4.407  14.749  0.1856 -0.0265 -0.2604
  347TMC3     H 5205   1.928   4.692  14.767 -3.0543  0.1500 -2.4632
  347TMC3    H1 5206   1.601   4.491  14.962 -2.1398  1.2958 -1.7160
  347TMC3    H2 5207   1.780   0.105  15.153  1.4938  1.7802 -0.6670
  347TMC3    C7 5208   1.604   4.639  15.180 -0.5434  0.1970 -0.6090
  347TMC3    C8 5209   2.008   0.041  15.002  0.3425 -0.1801 -0.5831
  347TMC3    O1 5210   1.663   4.663  15.288 -0.0127  0.9129 -0.3860
  347TMC3    O2 5211   2.085   4.687  14.946  0.1977  0.0411  0.3088
  348MPD2     C 5212   0.251   4.327  12.440 -0.0814 -0.3444 -0.2531
  348MPD2    C1 5213   0.351   4.389  12.362 -0.3237  0.3772 -0.2913
  348MPD2    C2 5214   0.313   4.471  12.251 -0.3348 -0.2343  0.0292
  348MPD2    C3 5215   0.177   4.485  12.219 -0.4344 -0.2379  0.0925
  348MPD2    C4 5216   0.081   4.440  12.307  0.1871 -0.6556 -0.2787
  348MPD2    C5 5217   0.116   4.353  12.410 -0.5637  0.3657  0.5295
  348MPD2     H 5218   0.384   4.521  12.186  1.1065 -3.7007 -1.0015
  348MPD2    H1 5219   4.700   4.467  12.299  0.6428  1.1317 -0.1725
  348MPD2    H2 5220   0.274   4.266  12.526 -1.0021 -1.9714 -1.1561
  348MPD2    H3 5221   0.035   4.310  12.467 -1.9015  0.7580 -1.0652
  348MPD2     N 5222   0.157   4.558  12.099 -0.1778 -0.6858 -0.5399
  348MPD2    H5 5223   0.238   4.597  12.052  0.3782 -0.5724  0.5230
  348MPD2    N1 5224   0.489   4.370  12.381  0.5270  0.2258 -0.2127
  348MPD2    H7 5225   0.541   4.393  12.297 -1.0206  0.0361 -1.2403
  349TMC3    C1 5226   0.692   4.322  12.462 -0.0575 -0.1903 -0.8098
  349TMC3    C2 5227   0.746   4.204  12.505  0.4567  0.0567 -0.7186
  349TMC3    C3 5228   0.866   4.165  12.441 -0.7299 -0.0404  0.0308
  349TMC3    C4 5229   0.750   4.410  12.375 -0.4163 -0.0108 -0.8403
  349TMC3    C5 5230   0.875   4.370  12.327 -0.0119  0.3193 -0.0097
  349TMC3    C6 5231   0.930   4.251  12.352  0.2900  0.2278  0.5053
  349TMC3     C 5232   0.553   4.318  12.491  0.2742 -0.3337 -0.3538
  349TMC3     O 5233   0.510   4.266  12.592  0.2274 -0.7169  0.2983
  349TMC3     H 5234   0.714   4.145  12.589 -2.1166  0.8141 -1.1903
  349TMC3    H1 5235   0.704   4.508  12.371 -1.3130 -0.4546 -1.3463
  349TMC3    H2 5236   1.029   4.231  12.311  0.4508  0.3321  0.8396
  349TMC3    C7 5237   0.919   4.452  12.215 -0.3472  0.0322  0.1938
  349TMC3    C8 5238   0.926   4.042  12.505  0.4222  0.0618 -0.6981
  349TMC3    O1 5239   0.961   4.398  12.116  0.0956  0.0392  0.3450
  349TMC3    O2 5240   0.851   3.960  12.558  0.0143 -0.1209  0.6059
  350MPD2     C 5241   4.645   2.779  10.122  0.8427  0.0797 -0.0554
  350MPD2    C1 5242   4.616   2.648  10.133  0.3477 -0.4799  0.1870
  350MPD2    C2 5243   4.573   2.603  10.256  0.8362  0.1445  0.2350
  350MPD2    C3 5244   4.574   2.679  10.370 -0.7376  0.0170 -0.2080
  350MPD2    C4 5245   4.623   2.813  10.354 -0.2091  0.2046 -0.0322
  350MPD2    C5 5246   4.649   2.857  10.230  0.4583  0.5664  0.2168
  350MPD2     H 5247   4.548   2.499  10.274 -0.2205  0.3431 -0.1007
  350MPD2    H1 5248   4.634   2.887  10.432 -2.1229 -1.7374  2.0803
  350MPD2    H2 5249   4.679   2.823  10.029 -0.0168 -0.2659 -0.5322
  350MPD2    H3 5250   4.688   2.958  10.219 -0.8797  1.0968  0.3281
  350MPD2     N 5251   4.527   2.620  10.489  0.4208  0.2361  0.0110
  350MPD2    H5 5252   4.504   2.521  10.489  2.5001 -0.2388  0.6266
  350MPD2    N1 5253   4.632   2.553  10.031  0.1472 -0.4300  0.9781
  350MPD2    H7 5254   4.588   2.464  10.053 -2.9263  0.9474  0.3704
  351TMC3    C1 5255   4.711   2.469   9.828 -0.4541  0.1542 -0.3683
  351TMC3    C2 5256   0.007   2.349   9.901  0.0589 -0.2864  0.9109
  351TMC3    C3 5257   0.011   2.236   9.828  0.2452 -0.4620 -0.5651
  351TMC3    C4 5258   0.004   2.479   9.694 -0.4195  0.2350 -0.1434
  351TMC3    C5 5259   0.022   2.362   9.632 -0.5528  0.9204 -0.0710
  351TMC3    C6 5260   0.020   2.239   9.694  0.6183  0.1134 -0.4373
  351TMC3     C 5261   4.686   2.581   9.905  0.0875  0.0421 -0.2227
  351TMC3     O 5262   4.711   2.689   9.854 -0.0430  0.1864 -0.2301
  351TMC3     H 5263   0.017   2.346  10.008  2.3904  2.2024  0.7812
  351TMC3    H1 5264   4.712   2.573   9.642 -1.5262  0.4708  0.6273
  351TMC3    H2 5265   0.034   2.144   9.643  1.1300 -1.4322  2.5553
  351TMC3    C7 5266   0.044   2.356   9.493  0.1366  0.0141  0.2377
  351TMC3    C8 5267   4.693   2.116   9.890 -0.8535  0.2119 -0.0408
  351TMC3    O1 5268   0.006   2.255   9.434 -0.5122 -0.5824 -0.1350
  351TMC3    O2 5269   4.691   2.016   9.811 -0.1368 -0.0777  1.0092
  352MPD2     C 5270   2.759   4.293   1.281  0.0199  0.3794  0.3456
  352MPD2    C1 5271   2.718   4.357   1.396  0.1366  0.1491  0.7487
  352MPD2    C2 5272   2.757   4.296   1.513  0.4694  0.1967 -0.5655
  352MPD2    C3 5273   2.844   4.189   1.524  1.0181  0.4911 -0.5723
  352MPD2    C4 5274   2.882   4.123   1.409 -0.4653  0.0491 -0.9563
  352MPD2    C5 5275   2.837   4.180   1.294  0.6111  0.1233 -1.1953
  352MPD2     H 5276   2.730   4.338   1.609 -1.5000  0.4989 -1.2555
  352MPD2    H1 5277   2.932   4.027   1.408  1.0975  0.8162  1.6298
  352MPD2    H2 5278   2.728   4.333   1.185  0.3676 -1.2483 -0.4485
  352MPD2    H3 5279   2.860   4.131   1.200 -1.3799 -0.3356 -1.4373
  352MPD2     N 5280   2.874   4.129   1.645 -0.1232 -0.2287 -0.0341
  352MPD2    H5 5281   2.928   4.043   1.639  0.2345  0.0519 -0.8133
  352MPD2    N1 5282   2.641   4.471   1.386 -0.1571 -0.0914 -0.4559
  352MPD2    H7 5283   2.626   4.506   1.292  1.8925 -1.0932 -1.1655
  353TMC3    C1 5284   2.873   4.067   1.871  0.3612  0.1301  0.1349
  353TMC3    C2 5285   3.004   4.030   1.873 -0.0417  0.5486  0.0162
  353TMC3    C3 5286   3.043   3.952   1.973 -0.6179 -0.4244 -0.1153
  353TMC3    C4 5287   2.790   4.049   1.970 -0.6000  0.4779  0.1389
  353TMC3    C5 5288   2.832   3.966   2.075 -0.2844 -0.6854 -0.7592
  353TMC3    C6 5289   2.955   3.908   2.074  0.3629  0.6741  0.3174
  353TMC3     C 5290   2.825   4.160   1.770 -0.5829  0.4136 -1.1253
  353TMC3     O 5291   2.766   4.261   1.801  0.4297 -0.1070 -0.5008
  353TMC3     H 5292   3.069   4.062   1.792  1.3275  0.1738  0.9722
  353TMC3    H1 5293   2.686   4.079   1.967 -0.1599  1.6578 -3.2253
  353TMC3    H2 5294   2.970   3.839   2.156  0.7637  1.5507  0.9979
  353TMC3    C7 5295   2.733   3.898   2.150  0.4040  0.7969 -0.1784
  353TMC3    C8 5296   3.177   3.895   1.960 -0.7728  0.4285 -0.0882
  353TMC3    O1 5297   2.746   3.864   2.265 -0.1426 -0.3673  0.1307
  353TMC3    O2 5298   3.267   3.971   1.920 -0.0450  0.5389  0.6764
  354TMC3    C1 5299   4.679   1.221  13.788  0.1886 -0.5515 -0.3973
  354TMC3    C2 5300   4.678   1.344  13.736  0.5648  0.5858 -0.3231
  354TMC3    C3 5301   0.054   1.390  13.655  0.2666 -0.0403 -0.8239
  354TMC3    C4 5302   0.040   1.128  13.740 -0.1552 -0.4144 -0.7046
  354TMC3    C5 5303   0.140   1.177  13.657 -0.1147  0.2803  0.1722
  354TMC3    C6 5304   0.147   1.300  13.612  0.6980  1.0090 -0.0348
  354TMC3     C 5305   4.600   1.201  13.907  0.6691 -1.0743  0.1027
  354TMC3     O 5306   4.491   1.253  13.914 -0.4455  0.0184  0.1471
  354TMC3     H 5307   4.594   1.407  13.761  0.2000  0.1705 -0.5052
  354TMC3    H1 5308   0.059   1.032  13.787  1.6610  0.1600 -0.2478
  354TMC3    H2 5309   0.211   1.324  13.528  1.2158 -2.9047 -0.7797
  354TMC3    C7 5310   0.258   1.099  13.650  0.4825  0.1486 -0.8273
  354TMC3    C8 5311   0.045   1.520  13.584 -0.3238 -0.1237 -0.6564
  354TMC3    O1 5312   0.242   0.980  13.687 -1.0975 -0.1417 -0.6648
  354TMC3    O2 5313   0.120   1.520  13.486  0.4136  0.0991  0.3462
  355MPD2     C 5314   0.371   1.924  12.105 -0.4317 -0.4233  0.1096
  355MPD2    C1 5315   0.404   2.042  12.169 -0.3338 -0.2573 -0.2049
  355MPD2    C2 5316   0.466   2.036  12.290  0.3746 -0.0636  0.4127
  355MPD2    C3 5317   0.497   1.912  12.348  0.6335 -0.4807 -1.3607
  355MPD2    C4 5318   0.465   1.797  12.284 -1.1326  0.1353 -0.2212
  355MPD2    C5 5319   0.394   1.804  12.167 -0.1320  0.3145 -0.4773
  355MPD2     H 5320   0.490   2.129  12.341  0.9981  0.3002 -0.5444
  355MPD2    H1 5321   0.493   1.698  12.318 -0.9915 -0.0051 -0.7501
  355MPD2    H2 5322   0.327   1.934  12.006 -2.2537  0.3796  0.9901
  355MPD2    H3 5323   0.373   1.718  12.104 -1.5183 -0.0650  0.4820
  355MPD2     N 5324   0.567   1.890  12.474  0.2321 -1.1783  0.2018
  355MPD2    H5 5325   0.571   1.798  12.516  1.6846 -1.0054  0.4381
  355MPD2    N1 5326   0.413   2.156  12.084  0.4189  0.3187  0.2014
  355MPD2    H7 5327   0.379   2.145  11.989 -0.5525  1.3209  0.4280
  356TMC3    C1 5328   0.667   2.112  12.497 -0.3072 -0.5648 -0.2015
  356TMC3    C2 5329   0.739   2.120  12.381 -0.0352  1.1831  0.2684
  356TMC3    C3 5330   0.788   2.243  12.342  0.1570 -0.8095  1.5482
  356TMC3    C4 5331   0.675   2.214  12.587 -0.0719  0.8122 -0.4506
  356TMC3    C5 5332   0.737   2.326  12.548 -0.3013  0.3302 -0.2979
  356TMC3    C6 5333   0.773   2.353  12.418  0.5563 -0.7292 -0.2432
  356TMC3     C 5334   0.637   1.984  12.552 -0.4996  0.2568 -0.4540
  356TMC3     O 5335   0.681   1.968  12.667 -0.2678  0.5366 -0.5358
  356TMC3     H 5336   0.737   2.036  12.312 -1.3230 -0.6779  2.5915
  356TMC3    H1 5337   0.637   2.197  12.687  2.0684 -3.5438 -0.3830
  356TMC3    H2 5338   0.810   2.449  12.384 -1.6425  0.0064 -0.5103
  356TMC3    C7 5339   0.766   2.426  12.653  0.2759 -0.1921 -0.4563
  356TMC3    C8 5340   0.826   2.257  12.200 -0.0575 -0.1524  0.2585
  356TMC3    O1 5341   0.763   2.383  12.765  0.4721  0.3447  0.2634
  356TMC3    O2 5342   0.857   2.152  12.144 -0.0645  0.3342 -0.2554
  357MPD2     C 5343   3.672   0.098   0.458  0.5623  0.1133  0.5956
  357MPD2    C1 5344   3.708   0.111   0.591 -0.5484  0.0666 -0.1735
  357MPD2    C2 5345   3.617   0.111   0.698 -0.2529  0.3797 -0.6389
  357MPD2    C3 5346   3.478   0.101   0.673 -0.3260 -0.2255 -0.3622
  357MPD2    C4 5347   3.442   0.095   0.540 -0.4249  0.1926 -0.4006
  357MPD2    C5 5348   3.534   0.089   0.439 -0.0499  0.1862 -0.8017
  357MPD2     H 5349   3.652   0.087   0.798 -1.6986 -1.4696 -0.5658
  357MPD2    H1 5350   3.337   0.086   0.518 -0.4696 -1.7605  0.5888
  357MPD2    H2 5351   3.741   0.095   0.375 -2.1651  0.4744 -1.6670
  357MPD2    H3 5352   3.495   0.083   0.338 -1.2211  3.5578 -0.5529
  357MPD2     N 5353   3.379   0.090   0.769 -0.1765  0.0830  0.2932
  357MPD2    H5 5354   3.287   0.060   0.739 -0.0158  0.6644 -0.7902
  357MPD2    N1 5355   3.842   0.138   0.618  0.5021 -0.1794 -0.0074
  357MPD2    H7 5356   3.899   0.154   0.536  1.9677 -0.4767  0.9562
  358TMC3    C1 5357   4.035   0.196   0.726  0.2482 -0.0176  0.3370
  358TMC3    C2 5358   4.096   0.150   0.615 -0.0896 -0.2078 -0.5396
  358TMC3    C3 5359   4.198   0.232   0.568  0.8488 -0.0055 -0.2814
  358TMC3    C4 5360   4.049   0.319   0.790  0.3154 -0.0956 -0.3150
  358TMC3    C5 5361   4.142   0.400   0.733 -0.4915  0.2746 -0.4536
  358TMC3    C6 5362   4.214   0.361   0.626  0.1959  0.5308 -0.0338
  358TMC3     C 5363   3.905   0.142   0.740  0.0060  0.3710 -0.1222
  358TMC3     O 5364   3.858   0.127   0.852  0.3500 -0.0621  0.4221
  358TMC3     H 5365   4.072   0.054   0.570 -2.3676  0.6885 -1.1973
  358TMC3    H1 5366   3.986   0.360   0.867  0.5460 -1.3222  0.5217
  358TMC3    H2 5367   4.313   0.403   0.624 -0.4992  2.0563 -2.1299
  358TMC3    C7 5368   4.153   0.538   0.774 -0.1899  0.3363 -0.7512
  358TMC3    C8 5369   4.243   0.194   0.431  0.3983 -0.2276  0.5410
  358TMC3    O1 5370   4.108   0.561   0.888 -0.1427 -0.6125  0.0424
  358TMC3    O2 5371   4.165   0.117   0.376  0.3933 -0.0287  0.2669
  359MPD2     C 5372   0.053   0.224  12.978  0.9112 -0.6288  0.1527
  359MPD2    C1 5373   0.144   0.323  12.957  0.6329 -0.5078 -0.0615
  359MPD2    C2 5374   0.186   0.400  13.065  0.1606  0.0769 -0.5591
  359MPD2    C3 5375   0.132   0.379  13.193 -0.0045  0.1452 -0.4964
  359MPD2    C4 5376   0.039   0.282  13.207 -0.1608  0.3499 -0.0914
  359MPD2    C5 5377   0.001   0.209  13.098 -0.2715 -0.4194  0.3422
  359MPD2     H 5378   0.258   0.478  13.045  1.0527 -0.4156  0.7146
  359MPD2    H1 5379   4.712   0.255  13.299  0.4633  0.2413  0.2195
  359MPD2    H2 5380   0.011   0.174  12.891 -0.0897  0.6365 -0.0931
  359MPD2    H3 5381   4.649   0.133  13.111 -0.5360 -0.5025 -1.7152
  359MPD2     N 5382   0.184   0.432  13.311 -0.2087  0.5183 -0.6839
  359MPD2    H5 5383   0.130   0.409  13.394  2.6720  0.8219  1.2592
  359MPD2    N1 5384   0.203   0.361  12.829  0.4070  0.4253 -0.5258
  359MPD2    H7 5385   0.258   0.446  12.822  0.2054  0.5426 -0.6862
  360TMC3    C1 5386   0.267   0.332  12.601 -0.3837  0.7903 -0.3050
  360TMC3    C2 5387   0.392   0.368  12.631 -0.1132 -0.4827 -0.7995
  360TMC3    C3 5388   0.478   0.398  12.529 -0.1337 -0.6503  0.0855
  360TMC3    C4 5389   0.217   0.331  12.478  0.3037 -1.3055 -0.6399
  360TMC3    C5 5390   0.295   0.380  12.377  0.0892  0.5617 -0.2311
  360TMC3    C6 5391   0.429   0.410  12.400  0.6427 -0.3335  0.1997
  360TMC3     C 5392   0.182   0.295  12.706 -0.5130  0.5771  0.3726
  360TMC3     O 5393   0.095   0.216  12.682 -0.0587  0.3310 -0.7529
  360TMC3     H 5394   0.428   0.346  12.731  0.3098  2.8457 -0.2461
  360TMC3    H1 5395   0.108   0.332  12.471  0.1613 -0.7542  1.9260
  360TMC3    H2 5396   0.494   0.429  12.315 -1.0808 -0.5772 -1.1708
  360TMC3    C7 5397   0.246   0.380  12.241  0.6585 -0.0479 -1.0074
  360TMC3    C8 5398   0.619   0.429  12.562  0.5697  0.4426 -0.0116
  360TMC3    O1 5399   0.331   0.417  12.160  0.4052  0.3692 -0.0487
  360TMC3    O2 5400   0.667   0.391  12.664 -0.7517  0.5758  0.2507
  361MPD2     C 5401   1.711   4.101  17.055 -0.5848 -0.0861  0.3755
  361MPD2    C1 5402   1.661   4.054  17.172  0.3986  0.1291 -0.0277
  361MPD2    C2 5403   1.725   3.944  17.232  0.0473 -0.8809 -0.1442
  361MPD2    C3 5404   1.828   3.879  17.167  0.4548  0.2064 -0.1826
  361MPD2    C4 5405   1.861   3.923  17.043  0.0592  0.5401  0.6008
  361MPD2    C5 5406   1.805   4.033  16.986  0.8735  0.0250  0.6328
  361MPD2     H 5407   1.685   3.885  17.314 -1.2836  0.5848  0.2584
  361MPD2    H1 5408   1.944   3.871  16.996 -0.5200 -1.8742  2.2620
  361MPD2    H2 5409   1.676   4.192  17.007  0.9602  0.5464  0.4614
  361MPD2    H3 5410   1.828   4.052  16.882 -0.6357 -0.5175  0.1876
  361MPD2     N 5411   1.882   3.754  17.213 -0.2848 -0.4299  0.1593
  361MPD2    H5 5412   1.940   3.698  17.150 -1.1338  1.2352 -2.1148
  361MPD2    N1 5413   1.544   4.112  17.228  0.1156  0.0886 -0.1605
  361MPD2    H7 5414   1.506   4.193  17.180  1.9618  1.4227  0.6588
  362TMC3    C1 5415   1.333   4.117  17.343  0.1301 -0.2397 -0.4608
  362TMC3    C2 5416   1.255   4.069  17.456 -0.1405 -0.0046  0.7427
  362TMC3    C3 5417   1.128   4.116  17.450  0.4149 -0.0384  0.2834
  362TMC3    C4 5418   1.280   4.187  17.236 -1.2418 -0.2702  0.1115
  362TMC3    C5 5419   1.153   4.210  17.235 -0.7470 -0.1906  0.5265
  362TMC3    C6 5420   1.080   4.192  17.348 -0.2620 -0.0827  0.0887
  362TMC3     C 5421   1.474   4.067  17.334  0.4229  0.6978 -0.4238
  362TMC3     O 5422   1.512   3.991  17.422 -0.5758  0.2804 -0.2197
  362TMC3     H 5423   1.287   4.001  17.534 -3.7841 -1.9916  0.4721
  362TMC3    H1 5424   1.348   4.202  17.153 -0.7979 -1.2992  0.2875
  362TMC3    H2 5425   0.974   4.208  17.335 -0.2427  0.2706  0.3639
  362TMC3    C7 5426   1.096   4.268  17.115 -0.7761 -0.4063 -0.2821
  362TMC3    C8 5427   1.031   4.084  17.559 -0.5187 -0.2614 -1.1247
  362TMC3    O1 5428   1.176   4.321  17.037 -0.7890  0.0637  0.1142
  362TMC3    O2 5429   1.054   3.986  17.634 -0.6076 -0.3744  0.1497
  363TMC3    C1 5430   0.293   1.936   9.488 -0.1851  0.7071 -0.2350
  363TMC3    C2 5431   0.276   1.897   9.618  0.2116 -0.6590 -0.4810
  363TMC3    C3 5432   0.301   1.992   9.714  0.0103 -0.2730 -0.3905
  363TMC3    C4 5433   0.318   2.063   9.458 -0.3650 -0.2885  0.7354
  363TMC3    C5 5434   0.359   2.148   9.553 -0.7171 -0.2091 -0.6032
  363TMC3    C6 5435   0.352   2.113   9.684  0.4808  0.7616  0.0026
  363TMC3     C 5436   0.249   1.845   9.382 -0.2523 -0.4237  0.3607
  363TMC3     O 5437   0.252   1.888   9.268  0.3233  0.0191  0.3601
  363TMC3     H 5438   0.243   1.797   9.645 -1.5290  0.0280 -0.0334
  363TMC3    H1 5439   0.330   2.097   9.356 -1.4634 -0.3119  0.5931
  363TMC3    H2 5440   0.360   2.190   9.760  0.6346 -0.6448  1.4121
  363TMC3    C7 5441   0.418   2.274   9.519  0.6421  0.0538  0.1761
  363TMC3    C8 5442   0.286   1.954   9.856  1.0224  0.8727 -0.2539
  363TMC3    O1 5443   0.394   2.327   9.408  1.2479  0.0244  0.1706
  363TMC3    O2 5444   0.287   2.040   9.938  0.6663  0.0692 -0.3263
  364MPD2     C 5445   3.700   1.651  10.786  0.3449  0.0234  0.4259
  364MPD2    C1 5446   3.812   1.570  10.780  0.4779 -0.3974  0.2261
  364MPD2    C2 5447   3.810   1.452  10.858  0.2410  0.3172 -0.2295
  364MPD2    C3 5448   3.695   1.403  10.918 -0.6689 -0.4228 -0.1031
  364MPD2    C4 5449   3.578   1.478  10.907 -0.0614  0.2368  0.3504
  364MPD2    C5 5450   3.581   1.603  10.841 -0.2452  0.0655 -0.1401
  364MPD2     H 5451   3.906   1.406  10.878  1.4479  2.7014 -0.5439
  364MPD2    H1 5452   3.484   1.442  10.946 -1.4585  1.5285 -1.7855
  364MPD2    H2 5453   3.701   1.749  10.739 -0.1764 -0.4991 -0.6564
  364MPD2    H3 5454   3.488   1.658  10.849 -1.2366 -1.5467 -0.5743
  364MPD2     N 5455   3.692   1.285  10.997 -0.1544 -0.3241 -0.1168
  364MPD2    H5 5456   3.614   1.277  11.061  0.8324  1.0875  1.2643
  364MPD2    N1 5457   3.932   1.617  10.730 -0.4387 -0.2835 -0.3653
  364MPD2    H7 5458   3.936   1.718  10.717 -1.8500  0.1425  2.4951
  365TMC3    C1 5459   4.169   1.602  10.706 -0.2898  0.0905  0.3126
  365TMC3    C2 5460   4.272   1.540  10.641  0.0305 -0.3121  0.4933
  365TMC3    C3 5461   4.392   1.546  10.699  0.5007 -0.2424  0.0701
  365TMC3    C4 5462   4.195   1.674  10.818  0.3547 -0.0078 -0.2813
  365TMC3    C5 5463   4.318   1.688  10.869  0.5801  0.3103 -0.1570
  365TMC3    C6 5464   4.422   1.626  10.800  0.2694  0.1628  1.0480
  365TMC3     C 5465   4.041   1.536  10.706  0.4409  0.7158 -0.5875
  365TMC3     O 5466   4.037   1.414  10.691 -0.0584 -0.3016 -0.0777
  365TMC3     H 5467   4.272   1.485  10.548  0.0640  1.0263 -0.2984
  365TMC3    H1 5468   4.114   1.727  10.866  0.2289 -0.1933 -0.2923
  365TMC3    H2 5469   4.521   1.622  10.843  0.5482  3.8135  0.7418
  365TMC3    C7 5470   4.351   1.744  11.000  0.3290  0.4282  0.6521
  365TMC3    C8 5471   4.442   1.411  10.718 -0.1074  0.4486 -0.2547
  365TMC3    O1 5472   4.469   1.772  11.012 -0.2741 -0.1015 -0.0134
  365TMC3    O2 5473   4.558   1.409  10.754  0.3326  0.4791 -0.4307
  366MPD2     C 5474   2.005   2.142  15.169 -0.2823  0.3527  0.0495
  366MPD2    C1 5475   2.021   2.166  15.304  0.1675 -0.2785  0.6113
  366MPD2    C2 5476   2.110   2.101  15.383 -0.0826 -0.4984  0.2639
  366MPD2    C3 5477   2.182   1.999  15.323  0.3892  0.1676 -1.1757
  366MPD2    C4 5478   2.167   1.968  15.187  0.7686 -0.1273  0.3492
  366MPD2    C5 5479   2.084   2.046  15.111  0.0573 -0.1624 -0.0798
  366MPD2     H 5480   2.113   2.126  15.489  2.7055  1.8741 -0.3871
  366MPD2    H1 5481   2.236   1.898  15.141 -1.7004 -2.3972  0.0980
  366MPD2    H2 5482   1.933   2.203  15.115 -0.0461  0.1435 -0.5106
  366MPD2    H3 5483   2.068   2.044  15.004 -1.2170 -0.0884  0.1184
  366MPD2     N 5484   2.271   1.914  15.396 -0.2449 -0.1566 -1.2203
  366MPD2    H5 5485   2.296   1.823  15.358  0.9961  0.6387 -2.3127
  366MPD2    N1 5486   1.954   2.276  15.372  0.3246 -0.1251 -0.2864
  366MPD2    H7 5487   1.983   2.296  15.467  0.1538 -1.2840  0.0153
  367TMC3    C1 5488   1.848   2.479  15.406 -0.9872  0.6671 -0.1381
  367TMC3    C2 5489   1.959   2.517  15.471 -0.5710 -0.6832  0.4448
  367TMC3    C3 5490   1.950   2.631  15.553 -0.1903 -0.7093  0.2652
  367TMC3    C4 5491   1.746   2.562  15.393  0.3065 -0.0447  0.6554
  367TMC3    C5 5492   1.754   2.684  15.461  0.1046 -0.4992  0.4036
  367TMC3    C6 5493   1.848   2.718  15.553  0.3529 -0.3294 -0.4782
  367TMC3     C 5494   1.854   2.359  15.325 -0.2197 -0.7683  0.1443
  367TMC3     O 5495   1.777   2.356  15.229 -0.7495  0.0412  0.4987
  367TMC3     H 5496   2.053   2.462  15.473 -1.5848 -2.4625 -1.7981
  367TMC3    H1 5497   1.666   2.532  15.327  1.1304 -1.2740  0.2088
  367TMC3    H2 5498   1.851   2.816  15.599 -2.6583 -1.7405  2.7281
  367TMC3    C7 5499   1.650   2.787  15.441  0.3316 -0.0058 -0.9139
  367TMC3    C8 5500   2.053   2.641  15.656  0.2333 -0.5772 -0.4666
  367TMC3    O1 5501   1.652   2.890  15.505  0.5460 -0.5264 -0.0235
  367TMC3    O2 5502   2.149   2.567  15.645  0.0211  0.5197 -0.3958
  368MPD2     C 5503   3.731   4.435  13.557  0.4694  0.8912 -0.1036
  368MPD2    C1 5504   3.784   4.490  13.444  0.3572 -0.7452 -0.3601
  368MPD2    C2 5505   3.920   4.511  13.434  0.7591 -0.5080 -0.0083
  368MPD2    C3 5506   4.004   4.471  13.539 -0.2871  0.1228 -0.0876
  368MPD2    C4 5507   3.951   4.401  13.650  0.5300 -0.5976  0.4674
  368MPD2    C5 5508   3.810   4.397  13.660  0.3229 -0.6055 -0.1254
  368MPD2     H 5509   3.969   4.545  13.343 -0.5775  1.4205 -0.0105
  368MPD2    H1 5510   4.007   4.367  13.736  1.6451  2.1060  0.8312
  368MPD2    H2 5511   3.624   4.425  13.572  0.4228  0.2052 -0.8894
  368MPD2    H3 5512   3.777   4.372  13.761  0.9878  1.2684  0.5532
  368MPD2     N 5513   4.145   4.470  13.544 -0.2587 -0.1661 -0.4801
  368MPD2    H5 5514   4.179   4.411  13.620 -1.5379  1.4581  1.3378
  368MPD2    N1 5515   3.690   4.519  13.344 -0.1171  0.2414 -0.4093
  368MPD2    H7 5516   3.598   4.481  13.360  0.1117 -0.0956  0.1059
  369TMC3    C1 5517   3.593   4.572  13.143 -0.1002  0.4491  0.1366
  369TMC3    C2 5518   3.582   4.675  13.053 -0.5972  0.5593  0.1236
  369TMC3    C3 5519   3.464   4.678  12.978  0.3705  1.0330 -0.3850
  369TMC3    C4 5520   3.498   4.483  13.172 -0.4067  0.0026 -0.5492
  369TMC3    C5 5521   3.377   4.504  13.118  0.1727  0.3828 -0.1618
  369TMC3    C6 5522   3.364   4.598  13.017 -0.4914 -0.1601  0.4011
  369TMC3     C 5523   3.714   4.576  13.220 -0.1313  0.2160 -0.5004
  369TMC3     O 5524   3.825   4.623  13.179  0.0751  0.4373  0.5799
  369TMC3     H 5525   3.662   0.023  13.042  0.9509 -1.4672 -1.8272
  369TMC3    H1 5526   3.515   4.397  13.236 -1.1051  2.5497  3.0857
  369TMC3    H2 5527   3.263   4.627  12.990 -0.7198 -1.4367 -0.1390
  369TMC3    C7 5528   3.260   4.481  13.202 -0.4212  0.3630  0.3595
  369TMC3    C8 5529   3.445   0.057  12.879  0.0751  0.2345 -0.0144
  369TMC3    O1 5530   3.283   4.467  13.324 -0.5608  0.4525  0.1973
  369TMC3    O2 5531   3.536   0.137  12.865 -0.0026 -0.6326  0.0437
  370TMC3    C1 5532   2.533   4.691  16.656 -0.1085  0.0165 -0.5785
  370TMC3    C2 5533   2.469   4.598  16.734 -0.9908  0.6628  0.0504
  370TMC3    C3 5534   2.444   4.478  16.674 -0.0051 -0.2186  0.0281
  370TMC3    C4 5535   2.577   4.662  16.531 -0.4909  0.5448 -0.4762
  370TMC3    C5 5536   2.561   4.531  16.481 -0.0412 -0.5687  0.1395
  370TMC3    C6 5537   2.485   4.442  16.549  0.0871 -0.2073 -0.0523
  370TMC3     C 5538   2.616   0.067  16.728 -0.3391  0.0305  0.3940
  370TMC3     O 5539   2.645   0.046  16.844 -0.1951 -0.8015  0.3341
  370TMC3     H 5540   2.439   4.626  16.834  0.7946  0.1490  0.7390
  370TMC3    H1 5541   2.628   0.008  16.465  0.1285 -0.3243 -0.9103
  370TMC3    H2 5542   2.457   4.346  16.507  0.3263 -0.8399  1.2388
  370TMC3    C7 5543   2.599   4.515  16.344  0.9434  0.9915 -0.4858
  370TMC3    C8 5544   2.363   4.381  16.739  0.9725  0.1286  0.2067
  370TMC3    O1 5545   2.576   4.612  16.272 -0.2789 -0.3107  0.2833
  370TMC3    O2 5546   2.375   4.265  16.711 -0.0506  0.5068 -0.0213
  371TMC3    C1 5547   3.857   2.862  15.635 -0.1487  0.3328  0.3918
  371TMC3    C2 5548   3.742   2.898  15.710 -0.5367  0.3935  0.3690
  371TMC3    C3 5549   3.717   3.029  15.738  0.1078  0.2034 -1.3280
  371TMC3    C4 5550   3.934   2.955  15.582  1.0578 -0.9004  0.5840
  371TMC3    C5 5551   3.899   3.087  15.601  0.0923 -0.0571 -0.1084
  371TMC3    C6 5552   3.803   3.127  15.688 -0.2269  0.0634 -0.3516
  371TMC3     C 5553   3.911   2.723  15.621 -0.2694 -0.0401  0.0133
  371TMC3     O 5554   4.015   2.709  15.556  0.9694  0.1961  0.8204
  371TMC3     H 5555   3.660   2.836  15.746  0.1376 -0.1935  0.9239
  371TMC3    H1 5556   4.008   2.924  15.510 -0.3962 -0.5297 -1.0761
  371TMC3    H2 5557   3.791   3.232  15.714 -0.2019 -0.0679  0.1889
  371TMC3    C7 5558   3.944   3.190  15.515 -0.2422 -0.1867  0.2972
  371TMC3    C8 5559   3.585   3.058  15.792 -0.3693  0.6608 -0.2533
  371TMC3    O1 5560   3.930   3.307  15.558  0.2275  0.7185  0.7338
  371TMC3    O2 5561   3.490   2.983  15.776  0.3053 -0.0587  0.5033
  372MPD2     C 5562   3.569   0.019  13.576 -0.5061  0.0013 -0.3289
  372MPD2    C1 5563   3.618   4.721  13.704 -0.5740 -0.0637  0.0084
  372MPD2    C2 5564   3.568   4.618  13.782  0.4210 -0.0366 -0.3259
  372MPD2    C3 5565   3.472   4.543  13.736  0.7955  0.7923  0.1626
  372MPD2    C4 5566   3.412   4.572  13.616  0.3231 -0.1668  0.1364
  372MPD2    C5 5567   3.463   4.666  13.534 -0.0312 -0.1714  1.0449
  372MPD2     H 5568   3.608   4.602  13.882  0.4466 -0.9153 -0.4751
  372MPD2    H1 5569   3.332   4.514  13.570  1.5041 -0.2190 -1.8131
  372MPD2    H2 5570   3.607   0.095  13.508 -0.2319 -1.3954 -1.7385
  372MPD2    H3 5571   3.412   4.688  13.441  1.4207  0.7006  0.4677
  372MPD2     N 5572   3.429   4.423  13.809  0.0433  0.6220  0.4058
  372MPD2    H5 5573   3.469   4.420  13.902  0.8462 -2.0919 -0.0264
  372MPD2    N1 5574   3.700   0.094  13.767  0.2389  0.2976 -0.2817
  372MPD2    H7 5575   3.722   0.080  13.865  2.0880  1.8091 -0.4904
  373TMC3    C1 5576   3.349   4.212  13.859 -0.7737 -0.0293 -0.0446
  373TMC3    C2 5577   3.315   4.246  13.990  0.0162 -0.2673 -0.3535
  373TMC3    C3 5578   3.334   4.157  14.089  0.2708 -0.0452  0.3335
  373TMC3    C4 5579   3.374   4.084  13.829 -0.5630  0.1962 -0.2370
  373TMC3    C5 5580   3.388   3.991  13.931 -0.3308 -0.0585  0.0599
  373TMC3    C6 5581   3.378   4.030  14.063  0.0922 -0.0768 -0.7101
  373TMC3     C 5582   3.363   4.314  13.761 -0.2570 -0.2169 -0.1456
  373TMC3     O 5583   3.335   4.284  13.646 -0.3399 -0.2189 -0.1129
  373TMC3     H 5584   3.298   4.349  14.022 -0.2631 -0.1993 -0.7233
  373TMC3    H1 5585   3.386   4.059  13.725 -1.3884 -0.2303 -0.2290
  373TMC3    H2 5586   3.394   3.960  14.144  1.0479 -0.0948 -0.9196
  373TMC3    C7 5587   3.471   3.881  13.884 -0.1745 -0.5451  0.2564
  373TMC3    C8 5588   3.325   4.188  14.228  0.0526  0.1519  0.1469
  373TMC3    O1 5589   3.468   3.858  13.764  0.3874  0.4860 -0.0796
  373TMC3    O2 5590   3.369   4.104  14.298 -0.0967  0.0432  0.5191
  374TMC3    C1 5591   3.969   4.563   9.934  0.3277  0.0883  0.0245
  374TMC3    C2 5592   3.984   4.672  10.015 -0.0498  0.3484  0.8057
  374TMC3    C3 5593   3.933   0.070   9.979  0.2519 -0.7978 -0.4334
  374TMC3    C4 5594   3.942   4.573   9.804  0.3029 -0.4154 -0.4048
  374TMC3    C5 5595   3.907   4.698   9.761  0.0881  0.0498  0.3347
  374TMC3    C6 5596   3.903   0.088   9.844 -0.3248 -0.1199  0.2588
  374TMC3     C 5597   3.939   4.444  10.007 -0.1320  0.2128  0.2323
  374TMC3     O 5598   3.923   4.455  10.130 -0.0760  0.4113 -0.3366
  374TMC3     H 5599   4.017   4.660  10.117  1.2100  1.2528  0.5113
  374TMC3    H1 5600   3.935   4.485   9.741 -0.4670 -0.0471 -0.8324
  374TMC3    H2 5601   3.890   0.187   9.802  2.1344 -0.0395 -0.3032
  374TMC3    C7 5602   3.913   4.713   9.615  0.2101  0.6151  0.3516
  374TMC3    C8 5603   3.911   0.182  10.069  0.8961  0.4304 -0.1034
  374TMC3    O1 5604   3.966   4.622   9.554 -0.2897 -0.0830 -0.4036
  374TMC3    O2 5605   3.844   0.270  10.020 -0.2819 -0.2885  0.2859
  375MPD2     C 5606   4.042   4.469  17.404  0.0504  0.4271  0.1124
  375MPD2    C1 5607   3.985   4.565  17.317 -0.1017 -0.3301  0.2667
  375MPD2    C2 5608   4.061   4.610  17.211  0.4606 -0.0453 -0.9597
  375MPD2    C3 5609   4.192   4.563  17.194  0.1156 -0.1982 -0.5497
  375MPD2    C4 5610   4.251   4.472  17.282 -0.1449 -0.6546  0.3375
  375MPD2    C5 5611   4.174   4.427  17.384  0.0913  0.4529  0.2239
  375MPD2     H 5612   4.021   4.681  17.139 -2.8879 -0.8313  0.1526
  375MPD2    H1 5613   4.349   4.431  17.261 -0.2976 -1.1106  0.5313
  375MPD2    H2 5614   4.001   4.425  17.494  0.0358 -0.7597 -0.4668
  375MPD2    H3 5615   4.203   4.349  17.453  0.8889 -0.1774 -0.8229
  375MPD2     N 5616   4.277   4.601  17.088 -0.1415  0.2091  0.1752
  375MPD2    H5 5617   4.377   4.583  17.089 -0.4550 -1.7928 -3.4410
  375MPD2    N1 5618   3.864   4.623  17.341 -0.8592 -0.2299 -0.3595
  375MPD2    H7 5619   3.837   4.684  17.264 -1.8540  1.4450  1.3329
  376TMC3    C1 5620   4.339   4.699  16.880  0.6614  0.7174 -0.2178
  376TMC3    C2 5621   4.454   0.023  16.921 -0.2234 -0.1947  0.0446
  376TMC3    C3 5622   4.544   0.061  16.828 -0.5881 -0.4434  0.8321
  376TMC3    C4 5623   4.312   4.687  16.747  0.0712 -0.2633  0.4766
  376TMC3    C5 5624   4.400   0.001  16.649  0.1820  0.2779  0.4709
  376TMC3    C6 5625   4.518   0.058  16.694 -0.4197  0.2926  0.1422
  376TMC3     C 5626   4.233   4.662  16.975  0.4477  0.0791  0.1823
  376TMC3     O 5627   4.117   4.671  16.931 -0.5237 -0.2636  0.1337
  376TMC3     H 5628   4.460   0.057  17.024  0.9323  1.2304 -0.4900
  376TMC3    H1 5629   4.208   4.663  16.727 -0.4281  2.9340 -0.7897
  376TMC3    H2 5630   4.592   0.089  16.621 -0.8426 -2.5629 -1.5207
  376TMC3    C7 5631   4.362   0.010  16.509 -0.0556  0.7228  0.1911
  376TMC3    C8 5632   4.674   0.105  16.869 -0.0565  0.8365  0.3275
  376TMC3    O1 5633   4.421   0.087  16.434  0.0683  0.7009  0.2217
  376TMC3    O2 5634   0.019   0.155  16.782 -0.1022  0.4894 -0.1835
  377MPD2     C 5635   1.930   0.038  12.306 -0.0454 -0.2708 -0.2052
  377MPD2    C1 5636   2.040   0.008  12.373 -0.3274 -1.0694  0.3551
  377MPD2    C2 5637   2.046   0.025  12.508  0.0683 -0.0426 -0.2879
  377MPD2    C3 5638   1.932   0.069  12.578  0.1141 -0.0613  0.4069
  377MPD2    C4 5639   1.811   0.091  12.508 -0.7493  0.6465 -0.6188
  377MPD2    C5 5640   1.815   0.078  12.370  0.7248  0.3764 -0.1562
  377MPD2     H 5641   2.140   0.011  12.560 -0.0528  1.6202  0.3669
  377MPD2    H1 5642   1.727   0.137  12.557 -1.0962 -0.2976 -0.3236
  377MPD2    H2 5643   1.936   0.025  12.198  0.3577 -0.4769 -0.1565
  377MPD2    H3 5644   1.736   0.101  12.300  0.4589 -2.2730 -0.7223
  377MPD2     N 5645   1.934   0.106  12.715  0.3626  0.5481 -0.0637
  377MPD2    H5 5646   1.858   0.161  12.753 -0.9705 -1.8240  0.7564
  377MPD2    N1 5647   2.153   4.698  12.296  0.3382 -0.3252  0.0625
  377MPD2    H7 5648   2.144   4.712  12.196 -1.9254 -1.4032  0.1023
  378TMC3    C1 5649   2.446   4.602  12.032 -0.2667  1.1652 -0.4841
  378TMC3    C2 5650   2.345   4.625  12.119 -0.1208 -0.0167  0.3590
  378TMC3    C3 5651   2.381   4.662  12.240  0.3738  0.7354  0.7265
  378TMC3    C4 5652   2.582   4.616  12.062  0.4888  0.2698 -0.2493
  378TMC3    C5 5653   2.606   4.664  12.188 -0.0082  0.0911  0.6386
  378TMC3    C6 5654   2.508   4.684  12.281  0.7127 -0.4044 -0.8495
  378TMC3     C 5655   2.415   4.595  11.893 -0.1186 -0.9770 -0.5002
  378TMC3     O 5656   2.511   4.582  11.818  0.4788 -0.5073 -0.0584
  378TMC3     H 5657   2.244   4.593  12.095  0.1987  0.4684 -1.6809
  378TMC3    H1 5658   2.660   4.614  11.986  0.5998 -1.5480 -0.0893
  378TMC3    H2 5659   2.540   4.700  12.383  0.8354 -0.9338 -0.8016
  378TMC3    C7 5660   2.737   0.006  12.214 -0.2458  0.4045  0.8176
  378TMC3    C8 5661   2.274   4.663  12.344  0.5079  0.3104 -0.1433
  378TMC3    O1 5662   2.738   0.082  12.307  0.2748  0.5044  0.0590
  378TMC3    O2 5663   2.309   4.649  12.459 -0.1364  0.1266  0.4973
  379MPD2     C 5664   2.956   2.000  16.221 -0.0339  0.6466 -0.4783
  379MPD2    C1 5665   2.932   2.118  16.295 -0.2620 -0.2127  0.6285
  379MPD2    C2 5666   2.976   2.118  16.422 -0.8608  0.2197 -0.2091
  379MPD2    C3 5667   3.039   2.013  16.490 -0.3016  0.4962  0.0272
  379MPD2    C4 5668   3.081   1.911  16.405 -1.1502 -0.3447 -0.8317
  379MPD2    C5 5669   3.039   1.902  16.271  0.6023  0.3968 -0.0679
  379MPD2     H 5670   2.955   2.207  16.482 -1.0338 -1.5125  2.2992
  379MPD2    H1 5671   3.130   1.821  16.441 -0.1550  0.3120 -0.5309
  379MPD2    H2 5672   2.916   1.978  16.123 -1.3874 -1.2041  0.5002
  379MPD2    H3 5673   3.073   1.824  16.204  0.3711  0.6018 -0.4219
  379MPD2     N 5674   3.081   2.013  16.626  0.3098  0.7060  0.5876
  379MPD2    H5 5675   3.149   1.947  16.661  0.5221  0.5090 -0.1919
  379MPD2    N1 5676   2.856   2.220  16.233  0.2850  0.4330  0.4383
  379MPD2    H7 5677   2.835   2.217  16.134  1.1341 -0.2057  0.2830
  380TMC3    C1 5678   2.777   2.438  16.198 -0.4807 -0.1199 -0.2198
  380TMC3    C2 5679   2.842   2.434  16.078  0.0052  0.2673 -0.3020
  380TMC3    C3 5680   2.805   2.523  15.978 -0.4164 -0.1888 -0.2302
  380TMC3    C4 5681   2.672   2.521  16.225 -0.0876 -0.1615  0.0357
  380TMC3    C5 5682   2.622   2.586  16.117 -0.1990 -0.0061 -0.7129
  380TMC3    C6 5683   2.691   2.597  15.999  0.1892 -0.4041  0.7004
  380TMC3     C 5684   2.818   2.341  16.296  0.4080  0.5807 -0.1500
  380TMC3     O 5685   2.814   2.375  16.416 -0.4153 -0.3406  0.1666
  380TMC3     H 5686   2.934   2.377  16.074 -1.6151 -2.4243  0.3480
  380TMC3    H1 5687   2.615   2.511  16.316  2.6507 -2.3634  1.5140
  380TMC3    H2 5688   2.647   2.658  15.921 -0.4069  0.1341  1.4633
  380TMC3    C7 5689   2.497   2.654  16.140  0.8677  0.0498  0.1634
  380TMC3    C8 5690   2.904   2.579  15.882 -0.4599 -0.0982  1.0782
  380TMC3    O1 5691   2.468   2.683  16.258  0.7258  0.3031 -0.2883
  380TMC3    O2 5692   2.861   2.658  15.801 -0.2235 -0.4193  0.8572
  381TMC3    C1 5693   2.602   3.751  16.492  0.0154 -0.0490  0.3392
  381TMC3    C2 5694   2.620   3.889  16.467 -0.3036 -0.6186 -0.2591
  381TMC3    C3 5695   2.590   3.966  16.570  0.7875 -0.7997 -0.0622
  381TMC3    C4 5696   2.554   3.701  16.607 -0.1353  0.5194  0.4757
  381TMC3    C5 5697   2.525   3.787  16.707  0.8357 -0.0381 -0.0521
  381TMC3    C6 5698   2.544   3.924  16.694  0.4671  0.1303  0.6097
  381TMC3     C 5699   2.659   3.669  16.396  0.1429 -0.0103 -0.0329
  381TMC3     O 5700   2.731   3.730  16.317 -0.1817  0.1871 -0.9876
  381TMC3     H 5701   2.678   3.923  16.381  0.7420  0.2781  0.7988
  381TMC3    H1 5702   2.560   3.596  16.634  1.6025  0.0497 -1.7114
  381TMC3    H2 5703   2.524   3.991  16.777  1.1948  0.9386  0.1306
  381TMC3    C7 5704   2.531   3.730  16.837 -0.2344  0.4620  0.0961
  381TMC3    C8 5705   2.643   4.107  16.555 -0.1273 -0.2208 -0.7752
  381TMC3    O1 5706   2.622   3.644  16.853 -0.2250  0.5489 -0.9338
  381TMC3    O2 5707   2.649   4.147  16.439 -0.0263  0.0204 -0.0266
  382MPD2     C 5708   1.926   1.765  17.680  0.1771  0.5025  0.2863
  382MPD2    C1 5709   1.814   1.783   0.064 -1.0972  0.6432  0.1209
  382MPD2    C2 5710   1.747   1.668   0.112 -0.8645  0.0674  0.0388
  382MPD2    C3 5711   1.793   1.545   0.089  0.5020  0.4017 -0.2696
  382MPD2    C4 5712   1.901   1.529   0.015  0.2891  0.6785  0.2075
  382MPD2    C5 5713   1.973   1.633  17.661 -0.1626 -0.3471 -0.1326
  382MPD2     H 5714   1.657   1.671   0.173 -0.1925  1.6806  0.9354
  382MPD2    H1 5715   1.923   1.429  17.676 -0.5640  1.6576 -3.1487
  382MPD2    H2 5716   1.980   1.846  17.630  0.3413 -0.8416 -1.7282
  382MPD2    H3 5717   2.054   1.615  17.590 -1.1294  0.5741 -1.4694
  382MPD2     N 5718   1.738   1.431   0.147 -0.2275  0.5678 -0.4902
  382MPD2    H5 5719   1.791   1.349   0.117 -1.7602 -1.6025  2.7445
  382MPD2    N1 5720   1.769   1.913   0.099 -0.0395  0.1853  0.4983
  382MPD2    H7 5721   1.686   1.912   0.158 -0.1061 -1.1260  0.3875
  383TMC3    C1 5722   1.605   1.267   0.246 -0.0930  0.7186 -0.1720
  383TMC3    C2 5723   1.490   1.196   0.215 -0.1795  0.1161 -0.1139
  383TMC3    C3 5724   1.481   1.061   0.223 -0.3937 -0.0628  0.4106
  383TMC3    C4 5725   1.709   1.205   0.301 -0.0689  0.1797  0.4840
  383TMC3    C5 5726   1.701   1.067   0.311 -0.2963  0.0622 -0.4769
  383TMC3    C6 5727   1.587   0.996   0.278 -0.6624  0.5079 -0.1554
  383TMC3     C 5728   1.621   1.412   0.220 -0.3237 -0.4025 -0.2963
  383TMC3     O 5729   1.523   1.486   0.235 -0.1602 -0.0275  0.0135
  383TMC3     H 5730   1.411   1.244   0.158 -0.3492  0.2401  0.2243
  383TMC3    H1 5731   1.799   1.263   0.316  1.4741 -1.8928 -0.6705
  383TMC3    H2 5732   1.599   0.888   0.275 -1.2632  0.4363  0.0045
  383TMC3    C7 5733   1.825   0.989   0.320  0.3344  0.0750 -0.5063
  383TMC3    C8 5734   1.367   0.994   0.160  0.0170  0.1275  0.2575
  383TMC3    O1 5735   1.825   0.877   0.276  0.1454  0.4033 -0.4575
  383TMC3    O2 5736   1.273   1.065   0.126  0.9700  0.0829  0.1505
  384MPD2     C 5737   3.492   3.145  12.477  0.0937  0.2273  0.0691
  384MPD2    C1 5738   3.464   3.085  12.602 -0.2156  0.6143  0.1637
  384MPD2    C2 5739   3.505   2.953  12.618 -0.1613  0.6523  0.4807
  384MPD2    C3 5740   3.562   2.877  12.527  0.3925 -0.0586 -0.4540
  384MPD2    C4 5741   3.585   2.930  12.406 -0.1534 -0.2471  0.1591
  384MPD2    C5 5742   3.556   3.061  12.390 -0.0378 -0.2459 -0.3977
  384MPD2     H 5743   3.480   2.907  12.714 -0.6213 -1.0113 -0.4386
  384MPD2    H1 5744   3.626   2.874  12.323 -1.7361 -1.1560 -0.0181
  384MPD2    H2 5745   3.472   3.250  12.458  1.6022  0.6120  0.5128
  384MPD2    H3 5746   3.589   3.112  12.300  0.1245 -2.3969 -1.5430
  384MPD2     N 5747   3.590   2.741  12.554  0.2472  0.0702 -0.0485
  384MPD2    H5 5748   3.573   2.709  12.649 -1.0999 -2.0395 -1.0084
  384MPD2    N1 5749   3.391   3.142  12.704  0.0155  0.3008  0.0920
  384MPD2    H7 5750   3.388   3.096  12.794 -0.0709  0.5544  0.2183
  385TMC3    C1 5751   3.654   2.524  12.558 -0.4093 -0.0813  0.5464
  385TMC3    C2 5752   3.604   2.405  12.506 -0.2600 -0.5276 -0.5131
  385TMC3    C3 5753   3.532   2.325  12.587 -0.1256  0.0954 -0.2383
  385TMC3    C4 5754   3.644   2.548  12.690  0.6029 -0.0445 -0.1806
  385TMC3    C5 5755   3.556   2.480  12.767 -0.0107 -0.4997  0.2376
  385TMC3    C6 5756   3.499   2.365  12.718  0.1063 -0.2709  0.0639
  385TMC3     C 5757   3.636   2.638  12.477  0.0112  0.1176 -0.4881
  385TMC3     O 5758   3.665   2.629  12.358  0.0380 -0.1526 -0.0483
  385TMC3     H 5759   3.603   2.395  12.399  0.3838 -1.0409 -0.4696
  385TMC3    H1 5760   3.698   2.629  12.738  1.5538 -0.8297  0.0786
  385TMC3    H2 5761   3.422   2.323  12.781 -1.5294  2.2333 -0.2706
  385TMC3    C7 5762   3.483   2.577  12.850  0.3361  0.6014  0.3777
  385TMC3    C8 5763   3.497   2.188  12.559 -1.2245  0.0673  0.2669
  385TMC3    O1 5764   3.484   2.694  12.818  0.0338  0.7889  0.3601
  385TMC3    O2 5765   3.407   2.128  12.615 -0.1736 -0.5295  0.9278
  386TMC3    C1 5766   4.325   0.233  12.481  0.7053 -0.3956 -0.5956
  386TMC3    C2 5767   4.304   0.165  12.365  0.4777  0.2532 -0.5040
  386TMC3    C3 5768   4.276   0.250  12.260 -0.6573 -0.0968  0.6223
  386TMC3    C4 5769   4.321   0.367  12.492  0.3104 -0.4621 -0.1211
  386TMC3    C5 5770   4.282   0.444  12.388 -0.3945 -0.3078  0.0571
  386TMC3    C6 5771   4.257   0.384  12.267  1.2968 -0.2630  0.4375
  386TMC3     C 5772   4.307   0.166  12.612  0.2140  1.3641  0.5539
  386TMC3     O 5773   4.234   0.211  12.704  0.5595 -0.2789 -0.4066
  386TMC3     H 5774   4.304   0.057  12.361  0.1332  0.2412 -0.2203
  386TMC3    H1 5775   4.335   0.394  12.596  0.8206 -0.0138 -0.3005
  386TMC3    H2 5776   4.248   0.459  12.189 -1.5886 -0.5138  0.5110
  386TMC3    C7 5777   4.222   0.577  12.419  0.2266 -0.2587 -0.1007
  386TMC3    C8 5778   4.265   0.194  12.125 -0.4574  0.0112 -0.3658
  386TMC3    O1 5779   4.153   0.627  12.334 -0.4210  0.0895  0.1717
  386TMC3    O2 5780   4.233   0.264  12.026 -0.0342 -0.4383  0.3411
  387MPD2     C 5781   1.418   0.520   9.709 -0.0280 -0.4706  0.1691
  387MPD2    C1 5782   1.548   0.477   9.699 -0.0612  0.9785 -0.5044
  387MPD2    C2 5783   1.576   0.351   9.644  0.1702 -0.3825  0.1455
  387MPD2    C3 5784   1.482   0.252   9.639 -0.4266 -0.4100  0.5083
  387MPD2    C4 5785   1.353   0.294   9.652  0.2492 -0.2619  0.8645
  387MPD2    C5 5786   1.326   0.426   9.677  0.7159  0.3419  0.1855
  387MPD2     H 5787   1.680   0.322   9.635  0.5737  1.5463 -1.3578
  387MPD2    H1 5788   1.264   0.233   9.656 -0.0915  0.1159 -1.0303
  387MPD2    H2 5789   1.389   0.619   9.743  1.0371 -0.1949  0.2880
  387MPD2    H3 5790   1.223   0.446   9.703  0.5319  0.6416 -0.7761
  387MPD2     N 5791   1.530   0.126   9.618 -0.3528 -0.0210 -0.4498
  387MPD2    H5 5792   1.631   0.113   9.617 -0.6916 -2.8419  2.0782
  387MPD2    N1 5793   1.659   0.558   9.749  0.1604 -0.5597 -0.3158
  387MPD2    H7 5794   1.751   0.517   9.737 -1.0740 -3.5007  0.2986
  388TMC3    C1 5795   1.792   0.692   9.882  0.5922  0.0975  0.8334
  388TMC3    C2 5796   1.839   0.813   9.913 -0.1038  0.6534  0.1377
  388TMC3    C3 5797   1.960   0.817   9.980 -0.4922  0.3636  0.0855
  388TMC3    C4 5798   1.846   0.576   9.931 -0.4745 -0.3769 -0.6179
  388TMC3    C5 5799   1.966   0.590   9.990  0.3319 -0.2248 -0.0987
  388TMC3    C6 5800   2.029   0.708  10.017 -0.4141  0.4489 -0.1445
  388TMC3     C 5801   1.653   0.669   9.828  0.0184  0.4257 -0.9039
  388TMC3     O 5802   1.560   0.743   9.852 -0.1502  0.2925  0.4814
  388TMC3     H 5803   1.790   0.900   9.871 -0.7129  0.3101  0.1406
  388TMC3    H1 5804   1.786   0.486   9.933 -1.2268  0.0843 -2.7985
  388TMC3    H2 5805   2.130   0.701  10.056  0.1393  2.2889 -1.2490
  388TMC3    C7 5806   2.027   0.480  10.049  0.5713  0.3818 -0.4481
  388TMC3    C8 5807   2.013   0.949  10.002 -0.5385  0.0698 -0.0396
  388TMC3    O1 5808   2.044   0.476  10.170  0.3849  0.0108  0.0527
  388TMC3    O2 5809   1.947   1.050   9.994 -0.3586  0.2427  0.4697
  389MPD2     C 5810   0.814   3.693  10.753 -0.5168 -0.1829  0.2966
  389MPD2    C1 5811   0.713   3.601  10.724 -0.9005  0.2288  0.6338
  389MPD2    C2 5812   0.655   3.531  10.828  0.5541  0.9011  0.2290
  389MPD2    C3 5813   0.700   3.533  10.957 -0.3763 -0.2449 -0.2742
  389MPD2    C4 5814   0.807   3.625  10.978 -0.0520  0.0071 -0.6666
  389MPD2    C5 5815   0.851   3.715  10.885  0.4128 -1.0903  0.0440
  389MPD2     H 5816   0.583   3.458  10.792  1.2507  0.4238 -0.2256
  389MPD2    H1 5817   0.855   3.631  11.075  1.0842  0.2329 -1.2408
  389MPD2    H2 5818   0.867   3.748  10.677  1.4022 -0.7424  1.2205
  389MPD2    H3 5819   0.916   3.796  10.915  0.1980 -1.1927  0.7918
  389MPD2     N 5820   0.653   3.457  11.064 -0.8112  0.1601  0.0519
  389MPD2    H5 5821   0.671   3.493  11.157 -0.0815 -0.9404  0.3342
  389MPD2    N1 5822   0.679   3.588  10.585  0.1013  0.4813 -0.2584
  389MPD2    H7 5823   0.744   3.632  10.521  1.9666 -0.3296  1.0989
  390TMC3    C1 5824   0.534   3.277  11.171 -0.7111  0.2093  0.0765
  390TMC3    C2 5825   0.573   3.324  11.295 -0.0006 -0.3021  0.2370
  390TMC3    C3 5826   0.481   3.325  11.396 -0.2637  0.0854  1.0809
  390TMC3    C4 5827   0.432   3.185  11.159  0.2738 -0.1447 -0.1167
  390TMC3    C5 5828   0.346   3.171  11.265 -0.3346 -0.1449  0.4437
  390TMC3    C6 5829   0.371   3.245  11.384  0.4687 -0.3828  0.0062
  390TMC3     C 5830   0.575   3.344  11.051 -0.7624 -0.7506 -1.1646
  390TMC3     O 5831   0.554   3.276  10.952  0.7757 -0.4094 -0.3111
  390TMC3     H 5832   0.659   3.387  11.312  0.1116 -0.2597 -0.4980
  390TMC3    H1 5833   0.418   3.136  11.064  0.4050  3.4345 -1.9813
  390TMC3    H2 5834   0.306   3.234  11.470 -1.3573  0.5035 -1.2340
  390TMC3    C7 5835   0.280   3.051  11.271  0.0262 -0.3107 -0.3996
  390TMC3    C8 5836   0.537   3.311  11.531 -0.3902 -0.2581  0.0353
  390TMC3    O1 5837   0.282   2.974  11.175  0.8501 -1.4634 -0.2574
  390TMC3    O2 5838   0.594   3.408  11.572  0.1187 -0.1371 -0.1439
  391MPD2     C 5839   4.370   4.390  11.477  0.2020  0.2925 -0.1628
  391MPD2    C1 5840   4.434   4.512  11.489  0.1634 -0.4858  0.2748
  391MPD2    C2 5841   4.421   4.604  11.386  0.2144 -0.0519 -0.6179
  391MPD2    C3 5842   4.359   4.574  11.268  0.0218 -0.2517  0.9258
  391MPD2    C4 5843   4.286   4.456  11.266  0.0882 -0.3284 -0.0909
  391MPD2    C5 5844   4.292   4.364  11.368 -0.7508 -0.0036 -0.3728
  391MPD2     H 5845   4.455   4.708  11.384 -0.8665  0.2984 -0.6556
  391MPD2    H1 5846   4.245   4.428  11.170 -1.9960  0.9475  0.4296
  391MPD2    H2 5847   4.373   4.318  11.558 -0.8888  0.8636  0.3826
  391MPD2    H3 5848   4.221   4.281  11.369  0.5056 -1.1133 -2.4999
  391MPD2     N 5849   4.381   4.670  11.162  0.8931  0.0341  0.0338
  391MPD2    H5 5850   4.445   0.022  11.181 -0.2407  1.8000 -3.2672
  391MPD2    N1 5851   4.517   4.537  11.598 -0.1666 -0.1589 -0.7247
  391MPD2    H7 5852   4.515   4.471  11.675 -2.0344  0.5514 -0.1517
  392TMC3    C1 5853   4.347   0.073  10.967 -0.3390 -0.1593  0.3268
  392TMC3    C2 5854   4.266   0.091  10.859 -0.0935 -0.1189 -0.4556
  392TMC3    C3 5855   4.279   0.195  10.779 -0.4493 -0.3555 -0.1873
  392TMC3    C4 5856   4.440   0.167  11.004  0.1260 -0.4064  0.0939
  392TMC3    C5 5857   4.439   0.283  10.924 -0.4921 -0.2991  0.3115
  392TMC3    C6 5858   4.356   0.297  10.809  0.4540 -0.2421 -0.3536
  392TMC3     C 5859   4.313   4.673  11.046  0.8156 -0.6034 -0.2592
  392TMC3     O 5860   4.217   4.607  11.018  0.0583  0.0464  0.2118
  392TMC3     H 5861   4.205   0.010  10.820 -0.9917 -0.0629  0.8339
  392TMC3    H1 5862   4.506   0.156  11.089 -1.7889  0.0333  1.6309
  392TMC3    H2 5863   4.391   0.368  10.734  1.8558 -0.6180 -0.0528
  392TMC3    C7 5864   4.551   0.375  10.941 -0.1278 -0.1785 -0.4929
  392TMC3    C8 5865   4.199   0.189  10.657  0.0980  0.5822  0.5857
  392TMC3    O1 5866   4.642   0.339  11.009  0.1354 -0.3659  0.2088
  392TMC3    O2 5867   4.189   0.078  10.602 -0.6621 -0.8397  0.0741
  393TMC3    C1 5868   3.691   2.567  10.018 -0.0870  0.3348  0.1657
  393TMC3    C2 5869   3.573   2.630   9.994  0.4171 -0.0610  0.0149
  393TMC3    C3 5870   3.465   2.616  10.074  0.0210  0.1957 -0.1023
  393TMC3    C4 5871   3.711   2.509  10.141 -0.2361 -0.1635 -0.1085
  393TMC3    C5 5872   3.602   2.504  10.229  0.1804  0.5617 -0.1097
  393TMC3    C6 5873   3.480   2.557  10.196 -0.3152  0.0155 -0.3109
  393TMC3     C 5874   3.806   2.617   9.942  0.4104 -0.4846  0.0380
  393TMC3     O 5875   3.795   2.666   9.828  0.0115 -0.3091 -0.5896
  393TMC3     H 5876   3.573   2.691   9.904 -1.5507  0.9218  0.6922
  393TMC3    H1 5877   3.794   2.441  10.149 -0.5928 -0.4862  0.8626
  393TMC3    H2 5878   3.409   2.575  10.275  0.7857 -1.8649  1.1131
  393TMC3    C7 5879   3.615   2.440  10.358 -0.3089  0.1012 -0.7714
  393TMC3    C8 5880   3.345   2.683  10.035  0.5723 -0.3811  1.3331
  393TMC3    O1 5881   3.522   2.381  10.406  0.1090  0.4371  0.4574
  393TMC3    O2 5882   3.289   2.748  10.123 -0.3500 -0.2554  0.1057
  394TMC3    C1 5883   0.576   3.510  10.383 -0.3537 -0.0438 -0.2063
  394TMC3    C2 5884   0.484   3.433  10.314  0.9481  0.3632 -0.1660
  394TMC3    C3 5885   0.485   3.428  10.175  0.3717 -0.0119  0.0598
  394TMC3    C4 5886   0.676   3.570  10.308 -0.0299 -0.0330  1.0742
  394TMC3    C5 5887   0.672   3.557  10.170 -0.3315 -0.2193  0.2448
  394TMC3    C6 5888   0.579   3.490  10.099 -1.0177 -0.6965  0.2054
  394TMC3     C 5889   0.570   3.516  10.535  0.4838  0.2713  0.5739
  394TMC3     O 5890   0.472   3.471  10.591  0.1722 -0.2094  0.0967
  394TMC3     H 5891   0.407   3.388  10.375  1.0921 -0.5326 -0.6393
  394TMC3    H1 5892   0.748   3.639  10.352  2.3453 -3.0184  1.8308
  394TMC3    H2 5893   0.579   3.486   9.991 -1.4038 -0.4168  0.1932
  394TMC3    C7 5894   0.786   3.601  10.092 -0.2695 -0.5176  0.2246
  394TMC3    C8 5895   0.411   3.322  10.110 -0.3370  0.4170  0.0374
  394TMC3    O1 5896   0.772   3.628   9.974  0.5999 -0.3578  0.7099
  394TMC3    O2 5897   0.423   3.322   9.987  0.2483  0.2472  0.1594
  395TMC3    C1 5898   0.173   0.255  14.876 -0.6785  0.5373 -0.4886
  395TMC3    C2 5899   0.082   0.197  14.966  0.1749 -0.2665 -0.7562
  395TMC3    C3 5900   0.081   0.244  15.094 -0.2096 -0.9091 -0.4241
  395TMC3    C4 5901   0.259   0.350  14.915  0.2352 -0.7064 -0.3089
  395TMC3    C5 5902   0.261   0.390  15.050 -0.2394  0.9507 -0.0438
  395TMC3    C6 5903   0.172   0.339  15.141 -0.3629  1.0170  0.5975
  395TMC3     C 5904   0.152   0.229  14.730 -0.3681  0.0033 -0.6165
  395TMC3     O 5905   0.161   0.336  14.671 -0.4525 -0.3829  0.3752
  395TMC3     H 5906   0.014   0.124  14.925 -0.7642 -0.0365  0.3959
  395TMC3    H1 5907   0.314   0.398  14.836 -1.8247  2.3147  0.0973
  395TMC3    H2 5908   0.173   0.339  15.249  1.1607  1.9836  0.5790
  395TMC3    C7 5909   0.367   0.469  15.105 -0.0250  0.1010  0.0238
  395TMC3    C8 5910   0.035   0.161  15.196  0.5634 -0.3975 -0.2414
  395TMC3    O1 5911   0.388   0.466  15.221  0.4500  0.0651  0.0001
  395TMC3    O2 5912   4.722   0.207  15.303  0.2821  0.0294 -0.0156
  396MPD2     C 5913   0.187   1.203  17.482  0.4801 -0.6105  0.2848
  396MPD2    C1 5914   0.299   1.268  17.528  0.4698 -0.7836 -0.3905
  396MPD2    C2 5915   0.343   1.367  17.440  0.3370  0.1087 -0.1933
  396MPD2    C3 5916   0.275   1.408  17.331  0.7393  0.4909 -0.3634
  396MPD2    C4 5917   0.157   1.348  17.297  0.7348  0.4470 -0.4299
  396MPD2    C5 5918   0.122   1.242  17.372 -0.1551  0.3140  0.1191
  396MPD2     H 5919   0.439   1.410  17.467  0.3895  0.2730 -0.6447
  396MPD2    H1 5920   0.106   1.366  17.204 -1.2071  2.8782  1.1010
  396MPD2    H2 5921   0.152   1.114  17.533 -3.6092  1.1925  0.6343
  396MPD2    H3 5922   0.040   1.182  17.334 -0.8460  1.1985  0.2173
  396MPD2     N 5923   0.337   1.515  17.251 -0.0232  0.7345  0.6496
  396MPD2    H5 5924   0.429   1.549  17.278 -0.5028  1.0610  1.8607
  396MPD2    N1 5925   0.373   1.215  17.643 -0.0723  0.1652 -0.0891
  396MPD2    H7 5926   0.339   1.123  17.669 -3.3699  0.6708 -2.6669
  397TMC3    C1 5927   0.548   1.186   0.097 -0.4197 -0.2438  0.3365
  397TMC3    C2 5928   0.677   1.173   0.079 -0.2027  0.1181  0.7891
  397TMC3    C3 5929   0.733   1.050   0.050  0.2979 -0.8172 -0.3393
  397TMC3    C4 5930   0.471   1.073   0.110  0.1319 -0.3468  0.1965
  397TMC3    C5 5931   0.531   0.951   0.110 -0.1720 -0.0669 -0.3076
  397TMC3    C6 5932   0.661   0.940   0.077 -0.1179  0.5715 -0.0489
  397TMC3     C 5933   0.491   1.268  17.687 -0.0768 -0.4060  0.5517
  397TMC3     O 5934   0.536   1.382  17.669  0.4406 -0.3045 -0.4192
  397TMC3     H 5935   0.729   1.263   0.049 -0.0870 -0.1015  0.3336
  397TMC3    H1 5936   0.371   1.076   0.151  0.8530  2.1505  1.7985
  397TMC3    H2 5937   0.707   0.841   0.070 -0.1115  0.5121  0.9016
  397TMC3    C7 5938   0.455   0.831   0.132  0.6404  0.0200 -0.6402
  397TMC3    C8 5939   0.879   1.017   0.041  0.5461  0.3732 -0.0931
  397TMC3    O1 5940   0.495   0.733   0.072  0.2937 -0.5114  0.1932
  397TMC3    O2 5941   0.928   0.926   0.102 -0.7255 -0.2765  0.0859
  398MPD2     C 5942   2.706   1.846   0.110 -0.0157  0.6997  0.7629
  398MPD2    C1 5943   2.683   1.749   0.198  0.4904  0.3768  0.9348
  398MPD2    C2 5944   2.762   1.745   0.315 -0.0599 -0.4993 -0.4311
  398MPD2    C3 5945   2.874   1.836   0.324 -0.4184 -0.2721  0.0283
  398MPD2    C4 5946   2.893   1.929   0.235 -0.7657  0.6353 -0.2579
  398MPD2    C5 5947   2.813   1.932   0.128  0.1072 -0.4417  0.8199
  398MPD2     H 5948   2.755   1.661   0.383  1.1336 -1.0665 -1.0076
  398MPD2    H1 5949   2.969   2.006   0.229 -2.1135  1.9017 -1.2202
  398MPD2    H2 5950   2.651   1.862   0.017  0.2560 -0.2803  0.4377
  398MPD2    H3 5951   2.818   2.018   0.062  1.3603 -1.5263 -0.5142
  398MPD2     N 5952   2.972   1.808   0.425  0.4046  0.2737 -0.4115
  398MPD2    H5 5953   2.957   1.733   0.492  0.1037 -0.2306 -1.0413
  398MPD2    N1 5954   2.589   1.647   0.168  0.3533 -0.5984  0.2578
  398MPD2    H7 5955   2.567   1.584   0.244 -1.0184 -1.5393 -0.9295
  399TMC3    C1 5956   2.450   1.508   0.063 -0.5675 -0.0896  0.4109
  399TMC3    C2 5957   2.409   1.469  17.635 -0.4097 -0.7967 -0.0291
  399TMC3    C3 5958   2.306   1.374  17.623 -0.0958  0.1778 -0.2069
  399TMC3    C4 5959   2.366   1.479   0.170  0.2730 -0.1383 -0.4430
  399TMC3    C5 5960   2.258   1.398   0.142  0.4475 -0.0472 -0.4155
  399TMC3    C6 5961   2.231   1.330   0.033 -0.1051  0.3668 -0.7659
  399TMC3     C 5962   2.522   1.633   0.055  0.4763 -0.4789 -0.2534
  399TMC3     O 5963   2.534   1.679  17.641 -0.1962 -0.5181 -0.2358
  399TMC3     H 5964   2.468   1.487  17.547  0.4439  0.0463  0.7160
  399TMC3    H1 5965   2.375   1.523   0.268 -1.3806  2.0096 -1.2581
  399TMC3    H2 5966   2.140   1.272   0.023 -1.1791  1.6339  1.7614
  399TMC3    C7 5967   2.152   1.420   0.238  0.3958  0.2589 -0.0386
  399TMC3    C8 5968   2.241   1.366  17.492  0.2625 -0.2215 -0.1313
  399TMC3    O1 5969   2.092   1.324   0.277  0.3596 -0.6051 -0.0538
  399TMC3    O2 5970   2.247   1.457  17.409  0.6664 -0.4610  0.2473
  400TMC3    C1 5971   1.516   0.511  17.467 -0.9748 -0.0391 -0.3704
  400TMC3    C2 5972   1.403   0.519  17.392 -0.4032  0.0518 -0.4134
  400TMC3    C3 5973   1.336   0.641  17.374  0.0743  0.7228  0.0912
  400TMC3    C4 5974   1.567   0.624  17.523  0.2076 -0.2123  0.0968
  400TMC3    C5 5975   1.517   0.743  17.485 -0.3119  0.2499 -0.6052
  400TMC3    C6 5976   1.396   0.758  17.413  0.0164 -0.8006 -0.1622
  400TMC3     C 5977   1.527   0.393  17.544 -0.4642  0.6152 -0.7011
  400TMC3     O 5978   1.448   0.302  17.524  0.2193  0.3723 -0.3826
  400TMC3     H 5979   1.360   0.428  17.352 -3.0576  0.0548  2.4485
  400TMC3    H1 5980   1.660   0.628  17.580 -0.3694 -0.2702  1.0340
  400TMC3    H2 5981   1.361   0.852  17.373  1.6099 -1.1954 -2.5288
  400TMC3    C7 5982   1.604   0.857  17.492  0.3282 -0.3701 -0.9987
  400TMC3    C8 5983   1.235   0.654  17.267  0.0701 -0.6228  0.3187
  400TMC3    O1 5984   1.721   0.834  17.512 -0.1452  0.3130  0.1078
  400TMC3    O2 5985   1.170   0.755  17.268 -0.0609  0.1328 -0.9931
  401MPD2     C 5986   4.634   4.058   1.720 -0.0721 -1.1676 -0.4994
  401MPD2    C1 5987   0.042   4.038   1.692 -0.3614 -0.2489  0.0218
  401MPD2    C2 5988   0.082   3.915   1.645  0.1378 -0.2423 -0.7005
  401MPD2    C3 5989   4.710   3.816   1.611 -0.3484 -0.7872 -0.1979
  401MPD2    C4 5990   4.577   3.834   1.655 -0.2869  0.2790  0.0914
  401MPD2    C5 5991   4.543   3.955   1.709 -0.1975  1.0875  0.1119
  401MPD2     H 5992   0.184   3.898   1.614  0.3604 -0.5524  0.2057
  401MPD2    H1 5993   4.500   3.757   1.653 -0.0666  0.0726 -0.5527
  401MPD2    H2 5994   4.590   4.141   1.774 -1.7640 -0.7247 -2.5483
  401MPD2    H3 5995   4.439   3.964   1.735 -0.3840 -0.6605  0.0147
  401MPD2     N 5996   0.025   3.687   1.568  0.3836  0.4517  0.3456
  401MPD2    H5 5997   4.670   3.623   1.574  1.7282 -1.3662 -1.8173
  401MPD2    N1 5998   0.145   4.129   1.723 -0.0888  0.7023 -0.4198
  401MPD2    H7 5999   0.238   4.090   1.711 -0.6835  0.1152 -3.1481
  402TMC3    C1 6000   0.151   3.520   1.465 -0.0790 -0.2639 -0.5562
  402TMC3    C2 6001   0.143   3.427   1.566 -0.3934  1.0648  0.1009
  402TMC3    C3 6002   0.208   3.307   1.550 -0.0894  0.2803  0.2027
  402TMC3    C4 6003   0.233   3.501   1.358 -1.0021 -0.3932  0.5267
  402TMC3    C5 6004   0.316   3.388   1.356  0.3119 -0.2770  0.4524
  402TMC3    C6 6005   0.309   3.293   1.455 -0.3312  0.3417 -0.0338
  402TMC3     C 6006   0.135   3.664   1.493 -0.4916  0.2747 -0.0605
  402TMC3     O 6007   0.224   3.736   1.458  0.1950 -0.6136 -0.0158
  402TMC3     H 6008   0.080   3.460   1.648 -1.1365  1.8705 -0.7984
  402TMC3    H1 6009   0.255   3.589   1.299 -1.3782 -0.4129  0.3549
  402TMC3    H2 6010   0.365   3.201   1.443 -2.6821 -1.0217 -0.5491
  402TMC3    C7 6011   0.449   3.406   1.299 -1.0200 -0.6869  0.4492
  402TMC3    C8 6012   0.248   3.239   1.670  0.3826  0.4170 -0.1754
  402TMC3    O1 6013   0.454   3.488   1.210 -0.2962  0.3545 -0.4822
  402TMC3    O2 6014   0.322   3.143   1.660  0.0903  0.1296 -0.6971
  403MPD2     C 6015   2.934   2.954  13.566  0.2878  0.1890 -0.1773
  403MPD2    C1 6016   2.969   2.833  13.631 -0.1252  0.0335 -0.6488
  403MPD2    C2 6017   3.041   2.841  13.752  0.3307  0.1772  1.1153
  403MPD2    C3 6018   3.090   2.964  13.792 -0.0447  0.3075  0.0251
  403MPD2    C4 6019   3.054   3.077  13.726  0.3392  0.2148  0.2221
  403MPD2    C5 6020   2.983   3.072  13.609  0.4844 -0.7120 -0.4020
  403MPD2     H 6021   3.066   2.756  13.813  3.2716  0.7685  0.7757
  403MPD2    H1 6022   3.075   3.177  13.763  1.6044  0.0149  0.0555
  403MPD2    H2 6023   2.879   2.950  13.473 -0.9565 -1.3619  0.6198
  403MPD2    H3 6024   2.959   3.160  13.550  0.8084 -1.5461 -1.7700
  403MPD2     N 6025   3.178   2.965  13.903  0.5477  0.1887 -0.1035
  403MPD2    H5 6026   3.185   2.878  13.954 -0.5090  0.7896  1.0811
  403MPD2    N1 6027   2.896   2.715  13.587  0.1986  0.3513 -1.0820
  403MPD2    H7 6028   2.820   2.728  13.521 -0.3861  0.5947 -0.3680
  404TMC3    C1 6029   2.816   2.492  13.579 -0.7812  0.2644  0.1935
  404TMC3    C2 6030   2.816   2.373  13.632 -0.1581 -0.0074  0.1289
  404TMC3    C3 6031   2.809   2.254  13.558 -0.2048  0.0266  0.1672
  404TMC3    C4 6032   2.785   2.500  13.440  0.2886 -0.0780 -0.1932
  404TMC3    C5 6033   2.793   2.383  13.368 -0.2521 -0.1583  0.2121
  404TMC3    C6 6034   2.806   2.257  13.423 -0.3060 -0.5667 -0.0562
  404TMC3     C 6035   2.900   2.591  13.647  0.7759 -0.7382  0.2351
  404TMC3     O 6036   2.970   2.554  13.742 -0.3735  0.6179  0.6052
  404TMC3     H 6037   2.844   2.364  13.737 -1.2215  1.1785  0.5114
  404TMC3    H1 6038   2.791   2.595  13.390 -0.8074  0.7269  1.2004
  404TMC3    H2 6039   2.822   2.170  13.360  2.5282  0.6716 -1.0273
  404TMC3    C7 6040   2.781   2.398  13.226  0.2052 -0.2367 -0.0623
  404TMC3    C8 6041   2.826   2.120  13.615  0.3673  0.3934 -0.1587
  404TMC3    O1 6042   2.816   2.507  13.178 -0.0458  0.2680  0.3345
  404TMC3    O2 6043   2.898   2.044  13.547  0.6370  0.1286 -0.8018
  405MPD2     C 6044   3.279   2.891  14.826 -0.5161 -0.4085  0.2880
  405MPD2    C1 6045   3.271   2.913  14.688  0.3849 -0.3544 -0.3415
  405MPD2    C2 6046   3.274   3.037  14.638 -0.2994  0.3126 -0.2417
  405MPD2    C3 6047   3.273   3.145  14.722  0.0895 -0.6576  0.0019
  405MPD2    C4 6048   3.283   3.126  14.866 -0.6615 -0.2943 -0.5697
  405MPD2    C5 6049   3.283   3.001  14.914 -0.3834 -0.1155  0.1549
  405MPD2     H 6050   3.275   3.057  14.532 -1.0265  2.5460  0.1633
  405MPD2    H1 6051   3.288   3.207  14.938 -0.3558 -0.7296 -0.1095
  405MPD2    H2 6052   3.283   2.793  14.874 -0.6795 -0.9926 -0.8997
  405MPD2    H3 6053   3.288   2.988  15.022 -1.8684 -1.0524  0.0931
  405MPD2     N 6054   3.268   3.277  14.656 -0.6901 -0.2344  0.7481
  405MPD2    H5 6055   3.287   3.278  14.556 -0.4381 -1.0469  0.7890
  405MPD2    N1 6056   3.273   2.794  14.614  0.0085 -0.6295 -0.4678
  405MPD2    H7 6057   3.258   2.714  14.675  0.1278 -1.6218 -1.7521
  406TMC3    C1 6058   3.078   3.693  14.624  0.0587  0.9392  0.4147
  406TMC3    C2 6059   3.037   3.650  14.504 -0.1284  0.1030 -0.2650
  406TMC3    C3 6060   3.113   3.556  14.446 -0.2114  0.5854  0.3129
  406TMC3    C4 6061   3.170   3.617  14.703  0.7154  0.0054  0.1658
  406TMC3    C5 6062   3.239   3.513  14.638 -0.7404  0.1973 -0.7865
  406TMC3    C6 6063   3.208   3.481  14.507  0.2919 -0.1587 -0.9021
  406TMC3     C 6064   2.980   3.756  14.699 -0.3343 -0.4876 -0.1852
  406TMC3     O 6065   2.993   3.865  14.745  0.9700 -0.3130  0.0693
  406TMC3     H 6066   2.968   3.707  14.443 -1.2052  1.4456  2.1981
  406TMC3    H1 6067   3.171   3.638  14.809  0.8602 -0.0293  0.1709
  406TMC3    H2 6068   3.278   3.423  14.448  0.0412 -0.8749 -0.4953
  406TMC3    C7 6069   3.271   3.396  14.720 -0.1667 -0.1067 -0.1683
  406TMC3    C8 6070   3.050   3.486  14.330 -0.1925 -0.3510 -0.0459
  406TMC3    O1 6071   3.263   3.407  14.840 -0.3034  0.1660  0.1550
  406TMC3    O2 6072   2.968   3.552  14.267  0.1318  0.1880 -0.1976
  407MPD2     C 6073   0.881   0.231   9.487 -0.1577 -0.4540  0.1033
  407MPD2    C1 6074   0.987   0.157   9.534  0.8357 -0.4267 -0.0202
  407MPD2    C2 6075   0.990   0.120   9.666  0.9108  0.2970 -0.1556
  407MPD2    C3 6076   0.891   0.166   9.747  0.9359 -0.4462 -0.4580
  407MPD2    C4 6077   0.793   0.247   9.700 -0.2301 -0.1896  0.0727
  407MPD2    C5 6078   0.784   0.271   9.564  0.2053  0.1831 -0.1317
  407MPD2     H 6079   1.070   0.058   9.704  0.8476 -0.4760 -1.2860
  407MPD2    H1 6080   0.717   0.289   9.764  1.5104  1.9329  0.7502
  407MPD2    H2 6081   0.872   0.250   9.381 -0.9942  1.0206  0.4429
  407MPD2    H3 6082   0.706   0.342   9.535 -0.7764 -0.7817  0.1635
  407MPD2     N 6083   0.899   0.157   9.887  0.2878  0.2824 -0.3994
  407MPD2    H5 6084   0.828   0.204   9.942 -0.6360 -1.3458 -0.2152
  407MPD2    N1 6085   1.099   0.112   9.449 -0.4030  0.1134  0.0208
  407MPD2    H7 6086   1.169   0.054   9.494 -0.0885 -0.4080 -1.1339
  408TMC3    C1 6087   1.272   0.146   9.294 -0.3882 -0.1636  0.4578
  408TMC3    C2 6088   1.311   0.016   9.278  0.0620 -0.1667  0.1255
  408TMC3    C3 6089   1.441   4.723   9.242 -0.0560  0.5481 -0.0397
  408TMC3    C4 6090   1.367   0.244   9.300  0.0285 -0.1110 -0.4274
  408TMC3    C5 6091   1.499   0.220   9.277 -0.9899 -0.7121  0.1424
  408TMC3    C6 6092   1.541   0.095   9.250 -0.2136 -0.2564 -0.1907
  408TMC3     C 6093   1.144   0.180   9.334 -0.1307  1.0121  0.4831
  408TMC3     O 6094   1.092   0.279   9.286  0.0659 -0.5276 -0.1055
  408TMC3     H 6095   1.243   4.657   9.293 -1.6020  0.9253 -1.4068
  408TMC3    H1 6096   1.340   0.341   9.340 -3.5334 -1.4982  0.5731
  408TMC3    H2 6097   1.643   0.086   9.215  0.1830  1.1296  0.5873
  408TMC3    C7 6098   1.600   0.317   9.308  0.2014  0.1205 -0.0069
  408TMC3    C8 6099   1.497   4.585   9.238 -0.4708 -0.2850  0.9609
  408TMC3    O1 6100   1.711   0.264   9.328 -0.3705  0.7923  0.3402
  408TMC3    O2 6101   1.419   4.493   9.230  0.2690 -0.5330 -0.0054
  409MPD2     C 6102   0.175   0.263  17.449 -0.4719  0.9006 -0.1348
  409MPD2    C1 6103   0.284   0.265  17.538 -0.9779  0.0805  0.7898
  409MPD2    C2 6104   0.372   0.365  17.521 -0.0291  0.3110  0.0765
  409MPD2    C3 6105   0.364   0.462  17.424  0.3739  0.0723 -0.8501
  409MPD2    C4 6106   0.251   0.456  17.340 -0.2078  0.0091  0.8527
  409MPD2    C5 6107   0.163   0.356  17.344 -0.6418  0.0068 -0.4410
  409MPD2     H 6108   0.460   0.356  17.583  0.7179 -0.5706 -1.0921
  409MPD2    H1 6109   0.245   0.522  17.255  0.0237 -3.5572 -1.9596
  409MPD2    H2 6110   0.108   0.178  17.452 -1.6348  1.7135 -2.1950
  409MPD2    H3 6111   0.082   0.348  17.272  0.6634 -0.6278 -1.8321
  409MPD2     N 6112   0.460   0.564  17.405  0.1458 -0.7494  0.0340
  409MPD2    H5 6113   0.452   0.624  17.323  2.6311  0.0612  0.3640
  409MPD2    N1 6114   0.310   0.176  17.644  0.0193  0.5006  0.9867
  409MPD2    H7 6115   0.396   0.184   0.001  0.2331  1.3760  0.5004
  410TMC3    C1 6116   0.665   0.680  17.429 -1.3349  0.1205 -0.0632
  410TMC3    C2 6117   0.777   0.707  17.504  0.1651  0.2358 -0.1248
  410TMC3    C3 6118   0.873   0.781  17.442  0.0946 -0.4954 -0.0431
  410TMC3    C4 6119   0.649   0.727  17.303  0.4793 -0.0634  0.2981
  410TMC3    C5 6120   0.743   0.815  17.249  0.4280  0.3374 -0.3068
  410TMC3    C6 6121   0.851   0.852  17.322 -0.0517 -0.5069  0.7553
  410TMC3     C 6122   0.574   0.578  17.483 -0.7243  0.1571 -0.1365
  410TMC3     O 6123   0.608   0.517  17.582  0.3677  0.2755  0.2012
  410TMC3     H 6124   0.794   0.656  17.598  2.5154 -0.5055 -0.9300
  410TMC3    H1 6125   0.577   0.684  17.234 -0.5572  4.5198 -1.4630
  410TMC3    H2 6126   0.938   0.900  17.278 -0.0820  0.0481  1.3050
  410TMC3    C7 6127   0.729   0.851  17.109 -0.0832 -0.0125 -0.0430
  410TMC3    C8 6128   1.002   0.796  17.502  0.0442 -0.1015  0.2575
  410TMC3    O1 6129   0.657   0.779  17.043  0.4271 -0.0565  0.0560
  410TMC3    O2 6130   1.052   0.906  17.498 -0.2143 -0.7095 -0.5371
  411MPD2     C 6131   0.504   0.918  15.238  0.7806  0.5970  0.0303
  411MPD2    C1 6132   0.463   0.957  15.112 -0.2393  0.7745  0.0414
  411MPD2    C2 6133   0.333   0.925  15.073  0.0780  0.5566  0.1573
  411MPD2    C3 6134   0.261   0.826  15.142  0.2792 -0.7254  0.1839
  411MPD2    C4 6135   0.307   0.782  15.268  0.2936  0.3704 -0.4041
  411MPD2    C5 6136   0.427   0.834  15.311 -0.0066 -0.3490 -0.0826
  411MPD2     H 6137   0.285   0.958  14.981  0.2238  0.7052  0.1328
  411MPD2    H1 6138   0.262   0.700  15.323  2.3630 -0.8583 -0.5450
  411MPD2    H2 6139   0.599   0.952  15.278  1.3313  1.8517 -2.3431
  411MPD2    H3 6140   0.478   0.787  15.395  3.4860  4.4246  0.5113
  411MPD2     N 6141   0.144   0.777  15.077 -0.5131 -0.0630 -0.9710
  411MPD2    H5 6142   0.131   0.812  14.982 -1.4133  0.9192 -0.4919
  411MPD2    N1 6143   0.540   1.060  15.050  0.0886 -0.4074  0.5710
  411MPD2    H7 6144   0.622   1.088  15.103 -0.7741  1.4398  0.9244
  412TMC3    C1 6145   4.696   0.639  15.002  0.7055 -0.3920  0.2633
  412TMC3    C2 6146   4.561   0.641  15.010 -0.7954 -0.6386  0.7037
  412TMC3    C3 6147   4.496   0.633  14.886  0.1276 -0.4071 -0.4537
  412TMC3    C4 6148   0.034   0.606  14.883 -0.3776 -0.2037  0.7195
  412TMC3    C5 6149   4.686   0.582  14.770 -0.3534 -0.2556 -0.0412
  412TMC3    C6 6150   4.555   0.605  14.767  0.2416 -0.8220  0.1550
  412TMC3     C 6151   0.051   0.683  15.116  0.0670  0.7810 -0.5027
  412TMC3     O 6152   0.043   0.643  15.229  0.1629 -0.0032 -0.0229
  412TMC3     H 6153   4.505   0.658  15.102 -2.4396 -0.5727 -0.2986
  412TMC3    H1 6154   0.141   0.619  14.872 -0.4454 -0.2899 -0.0427
  412TMC3    H2 6155   4.495   0.589  14.678 -0.3628 -0.8574  0.5644
  412TMC3    C7 6156   0.011   0.659  14.655  0.6113  0.2746  0.0051
  412TMC3    C8 6157   4.385   0.725  14.869  0.2345  0.1796  0.4034
  412TMC3    O1 6158   4.655   0.743  14.617 -0.1711 -0.5873 -0.0300
  412TMC3    O2 6159   4.297   0.718  14.954 -0.1606  0.3900  0.5401
  413MPD2     C 6160   2.510   4.585  15.725  0.2945 -0.1739  0.2487
  413MPD2    C1 6161   2.432   4.491  15.663  0.1017 -0.2555  0.4108
  413MPD2    C2 6162   2.497   4.383  15.603  0.3041  0.1015 -0.0883
  413MPD2    C3 6163   2.635   4.365  15.607 -0.4142 -0.6652 -0.3551
  413MPD2    C4 6164   2.709   4.463  15.668  0.4226  0.3925  0.6325
  413MPD2    C5 6165   2.645   4.570  15.721 -0.1456 -0.1674 -0.1166
  413MPD2     H 6166   2.433   4.305  15.561  1.1695 -0.2950 -0.6607
  413MPD2    H1 6167   2.814   4.478  15.646  0.8202 -6.0430 -1.6448
  413MPD2    H2 6168   2.476   4.671  15.782 -3.3909 -0.3402 -1.6494
  413MPD2    H3 6169   2.714   4.650  15.749  1.0373 -1.0394 -0.5313
  413MPD2     N 6170   2.690   4.255  15.549 -0.6369  0.0341  0.0374
  413MPD2    H5 6171   2.634   4.194  15.490 -1.7655 -1.8840  3.0806
  413MPD2    N1 6172   2.293   4.477  15.697 -0.8194  0.2585 -0.6979
  413MPD2    H7 6173   2.249   4.409  15.636  1.2386  1.1986 -3.2379
  414TMC3    C1 6174   2.834   4.081  15.523  0.2697  0.3400 -0.4097
  414TMC3    C2 6175   2.883   3.980  15.596  0.8827 -0.6004 -0.1118
  414TMC3    C3 6176   2.886   3.859  15.532 -0.4185 -0.6485  0.2128
  414TMC3    C4 6177   2.776   4.068  15.394 -0.1473 -0.4729  0.3165
  414TMC3    C5 6178   2.784   3.946  15.341 -1.3115 -0.5298 -0.0383
  414TMC3    C6 6179   2.831   3.841  15.411  0.3248 -0.4444  0.3078
  414TMC3     C 6180   2.812   4.208  15.584 -0.3381  0.1871  0.6467
  414TMC3     O 6181   2.891   4.241  15.673  1.0094  0.1300 -0.1271
  414TMC3     H 6182   2.930   3.997  15.692  0.3265  0.6005 -0.0513
  414TMC3    H1 6183   2.757   4.156  15.333  1.4802 -1.4649 -1.6084
  414TMC3    H2 6184   2.833   3.746  15.359 -0.8478 -0.1209 -0.3296
  414TMC3    C7 6185   2.716   3.924  15.206  0.9378  0.5514  0.4500
  414TMC3    C8 6186   2.964   3.748  15.568  0.0687  0.3538  0.7566
  414TMC3    O1 6187   2.616   3.988  15.197 -0.2847 -0.6184  0.4793
  414TMC3    O2 6188   2.919   3.636  15.542 -0.3059  0.0931 -0.1551
  415TMC3    C1 6189   2.774   1.983   9.926 -0.0775 -0.5217 -0.6471
  415TMC3    C2 6190   2.791   1.964   9.792 -0.3967  0.1270 -0.2579
  415TMC3    C3 6191   2.696   2.028   9.719 -0.4657 -0.0260  0.6953
  415TMC3    C4 6192   2.664   2.041   9.975  0.5969 -0.6378 -0.2952
  415TMC3    C5 6193   2.570   2.094   9.897 -0.4246 -0.2646  0.3702
  415TMC3    C6 6194   2.586   2.090   9.763  0.8798 -0.2272  0.9934
  415TMC3     C 6195   2.870   1.924  10.023  0.4325 -0.1668  0.8243
  415TMC3     O 6196   2.836   1.923  10.143 -0.0946  0.1861  0.1726
  415TMC3     H 6197   2.870   1.905   9.748  1.9267  3.2246 -0.2851
  415TMC3    H1 6198   2.662   2.079  10.077  0.1817  0.7228 -0.8121
  415TMC3    H2 6199   2.504   2.126   9.702  1.3504  1.8995  1.6186
  415TMC3    C7 6200   2.454   2.161   9.944  0.8016  0.4407  0.3136
  415TMC3    C8 6201   2.725   2.023   9.575 -0.4425 -0.3593 -0.4878
  415TMC3    O1 6202   2.383   2.231   9.870 -0.4332  0.1341 -0.4663
  415TMC3    O2 6203   2.646   2.057   9.491  0.0642  0.0849 -0.2251
  416MPD2     C 6204   0.497   1.123  12.100  0.4959  1.2792  0.4051
  416MPD2    C1 6205   0.398   1.179  12.023 -0.1790 -0.6594 -0.2426
  416MPD2    C2 6206   0.334   1.110  11.923 -0.4428  0.2335 -0.6064
  416MPD2    C3 6207   0.385   0.986  11.892 -0.0712 -0.5182 -0.3816
  416MPD2    C4 6208   0.493   0.933  11.964  0.1963 -0.4281 -0.2852
  416MPD2    C5 6209   0.543   0.996  12.068  0.7593 -0.4854  0.3212
  416MPD2     H 6210   0.236   1.137  11.886 -0.2536 -1.7788 -2.5917
  416MPD2    H1 6211   0.531   0.832  11.957 -0.3605 -0.7300  1.0595
  416MPD2    H2 6212   0.543   1.182  12.178 -0.3936  0.0356  1.8847
  416MPD2    H3 6213   0.616   0.953  12.136  1.4241 -0.1614 -0.1832
  416MPD2     N 6214   0.328   0.897  11.799 -0.0419  0.1290 -0.0992
  416MPD2    H5 6215   0.372   0.806  11.809  2.2093  1.0943 -1.3685
  416MPD2    N1 6216   0.344   1.300  12.073 -0.4882 -0.3056 -0.4001
  416MPD2    H7 6217   0.386   1.332  12.160 -1.1464 -2.5631  0.7375
  417TMC3    C1 6218   0.210   1.485  12.088  0.1728 -0.6982  0.8340
  417TMC3    C2 6219   0.233   1.483  12.227  0.0021  0.3379  0.0526
  417TMC3    C3 6220   0.161   1.566  12.310  0.3785  0.2029  0.1299
  417TMC3    C4 6221   0.111   1.570  12.039 -0.1522 -0.4457 -0.1733
  417TMC3    C5 6222   0.028   1.634  12.128  0.1452 -0.3756 -0.2317
  417TMC3    C6 6223   0.054   1.637  12.263  0.0247 -0.5149  0.4090
  417TMC3     C 6224   0.258   1.382  12.004 -0.3233 -0.0060  0.4829
  417TMC3     O 6225   0.216   1.374  11.892 -0.1207 -0.3188  0.1901
  417TMC3     H 6226   0.318   1.430  12.269  1.2324  2.6081  0.4447
  417TMC3    H1 6227   0.103   1.580  11.931  1.0213 -1.1446 -0.3257
  417TMC3    H2 6228   4.712   1.688  12.332 -0.4926  0.4292 -0.7667
  417TMC3    C7 6229   4.671   1.744  12.077  0.3911 -0.0567  0.5720
  417TMC3    C8 6230   0.198   1.587  12.447 -0.4714 -1.1772  0.3037
  417TMC3    O1 6231   4.674   1.778  11.959  0.2882  0.0787 -0.2581
  417TMC3    O2 6232   0.109   1.639  12.514  0.0871  0.2229 -0.2025
  418TMC3    C1 6233   3.400   1.729   0.567  0.3563 -0.3463  0.6278
  418TMC3    C2 6234   3.319   1.821   0.505  0.0861 -0.1606 -0.0668
  418TMC3    C3 6235   3.184   1.800   0.533 -0.8568 -0.0112 -0.1796
  418TMC3    C4 6236   3.352   1.638   0.655 -0.5673  0.5821 -0.5766
  418TMC3    C5 6237   3.219   1.622   0.678 -0.0550  0.4701 -1.1243
  418TMC3    C6 6238   3.132   1.692   0.610 -0.5684 -0.3313  0.0735
  418TMC3     C 6239   3.541   1.736   0.532  0.6111  0.0365 -0.6137
  418TMC3     O 6240   3.594   1.840   0.501  0.5783 -0.0111 -0.3258
  418TMC3     H 6241   3.358   1.893   0.435  0.6563 -1.0317 -0.6513
  418TMC3    H1 6242   3.423   1.589   0.720 -1.5184  1.8051  1.4018
  418TMC3    H2 6243   3.029   1.678   0.639 -0.7514  1.3329  0.2497
  418TMC3    C7 6244   3.175   1.514   0.768  0.1441 -0.4870  0.0207
  418TMC3    C8 6245   3.096   1.864   0.431  0.3107  0.3191 -1.0889
  418TMC3    O1 6246   3.063   1.469   0.750 -0.0562  0.0643 -0.0040
  418TMC3    O2 6247   3.152   1.937   0.352 -0.6398 -0.4026 -0.3193
  419MPD2     C 6248   2.386   0.803  12.941 -0.8067 -0.4924  0.1111
  419MPD2    C1 6249   2.242   0.799  12.920 -0.3033  0.2284 -0.5763
  419MPD2    C2 6250   2.174   0.857  13.031  0.0921 -0.2555 -0.9315
  419MPD2    C3 6251   2.238   0.912  13.141 -0.7391  0.2296  0.3786
  419MPD2    C4 6252   2.372   0.883  13.165 -0.2354 -0.0870 -0.1540
  419MPD2    C5 6253   2.442   0.836  13.060 -0.5595 -1.0651  0.6337
  419MPD2     H 6254   2.070   0.869  13.005  0.5257  0.5019 -2.3237
  419MPD2    H1 6255   2.414   0.903  13.263  0.7594  0.5964 -0.7160
  419MPD2    H2 6256   2.449   0.771  12.859 -0.0056  0.6015  0.2906
  419MPD2    H3 6257   2.546   0.806  13.071 -0.0513  0.9778  1.4366
  419MPD2     N 6258   2.162   1.005  13.225 -0.0223 -0.2527  0.2085
  419MPD2    H5 6259   2.068   1.028  13.195  0.0159 -1.4141 -0.8172
  419MPD2    N1 6260   2.173   0.760  12.807 -0.5215  0.2478  0.3787
  419MPD2    H7 6261   2.075   0.784  12.795 -1.2530 -2.8908  0.0464
  420TMC3    C1 6262   2.106   1.172  13.386 -0.1881  0.6393 -0.0971
  420TMC3    C2 6263   2.033   1.237  13.292 -0.3369 -0.5379  0.5224
  420TMC3    C3 6264   1.926   1.309  13.335  0.1106 -0.1633 -0.0619
  420TMC3    C4 6265   2.096   1.194  13.517  0.3054  0.2480  0.2124
  420TMC3    C5 6266   1.983   1.268  13.556 -0.0930 -0.2031 -0.4603
  420TMC3    C6 6267   1.893   1.325  13.466 -0.2136 -0.1418 -0.3257
  420TMC3     C 6268   2.203   1.072  13.343  0.1165  0.2871 -0.3014
  420TMC3     O 6269   2.303   1.053  13.409 -0.1092  0.4926  0.0548
  420TMC3     H 6270   2.053   1.212  13.188  0.4565  3.0775 -0.1837
  420TMC3    H1 6271   2.135   1.121  13.588 -1.7969  0.3561  1.4860
  420TMC3    H2 6272   1.818   1.391  13.508 -0.8583  0.0630 -1.8159
  420TMC3    C7 6273   1.964   1.275  13.704  0.4318 -0.1080 -0.6358
  420TMC3    C8 6274   1.831   1.369  13.237 -0.1382 -0.3618  0.4288
  420TMC3    O1 6275   1.850   1.290  13.742  0.3910  0.0579 -0.4955
  420TMC3    O2 6276   1.877   1.420  13.129 -0.0014 -0.5847 -0.2091
  421TMC3    C1 6277   3.328   3.029  14.054  0.3987 -0.3507  0.4743
  421TMC3    C2 6278   3.353   3.127  14.153  0.8451 -0.3622 -0.0050
  421TMC3    C3 6279   3.459   3.097  14.227 -0.3296  0.6603 -0.3398
  421TMC3    C4 6280   3.398   2.915  14.035 -0.2970 -0.3321  0.0348
  421TMC3    C5 6281   3.510   2.900  14.103 -0.2302 -0.6671 -0.0280
  421TMC3    C6 6282   3.549   3.003  14.185  0.4740  0.3100  0.8986
  421TMC3     C 6283   3.239   3.079  13.954 -0.2173 -0.4715 -0.4712
  421TMC3     O 6284   3.239   3.193  13.914  0.0021  0.2962  0.1286
  421TMC3     H 6285   3.294   3.218  14.160 -0.4629 -1.4889  3.7003
  421TMC3    H1 6286   3.380   2.840  13.958  0.7899 -0.2271 -0.3204
  421TMC3    H2 6287   3.642   2.988  14.239  1.1188 -1.6555 -0.7485
  421TMC3    C7 6288   3.596   2.788  14.086 -0.0865  0.3005 -0.0208
  421TMC3    C8 6289   3.492   3.184  14.333 -0.8272 -0.3960 -0.6671
  421TMC3    O1 6290   3.709   2.824  14.095 -0.0396  0.1326  0.1249
  421TMC3    O2 6291   3.405   3.212  14.413  0.2259 -0.4441  0.7076
  422TMC3    C1 6292   1.227   4.121  12.997 -0.5670 -0.3359 -0.4211
  422TMC3    C2 6293   1.204   4.228  13.073 -0.4539 -0.4068  0.4078
  422TMC3    C3 6294   1.089   4.223  13.155  0.2524  0.2668 -0.1844
  422TMC3    C4 6295   1.145   4.010  13.004  0.1005 -0.1077  0.4028
  422TMC3    C5 6296   1.032   4.013  13.083  0.2019  0.3574  0.0502
  422TMC3    C6 6297   0.999   4.122  13.153 -0.3331  0.2225  0.1690
  422TMC3     C 6298   1.331   4.127  12.895 -0.1359 -0.0681  0.4052
  422TMC3     O 6299   1.339   4.237  12.839 -0.2384 -0.2532 -0.3776
  422TMC3     H 6300   1.277   4.308  13.079 -0.5632 -0.1184 -2.3644
  422TMC3    H1 6301   1.166   3.928  12.936  1.5478  0.0059  0.7236
  422TMC3    H2 6302   0.902   4.133  13.201 -0.7742  0.5410 -0.7960
  422TMC3    C7 6303   0.954   3.889  13.080  0.0834 -1.3193  0.1171
  422TMC3    C8 6304   1.079   4.334  13.249  0.7530 -0.4360 -0.7950
  422TMC3    O1 6305   0.996   3.795  13.009  0.4489  0.0439 -0.3757
  422TMC3    O2 6306   1.150   4.426  13.216  0.4506 -0.5671 -0.4472
  423MPD2     C 6307   2.197   0.067   0.877 -0.0764 -0.5046  0.4099
  423MPD2    C1 6308   2.307   4.713   0.911  0.5375  0.7005 -0.2182
  423MPD2    C2 6309   2.362   4.627   0.829  0.2825  0.3626  0.8830
  423MPD2    C3 6310   2.315   4.609   0.696  0.0801 -0.2517  0.2153
  423MPD2    C4 6311   2.203   4.687   0.665  0.6014  0.1448  0.0168
  423MPD2    C5 6312   2.147   0.055   0.750 -0.3457  0.0370  0.3633
  423MPD2     H 6313   2.442   4.569   0.874  0.9069 -0.2291 -0.9611
  423MPD2    H1 6314   2.167   4.679   0.564 -3.5008 -3.9569  1.7735
  423MPD2    H2 6315   2.143   0.135   0.942  2.4118  1.8251  0.0661
  423MPD2    H3 6316   2.069   0.122   0.717  2.0997  2.2317 -0.9172
  423MPD2     N 6317   2.354   4.517   0.605 -0.1544 -0.3152 -0.4066
  423MPD2    H5 6318   2.292   4.509   0.525 -0.1706  0.9022 -0.5223
  423MPD2    N1 6319   2.354   4.705   1.045  0.1969 -0.5010 -0.0314
  423MPD2    H7 6320   2.416   4.629   1.071  0.4426 -0.3112 -0.0739
  424TMC3    C1 6321   2.376   0.039   1.281 -0.6680  0.5749  0.2912
  424TMC3    C2 6322   2.460   4.657   1.314 -0.1384 -0.4987  0.1578
  424TMC3    C3 6323   2.516   4.656   1.437 -0.1299  0.4660 -0.2242
  424TMC3    C4 6324   2.341   0.134   1.375  0.2895  0.0999  0.4261
  424TMC3    C5 6325   2.399   0.121   1.503 -0.3169  0.3654 -0.4146
  424TMC3    C6 6326   2.498   0.034   1.526  0.3211 -0.5829  0.5956
  424TMC3     C 6327   2.316   0.059   1.149 -0.9791  0.0474 -0.2472
  424TMC3     O 6328   2.230   0.144   1.149  0.0185 -0.0639 -0.5104
  424TMC3     H 6329   2.443   4.566   1.257  0.3638 -1.2560  1.2067
  424TMC3    H1 6330   2.268   0.212   1.358 -0.8170 -0.6840  1.5137
  424TMC3    H2 6331   2.554   0.033   1.619  2.7905  0.9979 -0.8983
  424TMC3    C7 6332   2.344   0.207   1.607 -0.6122 -0.3557  0.3933
  424TMC3    C8 6333   2.585   4.542   1.487 -0.2821 -0.0382  0.2727
  424TMC3    O1 6334   2.261   0.293   1.571 -0.3017  0.7081 -0.3487
  424TMC3    O2 6335   2.590   4.516   1.604  0.5494 -0.2108 -0.3590
  425MPD2     C 6336   1.439   4.274   0.160  0.1331 -0.0516 -0.4699
  425MPD2    C1 6337   1.397   4.139   0.144 -0.0635 -0.6293  0.7358
  425MPD2    C2 6338   1.261   4.117   0.168  0.4831 -0.0659 -0.0456
  425MPD2    C3 6339   1.172   4.217   0.195  0.1617 -0.1910 -0.1780
  425MPD2    C4 6340   1.219   4.344   0.205  0.2108 -0.3882  0.1487
  425MPD2    C5 6341   1.353   4.374   0.187 -0.3642  0.4619  0.2600
  425MPD2     H 6342   1.217   4.019   0.152  1.3711 -0.7816  1.9420
  425MPD2    H1 6343   1.158   4.429   0.231  1.1028  0.4278 -0.4192
  425MPD2    H2 6344   1.542   4.304   0.141 -0.1236  0.5006 -0.9740
  425MPD2    H3 6345   1.395   4.474   0.190 -0.8718  0.6674  0.6650
  425MPD2     N 6346   1.043   4.173   0.213 -0.9936 -1.1600  0.0831
  425MPD2    H5 6347   1.022   4.080   0.177 -3.9744 -0.1423 -0.8566
  425MPD2    N1 6348   1.494   4.045   0.104  0.4487  0.3277 -0.3312
  425MPD2    H7 6349   1.593   4.066   0.099  0.6980 -0.4980  1.2340
  426TMC3    C1 6350   1.561   3.834   0.029 -0.7738 -0.7775  0.7281
  426TMC3    C2 6351   1.537   3.757  17.609  0.6465 -0.0433 -0.1038
  426TMC3    C3 6352   1.608   3.642  17.604  0.0756 -0.5598 -0.1356
  426TMC3    C4 6353   1.639   3.789   0.132 -0.0477 -0.4145  0.6308
  426TMC3    C5 6354   1.713   3.669   0.112 -0.5494  0.5308  0.0614
  426TMC3    C6 6355   1.694   3.596   0.001  0.2886  0.2517 -0.0248
  426TMC3     C 6356   1.457   3.920   0.064 -1.0211 -0.0073  0.6140
  426TMC3     O 6357   1.348   3.882   0.030 -0.3113  0.0258  0.0199
  426TMC3     H 6358   1.455   3.791  17.546  0.4300  0.5119  0.4744
  426TMC3    H1 6359   1.647   3.846   0.224 -0.6229  2.2176 -0.9478
  426TMC3    H2 6360   1.753   3.506  17.686  0.4159  0.3521 -0.1563
  426TMC3    C7 6361   1.783   3.616   0.229 -0.1529 -0.3015  0.2890
  426TMC3    C8 6362   1.585   3.561  17.488 -0.4768  1.1390  0.8032
  426TMC3    O1 6363   1.742   3.663   0.334 -0.3774 -0.3137  0.3026
  426TMC3    O2 6364   1.597   3.440  17.495  0.8721  0.2077  0.1946
  427MPD2     C 6365   4.639   1.193  15.081  0.0855  0.3086  0.1007
  427MPD2    C1 6366   4.577   1.145  15.196  0.6846 -0.5547  0.0231
  427MPD2    C2 6367   4.441   1.165  15.212  0.0537 -0.5068 -0.2474
  427MPD2    C3 6368   4.372   1.239  15.119  0.4019 -0.2643  0.1039
  427MPD2    C4 6369   4.434   1.290  15.006  0.5512  0.2437 -0.4474
  427MPD2    C5 6370   4.568   1.255  14.979  0.1113  0.1494  0.1253
  427MPD2     H 6371   4.390   1.126  15.299  0.1202 -2.8842 -1.2602
  427MPD2    H1 6372   4.383   1.347  14.930 -0.3123  0.5962  0.3874
  427MPD2    H2 6373   0.015   1.155  15.060 -0.7431 -1.6532 -0.3053
  427MPD2    H3 6374   4.623   1.293  14.894  0.7522 -1.0644 -0.0110
  427MPD2     N 6375   4.234   1.266  15.125 -0.2650 -0.4233 -0.0894
  427MPD2    H5 6376   4.200   1.316  15.044 -2.7827 -1.5278  0.2952
  427MPD2    N1 6377   4.647   1.072  15.295 -0.4768  0.2121  0.0682
  427MPD2    H7 6378   4.592   1.015  15.359 -1.5908 -1.3375 -2.2599
  428TMC3    C1 6379   0.098   0.996  15.426  0.1854  0.0971  0.4708
  428TMC3    C2 6380   0.040   0.881  15.463  0.0296 -0.0390  0.0815
  428TMC3    C3 6381   0.113   0.792  15.536  0.5559 -0.3960 -0.4860
  428TMC3    C4 6382   0.224   1.035  15.474 -0.7119  0.5020  0.6931
  428TMC3    C5 6383   0.282   0.949  15.565 -0.2156  0.1682 -0.6180
  428TMC3    C6 6384   0.240   0.822  15.588  0.6305 -0.3080 -0.5112
  428TMC3     C 6385   0.057   1.077  15.308  0.0621  0.4379 -0.6960
  428TMC3     O 6386   0.138   1.148  15.256  0.1303  0.2456  0.5800
  428TMC3     H 6387   4.675   0.839  15.418  1.8056 -0.7350 -2.7421
  428TMC3    H1 6388   0.263   1.133  15.450 -1.3711  0.6834  0.3632
  428TMC3    H2 6389   0.305   0.755  15.642  0.3521  0.2481  0.5178
  428TMC3    C7 6390   0.409   0.978  15.620 -0.1446  0.5063  0.2778
  428TMC3    C8 6391   0.056   0.664  15.573 -0.6747 -1.3561  0.0893
  428TMC3    O1 6392   0.430   0.936  15.733  0.3522 -0.9090  0.0300
  428TMC3    O2 6393   4.661   0.666  15.577  0.5895  0.3705 -0.2830
  429MPD2     C 6394   0.673   1.291   0.367 -0.2530 -0.8986 -0.0429
  429MPD2    C1 6395   0.796   1.231   0.353 -0.1502 -0.2911 -0.0169
  429MPD2    C2 6396   0.895   1.288   0.276 -0.5619 -0.4419 -0.5294
  429MPD2    C3 6397   0.875   1.416   0.222  0.0325  0.9630  0.6949
  429MPD2    C4 6398   0.756   1.485   0.249  0.4035  0.0283  0.2913
  429MPD2    C5 6399   0.658   1.421   0.318  0.5547  0.1446  1.1873
  429MPD2     H 6400   0.993   1.244   0.257 -0.8535 -1.0255 -0.6738
  429MPD2    H1 6401   0.725   1.584   0.218 -1.7091 -0.9785 -0.8365
  429MPD2    H2 6402   0.585   1.254   0.417 -1.3654  0.3147 -1.1033
  429MPD2    H3 6403   0.563   1.467   0.342 -1.3839 -2.8694 -0.6768
  429MPD2     N 6404   0.979   1.481   0.151 -0.0162 -0.3449  0.4779
  429MPD2    H5 6405   1.071   1.437   0.152  0.3563  0.4191 -0.5086
  429MPD2    N1 6406   0.829   1.105   0.418 -0.1821 -0.1174 -0.8737
  429MPD2    H7 6407   0.925   1.073   0.410 -0.3533 -0.8931  0.1375
  430TMC3    C1 6408   1.101   1.626   0.016  0.6642 -0.2617 -0.1025
  430TMC3    C2 6409   1.105   1.715  17.603  0.2375 -0.4188  0.1141
  430TMC3    C3 6410   1.230   1.738  17.546 -0.0304 -0.0845  0.0688
  430TMC3    C4 6411   1.214   1.566   0.073  0.0942 -0.1515 -0.0577
  430TMC3    C5 6412   1.330   1.585   0.002 -0.0311  0.3276 -0.1045
  430TMC3    C6 6413   1.335   1.665  17.588  0.2653  0.3476  0.0746
  430TMC3     C 6414   0.972   1.594   0.072  0.1895 -0.1632  0.3470
  430TMC3     O 6415   0.872   1.658   0.037 -0.5016 -0.3243  0.5536
  430TMC3     H 6416   1.012   1.751  17.560  1.7337  2.2722 -0.8790
  430TMC3    H1 6417   1.213   1.506   0.163 -0.9726  0.6077  0.4313
  430TMC3    H2 6418   1.425   1.676  17.529  0.0492 -2.1748 -0.7098
  430TMC3    C7 6419   1.380   1.454  17.667  0.3637  0.3078  0.6061
  430TMC3    C8 6420   1.247   1.811  17.419  0.8011 -0.0099  0.6251
  430TMC3    O1 6421   1.307   1.359  17.691 -0.1911 -0.0806 -0.0343
  430TMC3    O2 6422   1.347   1.792  17.348 -0.3266 -0.1189  0.0294
  431MPD2     C 6423   1.937   1.419  12.802  0.0014 -0.5244 -0.7916
  431MPD2    C1 6424   2.016   1.401  12.687 -0.0450  0.1684 -0.2755
  431MPD2    C2 6425   2.020   1.273  12.622 -0.1287  0.2452  0.2135
  431MPD2    C3 6426   1.926   1.176  12.660 -1.1321 -0.1334  0.0083
  431MPD2    C4 6427   1.845   1.202  12.771 -0.5191  0.2457  0.1907
  431MPD2    C5 6428   1.847   1.325  12.834  0.1632 -0.1389 -0.3409
  431MPD2     H 6429   2.077   1.273  12.529 -2.5316 -1.0444 -1.2382
  431MPD2    H1 6430   1.770   1.131  12.806 -0.2447 -0.7089 -1.1523
  431MPD2    H2 6431   1.913   1.515  12.847 -2.2486 -1.0413 -0.8962
  431MPD2    H3 6432   1.781   1.332  12.920  0.5429 -0.0210 -0.0548
  431MPD2     N 6433   1.912   1.052  12.598  0.4272  0.0827 -0.6008
  431MPD2    H5 6434   1.845   0.982  12.629  0.3603  1.1919  1.7838
  431MPD2    N1 6435   2.096   1.512  12.644 -0.3788 -0.0916  0.1709
  431MPD2    H7 6436   2.134   1.500  12.550 -0.3908 -2.2633  0.4386
  432TMC3    C1 6437   1.983   0.874  12.469  0.7322 -0.9668  0.0987
  432TMC3    C2 6438   2.029   0.820  12.348  0.1543  0.1591  0.0742
  432TMC3    C3 6439   2.123   0.720  12.352  0.2543 -0.8456 -0.6384
  432TMC3    C4 6440   2.024   0.810  12.586  0.1002  0.2444 -0.2289
  432TMC3    C5 6441   2.127   0.720  12.583  0.0752 -0.2336  0.2777
  432TMC3    C6 6442   2.187   0.678  12.467  0.4320 -0.3618  0.0056
  432TMC3     C 6443   1.979   1.017  12.481 -0.0750  0.7224 -0.3117
  432TMC3     O 6444   2.042   1.083  12.400 -0.3578 -0.2564  0.4765
  432TMC3     H 6445   2.004   0.874  12.258 -0.7156  2.2122  1.5337
  432TMC3    H1 6446   2.000   0.859  12.680 -0.0462 -1.9368  0.8606
  432TMC3    H2 6447   2.259   0.596  12.468  0.1153 -0.6598 -1.4746
  432TMC3    C7 6448   2.230   0.723  12.687 -0.6752 -0.2059  0.2886
  432TMC3    C8 6449   2.180   0.687  12.223 -0.3565  0.2880 -0.5149
  432TMC3    O1 6450   2.347   0.688  12.666 -0.1440  0.3626  0.0376
  432TMC3    O2 6451   2.100   0.703  12.129 -0.1187 -0.4338  0.0051
  433MPD2     C 6452   0.898   0.438  11.068  0.6771  0.6050 -0.0698
  433MPD2    C1 6453   0.875   0.324  11.145 -0.0531  0.3661  0.3692
  433MPD2    C2 6454   0.878   0.329  11.285 -0.2929 -0.8331  0.5715
  433MPD2    C3 6455   0.893   0.448  11.351 -0.4527 -0.0735  0.5873
  433MPD2    C4 6456   0.890   0.568  11.276  0.1865 -0.6374  0.2034
  433MPD2    C5 6457   0.896   0.556  11.133 -1.2074 -0.7881 -0.0728
  433MPD2     H 6458   0.874   0.231  11.332  1.2105 -1.7422 -1.1959
  433MPD2    H1 6459   0.884   0.666  11.321 -0.5043  0.4718 -2.3096
  433MPD2    H2 6460   0.898   0.440  10.960 -1.9894  1.9063 -0.0580
  433MPD2    H3 6461   0.896   0.646  11.071  0.7883 -0.1955  0.7932
  433MPD2     N 6462   0.910   0.451  11.489  0.3582 -0.2760 -0.9221
  433MPD2    H5 6463   0.898   0.361  11.534 -0.5049  0.3564  0.1009
  433MPD2    N1 6464   0.842   0.208  11.075  0.8149  0.0772  0.6254
  433MPD2    H7 6465   0.834   0.219  10.974 -0.4213 -1.4283  0.5603
  434TMC3    C1 6466   0.866   4.703  11.005  0.4576  0.1918 -0.5054
  434TMC3    C2 6467   0.945   4.595  11.028  0.1387 -0.3180 -0.0734
  434TMC3    C3 6468   1.032   4.551  10.931  0.2453 -0.5898 -0.1074
  434TMC3    C4 6469   0.858   0.033  10.878  0.9297  0.1201  0.5127
  434TMC3    C5 6470   0.942   4.695  10.782  0.0979 -0.0784 -0.4573
  434TMC3    C6 6471   1.033   4.602  10.809  0.1839  0.0645  0.2150
  434TMC3     C 6472   0.852   0.076  11.117  0.2366  0.2333 -0.2546
  434TMC3     O 6473   0.892   0.033  11.225  0.0580 -0.7169 -0.0788
  434TMC3     H 6474   0.962   4.568  11.131 -0.3818 -0.8519 -0.1280
  434TMC3    H1 6475   0.786   0.110  10.856  1.1668 -0.4217 -2.1442
  434TMC3    H2 6476   1.104   4.559  10.739 -0.6767 -3.0064  1.2412
  434TMC3    C7 6477   0.925   0.022  10.651 -0.1738 -0.2308 -0.1663
  434TMC3    C8 6478   1.145   4.472  10.994 -0.6040 -0.3331  0.2335
  434TMC3    O1 6479   0.873   0.131  10.632 -0.0184  0.6498 -0.3085
  434TMC3    O2 6480   1.130   4.433  11.109 -0.1849 -0.0803 -0.2947
  435MPD2     C 6481   2.730   0.186  15.825 -0.2136  0.9139  0.1585
  435MPD2    C1 6482   2.700   0.145  15.954  0.5268  0.8191  0.5154
  435MPD2    C2 6483   2.795   0.105  16.042 -0.1715 -0.2399 -0.9371
  435MPD2    C3 6484   2.923   0.079  15.991 -0.4046 -0.3092  0.7472
  435MPD2    C4 6485   2.951   0.104  15.857 -0.4680 -0.1774  1.2053
  435MPD2    C5 6486   2.855   0.168  15.774 -0.8845  0.1160 -0.0448
  435MPD2     H 6487   2.767   0.077  16.142  0.0186  2.5762 -0.1002
  435MPD2    H1 6488   3.053   0.096  15.821 -1.1794  1.3446 -1.1003
  435MPD2    H2 6489   2.651   0.225  15.763 -1.0220  0.4422  0.8960
  435MPD2    H3 6490   2.883   0.199  15.674 -0.5256 -1.0353 -0.3042
  435MPD2     N 6491   3.011   0.024  16.080  0.5722  0.3245 -0.1560
  435MPD2    H5 6492   2.977   0.012  16.175 -1.8755 -0.2297 -1.1139
  435MPD2    N1 6493   2.569   0.141  15.999 -0.7573  0.1437  1.0226
  435MPD2    H7 6494   2.558   0.118  16.098  0.0031 -1.1019  0.8056
  436TMC3    C1 6495   2.317   0.229  16.275  0.0358  0.5357  0.2177
  436TMC3    C2 6496   2.399   0.240  16.171  0.4994 -0.7484  0.3965
  436TMC3    C3 6497   2.360   0.199  16.045  0.1124 -0.1730  0.4878
  436TMC3    C4 6498   2.186   0.204  16.253  0.5255 -0.1419 -0.5915
  436TMC3    C5 6499   2.148   0.167  16.124 -0.1545  0.9116  0.1144
  436TMC3    C6 6500   2.232   0.161  16.017 -0.3308  0.0135  0.0041
  436TMC3     C 6501   2.371   0.271  16.405 -0.3070  0.7530  0.3464
  436TMC3     O 6502   2.491   0.244  16.421 -0.0194 -0.6007  0.3090
  436TMC3     H 6503   2.494   0.289  16.188 -0.5682  1.8900 -1.3245
  436TMC3    H1 6504   2.118   0.192  16.336  0.6351  1.2552 -0.3018
  436TMC3    H2 6505   2.205   0.130  15.917  2.9027 -2.5159 -0.0604
  436TMC3    C7 6506   2.011   0.116  16.115 -0.2504  0.5517 -0.3717
  436TMC3    C8 6507   2.453   0.180  15.939  0.3296 -0.3783 -0.0666
  436TMC3    O1 6508   1.946   0.088  16.218  0.1621 -0.4340 -0.5117
  436TMC3    O2 6509   2.428   0.222  15.827  0.2147 -0.6013 -0.0219
  437TMC3    C1 6510   1.826   2.013  12.310 -0.2592 -0.2592 -0.6156
  437TMC3    C2 6511   1.753   2.113  12.267 -0.3811 -0.0067 -0.2068
  437TMC3    C3 6512   1.792   2.199  12.173  0.2349 -0.8123  0.2614
  437TMC3    C4 6513   1.936   1.987  12.235 -0.4738 -0.0679 -0.8774
  437TMC3    C5 6514   1.970   2.058  12.124  0.4542  0.8149  0.0562
  437TMC3    C6 6515   1.901   2.171  12.094  0.5890  0.3929  0.5143
  437TMC3     C 6516   1.879   2.039  12.444 -0.2949  0.4356 -0.2630
  437TMC3     O 6517   1.948   2.143  12.452  0.1847  0.4090 -0.3784
  437TMC3     H 6518   1.670   2.136  12.333 -0.2165 -1.5549  0.5483
  437TMC3    H1 6519   2.007   1.913  12.269 -2.4525 -2.1872 -1.3345
  437TMC3    H2 6520   1.946   2.232  12.016  0.7611  0.3274  0.5618
  437TMC3    C7 6521   2.108   2.097  12.122 -0.4605 -0.4207 -1.0331
  437TMC3    C8 6522   1.727   2.328  12.158 -0.3916 -0.3513 -0.1131
  437TMC3    O1 6523   2.176   2.088  12.018 -0.0085  0.7104 -0.0412
  437TMC3    O2 6524   1.678   2.369  12.262  0.1484  0.1635  0.3648
  438MPD2     C 6525   3.627   2.314  16.973 -0.1581 -0.2467  0.3234
  438MPD2    C1 6526   3.710   2.236  17.049  0.0644 -0.2569  0.1186
  438MPD2    C2 6527   3.672   2.211  17.179 -0.4794  0.0284  0.0626
  438MPD2    C3 6528   3.549   2.255  17.228 -1.1821 -0.3374 -0.9703
  438MPD2    C4 6529   3.474   2.339  17.151  0.5232  0.6853 -0.0101
  438MPD2    C5 6530   3.513   2.365  17.027  0.2377 -0.3026  0.5314
  438MPD2     H 6531   3.743   2.158  17.242 -0.0422  0.1317 -0.3519
  438MPD2    H1 6532   3.374   2.364  17.183 -0.0029  1.7185 -2.4404
  438MPD2    H2 6533   3.640   2.341  16.869 -0.8682 -0.9908  0.0439
  438MPD2    H3 6534   3.463   2.437  16.962 -0.6929 -0.4784  1.0477
  438MPD2     N 6535   3.493   2.224  17.353  0.1492  0.4711  0.2037
  438MPD2    H5 6536   3.395   2.242  17.373 -0.1026 -1.3872  0.6500
  438MPD2    N1 6537   3.817   2.173  16.992  0.4041 -0.2560 -1.0470
  438MPD2    H7 6538   3.884   2.122  17.049  2.5976  0.7622 -2.7288
  439TMC3    C1 6539   3.970   2.096  16.835 -0.4056 -0.4475 -0.4374
  439TMC3    C2 6540   3.982   2.029  16.715  0.1548  0.3677  0.6202
  439TMC3    C3 6541   4.095   1.961  16.691 -0.0722  0.2852 -0.4385
  439TMC3    C4 6542   4.081   2.105  16.918 -0.4670  0.0168 -0.0302
  439TMC3    C5 6543   4.190   2.029  16.896  0.7717 -0.0196  0.1373
  439TMC3    C6 6544   4.200   1.953  16.780  0.4310 -0.0800  0.4152
  439TMC3     C 6545   3.843   2.164  16.859 -0.5075 -0.1268 -0.1868
  439TMC3     O 6546   3.777   2.186  16.758 -0.0963 -0.1048 -0.6425
  439TMC3     H 6547   3.898   2.001  16.653 -0.4387  0.8380  1.2112
  439TMC3    H1 6548   4.089   2.189  16.986  2.3314  0.3214 -0.7081
  439TMC3    H2 6549   4.286   1.893  16.751  0.8922 -0.8346  3.3894
  439TMC3    C7 6550   4.306   2.042  16.983  0.0025 -0.5829  0.5894
  439TMC3    C8 6551   4.132   1.929  16.552  0.5544 -0.4627  0.7784
  439TMC3    O1 6552   4.280   2.086  17.096  0.2146 -0.7005 -0.0565
  439TMC3    O2 6553   4.240   1.873  16.544  0.5104  0.1229  0.0443
  440MPD2     C 6554   2.574   3.320  15.019 -0.4178 -0.4585 -0.1883
  440MPD2    C1 6555   2.630   3.373  15.133  0.2744  0.2895 -0.6039
  440MPD2    C2 6556   2.748   3.320  15.191 -0.1591 -0.1718  0.4177
  440MPD2    C3 6557   2.808   3.214  15.130 -0.4311 -0.2654 -0.1551
  440MPD2    C4 6558   2.751   3.149  15.019 -0.5099  0.1324 -1.0541
  440MPD2    C5 6559   2.633   3.205  14.965  0.2802  0.1434 -0.0353
  440MPD2     H 6560   2.791   3.360  15.282 -0.3899 -0.3103  0.5895
  440MPD2    H1 6561   2.801   3.058  14.987  0.0659  0.3732 -0.8485
  440MPD2    H2 6562   2.471   3.334  14.990 -0.8924  1.4981  2.4301
  440MPD2    H3 6563   2.590   3.152  14.881  2.5110  1.4361 -1.9553
  440MPD2     N 6564   2.929   3.167  15.175  0.1237  1.1199  0.7124
  440MPD2    H5 6565   2.956   3.078  15.132 -1.0625  1.3447 -0.5009
  440MPD2    N1 6566   2.578   3.492  15.190 -0.1311 -0.1535 -0.3365
  440MPD2    H7 6567   2.632   3.534  15.265  3.4587 -1.6365 -2.1106
  441TMC3    C1 6568   3.132   3.146  15.282 -0.5379 -0.7027  0.5174
  441TMC3    C2 6569   3.243   3.214  15.309  0.6237  0.2146 -0.4326
  441TMC3    C3 6570   3.325   3.171  15.407  0.0039 -0.3724 -0.5010
  441TMC3    C4 6571   3.111   3.028  15.355 -0.3164  1.0117  0.0982
  441TMC3    C5 6572   3.195   2.988  15.453  0.0439 -0.4263 -0.1962
  441TMC3    C6 6573   3.308   3.060  15.483  0.5455  0.5233  0.3359
  441TMC3     C 6574   3.026   3.232  15.262  0.4083 -0.1139  0.9202
  441TMC3     O 6575   3.027   3.330  15.332 -0.0852 -0.0779 -0.5527
  441TMC3     H 6576   3.267   3.301  15.248  0.5631  1.4773  1.3123
  441TMC3    H1 6577   3.020   2.970  15.348  1.6915 -2.0178 -0.8750
  441TMC3    H2 6578   3.372   3.059  15.571  2.6781 -2.8140 -1.2377
  441TMC3    C7 6579   3.151   2.891  15.545  0.1955 -0.1230  0.4745
  441TMC3    C8 6580   3.389   3.275  15.477  0.3750 -0.4772 -0.0780
  441TMC3    O1 6581   3.032   2.875  15.560 -0.4432 -0.0699 -0.2556
  441TMC3    O2 6582   3.507   3.270  15.512  0.5936 -0.0226  0.1780
  442MPD2     C 6583   1.022   3.605  17.101  0.3627  0.3360 -0.1835
  442MPD2    C1 6584   0.887   3.563  17.070 -0.3567  0.4113  0.7127
  442MPD2    C2 6585   0.873   3.460  16.975  0.0636 -0.4388 -0.2894
  442MPD2    C3 6586   0.978   3.396  16.915  0.1435  0.1396 -0.5342
  442MPD2    C4 6587   1.102   3.442  16.948  0.6347  0.0878  0.5799
  442MPD2    C5 6588   1.125   3.542  17.035  0.3640 -0.3614  0.1354
  442MPD2     H 6589   0.772   3.423  16.958 -1.1105  1.7274  1.8718
  442MPD2    H1 6590   1.185   3.406  16.888  0.0822 -1.0201  0.4929
  442MPD2    H2 6591   1.049   3.678  17.176 -0.6725  0.3164  0.2180
  442MPD2    H3 6592   1.229   3.571  17.045 -0.0866  0.7146  1.6879
  442MPD2     N 6593   0.964   3.283  16.824  0.3083 -0.0162 -0.3082
  442MPD2    H5 6594   1.047   3.254  16.773  1.0109  1.9682 -0.3184
  442MPD2    N1 6595   0.777   3.603  17.147 -0.4360  0.0279 -0.4196
  442MPD2    H7 6596   0.684   3.571  17.124  0.4296 -0.5587 -3.1395
  443TMC3    C1 6597   0.651   3.736  17.293 -0.3303  0.1835  0.1003
  443TMC3    C2 6598   0.565   3.767  17.193 -0.7540 -0.5634  0.0795
  443TMC3    C3 6599   0.431   3.741  17.216 -0.1645  1.1071 -0.2471
  443TMC3    C4 6600   0.600   3.692  17.415  0.7598  0.4884 -0.5907
  443TMC3    C5 6601   0.462   3.681  17.430  0.1031 -0.2101  0.2614
  443TMC3    C6 6602   0.373   3.699  17.330  0.4628 -0.0897 -0.6644
  443TMC3     C 6603   0.780   3.678  17.257 -0.5748 -0.6285  0.5913
  443TMC3     O 6604   0.873   3.708  17.333  0.1010  0.3589  0.6270
  443TMC3     H 6605   0.605   3.803  17.099 -1.5936 -1.5444 -0.6527
  443TMC3    H1 6606   0.672   3.689  17.496 -0.1639  1.1773  0.2480
  443TMC3    H2 6607   0.267   3.676  17.328  0.2293  0.9364  0.1795
  443TMC3    C7 6608   0.409   3.640  17.560 -0.6055 -0.7433 -0.2242
  443TMC3    C8 6609   0.357   3.714  17.093  0.1313  0.3235 -0.0971
  443TMC3    O1 6610   0.463   3.679  17.662  0.2352  0.1622 -0.2271
  443TMC3    O2 6611   0.322   3.596  17.076 -0.6319 -0.8205  0.0331
  444MPD2     C 6612   0.878   3.217  17.317 -0.0319 -0.8038  0.6466
  444MPD2    C1 6613   0.847   3.097  17.381  0.2195 -0.4381 -0.2545
  444MPD2    C2 6614   0.932   2.992  17.379 -0.1800 -0.5757  0.2163
  444MPD2    C3 6615   1.055   2.997  17.321 -0.7410  0.0203  0.2335
  444MPD2    C4 6616   1.080   3.108  17.249 -0.7733  0.2931 -0.4460
  444MPD2    C5 6617   0.997   3.217  17.243  0.0720 -0.6490  0.6234
  444MPD2     H 6618   0.915   2.906  17.443 -0.3679 -1.1220 -0.5635
  444MPD2    H1 6619   1.175   3.110  17.196  0.2471  0.7090  1.4159
  444MPD2    H2 6620   0.810   3.301  17.303 -0.5379 -1.2079  0.6974
  444MPD2    H3 6621   1.020   3.301  17.179 -1.0082 -1.0316 -0.2753
  444MPD2     N 6622   1.147   2.889  17.347  0.3253  0.0462 -0.7873
  444MPD2    H5 6623   1.102   2.809  17.390  2.0100 -0.9745 -0.9243
  444MPD2    N1 6624   0.736   3.087  17.463 -0.1808 -0.2101  0.4032
  444MPD2    H7 6625   0.732   3.002  17.518 -0.6430  0.4651  1.4103
  445TMC3    C1 6626   1.349   2.767  17.327 -0.4508  0.1602  0.3359
  445TMC3    C2 6627   1.274   2.660  17.357  0.6640  0.9440  0.2124
  445TMC3    C3 6628   1.352   2.557  17.390 -1.1533  0.2856 -0.4553
  445TMC3    C4 6629   1.485   2.767  17.315 -0.7065  0.1397  0.2283
  445TMC3    C5 6630   1.553   2.657  17.346 -0.7760 -0.5554  0.2278
  445TMC3    C6 6631   1.490   2.546  17.389 -0.2014  0.1063 -0.7227
  445TMC3     C 6632   1.278   2.887  17.299 -0.1184 -0.5918  0.2791
  445TMC3     O 6633   1.353   2.984  17.292  0.0993  0.0300  0.0056
  445TMC3     H 6634   1.171   2.626  17.352  1.0003  0.1290 -1.0034
  445TMC3    H1 6635   1.532   2.862  17.291  1.0380 -1.0512 -1.0436
  445TMC3    H2 6636   1.541   2.451  17.396 -1.8718 -0.4678  3.5945
  445TMC3    C7 6637   1.686   2.656  17.296 -0.1191  0.4526  0.1693
  445TMC3    C8 6638   1.273   2.442  17.450 -0.6374  0.2921  0.1223
  445TMC3    O1 6639   1.738   2.761  17.252  0.5682  0.1157 -0.2723
  445TMC3    O2 6640   1.161   2.421  17.406  0.4207 -0.2693 -0.2207
  446MPD2     C 6641   0.857   4.231  11.468 -0.2261 -0.2609 -0.6055
  446MPD2    C1 6642   0.800   4.325  11.379 -0.0125 -0.0198  0.4078
  446MPD2    C2 6643   0.863   4.449  11.373 -0.4620  0.3110  0.2741
  446MPD2    C3 6644   0.984   4.477  11.435  0.0925  0.3479  0.3233
  446MPD2    C4 6645   1.024   4.384  11.525  0.3888  0.7596  0.3679
  446MPD2    C5 6646   0.965   4.262  11.538 -0.0544  1.1098  0.3591
  446MPD2     H 6647   0.825   4.527  11.308 -0.8053  0.7929  1.0452
  446MPD2    H1 6648   1.104   4.406  11.594  0.3559  0.8970  0.3613
  446MPD2    H2 6649   0.815   4.132  11.485 -1.0444  0.1521 -0.2205
  446MPD2    H3 6650   1.000   4.189  11.611  0.1508  2.0695  1.2276
  446MPD2     N 6651   1.051   4.597  11.410 -0.4910 -0.5876 -0.6662
  446MPD2    H5 6652   0.995   4.663  11.356 -1.1267 -2.9871 -2.9669
  446MPD2    N1 6653   0.676   4.291  11.318  0.2737  0.1752 -0.1907
  446MPD2    H7 6654   0.640   4.207  11.363 -0.1308  0.7820  0.6257
  447TMC3    C1 6655   1.252   0.017  11.390  1.0247 -0.1974  0.5448
  447TMC3    C2 6656   1.208   0.054  11.262 -0.0750 -0.2861 -0.6738
  447TMC3    C3 6657   1.305   0.125  11.178 -0.2742 -0.9121  0.3429
  447TMC3    C4 6658   1.380   0.033  11.419 -0.0185  0.4352  0.4197
  447TMC3    C5 6659   1.476   0.091  11.338 -0.8179  0.6585  0.2155
  447TMC3    C6 6660   1.441   0.138  11.213 -0.3621  0.5750 -0.4521
  447TMC3     C 6661   1.188   4.614  11.438  0.1688  0.2994  0.6491
  447TMC3     O 6662   1.274   4.545  11.490  0.4751 -0.5582  0.4392
  447TMC3     H 6663   1.125   0.008  11.211 -0.8888 -0.8128  1.1494
  447TMC3    H1 6664   1.408   0.015  11.522  0.5142 -1.3256 -0.0444
  447TMC3    H2 6665   1.518   0.185  11.154  1.1379 -1.2930  0.0348
  447TMC3    C7 6666   1.616   0.039  11.338  0.4712 -0.6006  0.6755
  447TMC3    C8 6667   1.287   0.102  11.037 -0.5389 -0.2035 -0.1062
  447TMC3    O1 6668   1.677   0.053  11.236  0.2241 -0.7027 -0.5631
  447TMC3    O2 6669   1.173   0.111  10.997  0.0810  0.3028 -0.1161
  448TMC3    C1 6670   4.394   3.953  16.751  0.1932  0.6716  0.0367
  448TMC3    C2 6671   4.361   3.816  16.742 -0.1165 -0.7172  0.0792
  448TMC3    C3 6672   4.440   3.729  16.808  0.5432  0.4356 -1.0036
  448TMC3    C4 6673   4.505   4.002  16.815 -0.5905 -0.5717  0.5460
  448TMC3    C5 6674   4.581   3.911  16.888 -0.5228 -0.0551 -0.7256
  448TMC3    C6 6675   4.543   3.775  16.888 -0.3838  0.1778  0.6577
  448TMC3     C 6676   4.300   4.044  16.688 -0.6452  0.0306 -0.6293
  448TMC3     O 6677   4.284   4.153  16.743  0.1224 -0.0951 -0.1052
  448TMC3     H 6678   4.273   3.775  16.692  0.4876 -2.3241  0.3466
  448TMC3    H1 6679   4.538   4.105  16.813 -0.7700 -0.5078  0.8994
  448TMC3    H2 6680   4.597   3.701  16.947  3.1699  1.0551 -1.4506
  448TMC3    C7 6681   4.682   3.970  16.984  0.7510  0.3576 -0.0911
  448TMC3    C8 6682   4.402   3.588  16.805 -0.3250  0.1984  0.5251
  448TMC3    O1 6683   0.027   4.065  16.952 -0.2069  0.0470 -0.8124
  448TMC3    O2 6684   4.437   3.517  16.900 -0.1223  0.1476 -0.8757
  449MPD2     C 6685   0.829   2.515  14.164  0.0847 -0.4714 -0.3122
  449MPD2    C1 6686   0.733   2.601  14.107 -0.2590  0.0101  0.6978
  449MPD2    C2 6687   0.602   2.572  14.120  0.7609 -0.2847 -0.3417
  449MPD2    C3 6688   0.565   2.461  14.186  0.2454  0.7395  0.4185
  449MPD2    C4 6689   0.656   2.376  14.243  0.5047 -0.0997 -0.0495
  449MPD2    C5 6690   0.792   2.406  14.235  0.1961 -0.0184 -0.8384
  449MPD2     H 6691   0.529   2.640  14.076  0.4060  0.1375  0.9013
  449MPD2    H1 6692   0.624   2.295  14.307  1.8066  0.1078  0.8734
  449MPD2    H2 6693   0.936   2.533  14.162  0.0025 -0.0042 -0.4891
  449MPD2    H3 6694   0.864   2.348  14.291  0.3630  0.7452 -0.2626
  449MPD2     N 6695   0.427   2.439  14.192  0.3956  0.0339  0.8804
  449MPD2    H5 6696   0.369   2.503  14.140  1.7414  0.3505 -0.2317
  449MPD2    N1 6697   0.773   2.722  14.054  0.5372 -0.5043  0.1357
  449MPD2    H7 6698   0.698   2.788  14.034 -0.2408 -1.3913  0.1382
  450TMC3    C1 6699   0.877   2.899  13.965  0.8084  0.6906 -0.3637
  450TMC3    C2 6700   0.917   2.932  13.840 -0.9964 -0.2725 -0.6669
  450TMC3    C3 6701   0.846   3.031  13.776  0.5994 -0.3418  0.3156
  450TMC3    C4 6702   0.771   2.963  14.024 -0.8194  0.5925  0.3837
  450TMC3    C5 6703   0.700   3.057  13.958 -0.3470 -0.3539 -0.5042
  450TMC3    C6 6704   0.743   3.090  13.834 -0.5759 -0.5336  0.9826
  450TMC3     C 6705   0.900   2.767  14.025  0.2109  0.2282 -0.1696
  450TMC3     O 6706   0.997   2.695  13.997 -0.2619  0.4292 -0.6014
  450TMC3     H 6707   0.998   2.880  13.789  0.9902  0.2504  1.9604
  450TMC3    H1 6708   0.759   2.938  14.128 -3.3645 -0.8430 -0.2709
  450TMC3    H2 6709   0.687   3.168  13.784  0.9030  0.7352  1.3211
  450TMC3    C7 6710   0.566   3.000  13.964  0.1945  0.3492  0.2771
  450TMC3    C8 6711   0.913   3.088  13.656  0.7946  0.0057  1.2307
  450TMC3    O1 6712   0.574   2.904  14.031  0.0714 -0.1046  0.1041
  450TMC3    O2 6713   0.885   3.205  13.628 -0.0955 -0.1868  0.2873
  451MPD2     C 6714   1.886   1.427   2.439  0.1895  0.3644  0.4051
  451MPD2    C1 6715   1.859   1.478   2.317 -0.1341 -0.6879  0.4347
  451MPD2    C2 6716   1.921   1.435   2.206  0.3074  0.1099 -0.0120
  451MPD2    C3 6717   2.009   1.323   2.207  0.2285  0.5914 -0.0388
  451MPD2    C4 6718   2.031   1.271   2.334  0.2346  0.0036 -0.1261
  451MPD2    C5 6719   1.983   1.330   2.445 -0.6915 -0.1254  0.7617
  451MPD2     H 6720   1.886   1.475   2.111 -0.3695 -0.8878 -0.1885
  451MPD2    H1 6721   2.088   1.179   2.341 -2.3977 -1.6445 -0.4853
  451MPD2    H2 6722   1.834   1.456   2.529  0.2131 -1.2761  0.9557
  451MPD2    H3 6723   1.997   1.286   2.543  0.0140  1.0554  1.1974
  451MPD2     N 6724   2.065   1.254   2.097 -0.0445 -0.1755  0.2287
  451MPD2    H5 6725   2.127   1.178   2.124  0.7787  1.3300  2.5916
  451MPD2    N1 6726   1.759   1.577   2.314 -0.7385  0.2224 -0.4742
  451MPD2    H7 6727   1.723   1.614   2.401 -0.0270 -0.5949  0.1585
  452TMC3    C1 6728   2.108   1.205   1.868  0.7703 -0.0192  0.4838
  452TMC3    C2 6729   2.206   1.114   1.906 -0.0691 -0.5485 -0.9691
  452TMC3    C3 6730   2.244   1.016   1.822 -0.8188 -0.2901  0.3837
  452TMC3    C4 6731   2.037   1.191   1.748  0.4712  0.5265  0.3187
  452TMC3    C5 6732   2.076   1.086   1.669 -0.3994 -0.1601  0.0472
  452TMC3    C6 6733   2.183   1.006   1.702  0.0193  0.0790 -0.6813
  452TMC3     C 6734   2.054   1.295   1.967 -0.1073  0.4898  0.4789
  452TMC3     O 6735   1.983   1.383   1.928  0.3723 -0.1361  0.1774
  452TMC3     H 6736   2.271   1.128   1.991 -0.6991  1.1466 -0.7673
  452TMC3    H1 6737   1.970   1.269   1.715 -0.7233 -0.6436 -0.0639
  452TMC3    H2 6738   2.221   0.929   1.636 -0.9392  1.9409 -3.3704
  452TMC3    C7 6739   2.016   1.080   1.537  0.5004 -0.2426  0.2842
  452TMC3    C8 6740   2.374   0.949   1.846 -0.0105 -0.4427  0.9514
  452TMC3    O1 6741   1.941   1.169   1.502  0.1165  0.5857  0.1181
  452TMC3    O2 6742   2.449   1.000   1.931 -0.4055  0.3296  0.3755
  453TMC3    C1 6743   3.312   3.467  12.262  0.6836 -0.5462 -1.0003
  453TMC3    C2 6744   3.212   3.409  12.347  0.2423 -0.0452  0.4460
  453TMC3    C3 6745   3.143   3.301  12.303  0.5103 -0.1376  0.0934
  453TMC3    C4 6746   3.327   3.427  12.132 -0.2248  0.3300  0.2620
  453TMC3    C5 6747   3.238   3.325  12.086 -0.8506  1.5905 -0.0433
  453TMC3    C6 6748   3.148   3.260  12.169  0.4569 -0.0179 -0.6490
  453TMC3     C 6749   3.396   3.574  12.299 -0.1242 -0.6946  0.2437
  453TMC3     O 6750   3.503   3.566  12.245  0.0455  0.3573 -0.1542
  453TMC3     H 6751   3.218   3.427  12.454  2.2142 -0.2827  0.3668
  453TMC3    H1 6752   3.400   3.476  12.068  0.4752 -0.1520  0.6904
  453TMC3    H2 6753   3.076   3.185  12.138  0.0401  0.3740 -0.6303
  453TMC3    C7 6754   3.243   3.298  11.948  0.0989  0.1932  0.0971
  453TMC3    C8 6755   3.102   3.199  12.405  0.0586  0.5115  0.8068
  453TMC3    O1 6756   3.351   3.306  11.891  0.8687 -0.5664 -0.4889
  453TMC3    O2 6757   3.081   3.233  12.519 -0.3115 -0.5967 -0.0577
  454MPD2     C 6758   1.913   2.456  16.575  0.6785 -0.5975  0.0110
  454MPD2    C1 6759   1.888   2.589  16.558  0.1638 -0.5508 -0.9350
  454MPD2    C2 6760   1.856   2.667  16.669  0.3078 -0.3779  0.3518
  454MPD2    C3 6761   1.823   2.599  16.785  0.3283 -0.1545  0.3732
  454MPD2    C4 6762   1.809   2.455  16.784  0.8419  0.4389  0.8057
  454MPD2    C5 6763   1.874   2.391  16.686 -0.1768 -0.1851  0.2433
  454MPD2     H 6764   1.842   2.774  16.662 -0.4015 -0.3941  1.5230
  454MPD2    H1 6765   1.768   2.403  16.870 -1.6399  0.5742 -0.2957
  454MPD2    H2 6766   1.946   2.384  16.501 -1.3770 -0.2878 -1.1874
  454MPD2    H3 6767   1.891   2.284  16.685 -1.2184 -0.3356 -2.1571
  454MPD2     N 6768   1.761   2.666  16.895  0.1347 -0.1434  0.0831
  454MPD2    H5 6769   1.697   2.605  16.946 -1.4881  2.8115  1.5463
  454MPD2    N1 6770   1.922   2.664  16.442  0.0215  0.1223 -0.1559
  454MPD2    H7 6771   1.898   2.762  16.449 -2.2808 -0.3252 -1.6246
  455TMC3    C1 6772   1.650   2.848  16.971 -0.6150 -0.7358  0.0438
  455TMC3    C2 6773   1.665   2.970  17.032  0.4459 -0.1549  0.9729
  455TMC3    C3 6774   1.562   3.059  17.039  0.1152 -0.2153 -0.2471
  455TMC3    C4 6775   1.538   2.815  16.904  0.9478  0.3300  0.4550
  455TMC3    C5 6776   1.443   2.914  16.898  0.2872  0.1938  0.0715
  455TMC3    C6 6777   1.451   3.031  16.971 -0.1916  0.0721  0.5657
  455TMC3     C 6778   1.774   2.797  16.916  0.1957  0.1284 -0.3462
  455TMC3     O 6779   1.859   2.872  16.872 -0.0015 -0.0364 -0.0562
  455TMC3     H 6780   1.765   2.987  17.072  0.5167 -1.5880  1.4376
  455TMC3    H1 6781   1.523   2.716  16.863  0.1370 -0.3836  2.4937
  455TMC3    H2 6782   1.362   3.093  16.966 -1.2689 -1.5751 -0.9056
  455TMC3    C7 6783   1.321   2.870  16.825  0.7340  0.3979  0.2088
  455TMC3    C8 6784   1.581   3.186  17.096 -0.2256 -0.2551 -0.9324
  455TMC3    O1 6785   1.212   2.909  16.860 -0.6574 -0.1255  0.4056
  455TMC3    O2 6786   1.668   3.198  17.179  0.3816 -0.0955  0.1397
  456MPD2     C 6787   4.332   2.194  16.559  0.0990  0.4519  0.0725
  456MPD2    C1 6788   4.424   2.215  16.659  0.1411  0.6534 -0.3356
  456MPD2    C2 6789   4.389   2.295  16.764  0.0059  0.0159 -0.1934
  456MPD2    C3 6790   4.277   2.381  16.753 -0.6460 -0.5593 -0.4357
  456MPD2    C4 6791   4.186   2.361  16.651  0.0387  0.8813 -0.5193
  456MPD2    C5 6792   4.211   2.262  16.559  0.7042 -0.2814 -0.4411
  456MPD2     H 6793   4.456   2.312  16.847  0.5765 -0.9419 -0.4649
  456MPD2    H1 6794   4.098   2.423  16.644 -0.2965  0.3214 -1.2662
  456MPD2    H2 6795   4.362   2.128  16.478  2.1366 -0.9443  1.9935
  456MPD2    H3 6796   4.137   2.240  16.484 -1.6490 -1.7064  2.3094
  456MPD2     N 6797   4.252   2.479  16.853  0.0676  0.0678  0.5129
  456MPD2    H5 6798   4.315   2.473  16.933  1.6038 -0.7505 -0.7554
  456MPD2    N1 6799   4.551   2.151  16.651  0.1049 -0.1064 -0.0662
  456MPD2    H7 6800   4.554   2.081  16.578 -0.9011 -0.5124  0.2793
  457TMC3    C1 6801   4.203   2.695  16.920 -0.0367  0.2127  0.3227
  457TMC3    C2 6802   4.207   2.817  16.859  0.1254 -0.0611 -0.2180
  457TMC3    C3 6803   4.214   2.922  16.943  0.0068  0.1643 -0.0377
  457TMC3    C4 6804   4.220   2.672  17.055  0.0376 -0.0275 -0.7786
  457TMC3    C5 6805   4.220   2.787  17.142  0.2302  1.0545  0.2221
  457TMC3    C6 6806   4.214   2.911  17.084  0.1043  0.5280  0.1772
  457TMC3     C 6807   4.176   2.589  16.827 -0.5063  0.3836 -0.2256
  457TMC3     O 6808   4.130   2.626  16.721 -1.0073 -0.4554 -0.0273
  457TMC3     H 6809   4.202   2.826  16.751  4.3270 -0.1805 -0.4424
  457TMC3    H1 6810   4.200   2.573  17.095  1.3738 -0.2703 -0.7194
  457TMC3    H2 6811   4.216   3.002  17.143 -2.5539  1.0963 -0.6328
  457TMC3    C7 6812   4.266   2.772  17.279  0.4802  1.0180 -0.1016
  457TMC3    C8 6813   4.247   3.055  16.888  0.6570 -0.2472 -0.1356
  457TMC3    O1 6814   4.243   2.671  17.344  0.0329 -0.0234  0.4633
  457TMC3    O2 6815   4.302   3.125  16.972  0.6772 -0.2001 -0.2096
  458MPD2     C 6816   2.500   2.348  12.354 -0.0362  0.0853 -0.2517
  458MPD2    C1 6817   2.396   2.342  12.442 -0.5394 -0.0747 -0.8886
  458MPD2    C2 6818   2.288   2.261  12.405 -0.0773 -0.2777  0.4441
  458MPD2    C3 6819   2.272   2.200  12.280  0.2508 -0.0415  1.1310
  458MPD2    C4 6820   2.383   2.209  12.193  0.0480  0.4554 -0.4299
  458MPD2    C5 6821   2.492   2.280  12.235  0.5687 -0.0820  0.3914
  458MPD2     H 6822   2.201   2.256  12.470  0.0433 -3.3812  0.3546
  458MPD2    H1 6823   2.384   2.164  12.095  1.6752 -1.6205  0.5201
  458MPD2    H2 6824   2.576   2.422  12.377 -0.7631 -0.0787  2.6950
  458MPD2    H3 6825   2.578   2.288  12.170  0.8215  1.7677  0.9337
  458MPD2     N 6826   2.149   2.136  12.250 -1.0528  0.3454 -0.0606
  458MPD2    H5 6827   2.078   2.135  12.323 -0.2716  2.4679  0.7001
  458MPD2    N1 6828   2.404   2.418  12.570 -0.1285 -0.1440  0.2332
  458MPD2    H7 6829   2.484   2.478  12.583  0.5078 -0.9496  0.0362
  459TMC3    C1 6830   2.352   2.484  12.796 -0.0137 -0.0318  0.6342
  459TMC3    C2 6831   2.416   2.603  12.778  0.0228  0.0307 -0.1738
  459TMC3    C3 6832   2.450   2.679  12.887 -0.1044  0.4286  0.7908
  459TMC3    C4 6833   2.325   2.424  12.915  0.2903  0.3491  0.1003
  459TMC3    C5 6834   2.361   2.496  13.024  0.0610 -0.0878 -0.7145
  459TMC3    C6 6835   2.423   2.626  13.011  0.0640 -0.1458  0.2365
  459TMC3     C 6836   2.319   2.398  12.680  0.2499  0.2693  0.1149
  459TMC3     O 6837   2.228   2.315  12.690  0.1786  0.3493  0.5355
  459TMC3     H 6838   2.436   2.644  12.680  0.1472 -1.7827 -0.8994
  459TMC3    H1 6839   2.291   2.321  12.924  0.1193  0.2582 -1.6342
  459TMC3    H2 6840   2.455   2.689  13.093  0.5880  0.2216 -0.2561
  459TMC3    C7 6841   2.351   2.427  13.152  0.5762 -0.2291  0.0217
  459TMC3    C8 6842   2.536   2.793  12.864  0.1697  0.1925  0.1220
  459TMC3    O1 6843   2.325   2.309  13.153  0.0436 -0.9658 -0.0880
  459TMC3    O2 6844   2.598   2.841  12.957 -0.9081  0.0162 -0.0438
  460MPD2     C 6845   1.536   0.000  10.780  0.3695 -0.2056  0.2855
  460MPD2    C1 6846   1.423   0.056  10.828 -0.2039 -0.3221 -1.4397
  460MPD2    C2 6847   1.328   0.103  10.736 -0.9003  0.4096  0.2794
  460MPD2    C3 6848   1.343   0.079  10.598  0.1720 -0.6244 -0.4050
  460MPD2    C4 6849   1.453   0.016  10.555 -0.0678 -0.5083 -0.6893
  460MPD2    C5 6850   1.552   4.700  10.642  0.0030  0.2918  0.2260
  460MPD2     H 6851   1.234   0.149  10.765  0.1024  1.2376  2.2373
  460MPD2    H1 6852   1.472   4.714  10.452 -0.0885 -0.6527 -0.6576
  460MPD2    H2 6853   1.611   4.683  10.847 -0.0764 -1.9501 -0.2843
  460MPD2    H3 6854   1.645   4.658  10.606 -0.3453  0.0034 -0.3357
  460MPD2     N 6855   1.250   0.135  10.508  0.2750  0.4477  0.1155
  460MPD2    H5 6856   1.190   0.212  10.537 -0.5985 -0.4627  0.7865
  460MPD2    N1 6857   1.409   0.064  10.974 -0.6115  0.7890 -0.4940
  460MPD2    H7 6858   1.492   0.044  11.029 -0.3777  0.4999 -0.9455
  461TMC3    C1 6859   1.141   0.146  10.288  0.3640  0.2037 -0.2156
  461TMC3    C2 6860   1.107   0.084  10.170 -0.1522  0.0736  0.8787
  461TMC3    C3 6861   1.022   0.152  10.083 -0.7095 -0.2940  0.4946
  461TMC3    C4 6862   1.075   0.258  10.327 -0.1551 -0.8307  0.3566
  461TMC3    C5 6863   0.995   0.330  10.238 -0.1018  0.2820 -0.3226
  461TMC3    C6 6864   0.965   0.274  10.116  0.9408  0.3699  0.0554
  461TMC3     C 6865   1.238   0.087  10.375  0.3179  0.6037  0.0537
  461TMC3     O 6866   1.285   4.703  10.337 -0.8539  0.0953 -0.5586
  461TMC3     H 6867   1.156   4.716  10.140 -0.7132 -0.2768  1.0336
  461TMC3    H1 6868   1.081   0.301  10.426 -1.2723 -1.3851  0.6629
  461TMC3    H2 6869   0.906   0.328  10.043  1.4028  1.7192  0.6872
  461TMC3    C7 6870   0.918   0.458  10.270 -0.2308  0.0640  0.0174
  461TMC3    C8 6871   0.998   0.092   9.948  0.2614  0.2668 -0.6112
  461TMC3    O1 6872   0.842   0.502  10.186 -0.4098 -0.1005  0.0641
  461TMC3    O2 6873   1.055   4.712   9.917 -0.0975 -0.6939 -0.4007
  462TMC3    C1 6874   0.591   1.422   0.694 -0.6631  0.2549 -0.1695
  462TMC3    C2 6875   0.730   1.449   0.704  1.0343 -0.9963 -0.1106
  462TMC3    C3 6876   0.811   1.345   0.720  0.4317  0.3118  0.1780
  462TMC3    C4 6877   0.535   1.299   0.725  0.4786 -0.3015 -1.0301
  462TMC3    C5 6878   0.631   1.202   0.764 -0.3069 -0.3925 -0.5502
  462TMC3    C6 6879   0.765   1.218   0.755  0.0881  0.0901  0.2909
  462TMC3     C 6880   0.509   1.510   0.624  0.1726  0.0911 -0.9016
  462TMC3     O 6881   0.393   1.483   0.635  0.6782 -0.4940  0.4378
  462TMC3     H 6882   0.764   1.549   0.678  3.6530 -2.2695 -1.6107
  462TMC3    H1 6883   0.428   1.283   0.717  0.1018  2.2837 -1.2842
  462TMC3    H2 6884   0.822   1.128   0.734  0.4443  0.0482  1.4177
  462TMC3    C7 6885   0.584   1.079   0.810 -0.7067 -0.6306 -0.3722
  462TMC3    C8 6886   0.951   1.352   0.683  0.2901  0.8824  0.2516
  462TMC3    O1 6887   0.668   0.996   0.840  0.3744 -0.0058  0.0795
  462TMC3    O2 6888   1.000   1.458   0.631  0.5546  0.1334 -0.0036
  463MPD2     C 6889   3.068   4.404   2.542  0.3098  0.3051  0.9282
  463MPD2    C1 6890   2.985   4.439   2.435 -0.4579 -0.0964 -0.1308
  463MPD2    C2 6891   3.041   4.524   2.341 -0.6607 -0.0766  0.3466
  463MPD2    C3 6892   3.174   4.567   2.357  0.7159 -0.8700 -0.2072
  463MPD2    C4 6893   3.245   4.541   2.473 -1.3761 -0.5968  0.4103
  463MPD2    C5 6894   3.193   4.453   2.560 -0.0850  0.5230  0.8302
  463MPD2     H 6895   2.987   4.551   2.251 -0.7552 -1.7467 -0.0948
  463MPD2    H1 6896   3.342   4.586   2.490 -0.5617 -1.3712 -2.1900
  463MPD2    H2 6897   3.035   4.342   2.625  0.2365 -1.0296 -0.0935
  463MPD2    H3 6898   3.255   4.431   2.646  0.0587  0.4440  0.7055
  463MPD2     N 6899   3.250   4.640   2.268 -0.2111 -0.4508  0.1844
  463MPD2    H5 6900   3.349   4.622   2.283  0.2402  1.4178 -0.5850
  463MPD2    N1 6901   2.851   4.388   2.423 -0.2275  0.7535 -0.1199
  463MPD2    H7 6902   2.801   4.403   2.336 -0.7275 -0.1809  0.0099
  464TMC3    C1 6903   2.656   4.285   2.467  0.4083 -0.4818  0.2377
  464TMC3    C2 6904   2.577   4.384   2.404  0.6670 -0.0370  0.3058
  464TMC3    C3 6905   2.444   4.355   2.387  0.2046  0.1050 -0.2608
  464TMC3    C4 6906   2.608   4.174   2.519 -0.5782  0.1944 -0.6213
  464TMC3    C5 6907   2.475   4.149   2.493 -0.7992  0.1780 -0.1418
  464TMC3    C6 6908   2.392   4.229   2.417 -0.0852  0.3486 -0.3790
  464TMC3     C 6909   2.786   4.316   2.519  0.5739 -0.0658 -0.2946
  464TMC3     O 6910   2.816   4.283   2.634  0.4682 -0.5887 -0.1238
  464TMC3     H 6911   2.612   4.486   2.397  0.5939  0.1320  2.2696
  464TMC3    H1 6912   2.661   4.103   2.582 -1.4640  0.6757  0.6719
  464TMC3    H2 6913   2.286   4.208   2.406 -0.5398  2.2153  0.5123
  464TMC3    C7 6914   2.436   4.011   2.523 -0.2488 -0.0710  0.1536
  464TMC3    C8 6915   2.359   4.434   2.309  0.0448 -0.0932  0.3860
  464TMC3    O1 6916   2.509   3.951   2.600 -0.4961 -0.7104 -0.1903
  464TMC3    O2 6917   2.418   4.510   2.230  0.0454 -0.0748  0.8379
  465MPD2     C 6918   3.711   2.673  16.719  0.2690 -0.6878 -0.0223
  465MPD2    C1 6919   3.628   2.689  16.832 -0.1497  0.2863  0.3885
  465MPD2    C2 6920   3.494   2.705  16.812 -0.0101  0.4536 -0.0759
  465MPD2    C3 6921   3.441   2.729  16.686 -0.4146  0.0095  0.2225
  465MPD2    C4 6922   3.527   2.720  16.584  0.1849  0.0082 -0.1131
  465MPD2    C5 6923   3.660   2.692  16.593  0.3158 -0.8953  0.4401
  465MPD2     H 6924   3.426   2.712  16.895 -0.2368 -3.6343  0.0716
  465MPD2    H1 6925   3.490   2.719  16.482 -1.3064 -0.8624  0.4367
  465MPD2    H2 6926   3.817   2.652  16.727  0.4283  0.5830  1.2446
  465MPD2    H3 6927   3.701   2.658  16.498 -1.2104 -1.7209  0.0725
  465MPD2     N 6928   3.309   2.769  16.665  0.0033  0.6708 -0.8971
  465MPD2    H5 6929   3.258   2.792  16.750  1.8795 -0.4901  0.5352
  465MPD2    N1 6930   3.666   2.668  16.964  0.3895 -0.6276  0.0588
  465MPD2    H7 6931   3.589   2.657  17.029  1.1960  0.5668  1.2127
  466TMC3    C1 6932   2.969   2.896  16.752 -0.9656 -0.5589  0.1761
  466TMC3    C2 6933   2.954   3.032  16.715  0.1888  0.2722 -0.6541
  466TMC3    C3 6934   2.999   3.061  16.596  0.1553 -0.1062 -0.6700
  466TMC3    C4 6935   3.061   2.818  16.694  0.1779  0.2876  0.7310
  466TMC3    C5 6936   3.119   2.865  16.582  0.1133  0.2299 -0.1688
  466TMC3    C6 6937   3.082   2.981  16.529 -0.0668  0.3038 -0.0601
  466TMC3     C 6938   2.923   2.860  16.883 -0.3540 -0.6708  0.5079
  466TMC3     O 6939   3.000   2.797  16.958 -0.0049 -0.8268 -0.1761
  466TMC3     H 6940   2.892   3.097  16.775  0.9117  1.9854 -1.7893
  466TMC3    H1 6941   3.075   2.717  16.732  0.3111  0.3328  0.8029
  466TMC3    H2 6942   3.129   3.000  16.433  0.8945  0.6470  0.4797
  466TMC3    C7 6943   3.244   2.807  16.550  0.1022 -0.0424 -0.0912
  466TMC3    C8 6944   3.001   3.204  16.558 -0.3136  0.3001 -0.1945
  466TMC3    O1 6945   3.290   2.816  16.436 -0.2818  0.4080  0.1299
  466TMC3    O2 6946   3.050   3.219  16.448 -0.0455  0.2605 -0.1269
  467TMC3    C1 6947   3.663   2.348  13.691 -0.4423 -0.3950  0.3812
  467TMC3    C2 6948   3.737   2.343  13.574  0.2867 -0.0740  0.5863
  467TMC3    C3 6949   3.804   2.229  13.551  0.2625  0.8640 -0.8553
  467TMC3    C4 6950   3.657   2.243  13.780  0.3820  0.1604  0.1285
  467TMC3    C5 6951   3.723   2.133  13.746 -0.4771 -0.0654  0.1163
  467TMC3    C6 6952   3.801   2.122  13.635  0.3795 -0.3517 -0.3667
  467TMC3     C 6953   3.586   2.463  13.738  0.7925 -0.2265 -0.5153
  467TMC3     O 6954   3.485   2.436  13.802  0.1911 -0.1308  0.0972
  467TMC3     H 6955   3.754   2.433  13.517  0.8226 -0.9234 -0.5902
  467TMC3    H1 6956   3.603   2.238  13.874 -2.1695  0.4481 -1.3332
  467TMC3    H2 6957   3.857   2.029  13.627  0.2008 -0.4177 -0.8314
  467TMC3    C7 6958   3.759   2.035  13.850 -0.2124  1.2033 -0.5210
  467TMC3    C8 6959   3.921   2.252  13.466  0.4139 -0.5539  0.3833
  467TMC3    O1 6960   3.879   2.005  13.859  0.0060  0.6842  0.3361
  467TMC3    O2 6961   3.943   2.356  13.413 -0.1561  0.2097 -0.2749
  468MPD2     C 6962   3.452   0.061  11.368  0.3476  0.0343  0.2197
  468MPD2    C1 6963   3.537   4.679  11.345  0.1155 -0.0344 -0.3724
  468MPD2    C2 6964   3.487   4.560  11.300  0.3476 -0.2805  0.2155
  468MPD2    C3 6965   3.351   4.539  11.294 -0.2041 -0.2954  0.0876
  468MPD2    C4 6966   3.267   4.649  11.327  0.0302  0.7679 -0.0803
  468MPD2    C5 6967   3.319   0.048  11.346 -0.4504 -0.4698 -0.1811
  468MPD2     H 6968   3.552   4.485  11.257  0.2535  0.1871 -0.7493
  468MPD2    H1 6969   3.159   4.646  11.320  0.2035 -0.9665 -2.0726
  468MPD2    H2 6970   3.482   0.159  11.404  2.8923 -0.2480 -1.0882
  468MPD2    H3 6971   3.256   0.136  11.353  1.0590  0.6512 -0.8876
  468MPD2     N 6972   3.303   4.408  11.260 -0.0778 -0.0602  0.1965
  468MPD2    H5 6973   3.369   4.333  11.237  0.0590 -0.2542  1.2229
  468MPD2    N1 6974   3.677   4.693  11.344 -0.2371  0.3563  0.0833
  468MPD2    H7 6975   3.725   4.615  11.301 -1.5712 -0.9393  0.9187
  469TMC3    C1 6976   3.892   0.069  11.352  0.2935 -0.2124  0.6820
  469TMC3    C2 6977   3.936   4.679  11.414  0.3836  0.0582 -0.2201
  469TMC3    C3 6978   4.059   4.684  11.467  0.4978 -0.4524 -0.3492
  469TMC3    C4 6979   3.970   0.185  11.336 -0.0007 -0.2982 -0.3695
  469TMC3    C5 6980   4.101   0.182  11.391 -0.1548  0.8174 -1.0074
  469TMC3    C6 6981   4.143   0.068  11.450  0.1627 -0.4465  0.0265
  469TMC3     C 6982   3.746   0.088  11.353  0.1247  0.6664  0.2698
  469TMC3     O 6983   3.698   0.200  11.364  0.2507 -0.4111  0.1599
  469TMC3     H 6984   3.872   4.594  11.435  2.1773 -1.1081  0.5425
  469TMC3    H1 6985   3.923   0.270  11.289  3.4427  2.1798  0.6740
  469TMC3    H2 6986   4.245   0.061  11.487 -0.5696 -0.0047  2.1255
  469TMC3    C7 6987   4.152   0.308  11.440 -0.2143  0.2010 -0.4838
  469TMC3    C8 6988   4.073   4.601  11.580  0.8077 -0.0256  0.3281
  469TMC3    O1 6989   4.260   0.284  11.486  0.5639  0.1482 -0.1672
  469TMC3    O2 6990   4.028   4.488  11.583 -0.1667  0.6946  0.0222
  470TMC3    C1 6991   0.450   0.307   1.578 -0.3628  0.3868  0.3192
  470TMC3    C2 6992   0.513   0.418   1.538 -0.1856 -0.1565  0.2205
  470TMC3    C3 6993   0.608   0.469   1.621  0.3794  0.1603  0.5805
  470TMC3    C4 6994   0.484   0.233   1.686 -0.9985  0.9124 -0.3913
  470TMC3    C5 6995   0.583   0.287   1.761  0.1850 -0.1329 -0.5364
  470TMC3    C6 6996   0.653   0.402   1.733  0.1903  0.4648  0.7223
  470TMC3     C 6997   0.352   0.257   1.483 -0.6603  0.1292  0.1330
  470TMC3     O 6998   0.354   0.303   1.370  0.0430  0.1295 -0.1886
  470TMC3     H 6999   0.464   0.478   1.462  1.6956 -0.1216 -0.9627
  470TMC3    H1 7000   0.462   0.127   1.694  0.6534  0.6640  0.9436
  470TMC3    H2 7001   0.722   0.458   1.795  1.2205 -1.5345  1.3609
  470TMC3    C7 7002   0.603   0.237   1.897  0.3319  0.2666 -0.4614
  470TMC3    C8 7003   0.636   0.610   1.608  0.8744  0.0839 -0.2470
  470TMC3    O1 7004   0.699   0.285   1.958  0.2197 -0.1694  0.1063
  470TMC3    O2 7005   0.665   0.671   1.711  1.1955 -0.3799  0.0854
  471MPD2     C 7006   1.014   2.022  17.012 -0.0288 -0.3465 -1.1155
  471MPD2    C1 7007   1.095   1.914  17.025 -0.1599  0.0255 -0.5372
  471MPD2    C2 7008   1.135   1.876  17.148  0.6683  0.4939  0.3993
  471MPD2    C3 7009   1.095   1.940  17.264  0.4825 -0.7007 -0.2484
  471MPD2    C4 7010   1.005   2.040  17.256 -0.1933 -0.1421  0.6167
  471MPD2    C5 7011   0.967   2.081  17.130 -0.1005  0.7612  0.0291
  471MPD2     H 7012   1.202   1.790  17.155 -0.5462 -0.5808 -1.3107
  471MPD2    H1 7013   0.973   2.091  17.346 -1.0093  1.0381 -0.3443
  471MPD2    H2 7014   0.994   2.066  16.916  1.6583  0.0986 -1.2459
  471MPD2    H3 7015   0.902   2.167  17.113 -1.6919 -0.2849  0.8161
  471MPD2     N 7016   1.139   1.892  17.390 -0.7195 -0.2877  0.4552
  471MPD2    H5 7017   1.088   1.926  17.471  1.0474 -0.2054  1.5295
  471MPD2    N1 7018   1.140   1.842  16.917  0.6277  0.0907  0.1319
  471MPD2    H7 7019   1.200   1.766  16.947  0.9582  0.4655  0.4128
  472TMC3    C1 7020   1.131   1.731  16.711  0.0517 -0.1792 -0.1968
  472TMC3    C2 7021   1.084   1.736  16.579 -0.4448  0.2002 -0.1077
  472TMC3    C3 7022   1.044   1.620  16.512 -0.3716 -0.1063  0.8314
  472TMC3    C4 7023   1.113   1.618  16.788 -0.6215  0.1717 -1.0071
  472TMC3    C5 7024   1.069   1.504  16.720  0.0557  0.1005 -0.2449
  472TMC3    C6 7025   1.039   1.502  16.581  0.0911 -0.1571  0.3240
  472TMC3     C 7026   1.102   1.852  16.783 -0.5031 -0.8195 -0.3368
  472TMC3     O 7027   1.016   1.922  16.725  0.4793  0.5639 -0.1972
  472TMC3     H 7028   1.080   1.830  16.526  1.8134  0.5912  0.4159
  472TMC3    H1 7029   1.118   1.609  16.896  0.2606 -1.4844 -1.1820
  472TMC3    H2 7030   1.005   1.416  16.526  0.5390 -0.6000  0.7344
  472TMC3    C7 7031   1.016   1.397  16.813  0.0882  0.4842 -0.2502
  472TMC3    C8 7032   0.921   1.629  16.441 -0.3590 -0.0154  0.1771
  472TMC3    O1 7033   1.064   1.373  16.923  0.1021 -0.2867  0.4975
  472TMC3    O2 7034   0.922   1.588  16.325  0.2195  0.3351  0.0493
  473MPD2     C 7035   0.870   4.000  14.551  0.2796  0.2585  0.3199
  473MPD2    C1 7036   0.810   4.120  14.515 -0.3170  0.0746  0.7523
  473MPD2    C2 7037   0.810   4.230  14.597 -0.0047  0.2323  0.4660
  473MPD2    C3 7038   0.888   4.223  14.714  0.5215 -0.1329 -0.0705
  473MPD2    C4 7039   0.956   4.108  14.750 -0.0308 -0.0492 -0.3874
  473MPD2    C5 7040   0.945   4.001  14.665  0.1321 -0.1706 -0.3695
  473MPD2     H 7041   0.753   4.315  14.562 -0.9158 -0.0395  1.2837
  473MPD2    H1 7042   1.026   4.097  14.832  0.0435  0.0406 -0.4374
  473MPD2    H2 7043   0.877   3.920  14.478  0.2596  0.0362  0.5620
  473MPD2    H3 7044   1.003   3.913  14.688 -0.4207 -0.6512 -0.8280
  473MPD2     N 7045   0.897   4.328  14.807  0.0249  0.6401 -0.0513
  473MPD2    H5 7046   0.957   4.315  14.887  0.8334  1.9024 -0.4479
  473MPD2    N1 7047   0.758   4.138  14.381  0.1601  0.1800 -0.6344
  473MPD2    H7 7048   0.719   4.229  14.358  1.0025  1.2508  2.2085
  474TMC3    C1 7049   0.822   4.527  14.922  0.1350  0.0142 -0.2787
  474TMC3    C2 7050   0.709   4.596  14.952 -0.7258 -0.0149 -0.0998
  474TMC3    C3 7051   0.720   4.701  15.031  0.4346  0.6948  0.4274
  474TMC3    C4 7052   0.949   4.575  14.961 -0.3467  0.9892  0.0464
  474TMC3    C5 7053   0.955   4.684  15.042  0.2995  0.4681  0.0208
  474TMC3    C6 7054   0.844   0.027  15.070  0.0695 -0.2834 -0.3953
  474TMC3     C 7055   0.809   4.434  14.807 -0.3959 -0.4993 -0.3021
  474TMC3     O 7056   0.710   4.456  14.736  0.5736 -0.4337 -0.1715
  474TMC3     H 7057   0.612   4.553  14.931 -1.8717  1.2949  2.4779
  474TMC3    H1 7058   1.045   4.544  14.921 -1.2276 -0.2512 -1.1040
  474TMC3    H2 7059   0.841   0.120  15.125 -0.7271 -1.4071  1.5005
  474TMC3    C7 7060   1.085   0.024  15.064  0.1066 -0.1865 -0.4384
  474TMC3    C8 7061   0.641   0.082  14.970 -0.2620  0.1703 -0.1345
  474TMC3    O1 7062   1.153   0.046  14.963  0.2528  0.0951 -0.3693
  474TMC3    O2 7063   0.528   0.054  14.949 -0.0320  0.0307  0.3005
  475MPD2     C 7064   3.937   2.264  10.729 -0.5678 -0.4558  0.3575
  475MPD2    C1 7065   4.013   2.346  10.647 -0.0846  0.5041  0.3662
  475MPD2    C2 7066   3.951   2.406  10.536  0.3953  0.3479  0.6093
  475MPD2    C3 7067   3.816   2.374  10.507  0.3878  0.0221  0.2905
  475MPD2    C4 7068   3.750   2.279  10.579 -0.2478 -0.0188 -0.1785
  475MPD2    C5 7069   3.811   2.224  10.682  0.8267 -0.4778 -0.1741
  475MPD2     H 7070   4.000   2.483  10.478  3.5816 -1.1861  1.2852
  475MPD2    H1 7071   3.647   2.250  10.561  0.0990 -1.8441  0.8547
  475MPD2    H2 7072   3.983   2.220  10.817 -1.7374  0.3405  1.3621
  475MPD2    H3 7073   3.751   2.157  10.742  2.1937 -2.0708 -0.6102
  475MPD2     N 7074   3.749   2.444  10.400 -0.3109 -0.5560 -0.1836
  475MPD2    H5 7075   3.807   2.509  10.348 -0.0470 -0.0691  0.7356
  475MPD2    N1 7076   4.142   2.393  10.681  0.1017  0.7339 -0.3771
  475MPD2    H7 7077   4.186   2.457  10.615  0.3922  0.7666 -0.1552
  476TMC3    C1 7078   4.319   2.445  10.816 -0.4144  0.2114 -0.3717
  476TMC3    C2 7079   4.369   2.515  10.702 -0.2426 -0.5023  0.5423
  476TMC3    C3 7080   4.454   2.621  10.724  0.3387  0.2864  0.3371
  476TMC3    C4 7081   4.360   2.492  10.937  0.8671  0.2809 -0.4795
  476TMC3    C5 7082   4.419   2.615  10.953 -0.0522 -0.2283 -0.0431
  476TMC3    C6 7083   4.471   2.678  10.846 -1.1324  0.6262 -0.1152
  476TMC3     C 7084   4.205   2.366  10.805  0.0976 -0.3838 -0.1031
  476TMC3     O 7085   4.180   2.296  10.903  0.0878  0.4401 -0.2027
  476TMC3     H 7086   4.354   2.477  10.602  2.1735  0.5146 -0.2016
  476TMC3    H1 7087   4.321   2.457  11.032  0.3338 -2.4515 -1.7341
  476TMC3    H2 7088   4.540   2.762  10.854 -2.3593  1.6370 -0.2314
  476TMC3    C7 7089   4.367   2.703  11.054  0.0117  0.4578  0.0937
  476TMC3    C8 7090   4.515   2.692  10.609  0.0202 -0.3704 -0.1100
  476TMC3    O1 7091   4.347   2.654  11.163  0.1400 -0.4783  0.1324
  476TMC3    O2 7092   4.551   2.805  10.632 -0.0138  0.0824  0.4411
  477MPD2     C 7093   2.091   4.284  11.837 -0.3500  0.4241  0.1045
  477MPD2    C1 7094   1.997   4.184  11.861  0.5434  0.0977  0.3866
  477MPD2    C2 7095   2.001   4.103  11.970  0.1723  1.1051 -0.0568
  477MPD2    C3 7096   2.094   4.125  12.067 -0.2768  0.3970 -0.4656
  477MPD2    C4 7097   2.185   4.226  12.044 -0.0375  0.3203 -0.1085
  477MPD2    C5 7098   2.189   4.298  11.930  0.5273  0.2707  0.0784
  477MPD2     H 7099   1.942   4.014  11.986  0.1629  0.5337 -3.2988
  477MPD2    H1 7100   2.256   4.250  12.123 -2.3173  0.2197  1.9411
  477MPD2    H2 7101   2.101   4.344  11.747  2.3520  0.8349  0.6719
  477MPD2    H3 7102   2.270   4.367  11.907 -1.1336  1.8954 -0.8102
  477MPD2     N 7103   2.093   4.049  12.188  0.4609 -0.1339  0.8020
  477MPD2    H5 7104   2.042   3.961  12.191  0.0367  0.0088 -2.3723
  477MPD2    N1 7105   1.888   4.170  11.778  0.4111 -0.2913 -0.1440
  477MPD2    H7 7106   1.889   4.222  11.691 -1.7297  2.3090  1.3626
  478TMC3    C1 7107   1.673   4.131  11.710  0.4028  0.3661  0.3499
  478TMC3    C2 7108   1.548   4.152  11.758 -1.0285 -0.5656 -0.3181
  478TMC3    C3 7109   1.461   4.229  11.689  0.0780  0.3547  0.0055
  478TMC3    C4 7110   1.708   4.180  11.584 -0.1315  0.0014 -0.4411
  478TMC3    C5 7111   1.615   4.256  11.514 -0.1300  0.0186  0.1589
  478TMC3    C6 7112   1.495   4.284  11.566  0.2866 -0.3088  0.2465
  478TMC3     C 7113   1.777   4.090  11.802  0.6793 -0.4423 -0.2089
  478TMC3     O 7114   1.735   4.026  11.901 -0.0260 -0.2543  0.3778
  478TMC3     H 7115   1.526   4.116  11.858  0.6138 -2.3521 -0.6129
  478TMC3    H1 7116   1.788   4.127  11.533  1.1791  2.2895 -0.7783
  478TMC3    H2 7117   1.416   4.342  11.520  0.3388 -0.1133  0.4042
  478TMC3    C7 7118   1.641   4.272  11.367  1.0815  0.0876 -0.1240
  478TMC3    C8 7119   1.364   4.291  11.777  0.1209  0.2011 -0.5021
  478TMC3    O1 7120   1.746   4.231  11.324  0.0366 -0.0633  0.4798
  478TMC3    O2 7121   1.324   4.232  11.876 -0.0145 -0.1121 -0.0607
  479MPD2     C 7122   0.678   1.185  15.448  0.4263  0.6514 -0.1740
  479MPD2    C1 7123   0.620   1.118  15.553 -0.0724 -0.0222 -0.7410
  479MPD2    C2 7124   0.683   1.105  15.671  0.2024 -0.6508 -0.2259
  479MPD2    C3 7125   0.799   1.181  15.693 -0.2440  0.2810 -0.5443
  479MPD2    C4 7126   0.853   1.258  15.593  0.0895 -0.3976 -0.4519
  479MPD2    C5 7127   0.792   1.254  15.471 -0.1346  0.0438 -1.1352
  479MPD2     H 7128   0.644   1.036  15.745  0.0731  0.1057  0.4171
  479MPD2    H1 7129   0.947   1.306  15.620 -0.4321  0.6870 -0.5609
  479MPD2    H2 7130   0.637   1.187  15.347 -0.7123 -3.0820  0.2132
  479MPD2    H3 7131   0.827   1.319  15.391  0.8081 -0.8180 -1.4226
  479MPD2     N 7132   0.870   1.189  15.811  0.1949  0.1074 -0.2220
  479MPD2    H5 7133   0.957   1.239  15.795  1.7840 -1.7685  2.6667
  479MPD2    N1 7134   0.487   1.057  15.535  0.6640  0.5501 -0.1910
  479MPD2    H7 7135   0.442   1.077  15.447  1.3459  0.3432 -0.5891
  480TMC3    C1 7136   0.524   1.108  16.119 -1.2670 -0.3007 -0.0819
  480TMC3    C2 7137   0.427   1.185  16.059 -0.1951 -0.3991  0.0567
  480TMC3    C3 7138   0.464   1.263  15.958 -0.4041 -0.2482  0.2697
  480TMC3    C4 7139   0.652   1.090  16.064 -0.1171  0.0761  0.6696
  480TMC3    C5 7140   0.681   1.170  15.960  0.4493 -0.7769  0.1073
  480TMC3    C6 7141   0.595   1.270  15.917 -0.0301 -0.0056 -0.8675
  480TMC3     C 7142   0.517   1.039  16.250 -0.3717  0.9674  0.2465
  480TMC3     O 7143   0.605   0.967  16.294 -0.7616  0.8772  0.1504
  480TMC3     H 7144   0.325   1.188  16.093 -0.5519  0.7273 -1.1255
  480TMC3    H1 7145   0.716   1.006  16.088  0.3581  0.3995  0.5221
  480TMC3    H2 7146   0.636   1.341  15.847 -1.1598  0.4016 -1.1092
  480TMC3    C7 7147   0.820   1.181  15.941  0.6671  0.3398 -0.6718
  480TMC3    C8 7148   0.358   1.313  15.867  0.6492  0.0967 -0.6713
  480TMC3    O1 7149   0.884   1.173  16.046  0.2974 -0.0402 -0.0211
  480TMC3    O2 7150   0.242   1.312  15.915  0.3217 -0.0047 -0.5521
  481MPD2     C 7151   2.005   0.540  14.801  0.3452 -0.2195 -0.0194
  481MPD2    C1 7152   1.926   0.654  14.809  0.4239  0.1541  0.3574
  481MPD2    C2 7153   1.914   0.724  14.922 -0.1734 -0.5518  0.6967
  481MPD2    C3 7154   1.967   0.687  15.044  0.0266 -0.0215 -0.6965
  481MPD2    C4 7155   2.045   0.570  15.046  0.8916  0.6433  0.3687
  481MPD2    C5 7156   2.066   0.504  14.925 -0.0254 -0.9698 -0.2064
  481MPD2     H 7157   1.869   0.822  14.909  1.1303 -0.3212 -1.9652
  481MPD2    H1 7158   2.101   0.535  15.132  0.4817 -1.2781 -0.1384
  481MPD2    H2 7159   2.041   0.489  14.713 -0.1860 -1.2163  0.3445
  481MPD2    H3 7160   2.144   0.429  14.928  0.1314 -0.8685 -1.5216
  481MPD2     N 7161   1.949   0.769  15.159  0.2388 -0.0031  0.4728
  481MPD2    H5 7162   1.983   0.739  15.250 -0.4489  0.2132  0.7989
  481MPD2    N1 7163   1.864   0.702  14.689 -0.2538 -0.1698  0.3227
  481MPD2    H7 7164   1.819   0.792  14.698  1.8265  0.5308  3.5740
  482TMC3    C1 7165   1.781   0.722  14.476 -0.3569 -0.1267  0.2886
  482TMC3    C2 7166   1.703   0.658  14.382  0.2112  0.0957 -0.1485
  482TMC3    C3 7167   1.674   0.732  14.270 -0.5205  0.5680 -0.2478
  482TMC3    C4 7168   1.840   0.842  14.453 -0.1309 -0.6141 -0.2344
  482TMC3    C5 7169   1.818   0.906  14.334  0.1476  0.6421 -0.4633
  482TMC3    C6 7170   1.726   0.854  14.248  0.2093  0.0425 -0.0254
  482TMC3     C 7171   1.844   0.636  14.574 -0.5855 -0.2968  0.0277
  482TMC3     O 7172   1.852   0.518  14.563  0.3560 -0.1378  0.0014
  482TMC3     H 7173   1.665   0.557  14.388 -0.6458  0.2985 -2.2674
  482TMC3    H1 7174   1.902   0.887  14.529 -1.2017 -3.3027  2.2656
  482TMC3    H2 7175   1.720   0.895  14.147  1.3818 -3.2414 -1.4269
  482TMC3    C7 7176   1.935   0.980  14.285 -0.6060  0.0680  0.4213
  482TMC3    C8 7177   1.637   0.662  14.153 -0.0392  0.7197 -0.7264
  482TMC3    O1 7178   2.039   0.945  14.335  0.0162  0.3293  0.3038
  482TMC3    O2 7179   1.578   0.723  14.063 -0.6011 -0.6284  0.2818
  483TMC3    C1 7180   0.254   4.296   1.826 -0.2646 -0.0676  0.2301
  483TMC3    C2 7181   0.311   4.404   1.769  1.4007 -0.1158  0.0384
  483TMC3    C3 7182   0.450   4.425   1.778 -0.8746 -0.4174  0.3086
  483TMC3    C4 7183   0.334   4.209   1.899  0.4044 -0.5320 -0.3299
  483TMC3    C5 7184   0.465   4.234   1.909 -1.0144  0.2571  0.5686
  483TMC3    C6 7185   0.533   4.338   1.848  0.3654  0.0919 -0.3217
  483TMC3     C 7186   0.127   4.252   1.779 -0.0483  0.3678  0.3890
  483TMC3     O 7187   0.030   4.322   1.805  0.0840  0.4680 -0.6032
  483TMC3     H 7188   0.250   4.466   1.705  1.6845 -1.2200 -1.2935
  483TMC3    H1 7189   0.294   4.118   1.944  1.3991  0.1160  1.8873
  483TMC3    H2 7190   0.641   4.347   1.855  0.6742 -1.4296 -3.0471
  483TMC3    C7 7191   0.536   4.128   1.985  0.0302  0.6087 -0.0774
  483TMC3    C8 7192   0.498   4.522   1.684 -0.1639 -0.4029 -0.0664
  483TMC3    O1 7193   0.484   4.099   2.086  0.1380  0.4811 -0.3696
  483TMC3    O2 7194   0.418   4.551   1.597  0.4301  0.4772  0.1049
  484MPD2     C 7195   2.582   2.975  12.548 -0.7864  0.1632  0.6259
  484MPD2    C1 7196   2.609   2.941  12.677  0.6956  0.4723  0.1917
  484MPD2    C2 7197   2.695   3.025  12.748  0.2419 -0.4716 -0.2976
  484MPD2    C3 7198   2.772   3.126  12.690  0.5848 -0.3476 -0.9335
  484MPD2    C4 7199   2.753   3.143  12.556 -0.2584 -0.2419  0.7214
  484MPD2    C5 7200   2.656   3.070  12.483  0.9096  0.2089 -0.8416
  484MPD2     H 7201   2.709   3.001  12.852 -0.7874  1.7165  0.3410
  484MPD2    H1 7202   2.813   3.217  12.505  2.2223 -1.6995  1.5100
  484MPD2    H2 7203   2.508   2.923  12.488 -0.5337  1.2142 -0.6066
  484MPD2    H3 7204   2.630   3.089  12.380 -0.5469 -0.2190 -0.5573
  484MPD2     N 7205   2.886   3.178  12.750 -0.5681  0.0209 -0.3245
  484MPD2    H5 7206   2.965   3.191  12.688  0.7550  0.3912  1.4277
  484MPD2    N1 7207   2.538   2.835  12.737 -0.1817 -0.1970  0.1902
  484MPD2    H7 7208   2.469   2.793  12.675 -0.0058  0.7818 -0.6621
  485TMC3    C1 7209   3.057   3.215  12.917 -0.0681  0.3841 -0.1993
  485TMC3    C2 7210   3.110   3.155  13.027 -0.1022  0.0270 -0.1873
  485TMC3    C3 7211   3.249   3.161  13.038 -0.2053 -0.8107 -0.1845
  485TMC3    C4 7212   3.132   3.278  12.817 -0.3811  0.1429 -0.0602
  485TMC3    C5 7213   3.269   3.284  12.839  0.2841 -0.7497  0.0677
  485TMC3    C6 7214   3.327   3.230  12.950  0.1888 -0.1301 -0.3703
  485TMC3     C 7215   2.919   3.172  12.883 -0.5708 -0.1533  0.9185
  485TMC3     O 7216   2.845   3.152  12.978  0.9380 -0.3319 -0.1860
  485TMC3     H 7217   3.037   3.103  13.088  1.7892 -1.4862  0.7888
  485TMC3    H1 7218   3.082   3.318  12.729  1.1929  3.5266  0.5704
  485TMC3    H2 7219   3.435   3.234  12.961 -0.0056  0.1191  1.4964
  485TMC3    C7 7220   3.350   3.274  12.715  0.7023 -0.4372  0.2101
  485TMC3    C8 7221   3.297   3.027  13.040 -0.1404  0.3539 -0.5675
  485TMC3    O1 7222   3.348   3.371  12.637  0.1842 -0.1354 -0.0970
  485TMC3    O2 7223   3.390   3.009  12.964 -0.2645  0.2963 -0.0965
  486MPD2     C 7224   0.935   2.107  13.542  0.6428  0.3132 -0.0373
  486MPD2    C1 7225   0.827   2.046  13.484 -0.8452 -0.3542 -0.1348
  486MPD2    C2 7226   0.744   2.120  13.401 -1.0747  0.3707  0.1979
  486MPD2    C3 7227   0.774   2.249  13.374  0.4774  0.2699 -0.3609
  486MPD2    C4 7228   0.888   2.311  13.424 -1.1144 -0.7102  0.5149
  486MPD2    C5 7229   0.969   2.237  13.507  0.7028 -0.0036  0.5762
  486MPD2     H 7230   0.657   2.077  13.352 -1.3649  1.3271 -0.1166
  486MPD2    H1 7231   0.916   2.413  13.399 -0.4254 -1.0964 -0.2716
  486MPD2    H2 7232   1.001   2.057  13.612 -0.3192 -0.1089  0.5713
  486MPD2    H3 7233   1.051   2.292  13.551  1.3878  0.2944 -1.0900
  486MPD2     N 7234   0.696   2.312  13.273 -0.1115 -0.2089 -0.3073
  486MPD2    H5 7235   0.621   2.259  13.230 -2.2589  1.2214  1.6849
  486MPD2    N1 7236   0.796   1.916  13.523  0.1603  0.2739 -0.1444
  486MPD2    H7 7237   0.853   1.871  13.594  2.4311  2.5208 -0.5735
  487TMC3    C1 7238   0.720   1.692  13.526  0.5237 -0.1924  0.2983
  487TMC3    C2 7239   0.765   1.587  13.451 -0.8384  0.1929  0.1179
  487TMC3    C3 7240   0.760   1.460  13.499 -0.4908 -0.5248  0.5439
  487TMC3    C4 7241   0.653   1.678  13.646 -0.5729 -0.2005  0.0950
  487TMC3    C5 7242   0.644   1.553  13.701  0.1863  0.0691  0.5819
  487TMC3    C6 7243   0.704   1.447  13.627 -0.4067  0.2438  0.8683
  487TMC3     C 7244   0.703   1.828  13.466  0.3770 -0.2251 -0.2914
  487TMC3     O 7245   0.603   1.845  13.394  0.3100 -0.0010  0.0635
  487TMC3     H 7246   0.808   1.598  13.352 -0.2456 -1.2486  0.2040
  487TMC3    H1 7247   0.622   1.768  13.699  1.0247 -0.4227  1.4215
  487TMC3    H2 7248   0.725   1.356  13.682  1.1510 -0.2122 -0.4997
  487TMC3    C7 7249   0.527   1.519  13.772  0.6056 -0.0970 -0.0318
  487TMC3    C8 7250   0.833   1.361  13.426  0.1951  0.2696 -0.3386
  487TMC3    O1 7251   0.507   1.406  13.812  0.2808  0.5782 -0.1560
  487TMC3    O2 7252   0.922   1.402  13.347  0.4700  0.1285  0.2384
  488MPD2     C 7253   0.371   2.683  16.769  0.5777  0.1211  0.6189
  488MPD2    C1 7254   0.336   2.816  16.795 -0.1397  0.6484 -0.1813
  488MPD2    C2 7255   0.256   2.839  16.910  0.6669 -0.4293  0.4492
  488MPD2    C3 7256   0.216   2.740  16.997 -0.2690  0.2362  0.1127
  488MPD2    C4 7257   0.262   2.613  16.965  0.4357  0.3769 -0.3054
  488MPD2    C5 7258   0.327   2.584  16.848  0.2229 -0.1354  1.4497
  488MPD2     H 7259   0.223   2.941  16.928 -2.1835 -1.0208 -1.3973
  488MPD2    H1 7260   0.231   2.525  17.020 -3.6515  0.4954 -2.3617
  488MPD2    H2 7261   0.432   2.660  16.683  0.7831 -1.3540  1.1562
  488MPD2    H3 7262   0.334   2.485  16.806 -0.9990  0.8831 -1.1286
  488MPD2     N 7263   0.149   2.779  17.117  0.0995  0.3303  0.3273
  488MPD2    H5 7264   0.141   2.878  17.138  1.6832  0.1003  2.0976
  488MPD2    N1 7265   0.364   2.932  16.711 -0.1074  0.4428  0.2974
  488MPD2    H7 7266   0.339   3.028  16.735 -1.6500  0.1447 -0.1056
  489TMC3    C1 7267   0.058   2.749  17.349 -0.6011 -0.5790 -0.2321
  489TMC3    C2 7268   0.069   2.888  17.365  0.1623 -0.8027  0.3061
  489TMC3    C3 7269   0.047   2.939  17.494 -0.2489  0.2705 -0.2660
  489TMC3    C4 7270   0.033   2.669  17.454 -0.5381  0.0899  0.3783
  489TMC3    C5 7271   0.022   2.726  17.579 -0.0732  0.4698 -0.7631
  489TMC3    C6 7272   0.024   2.863  17.604  0.3370  0.0573  0.7750
  489TMC3     C 7273   0.095   2.696  17.211 -0.0697 -0.0901  0.7793
  489TMC3     O 7274   0.076   2.573  17.197  0.2202  0.9723  0.0059
  489TMC3     H 7275   0.085   2.951  17.279  1.1902  1.1668  1.9355
  489TMC3    H1 7276   0.025   2.562  17.437 -1.4668  0.2777 -0.3270
  489TMC3    H2 7277   0.004   2.898   0.008 -0.8813 -0.2539  0.6459
  489TMC3    C7 7278   4.718   2.636  17.689  0.0098 -0.4195 -0.2315
  489TMC3    C8 7279   0.088   3.075  17.510 -0.2648  0.0786  0.1227
  489TMC3    O1 7280   0.024   2.672   0.104 -0.0195  0.4827 -0.0981
  489TMC3    O2 7281   0.114   3.127  17.405  0.1470 -0.4755 -0.0372
  490MPD2     C 7282   1.137   2.956   0.030  0.8141  0.5517  0.3355
  490MPD2    C1 7283   1.190   2.847   0.104  0.4627  0.7150  0.3010
  490MPD2    C2 7284   1.288   2.871   0.195  0.6566  0.1831  0.3095
  490MPD2    C3 7285   1.328   3.003   0.220 -0.8084 -0.0968 -0.3211
  490MPD2    C4 7286   1.277   3.108   0.145 -0.1499  0.7272 -0.8699
  490MPD2    C5 7287   1.176   3.087   0.054 -0.1129 -0.3103  0.3707
  490MPD2     H 7288   1.343   2.798   0.252 -1.7320 -0.8383  1.2857
  490MPD2    H1 7289   1.305   3.209   0.172 -2.9116  0.6510  2.2054
  490MPD2    H2 7290   1.062   2.947  17.648  1.1310  0.7627  0.0015
  490MPD2    H3 7291   1.147   3.168  17.684 -1.0967 -0.1283  1.0151
  490MPD2     N 7292   1.435   3.042   0.308 -0.0095  0.7763  0.0944
  490MPD2    H5 7293   1.473   3.136   0.304  1.8034  0.0001 -0.7895
  490MPD2    N1 7294   1.132   2.720   0.095 -0.4838 -0.0828 -0.7271
  490MPD2    H7 7295   1.174   2.656   0.162  1.3137 -0.4462 -2.1990
  491TMC3    C1 7296   0.984   2.547   0.020  0.1678  0.1834  0.5029
  491TMC3    C2 7297   0.985   2.495   0.144  0.1344  0.1855  0.3175
  491TMC3    C3 7298   0.938   2.367   0.157 -0.3173  0.1925 -0.6718
  491TMC3    C4 7299   0.935   2.481  17.604 -0.3167  0.2773  0.0304
  491TMC3    C5 7300   0.882   2.358  17.620  0.2975  0.2083  0.6260
  491TMC3    C6 7301   0.876   2.306   0.044 -0.6897  0.2160  0.3862
  491TMC3     C 7302   1.048   2.676  17.691  0.4930 -0.2160  0.0167
  491TMC3     O 7303   1.002   2.741  17.602  0.4414 -0.6721 -0.3115
  491TMC3     H 7304   1.009   2.558   0.229  1.1523  1.6571 -1.0668
  491TMC3    H1 7305   0.944   2.534  17.510  0.7714 -1.3157 -0.7744
  491TMC3    H2 7306   0.820   2.214   0.058  1.7709 -1.3201  0.0163
  491TMC3    C7 7307   0.795   2.297  17.522  0.9220 -0.3045  0.1719
  491TMC3    C8 7308   0.924   2.302   0.286 -0.5085  0.5949  0.1057
  491TMC3    O1 7309   0.778   2.175  17.534 -0.2140  0.0412  0.3466
  491TMC3    O2 7310   0.855   2.203   0.298 -0.6276  0.3231 -0.4536
  492MPD2     C 7311   1.197   3.049  11.605 -0.0118  0.4432 -0.0693
  492MPD2    C1 7312   1.181   2.930  11.534  0.7341 -0.0543  0.4706
  492MPD2    C2 7313   1.170   2.810  11.600 -0.2671  0.5557 -0.3401
  492MPD2    C3 7314   1.191   2.806  11.738  0.4246 -0.4478 -1.0835
  492MPD2    C4 7315   1.220   2.922  11.809 -1.0840 -0.0307  0.5028
  492MPD2    C5 7316   1.221   3.039  11.745  0.1842 -0.0809  0.2046
  492MPD2     H 7317   1.139   2.722  11.544  1.3412 -0.3120  0.1339
  492MPD2    H1 7318   1.248   2.918  11.913 -1.0087  0.7122  0.5133
  492MPD2    H2 7319   1.192   3.150  11.565 -1.6043  0.5729  0.4539
  492MPD2    H3 7320   1.241   3.130  11.800 -2.2899  0.3325  0.4368
  492MPD2     N 7321   1.188   2.689  11.818 -0.6845 -0.4947 -0.0184
  492MPD2    H5 7322   1.219   2.696  11.914 -2.3577 -2.0033  0.6294
  492MPD2    N1 7323   1.183   2.939  11.399 -0.3578 -0.3799 -0.0218
  492MPD2    H7 7324   1.202   3.031  11.359 -0.1290 -0.2700  0.3334
  493TMC3    C1 7325   1.191   2.897  11.173 -0.1346 -0.2860  0.2421
  493TMC3    C2 7326   1.300   2.984  11.163 -0.7458  0.0333  0.4864
  493TMC3    C3 7327   1.322   3.038  11.039 -0.1059  0.1397  0.6809
  493TMC3    C4 7328   1.117   2.863  11.067  0.6096  0.6330 -0.1837
  493TMC3    C5 7329   1.139   2.922  10.945  0.1487  0.1412 -0.7294
  493TMC3    C6 7330   1.245   3.018  10.928 -0.1547 -0.3892 -0.1300
  493TMC3     C 7331   1.154   2.846  11.304  0.2999 -0.2636 -0.7915
  493TMC3     O 7332   1.092   2.744  11.323  0.9192  0.7734  0.1474
  493TMC3     H 7333   1.361   3.002  11.250  0.2990  0.4217 -0.3276
  493TMC3    H1 7334   1.041   2.789  11.091 -1.0396  2.5519  0.5571
  493TMC3    H2 7335   1.273   3.056  10.831 -1.3352  2.5703  0.6905
  493TMC3    C7 7336   1.041   2.887  10.841  0.1707 -0.0818 -0.3299
  493TMC3    C8 7337   1.443   3.115  11.039  0.7660  0.1296 -0.7322
  493TMC3    O1 7338   0.947   2.817  10.878  0.1258 -0.3736 -0.0744
  493TMC3    O2 7339   1.530   3.080  11.119 -0.1217 -0.7720 -0.9114
  494TMC3    C1 7340   2.252   4.306   1.060  0.3957 -0.6086  0.3326
  494TMC3    C2 7341   2.308   4.196   1.127 -0.2953 -0.3218 -0.0770
  494TMC3    C3 7342   2.334   4.082   1.059  0.4236  0.6021 -0.3841
  494TMC3    C4 7343   2.232   4.302   0.928  0.8368  0.5701 -0.0954
  494TMC3    C5 7344   2.250   4.178   0.863 -0.0681  0.1081 -0.6370
  494TMC3    C6 7345   2.303   4.066   0.925 -0.2529 -0.0292  0.2645
  494TMC3     C 7346   2.191   4.400   1.144  0.0956 -0.2122  0.3873
  494TMC3     O 7347   2.244   4.423   1.253  0.4005  0.0164  0.6166
  494TMC3     H 7348   2.329   4.202   1.233 -1.0066  0.5835  0.0160
  494TMC3    H1 7349   2.190   4.384   0.871 -0.7819  1.6587  2.6821
  494TMC3    H2 7350   2.339   3.980   0.870  1.5834 -0.1481  1.6816
  494TMC3    C7 7351   2.195   4.164   0.730  0.3020  0.3627  0.9238
  494TMC3    C8 7352   2.369   3.965   1.136  0.8998  0.4996 -0.3608
  494TMC3    O1 7353   2.166   4.265   0.666 -0.2058 -0.6808  0.2437
  494TMC3    O2 7354   2.344   3.963   1.257 -0.6197 -0.1756 -0.3737
  495TMC3    C1 7355   0.561   1.267  14.941  0.2557  0.0401  0.1362
  495TMC3    C2 7356   0.510   1.341  14.842 -0.4311 -0.0735 -0.3007
  495TMC3    C3 7357   0.469   1.467  14.879  0.1197  0.2517 -0.2604
  495TMC3    C4 7358   0.593   1.329  15.063 -0.3896  0.1096  0.6802
  495TMC3    C5 7359   0.555   1.458  15.093 -0.8012 -0.0584 -0.0211
  495TMC3    C6 7360   0.472   1.517  15.006  0.5391 -0.7476 -0.3364
  495TMC3     C 7361   0.506   1.134  14.941  0.5568  0.1563  0.3296
  495TMC3     O 7362   0.423   1.108  14.850 -0.3263 -0.1010 -0.1235
  495TMC3     H 7363   0.484   1.292  14.749  3.0903  0.9596 -1.8145
  495TMC3    H1 7364   0.632   1.268  15.144 -0.8591 -1.5301 -0.3126
  495TMC3    H2 7365   0.445   1.618  15.034  2.2686 -0.2744 -0.4118
  495TMC3    C7 7366   0.528   1.465  15.232  0.2289 -0.0642  0.4216
  495TMC3    C8 7367   0.390   1.544  14.789 -0.0914 -0.0174  0.6448
  495TMC3    O1 7368   0.626   1.461  15.307  0.3776 -0.8944  0.3362
  495TMC3    O2 7369   0.310   1.626  14.834  0.1219  0.2016  0.3653
  496MPD2     C 7370   2.400   0.937  15.626 -0.5828 -0.0183  0.4393
  496MPD2    C1 7371   2.455   1.055  15.587 -0.0703 -0.6233  0.2820
  496MPD2    C2 7372   2.393   1.173  15.627 -0.3793 -0.7756  0.7846
  496MPD2    C3 7373   2.275   1.176  15.699  0.4966  0.3220  0.5382
  496MPD2    C4 7374   2.221   1.058  15.744 -0.0482  0.1835  0.2231
  496MPD2    C5 7375   2.283   0.939  15.699 -0.1149 -0.6997  0.0622
  496MPD2     H 7376   2.430   1.269  15.592 -2.6553  0.5019  1.8486
  496MPD2    H1 7377   2.129   1.053  15.802 -1.1316  0.5596 -1.4584
  496MPD2    H2 7378   2.434   0.843  15.585 -0.6451 -0.1699  0.7408
  496MPD2    H3 7379   2.231   0.845  15.718  1.9444 -1.8550 -0.0111
  496MPD2     N 7380   2.208   1.297  15.742  0.3514 -0.1033  0.0632
  496MPD2    H5 7381   2.137   1.288  15.814  1.7105  0.5474  1.4984
  496MPD2    N1 7382   2.577   1.054  15.524  0.1327  0.3109 -0.2658
  496MPD2    H7 7383   2.617   0.963  15.505 -0.1494 -0.3462  2.3439
  497TMC3    C1 7384   2.216   1.507  15.831 -0.1100  0.5040 -0.1133
  497TMC3    C2 7385   2.235   1.647  15.820  0.4666 -0.3254  0.2301
  497TMC3    C3 7386   2.195   1.724  15.922 -0.2277 -1.1751 -0.3716
  497TMC3    C4 7387   2.169   1.447  15.944 -0.0918  0.1885 -0.8872
  497TMC3    C5 7388   2.142   1.535  16.044 -0.2598 -0.3647 -0.6145
  497TMC3    C6 7389   2.155   1.670  16.041 -0.4385 -0.3495 -0.0969
  497TMC3     C 7390   2.248   1.424  15.716  0.3200  0.0024 -0.2894
  497TMC3     O 7391   2.320   1.472  15.633 -0.3619  0.1282 -0.1583
  497TMC3     H 7392   2.248   1.690  15.722 -1.7356  3.1343  1.4657
  497TMC3    H1 7393   2.170   1.343  15.973 -0.8912  0.3490 -0.2665
  497TMC3    H2 7394   2.127   1.737  16.120  4.1201 -0.1393  1.3545
  497TMC3    C7 7395   2.128   1.464  16.171 -0.3002  0.6263 -0.7851
  497TMC3    C8 7396   2.202   1.865  15.926 -0.0524 -0.0563 -0.3167
  497TMC3    O1 7397   2.062   1.361  16.174  0.1607  0.2197 -0.3806
  497TMC3    O2 7398   2.247   1.907  16.032  0.0922 -0.0627  0.4343
  498MPD2     C 7399   3.063   2.055   9.183 -0.5831 -0.7359 -0.0955
  498MPD2    C1 7400   3.116   2.110   9.297 -0.6048  0.2433 -0.2305
  498MPD2    C2 7401   3.047   2.100   9.420 -0.0409 -0.0711 -0.1642
  498MPD2    C3 7402   2.928   2.037   9.427 -0.2862 -0.1899 -0.1828
  498MPD2    C4 7403   2.882   1.986   9.312 -0.1622 -0.2045 -0.1194
  498MPD2    C5 7404   2.950   1.980   9.195 -0.5889  0.4134  0.3156
  498MPD2     H 7405   3.089   2.160   9.500 -0.0912 -0.6029  0.2648
  498MPD2    H1 7406   2.791   1.927   9.312  0.9489 -1.9337 -3.8754
  498MPD2    H2 7407   3.101   2.072   9.083 -0.7250  0.0762 -0.0104
  498MPD2    H3 7408   2.909   1.932   9.107  0.7450 -1.2959  0.6280
  498MPD2     N 7409   2.859   2.035   9.555  0.3571  0.5218  0.5256
  498MPD2    H5 7410   2.914   2.057   9.637 -2.9226 -1.0388  3.1521
  498MPD2    N1 7411   3.225   2.197   9.295  0.7494 -0.7317  0.0115
  498MPD2    H7 7412   3.244   2.235   9.387  0.7996 -0.4615 -0.1129
  499TMC3    C1 7413   3.374   2.351   9.216 -0.4416  0.5391  1.2258
  499TMC3    C2 7414   3.316   2.444   9.301 -0.3021 -0.1597  0.9582
  499TMC3    C3 7415   3.398   2.539   9.359  0.2190  0.7323 -0.7553
  499TMC3    C4 7416   3.503   2.365   9.178 -0.0359 -0.5818  0.0147
  499TMC3    C5 7417   3.579   2.465   9.227 -0.6206  1.2301 -0.5647
  499TMC3    C6 7418   3.528   2.562   9.315  0.4161 -0.2089 -0.1150
  499TMC3     C 7419   3.300   2.233   9.190  0.1017  0.1254  0.2802
  499TMC3     O 7420   3.301   2.175   9.082 -0.2402  0.4108 -0.5161
  499TMC3     H 7421   3.208   2.435   9.303 -0.5309  2.3276 -0.0760
  499TMC3    H1 7422   3.549   2.286   9.120 -0.1989 -1.8674  1.6398
  499TMC3    H2 7423   3.590   2.644   9.348  2.6868 -1.8819 -0.1927
  499TMC3    C7 7424   3.716   2.480   9.189 -0.0685 -0.4140 -0.3423
  499TMC3    C8 7425   3.337   2.625   9.456  0.8375 -0.5740 -0.1683
  499TMC3    O1 7426   3.787   2.548   9.262  0.0751 -0.2644 -0.2303
  499TMC3    O2 7427   3.215   2.612   9.472  0.1167  0.0260 -0.3655
  500MPD2     C 7428   0.462   3.880  10.400  0.2844 -0.0895  0.0314
  500MPD2    C1 7429   0.523   3.865  10.272 -0.0915 -0.0196 -0.4669
  500MPD2    C2 7430   0.450   3.825  10.160 -0.0124 -0.4559  0.0569
  500MPD2    C3 7431   0.318   3.787  10.175 -0.2929  0.2491 -0.0057
  500MPD2    C4 7432   0.258   3.790  10.301 -0.1573 -0.6851  0.7094
  500MPD2    C5 7433   0.332   3.835  10.408 -0.5069  0.0254 -0.2446
  500MPD2     H 7434   0.501   3.819  10.065 -0.5733 -0.9148 -0.2076
  500MPD2    H1 7435   0.151   3.777  10.315 -0.1386 -2.0313 -0.4158
  500MPD2    H2 7436   0.509   3.924  10.487 -3.1866  0.3929  1.6639
  500MPD2    H3 7437   0.273   3.840  10.499 -2.4873 -0.2003 -1.5128
  500MPD2     N 7438   0.258   3.707  10.072  0.5716  0.5542  0.1740
  500MPD2    H5 7439   0.163   3.682  10.097  0.0761  2.5054  0.2156
  500MPD2    N1 7440   0.657   3.896  10.250 -0.1796  0.1782 -0.8219
  500MPD2    H7 7441   0.685   3.910  10.154  0.1732  1.8782 -0.4637
  501TMC3    C1 7442   0.880   3.950  10.299  0.3098 -0.1535  0.2081
  501TMC3    C2 7443   0.897   4.075  10.246  1.0451  0.1620 -0.2689
  501TMC3    C3 7444   1.021   4.119  10.220  0.0385  0.6126  0.0044
  501TMC3    C4 7445   0.982   3.876  10.351 -0.3191  0.0589 -0.2491
  501TMC3    C5 7446   1.109   3.926  10.342  0.8132 -0.2037  0.3413
  501TMC3    C6 7447   1.131   4.045  10.270  0.3484  0.0151  0.3858
  501TMC3     C 7448   0.747   3.914  10.348  0.5335  0.1890  0.6403
  501TMC3     O 7449   0.746   3.881  10.466 -0.2535  0.1098  0.3922
  501TMC3     H 7450   0.811   4.142  10.242 -0.6634 -1.9657  0.7934
  501TMC3    H1 7451   0.968   3.786  10.409  1.7374  0.7169  1.3077
  501TMC3    H2 7452   1.226   4.089  10.242 -0.2688  1.4708  0.5873
  501TMC3    C7 7453   1.200   3.879  10.436 -0.0555 -0.1962  0.2786
  501TMC3    C8 7454   1.025   4.260  10.245  0.4965  0.4479  0.1936
  501TMC3    O1 7455   1.160   3.789  10.510  0.5476 -0.0100 -0.0701
  501TMC3    O2 7456   1.126   4.288  10.310 -0.3588  0.0743  0.0164
  502TMC3    C1 7457   4.617   2.231  15.167 -0.4731 -0.1464 -0.0459
  502TMC3    C2 7458   4.602   2.364  15.172  0.2977  0.8555  0.3473
  502TMC3    C3 7459   4.488   2.421  15.217 -0.5126  0.0508 -0.0613
  502TMC3    C4 7460   4.526   2.153  15.225  0.4653  0.2497  0.4855
  502TMC3    C5 7461   4.410   2.210  15.267 -0.3494 -0.0479  0.2630
  502TMC3    C6 7462   4.385   2.344  15.260  0.0564 -0.8549  0.8439
  502TMC3     C 7463   0.030   2.192  15.206  0.7183  0.5454  0.8201
  502TMC3     O 7464   0.125   2.224  15.135  0.5274  0.1090 -0.0697
  502TMC3     H 7465   4.697   2.416  15.162  0.0395  1.7476  2.6528
  502TMC3    H1 7466   4.536   2.045  15.221  0.6495  0.2915 -0.2532
  502TMC3    H2 7467   4.306   2.399  15.308 -0.1225 -0.8223  0.5142
  502TMC3    C7 7468   4.311   2.113  15.314  0.5343  1.2334 -0.6801
  502TMC3    C8 7469   4.493   2.572  15.240 -0.2223  0.0371  0.6278
  502TMC3    O1 7470   4.338   1.993  15.328  0.0519  0.0640  0.2953
  502TMC3    O2 7471   4.577   2.639  15.176 -0.3141 -0.1181 -0.1080
  503MPD2     C 7472   2.118   3.041  17.074  1.0250  0.1301  1.1308
  503MPD2    C1 7473   2.136   3.053  17.212 -0.4057  0.0625 -0.4400
  503MPD2    C2 7474   2.177   2.949  17.292  1.0276  0.4800 -0.4128
  503MPD2    C3 7475   2.180   2.822  17.246  0.0336 -0.1754 -0.1147
  503MPD2    C4 7476   2.159   2.809  17.112  0.1284 -0.8328  0.2969
  503MPD2    C5 7477   2.132   2.918  17.024  0.3876 -0.8940  0.6833
  503MPD2     H 7478   2.189   2.971  17.397 -0.0247 -0.3729 -0.1051
  503MPD2    H1 7479   2.176   2.710  17.070 -0.1140 -1.1059  0.8473
  503MPD2    H2 7480   2.086   3.117  17.003 -0.9360  0.4133  2.2999
  503MPD2    H3 7481   2.117   2.895  16.919 -2.5665 -1.8282  1.3149
  503MPD2     N 7482   2.205   2.705  17.323  0.9586  0.0223  0.2751
  503MPD2    H5 7483   2.239   2.622  17.276 -0.1270 -0.2708  0.0190
  503MPD2    N1 7484   2.121   3.177  17.278 -0.4557 -0.2145  0.2628
  503MPD2    H7 7485   2.125   3.171  17.380 -0.1937  0.4604  0.2943
  504TMC3    C1 7486   2.223   2.568  17.508  0.3282  0.2258  0.4732
  504TMC3    C2 7487   2.186   2.534  17.629 -0.3496 -0.1086 -0.2779
  504TMC3    C3 7488   2.213   2.406  17.670 -0.3122 -0.0320 -0.9198
  504TMC3    C4 7489   2.300   2.489  17.427  0.0698  0.5982  0.2821
  504TMC3    C5 7490   2.336   2.368  17.479  1.0279  0.1045  0.1665
  504TMC3    C6 7491   2.297   2.322  17.601 -0.2453 -0.4492 -0.3508
  504TMC3     C 7492   2.191   2.699  17.459 -0.3979  0.2798 -0.2254
  504TMC3     O 7493   2.131   2.779  17.525  0.0424  0.1514 -0.2624
  504TMC3     H 7494   2.117   2.597  17.683  0.1164  0.4054 -0.2748
  504TMC3    H1 7495   2.362   2.531  17.349 -0.0828  0.0918 -0.1093
  504TMC3    H2 7496   2.314   2.218  17.627 -2.3053 -0.4913  0.8025
  504TMC3    C7 7497   2.439   2.304  17.403  0.6973 -0.2722 -0.0644
  504TMC3    C8 7498   2.137   2.354   0.088  0.3903 -0.0381  1.0984
  504TMC3    O1 7499   2.449   2.319  17.284  0.0014  0.4498  0.8962
  504TMC3    O2 7500   2.039   2.425   0.118 -0.4832  0.2062 -0.4174
  505MPD2     C 7501   2.861   2.076  11.271 -1.2245  0.1822  0.1295
  505MPD2    C1 7502   2.819   2.081  11.139 -0.5345 -0.6118  0.2389
  505MPD2    C2 7503   2.906   2.021  11.039 -0.0785  0.4531  0.0222
  505MPD2    C3 7504   3.031   1.971  11.081 -0.7887  0.5512  0.2298
  505MPD2    C4 7505   3.072   1.974  11.214 -0.0199  0.6797  0.0982
  505MPD2    C5 7506   2.982   2.025  11.312 -0.2537  0.4122 -1.2702
  505MPD2     H 7507   2.870   2.029  10.937  1.0320 -2.6336 -0.5951
  505MPD2    H1 7508   3.169   1.938  11.247 -0.9739 -0.3366  1.8218
  505MPD2    H2 7509   2.800   2.101  11.357  0.2060  1.9339  0.6490
  505MPD2    H3 7510   3.017   2.044  11.413 -0.1348  1.2436 -1.4691
  505MPD2     N 7511   3.121   1.907  10.997 -0.1762 -0.3673 -0.2798
  505MPD2    H5 7512   3.201   1.864  11.042  0.7743  2.7350  1.0021
  505MPD2    N1 7513   2.686   2.115  11.105 -0.4083  0.4747 -0.1950
  505MPD2    H7 7514   2.617   2.132  11.176  0.1212  0.6392  0.2798
  506TMC3    C1 7515   2.495   2.152  10.974 -0.0689 -0.0097  0.8375
  506TMC3    C2 7516   2.466   2.246  10.878  0.8624 -0.1538 -0.0736
  506TMC3    C3 7517   2.367   2.209  10.783 -0.7989  0.6235  0.7277
  506TMC3    C4 7518   2.444   2.028  10.965  0.1228  0.1756  0.3111
  506TMC3    C5 7519   2.360   1.993  10.864 -0.8189 -0.0012  0.6632
  506TMC3    C6 7520   2.316   2.083  10.777  0.1586 -0.3413  0.1907
  506TMC3     C 7521   2.638   2.156  10.984 -0.1218  0.2889 -0.2505
  506TMC3     O 7522   2.697   2.159  10.879  0.4877  0.2489 -0.2278
  506TMC3     H 7523   2.505   2.347  10.870  2.9237 -0.9315  0.0368
  506TMC3    H1 7524   2.464   1.962  11.048 -0.6786 -0.8595 -0.3358
  506TMC3    H2 7525   2.254   2.042  10.697  0.6294  0.3658 -0.5356
  506TMC3    C7 7526   2.354   1.858  10.811  0.1055  0.3855  0.6440
  506TMC3    C8 7527   2.359   2.291  10.663 -0.0861 -0.3635 -0.9114
  506TMC3    O1 7528   2.258   1.817  10.748  0.0180 -0.5314 -0.6815
  506TMC3    O2 7529   2.334   2.411  10.682  0.0630  0.5142 -0.0554
  507TMC3    C1 7530   3.053   2.535  14.451 -0.3973 -0.2181  0.0200
  507TMC3    C2 7531   3.000   2.585  14.335  0.1154  0.1589  0.5979
  507TMC3    C3 7532   3.076   2.656  14.256 -0.1809  0.3420 -0.2196
  507TMC3    C4 7533   3.175   2.578  14.497  0.3879  0.1024 -0.2843
  507TMC3    C5 7534   3.249   2.661  14.416  0.3428  0.1844  0.2509
  507TMC3    C6 7535   3.202   2.692  14.292 -0.3078 -0.0695 -0.2752
  507TMC3     C 7536   3.005   2.418  14.519 -0.0225  0.3597 -0.6891
  507TMC3     O 7537   3.085   2.351  14.584 -0.3890 -0.1890  0.4185
  507TMC3     H 7538   2.895   2.576  14.311  1.4580  0.1112 -5.1866
  507TMC3    H1 7539   3.210   2.533  14.589  1.3153 -0.0276 -0.7028
  507TMC3    H2 7540   3.272   2.746  14.229 -1.7934  0.1115 -1.7608
  507TMC3    C7 7541   3.291   2.787  14.475 -0.0126 -0.3941  0.0103
  507TMC3    C8 7542   3.000   2.768  14.193 -0.0174 -0.0767  0.0294
  507TMC3    O1 7543   3.330   2.879  14.403 -0.1017  0.1272 -0.0552
  507TMC3    O2 7544   2.894   2.752  14.138 -0.5562  0.0445  0.7242
  508MPD2     C 7545   4.136   4.512  16.336 -0.0587  0.3112  0.1483
  508MPD2    C1 7546   4.212   4.623  16.351  0.3007 -0.0318  0.2398
  508MPD2    C2 7547   4.209   4.721  16.255  0.1816 -0.5934  0.5989
  508MPD2    C3 7548   4.122   4.709  16.151  0.5778 -0.2574 -0.5078
  508MPD2    C4 7549   4.056   4.590  16.125 -0.0388 -0.5414  0.2727
  508MPD2    C5 7550   4.057   4.498  16.229 -0.1197 -0.2121 -0.2353
  508MPD2     H 7551   4.269   0.087  16.266 -0.0978 -0.5729  1.9321
  508MPD2    H1 7552   3.992   4.575  16.039 -0.7585 -1.9090  1.0348
  508MPD2    H2 7553   4.143   4.432  16.408  2.9320  0.4190  0.0011
  508MPD2    H3 7554   3.993   4.411  16.230  1.6581 -1.5129  0.4769
  508MPD2     N 7555   4.104   0.095  16.065  0.1402  0.3798 -0.9817
  508MPD2    H5 7556   4.148   0.181  16.096 -1.4059  1.2329 -1.1669
  508MPD2    N1 7557   4.276   4.641  16.468  0.0358  0.4742  0.4745
  508MPD2    H7 7558   4.255   4.565  16.533 -6.9937  1.0482 -1.1270
  509TMC3    C1 7559   3.950   0.433  15.784 -0.3835 -0.6596  0.5242
  509TMC3    C2 7560   4.074   0.479  15.768 -1.0409 -0.1615 -0.0683
  509TMC3    C3 7561   4.175   0.413  15.823  0.1452 -0.1233 -0.2455
  509TMC3    C4 7562   3.926   0.313  15.844 -0.5706  0.7385 -0.9184
  509TMC3    C5 7563   4.033   0.249  15.896 -0.0255  0.3849 -0.5843
  509TMC3    C6 7564   4.163   0.292  15.888 -0.0446 -0.9972  0.4322
  509TMC3     C 7565   3.829   0.505  15.744  0.1292 -0.0157  0.1771
  509TMC3     O 7566   3.721   0.456  15.773  0.3351  0.3282 -0.2713
  509TMC3     H 7567   4.089   0.560  15.698  0.7911 -0.2667  0.1909
  509TMC3    H1 7568   3.828   0.284  15.881 -0.8766  1.5516 -1.1013
  509TMC3    H2 7569   4.243   0.224  15.913  0.1302 -0.1867  2.0779
  509TMC3    C7 7570   4.007   0.121  15.964  0.2820  0.1233 -0.4400
  509TMC3    C8 7571   4.301   0.483  15.851 -0.3181  0.0900  0.3979
  509TMC3    O1 7572   3.911   0.053  15.935  0.1526  0.2088 -0.2872
  509TMC3    O2 7573   4.402   0.421  15.883  0.5156 -0.4591  0.5220
  510MPD2     C 7574   1.958   2.186  14.736 -0.5120 -0.1441  0.1977
  510MPD2    C1 7575   1.971   2.060  14.781  0.0781 -0.0835  0.3694
  510MPD2    C2 7576   2.072   1.986  14.722 -0.0044 -0.2860 -0.3422
  510MPD2    C3 7577   2.159   2.040  14.624  0.1825  0.1241 -0.0827
  510MPD2    C4 7578   2.143   2.173  14.580  0.7652 -0.1273  0.5608
  510MPD2    C5 7579   2.036   2.238  14.638 -0.4305  0.0510 -0.1624
  510MPD2     H 7580   2.079   1.879  14.734 -1.2282 -0.4284 -0.9214
  510MPD2    H1 7581   2.216   2.225  14.519  0.6824  1.4747  1.8370
  510MPD2    H2 7582   1.872   2.245  14.765  0.3439  1.1004  0.2124
  510MPD2    H3 7583   2.031   2.343  14.612 -2.4862  0.1636  0.7169
  510MPD2     N 7584   2.264   1.955  14.582  0.3070 -0.0721  0.2341
  510MPD2    H5 7585   2.265   1.864  14.627  0.3316 -0.9057 -1.4173
  510MPD2    N1 7586   1.866   2.012  14.864 -0.0929  0.1014  0.4250
  510MPD2    H7 7587   1.799   2.080  14.898  0.3123  0.0393  1.3470
  511TMC3    C1 7588   1.735   1.844  14.973  0.5825  0.1441  0.8651
  511TMC3    C2 7589   1.708   1.915  15.087 -0.7812 -0.3177 -0.1893
  511TMC3    C3 7590   1.633   1.860  15.184 -0.0939  0.3534 -0.0677
  511TMC3    C4 7591   1.690   1.716  14.955 -0.3661 -0.1929 -0.0316
  511TMC3    C5 7592   1.605   1.668  15.046 -0.0666  0.2221  0.4881
  511TMC3    C6 7593   1.587   1.727  15.167  0.1505  0.3107  0.3488
  511TMC3     C 7594   1.860   1.877  14.911 -0.0900  0.1391  0.3104
  511TMC3     O 7595   1.936   1.784  14.886 -0.2921  0.7404 -0.2043
  511TMC3     H 7596   1.760   2.009  15.101  0.0024 -0.7615 -0.1233
  511TMC3    H1 7597   1.703   1.657  14.866 -2.4331 -1.2599  0.3810
  511TMC3    H2 7598   1.519   1.678  15.235  0.5781 -1.0867 -0.2197
  511TMC3    C7 7599   1.570   1.530  15.018 -0.1594  0.3144  0.1282
  511TMC3    C8 7600   1.631   1.912  15.322  0.2669 -0.9380  0.0225
  511TMC3    O1 7601   1.553   1.495  14.901 -0.4151 -0.1782 -0.6258
  511TMC3    O2 7602   1.625   2.034  15.330  0.1478 -0.3878 -0.1526
  512TMC3    C1 7603   1.215   1.425  13.636 -0.0451 -0.0433  0.2647
  512TMC3    C2 7604   1.171   1.417  13.768 -0.4651  0.1838 -0.0780
  512TMC3    C3 7605   1.092   1.308  13.795 -0.5636 -0.1624  0.3284
  512TMC3    C4 7606   1.218   1.318  13.551 -0.4186  0.0217  0.3889
  512TMC3    C5 7607   1.157   1.205  13.593  0.6772  0.6967  0.0860
  512TMC3    C6 7608   1.088   1.202  13.710 -0.2370  0.1235 -0.3559
  512TMC3     C 7609   1.222   1.553  13.579  0.2712 -0.3818  0.3367
  512TMC3     O 7610   1.223   1.647  13.655 -0.1943  0.1088  0.2863
  512TMC3     H 7611   1.183   1.504  13.832  0.0148 -0.1282  0.2541
  512TMC3    H1 7612   1.280   1.318  13.462 -0.5114 -0.9175  0.3214
  512TMC3    H2 7613   1.020   1.120  13.732 -1.8998  1.7992  0.8257
  512TMC3    C7 7614   1.130   1.103  13.493  0.3099  0.8455  0.0956
  512TMC3    C8 7615   0.970   1.338  13.877 -0.5057  0.3283 -0.6036
  512TMC3    O1 7616   1.109   1.141  13.380 -0.0629  0.0897  0.3311
  512TMC3    O2 7617   0.893   1.244  13.870 -0.1385  1.0951 -0.2716
  513MPD2     C 7618   2.257   1.538  13.408  0.4388 -0.3911 -0.5195
  513MPD2    C1 7619   2.367   1.496  13.339  0.2063 -0.0424 -0.2642
  513MPD2    C2 7620   2.491   1.519  13.397 -0.0630 -0.1746 -0.3126
  513MPD2    C3 7621   2.505   1.598  13.507 -0.0181 -0.2043 -0.1141
  513MPD2    C4 7622   2.393   1.658  13.560  0.0087 -0.4882 -0.0143
  513MPD2    C5 7623   2.268   1.623  13.515  0.3213 -1.1093 -0.8012
  513MPD2     H 7624   2.582   1.470  13.363 -0.5373  0.2712 -2.1715
  513MPD2    H1 7625   2.392   1.722  13.648  1.6694  0.7629 -0.9181
  513MPD2    H2 7626   2.169   1.499  13.359 -1.4387  4.4286 -0.9655
  513MPD2    H3 7627   2.182   1.666  13.565  0.4422  1.4069 -2.7804
  513MPD2     N 7628   2.638   1.625  13.553 -0.3448  0.5221 -0.2862
  513MPD2    H5 7629   2.714   1.599  13.492  1.7941  2.1677  1.6716
  513MPD2    N1 7630   2.374   1.429  13.218 -0.2901  0.4184  0.1178
  513MPD2    H7 7631   2.460   1.379  13.198 -0.0659  0.3298  1.3214
  514TMC3    C1 7632   2.316   1.312  13.029  0.2367  0.2157 -0.0608
  514TMC3    C2 7633   2.348   1.363  12.904 -0.4152  0.0146  0.4013
  514TMC3    C3 7634   2.445   1.307  12.823 -0.3409  0.2172 -0.3769
  514TMC3    C4 7635   2.402   1.210  13.067  0.5360  0.5397  0.2024
  514TMC3    C5 7636   2.522   1.181  12.999 -0.5107  0.4153  0.1275
  514TMC3    C6 7637   2.542   1.230  12.881 -0.1530 -0.4866  0.1470
  514TMC3     C 7638   2.276   1.418  13.123 -0.2070  0.0003 -0.5342
  514TMC3     O 7639   2.173   1.479  13.104 -0.1527  0.2862 -0.0379
  514TMC3     H 7640   2.277   1.434  12.863  1.9409  3.4752  2.2228
  514TMC3    H1 7641   2.386   1.159  13.161 -0.3064 -1.7903 -1.2050
  514TMC3    H2 7642   2.636   1.211  12.830  0.6340 -2.0026  2.1712
  514TMC3    C7 7643   2.629   1.187  13.097 -0.2796 -0.9013  0.5740
  514TMC3    C8 7644   2.499   1.399  12.725  0.4332 -0.0344  0.5725
  514TMC3    O1 7645   2.596   1.237  13.201 -0.0809 -0.0492  0.2123
  514TMC3    O2 7646   2.510   1.516  12.768 -0.0308  0.0601  0.0384
  515MPD2     C 7647   0.844   3.064  15.488  0.9609 -0.4516  1.3183
  515MPD2    C1 7648   0.889   3.079  15.356  0.3051 -0.7077  0.0739
  515MPD2    C2 7649   0.967   3.187  15.322 -0.2872  0.6269 -0.1125
  515MPD2    C3 7650   1.025   3.265  15.419 -0.3120  0.0526 -0.2978
  515MPD2    C4 7651   0.997   3.235  15.556  0.1529  0.0305 -0.3326
  515MPD2    C5 7652   0.895   3.149  15.582 -0.0397  0.7170 -0.4564
  515MPD2     H 7653   0.982   3.197  15.215  0.3199  0.1368 -0.0732
  515MPD2    H1 7654   1.041   3.297  15.634  0.8022 -0.9269  0.0581
  515MPD2    H2 7655   0.769   2.990  15.516  0.3603 -0.2337  0.2665
  515MPD2    H3 7656   0.855   3.150  15.683 -0.8622 -0.9801 -0.7577
  515MPD2     N 7657   1.114   3.370  15.396 -0.7049 -0.8375 -0.4525
  515MPD2    H5 7658   1.158   3.415  15.475 -2.9335 -1.3170  1.0612
  515MPD2    N1 7659   0.864   2.979  15.253  0.2206  0.5197  0.8627
  515MPD2    H7 7660   0.900   2.996  15.159 -1.8872  0.7789  0.0943
  516TMC3    C1 7661   0.808   2.776  15.146  0.1450  0.7024  1.0281
  516TMC3    C2 7662   0.751   2.841  15.042 -0.1722 -0.8949 -0.2691
  516TMC3    C3 7663   0.683   2.763  14.949 -0.3344  0.2672 -0.0170
  516TMC3    C4 7664   0.786   2.644  15.165  0.6946  0.4330 -0.8087
  516TMC3    C5 7665   0.715   2.567  15.076  0.0583 -0.0768 -0.0504
  516TMC3    C6 7666   0.660   2.626  14.960  0.0351 -0.0530  0.1448
  516TMC3     C 7667   0.825   2.848  15.274 -0.2176  0.3836  0.2737
  516TMC3     O 7668   0.826   2.792  15.381  0.0897  0.4202 -0.1857
  516TMC3     H 7669   0.742   2.949  15.053  0.6553 -0.7186 -1.3688
  516TMC3    H1 7670   0.840   2.599  15.247 -0.1777  0.1488 -0.3817
  516TMC3    H2 7671   0.589   2.573  14.897 -1.2803 -0.2225  1.7498
  516TMC3    C7 7672   0.699   2.425  15.103  0.0346  0.4544  0.1026
  516TMC3    C8 7673   0.640   2.822  14.824  0.6710 -0.1817 -0.1467
  516TMC3    O1 7674   0.771   2.387  15.193  0.0632  0.0610  0.1684
  516TMC3    O2 7675   0.550   2.766  14.766  0.3503 -0.1522 -0.1860
  517MPD2     C 7676   0.254   4.423   0.548 -0.2536  0.4973 -0.3457
  517MPD2    C1 7677   0.389   4.429   0.567 -0.3651 -0.6132  0.7252
  517MPD2    C2 7678   0.432   4.530   0.643 -0.0842 -0.0460  0.6509
  517MPD2    C3 7679   0.344   4.617   0.714  0.7976 -0.0856  0.3615
  517MPD2    C4 7680   0.212   4.614   0.693 -0.3721  0.3818  0.8497
  517MPD2    C5 7681   0.168   4.517   0.606  1.1142  0.5135  0.1619
  517MPD2     H 7682   0.535   4.523   0.675 -0.7250 -0.5800  2.5916
  517MPD2    H1 7683   0.147   4.679   0.751 -1.7091 -0.1891 -0.0048
  517MPD2    H2 7684   0.205   4.355   0.478  0.3642 -1.5942  1.2463
  517MPD2    H3 7685   0.061   4.508   0.596  1.3434  0.0420 -1.9002
  517MPD2     N 7686   0.386   4.717   0.801  0.5474 -0.1471 -0.0376
  517MPD2    H5 7687   0.326   0.072   0.826  1.1030  0.2358  0.1005
  517MPD2    N1 7688   0.493   4.349   0.505 -0.1770  1.3505  0.1790
  517MPD2    H7 7689   0.589   4.375   0.524  0.6493 -0.8222 -1.0819
  518TMC3    C1 7690   0.587   4.173   0.374 -0.4209 -0.4991 -0.0242
  518TMC3    C2 7691   0.572   4.043   0.347 -0.1009  0.0395 -0.1796
  518TMC3    C3 7692   0.684   3.977   0.304 -0.0668 -0.1317  0.3777
  518TMC3    C4 7693   0.707   4.246   0.351 -0.3814 -0.3838  0.3799
  518TMC3    C5 7694   0.811   4.175   0.290  0.8202  0.0670 -0.3582
  518TMC3    C6 7695   0.798   4.038   0.268  0.6484 -0.2470 -0.4654
  518TMC3     C 7696   0.464   4.240   0.426  0.7234  0.7689 -0.2101
  518TMC3     O 7697   0.363   4.171   0.429  0.2290 -0.5132 -0.2860
  518TMC3     H 7698   0.479   3.990   0.365  0.1509 -0.0853  0.7998
  518TMC3    H1 7699   0.717   4.349   0.383 -0.2990 -0.3009  0.0827
  518TMC3    H2 7700   0.881   3.981   0.227  0.8039 -2.2946  2.7381
  518TMC3    C7 7701   0.944   4.244   0.270 -0.3550 -0.8844 -0.4865
  518TMC3    C8 7702   0.685   3.828   0.306  0.2577  0.2989 -0.7657
  518TMC3    O1 7703   0.955   4.355   0.324  0.4155  0.2607  0.1783
  518TMC3    O2 7704   0.752   3.767   0.224  0.5342  0.5103  0.3490
  519MPD2     C 7705   2.476   3.159  14.307 -0.6828 -0.3573  0.9029
  519MPD2    C1 7706   2.362   3.091  14.336  0.5635  0.0255  0.3930
  519MPD2    C2 7707   2.362   2.955  14.304 -0.0968  0.8000 -0.0033
  519MPD2    C3 7708   2.475   2.903  14.231 -0.0078 -0.0054  0.0812
  519MPD2    C4 7709   2.578   2.981  14.195  0.2612  0.6393 -0.2112
  519MPD2    C5 7710   2.584   3.109  14.240 -0.0909 -0.6700 -0.0276
  519MPD2     H 7711   2.271   2.898  14.319 -0.3895  1.3851  0.4951
  519MPD2    H1 7712   2.657   2.942  14.132  1.8277  2.5579  0.5380
  519MPD2    H2 7713   2.475   3.260  14.346  0.4760  0.6297 -1.6185
  519MPD2    H3 7714   2.670   3.172  14.220 -2.3348  2.5291  0.4844
  519MPD2     N 7715   2.475   2.767  14.195 -0.1261 -0.2834  0.2400
  519MPD2    H5 7716   2.555   2.718  14.156  0.4338  0.4048  0.5338
  519MPD2    N1 7717   2.250   3.162  14.390 -0.2953  0.1301 -0.3659
  519MPD2    H7 7718   2.255   3.263  14.395 -0.5270  0.0208  1.6885
  520TMC3    C1 7719   2.366   2.565  14.138  0.4179  0.3703 -0.8335
  520TMC3    C2 7720   2.256   2.499  14.095  0.1029  0.1151 -0.3987
  520TMC3    C3 7721   2.263   2.363  14.074 -0.3499 -1.0062  0.1650
  520TMC3    C4 7722   2.478   2.488  14.176 -1.6627  0.2721  0.6606
  520TMC3    C5 7723   2.479   2.361  14.147  0.4011  0.1898  0.0738
  520TMC3    C6 7724   2.373   2.288  14.100 -0.0398  0.1682  0.2569
  520TMC3     C 7725   2.352   2.706  14.170 -0.2266  0.3616  0.5772
  520TMC3     O 7726   2.244   2.758  14.151 -0.5393 -0.5457  0.5846
  520TMC3     H 7727   2.172   2.559  14.063  0.2593 -0.0442 -1.1004
  520TMC3    H1 7728   2.557   2.533  14.235 -0.3506  0.8942 -1.5577
  520TMC3    H2 7729   2.374   2.182  14.079 -1.4071  0.0605  0.7101
  520TMC3    C7 7730   2.609   2.297  14.155  0.2654  1.1318 -0.0570
  520TMC3    C8 7731   2.146   2.282  14.025 -0.9368 -0.1520  0.3736
  520TMC3    O1 7732   2.616   2.184  14.208  0.1369  0.3182 -0.4083
  520TMC3    O2 7733   2.173   2.173  13.973 -0.5343  0.2529  0.1054
  521MPD2     C 7734   2.975   0.114   0.240  0.1898 -0.1796  0.6522
  521MPD2    C1 7735   2.957   0.181   0.120 -0.3274  0.2528  0.6071
  521MPD2    C2 7736   3.057   0.150   0.026  0.5357  0.0444  0.2466
  521MPD2    C3 7737   3.171   0.072   0.051  0.9275  0.1297 -0.7572
  521MPD2    C4 7738   3.185   0.015   0.176  0.2306  0.0739 -0.1126
  521MPD2    C5 7739   3.084   0.038   0.267 -0.1614 -0.3364 -0.1351
  521MPD2     H 7740   3.041   0.184  17.620 -1.0248  0.4502  0.6182
  521MPD2    H1 7741   3.270   4.679   0.207 -1.3661 -1.1755  1.8572
  521MPD2    H2 7742   2.910   0.135   0.324  0.8468 -0.3632  1.2076
  521MPD2    H3 7743   3.081   4.701   0.357  1.3105 -1.1685 -0.6504
  521MPD2     N 7744   3.253   0.040  17.640  0.1573 -0.3016 -0.5172
  521MPD2    H5 7745   3.223   0.088  17.556 -0.5336 -1.0450 -0.6982
  521MPD2    N1 7746   2.842   0.270   0.098 -0.6090  0.4709  0.6163
  521MPD2    H7 7747   2.781   0.278   0.178 -1.3803  0.5387  0.0230
  522TMC3    C1 7748   3.453   4.723  17.528  0.5786 -0.3865  0.1153
  522TMC3    C2 7749   3.555   4.630  17.516  0.0119  0.3850 -0.1178
  522TMC3    C3 7750   3.659   4.672  17.439  0.5538  0.0301 -0.2398
  522TMC3    C4 7751   3.453   0.124  17.471 -0.6628  0.1826 -0.6606
  522TMC3    C5 7752   3.553   0.155  17.387 -0.1379 -0.3560 -0.5081
  522TMC3    C6 7753   3.662   0.070  17.377  0.5482  0.6257 -0.2112
  522TMC3     C 7754   3.372   4.703  17.643 -0.1155  0.2607 -0.5682
  522TMC3     O 7755   3.407   4.621   0.028  0.2380 -0.1175 -0.6360
  522TMC3     H 7756   3.552   4.528  17.553 -2.3943  0.6128  0.3217
  522TMC3    H1 7757   3.377   0.198  17.494 -0.0711  0.8103 -0.7179
  522TMC3    H2 7758   3.747   0.104  17.320  0.1995 -0.0030 -1.1159
  522TMC3    C7 7759   3.548   0.256  17.293 -0.1719 -0.2784 -0.3216
  522TMC3    C8 7760   3.782   4.599  17.445 -0.9550  0.1822 -0.0699
  522TMC3    O1 7761   3.654   0.319  17.276 -0.4765  0.0044 -0.5143
  522TMC3    O2 7762   3.797   4.513  17.534  0.0308  0.2971 -0.0135
  523MPD2     C 7763   0.949   0.696  10.544 -0.0223 -0.2187  0.2708
  523MPD2    C1 7764   0.889   0.639  10.433  0.2940  0.3923  0.2789
  523MPD2    C2 7765   0.784   0.702  10.374  0.5313  0.2521 -0.7576
  523MPD2    C3 7766   0.741   0.825  10.426 -0.6655  0.4236  0.2887
  523MPD2    C4 7767   0.803   0.877  10.533 -0.9499 -0.4818 -0.4277
  523MPD2    C5 7768   0.909   0.817  10.592  0.3123  0.4255 -0.1820
  523MPD2     H 7769   0.731   0.660  10.289 -2.2477 -0.1382  1.1673
  523MPD2    H1 7770   0.772   0.974  10.571 -2.6696 -1.5096  0.7893
  523MPD2    H2 7771   1.046   0.656  10.573 -0.2703 -1.1755 -0.2367
  523MPD2    H3 7772   0.975   0.866  10.663 -0.2556  1.8183 -0.6230
  523MPD2     N 7773   0.635   0.902  10.379 -0.3787  0.1349  0.0565
  523MPD2    H5 7774   0.609   0.990  10.421  0.4703  0.4405 -0.0669
  523MPD2    N1 7775   0.946   0.512  10.392 -0.0587 -0.0243  0.2231
  523MPD2    H7 7776   1.019   0.475  10.452 -1.4316 -0.8221  1.3910
  524TMC3    C1 7777   0.455   0.950  10.231  0.3201 -0.0043  0.0227
  524TMC3    C2 7778   0.354   0.895  10.151  0.6935  0.2869 -0.0014
  524TMC3    C3 7779   0.274   0.977  10.068 -0.4599 -0.0293 -0.5224
  524TMC3    C4 7780   0.477   1.083  10.236 -0.1885 -0.2350  0.0986
  524TMC3    C5 7781   0.391   1.162  10.160 -0.6814 -0.8363 -0.0010
  524TMC3    C6 7782   0.294   1.116  10.071  0.2927 -0.0844 -0.0227
  524TMC3     C 7783   0.560   0.859  10.267  0.3082 -0.2873  0.9542
  524TMC3     O 7784   0.565   0.754  10.206 -0.0834  0.6525  0.0247
  524TMC3     H 7785   0.349   0.787  10.153  0.5014  0.2907 -0.2900
  524TMC3    H1 7786   0.556   1.128  10.294  0.1917  0.2099 -0.7589
  524TMC3    H2 7787   0.222   1.173  10.013  2.6149  1.1878 -1.6838
  524TMC3    C7 7788   0.394   1.305  10.191 -0.3033  0.3876 -0.0132
  524TMC3    C8 7789   0.247   0.925   9.933  1.1812 -0.3469 -0.2132
  524TMC3    O1 7790   0.444   1.332  10.299  0.7159 -0.0179  0.4160
  524TMC3    O2 7791   0.248   1.003   9.839  0.2695 -0.0510 -0.6346
  525MPD2     C 7792   3.486   2.343  14.586  0.2473  0.3673  0.2644
  525MPD2    C1 7793   3.500   2.416  14.697  0.5034 -0.2791 -0.6174
  525MPD2    C2 7794   3.514   2.551  14.683  0.0843 -0.5372  0.0649
  525MPD2    C3 7795   3.566   2.602  14.564 -0.2874  0.4788 -1.0393
  525MPD2    C4 7796   3.580   2.517  14.458 -0.2954 -0.7343  0.3832
  525MPD2    C5 7797   3.511   2.393  14.462  0.2491  0.0513  0.2694
  525MPD2     H 7798   3.520   2.609  14.774  0.0722  0.7225 -0.7376
  525MPD2    H1 7799   3.622   2.558  14.367  0.5020  0.3872  1.2475
  525MPD2    H2 7800   3.456   2.239  14.577  0.2065  0.5777 -2.0121
  525MPD2    H3 7801   3.511   2.318  14.383  2.0477  0.1027  0.2144
  525MPD2     N 7802   3.612   2.736  14.573  0.2025  0.2484 -0.8994
  525MPD2    H5 7803   3.588   2.790  14.656 -2.2742 -0.1351 -1.3881
  525MPD2    N1 7804   3.504   2.363  14.832  0.1908  0.2992 -0.8413
  525MPD2    H7 7805   3.540   2.426  14.903  2.3475 -0.5634 -1.1880
  526TMC3    C1 7806   3.525   2.200  15.001  0.4327  0.3079  0.3328
  526TMC3    C2 7807   3.519   2.065  15.038  0.0076 -0.3121 -0.1995
  526TMC3    C3 7808   3.621   2.016  15.126 -0.5771 -0.6629 -0.1820
  526TMC3    C4 7809   3.624   2.283  15.044  0.1335 -0.6033  0.8177
  526TMC3    C5 7810   3.724   2.231  15.117  0.4160 -0.1951 -0.3492
  526TMC3    C6 7811   3.724   2.103  15.163 -0.4311 -0.6675  0.5676
  526TMC3     C 7812   3.465   2.234  14.871 -0.1212 -0.8272 -0.1040
  526TMC3     O 7813   3.404   2.148  14.811  0.3560 -0.5731 -0.0220
  526TMC3     H 7814   3.438   1.997  15.013 -1.1613  0.6402  0.9919
  526TMC3    H1 7815   3.633   2.388  15.019 -1.6805 -0.5057  0.5646
  526TMC3    H2 7816   3.791   2.067  15.240  2.3058  1.2109 -0.9583
  526TMC3    C7 7817   3.853   2.294  15.093  0.4763  0.1330 -0.6204
  526TMC3    C8 7818   3.593   1.901  15.215 -0.3994 -0.3029 -0.5913
  526TMC3    O1 7819   3.846   2.409  15.055 -0.2094  0.5693 -0.3432
  526TMC3    O2 7820   3.666   1.889  15.313  0.3642  0.0206  0.2629
  527MPD2     C 7821   2.242   0.290   2.099 -0.3901 -0.3715 -0.0597
  527MPD2    C1 7822   2.340   0.187   2.099  0.1758 -0.1004  0.3485
  527MPD2    C2 7823   2.390   0.157   1.971 -0.5455  0.1387  0.6370
  527MPD2    C3 7824   2.336   0.220   1.860  0.1594 -0.6658  0.7583
  527MPD2    C4 7825   2.248   0.332   1.865 -0.4703  0.2929 -0.2751
  527MPD2    C5 7826   2.206   0.361   1.984  0.0275  0.9384  0.1508
  527MPD2     H 7827   2.467   0.082   1.954 -0.8027 -0.5127  2.2626
  527MPD2    H1 7828   2.208   0.380   1.776 -0.1047 -1.0707 -1.1729
  527MPD2    H2 7829   2.197   0.317   2.194 -1.6522 -1.8106 -0.2381
  527MPD2    H3 7830   2.128   0.435   1.997 -1.7556 -0.8859 -0.1847
  527MPD2     N 7831   2.385   0.172   1.733  0.0552 -0.6403 -0.2912
  527MPD2    H5 7832   2.440   0.090   1.759  0.4954 -0.5426 -0.9247
  527MPD2    N1 7833   2.399   0.125   2.218  0.4552  0.3624 -0.2064
  527MPD2    H7 7834   2.464   0.048   2.207 -0.0235 -0.5719  3.4618
  528TMC3    C1 7835   2.444   0.083   2.447 -0.2326 -0.3387  0.1963
  528TMC3    C2 7836   2.583   0.069   2.428 -0.0121  0.3075 -0.0656
  528TMC3    C3 7837   2.645   0.004   2.526  0.5410  0.5477 -0.6804
  528TMC3    C4 7838   2.380   0.030   2.557 -0.8346 -0.3676 -0.9245
  528TMC3    C5 7839   2.450   4.676   2.649  0.1254  0.3966 -0.1737
  528TMC3    C6 7840   2.585   4.662   2.633  0.3417 -0.2709 -0.0225
  528TMC3     C 7841   2.358   0.151   2.345  0.2152 -0.1544  0.6150
  528TMC3     O 7842   2.261   0.212   2.390 -0.1278  0.2463 -0.0776
  528TMC3     H 7843   2.641   0.092   2.339 -2.0739  0.4433 -1.3834
  528TMC3    H1 7844   2.272   0.032   2.570 -0.6046  1.9119  0.6142
  528TMC3    H2 7845   2.646   4.616   2.710  0.9627  0.9214  0.2047
  528TMC3    C7 7846   2.386   4.558   2.694  0.4358 -0.0316 -0.2001
  528TMC3    C8 7847   2.788   0.015   2.535  0.1431 -0.0713  0.0938
  528TMC3    O1 7848   2.280   4.537   2.648  0.0260  0.6348 -0.2108
  528TMC3    O2 7849   2.852   4.663   2.606  0.3195  0.2480  0.0886
  529MPD2     C 7850   0.125   3.576   0.811 -0.4260 -0.4002  0.3091
  529MPD2    C1 7851   0.024   3.491   0.779  0.3897  0.4379  0.5278
  529MPD2    C2 7852   4.711   3.469   0.650 -0.1703  0.3074 -0.6908
  529MPD2    C3 7853   0.070   3.531   0.555 -0.4301 -0.7143 -0.1955
  529MPD2    C4 7854   0.184   3.597   0.586 -0.2345  0.0585 -0.1515
  529MPD2    C5 7855   0.209   3.618   0.716 -0.5921  0.5882 -0.2337
  529MPD2     H 7856   4.622   3.410   0.633 -1.8570  2.6739 -0.1547
  529MPD2    H1 7857   0.240   3.643   0.505 -1.1275  3.0309  0.9270
  529MPD2    H2 7858   0.158   3.606   0.910  2.7069 -1.6517 -0.3490
  529MPD2    H3 7859   0.294   3.680   0.742  2.4159 -2.0679 -3.8037
  529MPD2     N 7860   0.038   3.522   0.418 -0.4220 -0.2364 -0.2900
  529MPD2    H5 7861   0.102   3.567   0.353 -0.7598  1.6612  0.6831
  529MPD2    N1 7862   4.666   3.442   0.884 -0.6165  0.1028 -0.6761
  529MPD2    H7 7863   4.582   3.391   0.856 -0.0242 -0.3039 -1.7095
  530TMC3    C1 7864   4.578   3.393   1.083  0.8826  0.0823  0.1909
  530TMC3    C2 7865   4.552   3.446   1.203  0.3149  0.5868 -1.1405
  530TMC3    C3 7866   4.481   3.372   1.297  0.0674 -0.2249 -0.0432
  530TMC3    C4 7867   4.542   3.262   1.048  0.6836 -0.1110 -0.1074
  530TMC3    C5 7868   4.465   3.199   1.143 -0.1397  0.0094  0.8266
  530TMC3    C6 7869   4.427   3.252   1.262  0.3104  0.4672  0.2801
  530TMC3     C 7870   4.689   3.453   1.018 -0.4303  0.3087  0.2060
  530TMC3     O 7871   0.045   3.521   1.084 -0.2663 -0.2223  0.5103
  530TMC3     H 7872   4.567   3.552   1.222  0.9012  0.1302  0.9872
  530TMC3    H1 7873   4.569   3.205   0.960  0.1097  0.1202 -0.4339
  530TMC3    H2 7874   4.368   3.207   1.341  0.4919  0.3895  0.3728
  530TMC3    C7 7875   4.405   3.067   1.116  0.1349  0.4782 -0.1616
  530TMC3    C8 7876   4.501   3.412   1.435  1.3498  0.0013  0.5737
  530TMC3    O1 7877   4.416   3.025   1.003  0.1715 -0.2867 -0.1362
  530TMC3    O2 7878   4.499   3.534   1.462  0.8373 -0.4938  0.4848
  531MPD2     C 7879   3.107   1.245  13.236 -0.3014  0.4495  0.1129
  531MPD2    C1 7880   2.996   1.303  13.290  0.1855  0.0143 -0.6768
  531MPD2    C2 7881   2.875   1.278  13.231 -0.0174  0.0074  0.6349
  531MPD2    C3 7882   2.865   1.188  13.123  0.1148  0.4594 -0.3736
  531MPD2    C4 7883   2.980   1.125  13.075  0.3190 -0.2481 -0.0402
  531MPD2    C5 7884   3.102   1.161  13.132 -0.1644 -0.4312 -0.6751
  531MPD2     H 7885   2.787   1.328  13.268 -1.1381 -1.0234 -0.6388
  531MPD2    H1 7886   2.987   1.045  13.002  0.2408 -1.0298  0.8141
  531MPD2    H2 7887   3.208   1.260  13.271  0.3172 -0.1567 -1.3844
  531MPD2    H3 7888   3.192   1.107  13.105  0.7926  0.8149  0.0093
  531MPD2     N 7889   2.751   1.145  13.054  0.3135 -0.2475 -0.2294
  531MPD2    H5 7890   2.758   1.076  12.980 -1.1232 -1.0638  0.4168
  531MPD2    N1 7891   3.020   1.391  13.397  0.6441  0.0116 -0.4850
  531MPD2    H7 7892   3.114   1.393  13.438  0.2970 -2.4889  0.4446
  532TMC3    C1 7893   2.961   1.553  13.553  0.6578 -0.8763  0.5799
  532TMC3    C2 7894   2.881   1.661  13.569  0.2154  0.5834  0.2144
  532TMC3    C3 7895   2.816   1.681  13.692 -0.0855  0.1816  0.0341
  532TMC3    C4 7896   2.983   1.472  13.658 -0.4219 -0.0213 -0.0413
  532TMC3    C5 7897   2.937   1.505  13.782 -0.1881  0.3427  0.0803
  532TMC3    C6 7898   2.844   1.605  13.801  0.6653 -0.7276  0.4166
  532TMC3     C 7899   2.929   1.487  13.432  0.2160 -0.2505 -0.1318
  532TMC3     O 7900   2.819   1.522  13.383  0.0278  0.0496 -0.2392
  532TMC3     H 7901   2.858   1.728  13.487 -0.7987 -0.7013 -0.5542
  532TMC3    H1 7902   3.063   1.400  13.645 -0.4720 -0.1644  0.4502
  532TMC3    H2 7903   2.804   1.609  13.902 -1.7520 -1.1117 -0.5435
  532TMC3    C7 7904   3.013   1.474  13.900  1.0378 -0.4302  0.4115
  532TMC3    C8 7905   2.672   1.681  13.677 -0.5622  0.3278  0.1585
  532TMC3    O1 7906   2.957   1.454  14.009  0.2363 -0.1757 -0.5006
  532TMC3    O2 7907   2.597   1.707  13.773  0.4137  0.0185 -0.1653
  533TMC3    C1 7908   3.705   2.943  14.520 -0.0705 -0.3876 -0.2364
  533TMC3    C2 7909   3.834   2.994  14.514  0.5287  0.2174  0.0291
  533TMC3    C3 7910   3.860   3.076  14.619 -0.5925 -0.0107 -0.1334
  533TMC3    C4 7911   3.616   2.981  14.615 -0.5455 -0.5940 -0.8761
  533TMC3    C5 7912   3.657   3.059  14.720 -0.6065  0.7073 -0.6459
  533TMC3    C6 7913   3.778   3.113  14.723 -0.2788  0.2768 -0.7748
  533TMC3     C 7914   3.684   2.805  14.480 -0.2488 -0.1763 -0.7156
  533TMC3     O 7915   3.746   2.755  14.385 -0.2076  0.0991 -0.8333
  533TMC3     H 7916   3.914   2.949  14.456  0.9939  0.5976  0.3719
  533TMC3    H1 7917   3.514   2.944  14.614  0.1134 -2.4632  0.7095
  533TMC3    H2 7918   3.807   3.178  14.804 -1.3595  0.1815 -0.3026
  533TMC3    C7 7919   3.611   2.988  14.834  0.6273 -0.8442 -0.7999
  533TMC3    C8 7920   3.998   3.095  14.650 -0.8189 -0.0718  0.3301
  533TMC3    O1 7921   3.597   2.868  14.815 -0.6126 -0.0078 -0.5615
  533TMC3    O2 7922   4.015   3.113  14.768  0.4446  0.1532  0.4401
  534MPD2     C 7923   2.301   3.757   2.582  0.8817 -0.2105  0.0145
  534MPD2    C1 7924   2.278   3.835   2.469 -0.4306 -0.8561 -0.1734
  534MPD2    C2 7925   2.175   3.802   2.379 -0.4389 -0.2056  0.3859
  534MPD2    C3 7926   2.106   3.681   2.393 -1.0376  1.0874  0.6240
  534MPD2    C4 7927   2.137   3.612   2.508 -0.2689 -0.1031 -0.4357
  534MPD2    C5 7928   2.237   3.638   2.593  0.0176  0.4080 -0.7272
  534MPD2     H 7929   2.158   3.865   2.292 -1.0775  0.3323  0.9028
  534MPD2    H1 7930   2.070   3.529   2.530  0.8968 -0.7075  0.8514
  534MPD2    H2 7931   2.389   3.778   2.643  1.1160 -0.6384 -0.1730
  534MPD2    H3 7932   2.257   3.567   2.673  0.0205  1.3151  0.0709
  534MPD2     N 7933   2.021   3.630   2.299 -0.6998  0.3337  0.4009
  534MPD2    H5 7934   1.957   3.557   2.329 -1.9738  1.2296 -0.1130
  534MPD2    N1 7935   2.331   3.963   2.447 -0.6400  0.0048 -0.0967
  534MPD2    H7 7936   2.293   4.016   2.369  2.7428  0.4635 -1.4656
  535TMC3    C1 7937   1.915   3.580   2.094 -0.2561  0.3112  0.2329
  535TMC3    C2 7938   1.823   3.491   2.142  0.5037  0.1396  0.0153
  535TMC3    C3 7939   1.758   3.408   2.055  0.5559  0.2527 -0.4136
  535TMC3    C4 7940   1.946   3.583   1.960  0.2363  0.4332 -0.0847
  535TMC3    C5 7941   1.867   3.505   1.878 -0.4649 -0.2638  0.5400
  535TMC3    C6 7942   1.769   3.424   1.923  0.5204 -0.1528 -0.3635
  535TMC3     C 7943   1.992   3.676   2.173  0.1899  0.0975 -0.1051
  535TMC3     O 7944   2.056   3.761   2.113 -0.0038 -0.3548  0.1573
  535TMC3     H 7945   1.793   3.510   2.244 -2.9829  1.1504 -1.1744
  535TMC3    H1 7946   2.024   3.642   1.915  1.9176 -0.8315  1.1811
  535TMC3    H2 7947   1.725   3.355   1.851  0.9589 -0.7632 -0.0456
  535TMC3    C7 7948   1.907   3.500   1.743  0.1458  0.4027 -0.3714
  535TMC3    C8 7949   1.641   3.337   2.107  0.1635  0.4722 -0.1372
  535TMC3    O1 7950   2.019   3.533   1.713 -0.5943 -0.0665  0.1374
  535TMC3    O2 7951   1.563   3.295   2.025  0.3778 -0.0806  0.0123
  536MPD2     C 7952   0.654   1.929  16.482  0.4391  0.8106 -0.6332
  536MPD2    C1 7953   0.539   1.882  16.533 -0.0442  0.0318 -0.3665
  536MPD2    C2 7954   0.434   1.857  16.440  0.2340  0.2786 -0.2363
  536MPD2    C3 7955   0.450   1.881  16.308  0.4337  0.6808 -0.5290
  536MPD2    C4 7956   0.563   1.942  16.267  0.4429 -0.6176 -0.4261
  536MPD2    C5 7957   0.667   1.956  16.350  0.5839 -0.3606  0.2452
  536MPD2     H 7958   0.336   1.826  16.476  0.0672 -0.6164 -1.4334
  536MPD2    H1 7959   0.576   1.974  16.164 -2.6565 -0.6827 -0.8332
  536MPD2    H2 7960   0.727   1.956  16.557 -1.1303  2.7698  0.1598
  536MPD2    H3 7961   0.765   1.990  16.319  1.1897 -1.7252  0.6383
  536MPD2     N 7962   0.340   1.877  16.213  0.2475 -0.0183  0.8702
  536MPD2    H5 7963   0.371   1.901  16.120  0.2275 -0.7060  0.6938
  536MPD2    N1 7964   0.528   1.855  16.672  0.0707 -0.0708  0.2187
  536MPD2    H7 7965   0.608   1.877  16.731  1.2338 -1.2496 -0.9211
  537TMC3    C1 7966   0.414   1.793  16.879 -0.3595 -1.7136  0.3673
  537TMC3    C2 7967   0.486   1.884  16.957  0.5419 -0.7575 -0.9767
  537TMC3    C3 7968   0.495   1.860  17.089  0.0625  0.0740 -0.5593
  537TMC3    C4 7969   0.352   1.687  16.933  0.1918  0.2063  0.2321
  537TMC3    C5 7970   0.363   1.667  17.068  0.9544  0.5508  0.1120
  537TMC3    C6 7971   0.441   1.751  17.152 -1.1268  0.1872  0.5189
  537TMC3     C 7972   0.411   1.809  16.735  0.1954  0.4824 -0.5648
  537TMC3     O 7973   0.301   1.780  16.693  0.5478 -0.2875  0.0278
  537TMC3     H 7974   0.535   1.971  16.915  0.6606  0.3327  1.4021
  537TMC3    H1 7975   0.294   1.623  16.868  2.0909 -0.4510 -0.8075
  537TMC3    H2 7976   0.438   1.744  17.260 -0.1577  1.6555  0.6393
  537TMC3    C7 7977   0.307   1.541  17.120 -0.0048  0.0161  1.1072
  537TMC3    C8 7978   0.538   1.977  17.177  0.5266  0.8236 -1.0964
  537TMC3    O1 7979   0.241   1.468  17.043  0.5058  0.4874 -0.3728
  537TMC3    O2 7980   0.559   1.953  17.296 -0.0339 -0.3140  0.4891
  538TMC3    C1 7981   1.430   0.631  10.584 -0.2480 -0.4298  0.4425
  538TMC3    C2 7982   1.499   0.726  10.522 -0.4430 -0.5150 -0.6647
  538TMC3    C3 7983   1.480   0.855  10.562  0.3904  0.3538 -0.3960
  538TMC3    C4 7984   1.345   0.657  10.691  0.1151  0.0061  0.4002
  538TMC3    C5 7985   1.329   0.789  10.734  0.8677 -0.3189 -0.7471
  538TMC3    C6 7986   1.403   0.891  10.672  0.4183 -0.0325 -0.3488
  538TMC3     C 7987   1.512   0.514  10.609  0.4213  0.0268  0.3311
  538TMC3     O 7988   1.581   0.470  10.516  0.1948  0.0484  0.2032
  538TMC3     H 7989   1.568   0.696  10.444  1.0524  2.0365 -0.3476
  538TMC3    H1 7990   1.279   0.580  10.728  0.2185 -0.3722 -0.1991
  538TMC3    H2 7991   1.396   0.996  10.697 -1.2374  0.0218 -1.0674
  538TMC3    C7 7992   1.211   0.815  10.823 -0.2639  0.1064  0.3911
  538TMC3    C8 7993   1.570   0.954  10.509  0.5471 -0.5830  0.1676
  538TMC3    O1 7994   1.128   0.725  10.841 -0.1685  0.1560  0.1164
  538TMC3    O2 7995   1.531   1.066  10.493  0.7535 -0.2946  0.1360
  539MPD2     C 7996   1.290   4.489  11.987  0.2481  0.4677  0.7833
  539MPD2    C1 7997   1.285   4.514  11.851  0.4791 -0.0449  0.7999
  539MPD2    C2 7998   1.233   4.634  11.805  0.0988 -0.8115  0.6309
  539MPD2    C3 7999   1.199   0.002  11.901  0.1231 -0.0529  0.3695
  539MPD2    C4 8000   1.185   4.688  12.030  0.0688  0.0902 -0.1930
  539MPD2    C5 8001   1.231   4.572  12.074  0.6304 -0.6876  0.1029
  539MPD2     H 8002   1.227   4.671  11.703  1.6974  0.2422  0.9209
  539MPD2    H1 8003   1.137   0.032  12.100 -3.4432 -1.4712 -1.0679
  539MPD2    H2 8004   1.316   4.391  12.026 -0.5204 -0.2323 -0.4885
  539MPD2    H3 8005   1.215   4.548  12.178 -1.8391 -0.5366 -0.2593
  539MPD2     N 8006   1.168   0.138  11.884 -0.3276 -0.3166  0.2018
  539MPD2    H5 8007   1.148   0.195  11.965 -0.6553 -0.2568  0.0766
  539MPD2    N1 8008   1.332   4.424  11.752  0.0665  0.6246 -0.2430
  539MPD2    H7 8009   1.347   4.452  11.656  1.7715  1.7841  0.3646
  540TMC3    C1 8010   1.153   0.351  11.795  0.1076 -0.2127  0.9533
  540TMC3    C2 8011   1.096   0.394  11.677  0.7071  0.2559  0.1026
  540TMC3    C3 8012   0.994   0.492  11.693  0.6024 -0.9051 -0.3394
  540TMC3    C4 8013   1.145   0.416  11.917 -0.2308 -0.2453  0.2504
  540TMC3    C5 8014   1.057   0.520  11.919 -0.3062  0.7138  0.7377
  540TMC3    C6 8015   0.982   0.559  11.811  0.3956  0.8857 -0.1009
  540TMC3     C 8016   1.198   0.212  11.777 -0.1419  0.0055 -0.3452
  540TMC3     O 8017   1.233   0.165  11.670  0.4007  0.1229 -0.4444
  540TMC3     H 8018   1.107   0.337  11.586 -1.5616 -0.4232  0.2455
  540TMC3    H1 8019   1.182   0.371  12.008  0.6517  3.7700  1.9082
  540TMC3    H2 8020   0.917   0.646  11.812  0.3302  0.8548 -1.2046
  540TMC3    C7 8021   0.992   0.552  12.042 -0.1889 -0.4500 -0.4734
  540TMC3    C8 8022   0.956   0.550  11.565  0.2590  0.1501 -0.3219
  540TMC3    O1 8023   0.900   0.631  12.033  0.3480  0.7131  0.2803
  540TMC3    O2 8024   0.967   0.669  11.550 -0.0704 -0.4174 -0.1823
  541MPD2     C 8025   4.619   1.834  13.712 -0.0900 -0.2420 -0.2287
  541MPD2    C1 8026   4.691   1.748  13.629  0.9200 -0.7197 -0.0638
  541MPD2    C2 8027   0.048   1.802  13.529 -0.0125  0.3456 -0.1397
  541MPD2    C3 8028   0.031   1.939  13.500  0.8489  0.6150  0.2107
  541MPD2    C4 8029   4.687   2.023  13.587 -0.3358 -0.2216  0.5726
  541MPD2    C5 8030   4.619   1.971  13.696  0.6694 -0.2414  0.3278
  541MPD2     H 8031   0.102   1.741  13.457  0.4821  1.8377 -1.0193
  541MPD2    H1 8032   4.680   2.128  13.561  1.1932 -0.4150 -0.6773
  541MPD2    H2 8033   4.552   1.801  13.790  0.9900 -0.9718  0.3817
  541MPD2    H3 8034   4.563   2.035  13.763 -0.3981 -2.1655  1.2761
  541MPD2     N 8035   0.082   2.005  13.386  0.0123  0.1263 -0.6345
  541MPD2    H5 8036   0.054   2.101  13.367  0.5300  0.3620 -0.1914
  541MPD2    N1 8037   4.691   1.612  13.654 -0.9310  0.2546  0.1029
  541MPD2    H7 8038   4.622   1.573  13.717 -1.1019 -3.5208 -2.4183
  542TMC3    C1 8039   0.166   2.004  13.169  0.0722 -0.7194  0.3366
  542TMC3    C2 8040   0.217   1.930  13.069  0.4456 -0.3111  0.0974
  542TMC3    C3 8041   0.192   1.979  12.949 -0.1946  0.6691 -0.1978
  542TMC3    C4 8042   0.108   2.129  13.145 -0.3505  0.1224 -0.7355
  542TMC3    C5 8043   0.080   2.170  13.018 -0.3902  0.1609  0.3224
  542TMC3    C6 8044   0.134   2.096  12.915  0.3558  0.7891 -0.7167
  542TMC3     C 8045   0.169   1.945  13.297  0.5113  0.0403  0.2834
  542TMC3     O 8046   0.255   1.858  13.318  0.1816  0.1978 -0.0899
  542TMC3     H 8047   0.249   1.829  13.090  0.7457  0.0190  1.2378
  542TMC3    H1 8048   0.067   2.184  13.229  1.6824  0.8131 -0.1794
  542TMC3    H2 8049   0.129   2.128  12.812 -1.6199  1.6855 -0.3477
  542TMC3    C7 8050   0.063   2.309  12.984  0.3519 -0.2845 -0.4856
  542TMC3    C8 8051   0.250   1.912  12.837 -0.1067  0.4282 -0.0739
  542TMC3    O1 8052   0.070   2.395  13.073  0.5875 -0.4411 -0.0252
  542TMC3    O2 8053   0.186   1.929  12.733  0.1287  0.6395  0.0414
  543TMC3    C1 8054   3.473   2.139  17.560  0.1601 -0.9175 -0.5382
  543TMC3    C2 8055   3.493   2.033  17.631  0.1865  0.0731  0.1688
  543TMC3    C3 8056   3.410   1.999   0.037  0.5364 -0.5443 -0.9332
  543TMC3    C4 8057   3.373   2.231  17.599  0.5535 -0.0281 -0.4496
  543TMC3    C5 8058   3.300   2.203   0.024 -0.0143 -0.3305  1.3702
  543TMC3    C6 8059   3.306   2.078   0.084 -0.5363 -0.0786 -1.1815
  543TMC3     C 8060   3.561   2.162  17.451  0.0345 -0.2463  0.6175
  543TMC3     O 8061   3.680   2.137  17.477 -0.5788 -0.4245  0.3094
  543TMC3     H 8062   3.556   1.955  17.589 -0.4916 -0.7280  0.6310
  543TMC3    H1 8063   3.342   2.317  17.540 -0.7811  0.7483  1.3703
  543TMC3    H2 8064   3.277   2.065   0.188  0.5319  0.9887 -0.7526
  543TMC3    C7 8065   3.183   2.286   0.055 -0.1950 -0.0970  0.7418
  543TMC3    C8 8066   3.446   1.880   0.107 -0.3619  0.3726 -0.2867
  543TMC3    O1 8067   3.135   2.354  17.662 -0.4864  0.5843  0.2789
  543TMC3    O2 8068   3.560   1.836   0.088  0.1187  0.0610 -0.2590
  544MPD2     C 8069   3.320   1.410   0.266 -0.3305  0.0825  0.5218
  544MPD2    C1 8070   3.441   1.469   0.233 -0.6780 -0.4385  0.0434
  544MPD2    C2 8071   3.445   1.598   0.206 -0.3239  0.2970 -0.2056
  544MPD2    C3 8072   3.333   1.679   0.200  0.3155 -0.4856  0.7829
  544MPD2    C4 8073   3.212   1.616   0.228  0.4350 -0.3411 -0.2428
  544MPD2    C5 8074   3.209   1.489   0.265  0.0637  0.4065 -0.9319
  544MPD2     H 8075   3.539   1.649   0.189  0.7371 -2.3452 -2.1830
  544MPD2    H1 8076   3.115   1.664   0.217  0.3421 -0.7018 -0.9464
  544MPD2    H2 8077   3.307   1.306   0.296 -3.0289  0.4812  0.7773
  544MPD2    H3 8078   3.114   1.451   0.300  0.8560 -0.7942 -0.0820
  544MPD2     N 8079   3.338   1.818   0.159  0.1043 -0.0152  0.2114
  544MPD2    H5 8080   3.249   1.866   0.159  0.6070  0.9409  1.1300
  544MPD2    N1 8081   3.555   1.385   0.229  0.1503  0.0570 -0.6068
  544MPD2    H7 8082   3.543   1.289   0.258 -1.4487  0.6033  0.5291
  545TMC3    C1 8083   3.768   1.304   0.154 -0.2332  0.0058  0.0851
  545TMC3    C2 8084   3.891   1.348   0.119  0.2421 -0.2043 -0.2947
  545TMC3    C3 8085   3.964   1.250   0.059 -0.9036  0.4460 -1.0483
  545TMC3    C4 8086   3.711   1.175   0.130  0.3867  0.3093  0.0591
  545TMC3    C5 8087   3.796   1.085   0.067 -0.8241 -0.4114 -0.1106
  545TMC3    C6 8088   3.927   1.120   0.042  0.1515  0.1456  0.3438
  545TMC3     C 8089   3.680   1.417   0.182  0.3749  0.3937  0.7324
  545TMC3     O 8090   3.720   1.520   0.135  0.1622 -0.3336  0.0536
  545TMC3     H 8091   3.927   1.449   0.130 -1.4625  0.1013  2.3442
  545TMC3    H1 8092   3.607   1.153   0.153 -0.1925  0.4593 -2.4403
  545TMC3    H2 8093   3.990   1.042  17.696  0.7221 -0.3046  2.0021
  545TMC3    C7 8094   3.754   0.951   0.084  0.2232 -1.0480  0.4331
  545TMC3    C8 8095   4.078   1.305  17.682 -0.3014 -0.2817  0.4654
  545TMC3    O1 8096   3.668   0.932   0.171 -0.0436  0.2526  0.5779
  545TMC3    O2 8097   4.073   1.423  17.655  0.0198 -0.1048 -0.5377
  546MPD2     C 8098   0.516   2.342   0.189 -0.0973  0.4017  0.1519
  546MPD2    C1 8099   0.428   2.392   0.100 -0.5459 -0.4343 -0.0900
  546MPD2    C2 8100   0.430   2.526   0.074  0.5102 -0.1826  0.2389
  546MPD2    C3 8101   0.519   2.613   0.135  0.1362 -0.0796  0.2797
  546MPD2    C4 8102   0.601   2.563   0.235  0.0996  0.5807  0.5846
  546MPD2    C5 8103   0.600   2.429   0.260  0.8312 -0.0991  0.2009
  546MPD2     H 8104   0.348   2.556   0.009  0.2970 -1.5949 -0.1553
  546MPD2    H1 8105   0.681   2.620   0.280  0.8702 -0.7488  0.8758
  546MPD2    H2 8106   0.525   2.237   0.216 -0.8739  0.3190  0.0654
  546MPD2    H3 8107   0.673   2.391   0.331 -1.8805 -0.1106  2.9314
  546MPD2     N 8108   0.519   2.754   0.106  0.3694 -1.0865  0.9890
  546MPD2    H5 8109   0.553   2.819   0.176  1.9631 -1.4438  0.5467
  546MPD2    N1 8110   0.332   2.302   0.049 -0.1214 -0.4023  0.1519
  546MPD2    H7 8111   0.330   2.206   0.081 -3.4674 -0.0906  0.9397
  547TMC3    C1 8112   0.122   2.231  17.655  0.4082 -1.2513 -1.2163
  547TMC3    C2 8113   0.059   2.222  17.533 -0.1049  0.2201  0.4317
  547TMC3    C3 8114   4.692   2.118  17.522  0.6095  0.1622  0.0799
  547TMC3    C4 8115   0.106   2.142   0.066  0.1451  0.5176  0.0029
  547TMC3    C5 8116   0.013   2.045   0.049  0.2769  0.3921 -0.0645
  547TMC3    C6 8117   4.674   2.027  17.626  0.6701 -0.1636  0.1952
  547TMC3     C 8118   0.225   2.334  17.669  0.4461 -0.2373  0.1160
  547TMC3     O 8119   0.206   2.433  17.601  0.7171 -0.5982  0.4039
  547TMC3     H 8120   0.077   2.303  17.463  3.0200 -0.3678  0.5731
  547TMC3    H1 8121   0.160   2.162   0.159 -0.2242 -1.5022  0.6536
  547TMC3    H2 8122   4.592   1.957  17.613  0.8833 -0.3956  0.1070
  547TMC3    C7 8123   4.721   1.945   0.148  0.1222 -0.1570  0.0662
  547TMC3    C8 8124   4.636   2.071  17.402  0.1160  0.5455  0.1138
  547TMC3    O1 8125   0.019   1.991   0.258  0.0427  0.6122  0.3375
  547TMC3    O2 8126   4.531   2.010  17.403  0.2344 -0.2513  0.5743
  548MPD2     C 8127   0.497   3.696  12.550  0.4993 -0.5690  0.3240
  548MPD2    C1 8128   0.519   3.600  12.652 -0.7131  0.1643 -0.2547
  548MPD2    C2 8129   0.622   3.511  12.645  0.3452 -0.5104  0.2067
  548MPD2    C3 8130   0.714   3.522  12.540 -0.0321  0.2283 -0.3279
  548MPD2    C4 8131   0.681   3.604  12.435  0.5568  0.3653  0.2752
  548MPD2    C5 8132   0.582   3.691  12.446  0.2491 -0.1525  0.5772
  548MPD2     H 8133   0.659   3.453  12.729  0.1834 -3.2524 -1.6332
  548MPD2    H1 8134   0.750   3.616  12.352 -0.3111  2.2017 -0.1731
  548MPD2    H2 8135   0.419   3.771  12.542  1.1498  0.1464  0.6583
  548MPD2    H3 8136   0.565   3.770  12.374 -0.4058  1.6857  2.7601
  548MPD2     N 8137   0.826   3.431  12.546 -0.5479  0.0076  0.7923
  548MPD2    H5 8138   0.840   3.374  12.629  2.2988 -0.5667 -0.0762
  548MPD2    N1 8139   0.419   3.591  12.752 -0.1537 -0.3134 -0.2499
  548MPD2    H7 8140   0.338   3.651  12.747 -0.8303 -1.3722 -1.9250
  549TMC3    C1 8141   0.299   3.523  12.939  0.6276  0.3396  0.5910
  549TMC3    C2 8142   0.237   3.643  12.932 -0.3768 -0.2439 -0.1532
  549TMC3    C3 8143   0.138   3.672  13.021 -0.5606 -0.0367  0.3857
  549TMC3    C4 8144   0.261   3.435  13.035  0.5264 -0.3952  0.2697
  549TMC3    C5 8145   0.161   3.466  13.121 -0.8784  0.4545  0.1039
  549TMC3    C6 8146   0.102   3.588  13.119  0.6001  0.2352 -0.6077
  549TMC3     C 8147   0.410   3.493  12.854 -0.2998  0.2160 -0.0683
  549TMC3     O 8148   0.486   3.398  12.880  0.2901 -0.3875  0.0705
  549TMC3     H 8149   0.239   3.723  12.859  1.5883 -0.6783 -0.5681
  549TMC3    H1 8150   0.319   3.346  13.058  1.3312 -0.4120 -1.8153
  549TMC3    H2 8151   0.010   3.602  13.174 -0.0912 -0.6420 -1.5416
  549TMC3    C7 8152   0.107   3.364  13.217 -0.4999  0.2402 -0.0240
  549TMC3    C8 8153   0.026   3.752  12.966 -0.1915  0.4074  0.3827
  549TMC3    O1 8154   0.055   3.404  13.321 -0.0128  0.1633  0.4889
  549TMC3    O2 8155   4.705   3.718  12.860 -0.1354  0.3091 -0.2907
  550TMC3    C1 8156   3.737   1.206  12.808 -0.3954 -0.3932 -0.3376
  550TMC3    C2 8157   3.662   1.244  12.916 -0.0882  0.1649  0.1830
  550TMC3    C3 8158   3.539   1.302  12.892 -0.2425 -0.2026 -0.3137
  550TMC3    C4 8159   3.684   1.196  12.683 -0.3166  0.9532 -0.1055
  550TMC3    C5 8160   3.552   1.236  12.662 -0.0803  0.2506 -0.9154
  550TMC3    C6 8161   3.482   1.292  12.765  0.6048 -0.8179 -0.4498
  550TMC3     C 8162   3.873   1.156  12.830  0.2784 -0.4335  0.1883
  550TMC3     O 8163   3.892   1.108  12.941 -0.3954  0.1498  0.0066
  550TMC3     H 8164   3.705   1.239  13.015  0.2382 -3.8275 -0.1855
  550TMC3    H1 8165   3.731   1.142  12.601 -2.0824 -3.6038  1.8865
  550TMC3    H2 8166   3.386   1.338  12.742  0.8415 -0.6882 -1.1769
  550TMC3    C7 8167   3.486   1.217  12.528 -0.0210  0.3951  0.1317
  550TMC3    C8 8168   3.452   1.355  12.999 -0.7245  0.5804  0.1990
  550TMC3    O1 8169   3.367   1.240  12.534  0.2466 -0.0845 -0.2120
  550TMC3    O2 8170   3.339   1.387  12.961  0.6633  0.5454  0.1964
  551TMC3    C1 8171   1.481   3.976  13.726 -0.0682  0.2850 -0.3769
  551TMC3    C2 8172   1.582   4.045  13.655 -0.0488  0.5610 -0.1262
  551TMC3    C3 8173   1.670   4.104  13.735  0.5898  0.1162  0.1126
  551TMC3    C4 8174   1.469   3.970  13.863  0.6154  0.3280  0.0524
  551TMC3    C5 8175   1.560   4.049  13.937  0.4079  0.1394 -0.0728
  551TMC3    C6 8176   1.656   4.118  13.869 -1.4983 -0.7885  0.0818
  551TMC3     C 8177   1.416   3.865  13.658 -0.1087  0.1488  0.7319
  551TMC3     O 8178   1.438   3.855  13.537 -0.6185 -0.4603 -0.6362
  551TMC3     H 8179   1.605   4.024  13.551  1.5327  1.5914  0.0048
  551TMC3    H1 8180   1.391   3.915  13.915  3.1587 -2.3670  0.9788
  551TMC3    H2 8181   1.727   4.172  13.931 -0.7289 -0.4419 -1.0972
  551TMC3    C7 8182   1.529   4.080  14.075 -1.0019  0.6163 -0.0723
  551TMC3    C8 8183   1.799   4.137  13.687  0.2418  0.5773 -0.0325
  551TMC3    O1 8184   1.615   4.124  14.149  0.1098 -0.2979 -0.6249
  551TMC3    O2 8185   1.884   4.172  13.768  0.5626 -0.9813 -0.3938
  552MPD2     C 8186   2.979   1.078  14.362  0.4079 -1.3246 -0.6007
  552MPD2    C1 8187   3.100   1.067  14.298 -1.4155  0.5589 -0.1992
  552MPD2    C2 8188   3.216   1.066  14.377 -0.1915 -0.5945 -0.4987
  552MPD2    C3 8189   3.212   1.083  14.515 -0.4181  0.6242  0.2556
  552MPD2    C4 8190   3.086   1.090  14.572 -0.3040 -0.6332 -0.6753
  552MPD2    C5 8191   2.974   1.084  14.496 -0.5454 -0.2411  0.5373
  552MPD2     H 8192   3.303   1.072  14.312  1.3808 -0.1490  1.6590
  552MPD2    H1 8193   3.069   1.111  14.677 -3.6380 -1.4970 -1.0553
  552MPD2    H2 8194   2.891   1.075  14.299 -0.6828 -2.4086  0.9810
  552MPD2    H3 8195   2.874   1.090  14.538 -0.5269 -1.0399  0.6900
  552MPD2     N 8196   3.328   1.109  14.596  0.2301  0.7608  0.3330
  552MPD2    H5 8197   3.307   1.131  14.693  0.6034  0.9688  0.3638
  552MPD2    N1 8198   3.113   1.042  14.165 -0.6995 -0.1731 -0.0435
  552MPD2    H7 8199   3.203   1.012  14.129 -0.8949 -1.4130  0.5126
  553TMC3    C1 8200   3.038   0.967  13.944 -0.1765 -0.6778 -0.1118
  553TMC3    C2 8201   3.023   1.040  13.829  0.8168  0.7614  0.1812
  553TMC3    C3 8202   3.067   0.981  13.713 -0.1417  0.0632 -0.9688
  553TMC3    C4 8203   3.103   0.845  13.948  0.5377  0.7729  1.1381
  553TMC3    C5 8204   3.141   0.794  13.828 -0.0692 -0.3072 -0.6148
  553TMC3    C6 8205   3.118   0.848  13.707 -0.0434 -0.0757 -0.5768
  553TMC3     C 8206   3.008   1.041  14.075  0.2851  0.2844  0.0590
  553TMC3     O 8207   2.914   1.120  14.076 -0.1399 -0.4964 -0.6660
  553TMC3     H 8208   2.990   1.143  13.825  0.7256  0.6796 -0.9406
  553TMC3    H1 8209   3.127   0.795  14.041 -0.5468 -2.0265 -0.0946
  553TMC3    H2 8210   3.158   0.804  13.616 -1.4777 -1.8282 -0.3425
  553TMC3    C7 8211   3.244   0.691  13.824 -0.0229  0.7667 -0.2988
  553TMC3    C8 8212   3.128   1.077  13.623  0.2872 -1.4584 -0.2273
  553TMC3    O1 8213   3.215   0.581  13.777 -0.1953  0.1059  0.1244
  553TMC3    O2 8214   3.143   1.188  13.665  0.6367  0.3054 -0.0496
  554TMC3    C1 8215   0.048   4.643  11.919 -0.1879  0.3682 -0.8284
  554TMC3    C2 8216   4.679   4.599  11.834  0.4196 -0.4263  0.4301
  554TMC3    C3 8217   4.703   4.627  11.701 -0.5214 -0.7441  0.4150
  554TMC3    C4 8218   0.150   4.722  11.872 -0.7685 -0.0985  0.0344
  554TMC3    C5 8219   0.175   0.024  11.742  0.3223 -0.6270  0.0930
  554TMC3    C6 8220   0.085   4.699  11.654 -0.6536  0.1997  0.1537
  554TMC3     C 8221   0.036   4.609  12.055 -0.2915  0.4753  0.8168
  554TMC3     O 8222   4.649   4.597  12.103 -0.0497 -0.1587  0.7518
  554TMC3     H 8223   4.593   4.537  11.858 -0.8486  0.9131 -0.6643
  554TMC3    H1 8224   0.212   0.042  11.949 -2.6419 -2.0276  2.6255
  554TMC3    H2 8225   0.106   4.722  11.551 -2.7923  0.4749 -0.2236
  554TMC3    C7 8226   0.259   0.137  11.696  0.3146  0.0442  0.4465
  554TMC3    C8 8227   4.596   4.649  11.612  0.6386 -0.4015 -0.1094
  554TMC3    O1 8228   0.240   0.173  11.581 -0.2011  0.0440 -0.0285
  554TMC3    O2 8229   4.596   0.035  11.551 -0.4656  0.2361 -0.2989
  555TMC3    C1 8230   4.178   3.954  15.145  0.0044  0.6090 -0.4993
  555TMC3    C2 8231   4.179   4.044  15.249 -0.2005 -0.5623 -0.3504
  555TMC3    C3 8232   4.155   4.007  15.376  0.1482  0.3604 -0.0890
  555TMC3    C4 8233   4.144   3.818  15.163  0.8073 -0.1953  0.4993
  555TMC3    C5 8234   4.139   3.784  15.293 -0.8889  0.5103 -0.4353
  555TMC3    C6 8235   4.153   3.871  15.397  0.2683 -0.0207 -0.2991
  555TMC3     C 8236   4.199   3.993  15.008  0.2878  0.6631  0.1043
  555TMC3     O 8237   4.253   3.916  14.931  0.2703  0.2202  0.1950
  555TMC3     H 8238   4.210   4.147  15.232  1.8292 -1.6408 -3.2447
  555TMC3    H1 8239   4.117   3.752  15.081 -0.7828  0.1339  0.7593
  555TMC3    H2 8240   4.134   3.838  15.499 -3.0859  1.3814 -0.4561
  555TMC3    C7 8241   4.117   3.647  15.319  0.3315 -0.3317 -0.1934
  555TMC3    C8 8242   4.204   4.101  15.476 -0.7294  0.5120  0.0950
  555TMC3    O1 8243   4.069   3.624  15.431 -0.5392  0.1790  0.5434
  555TMC3    O2 8244   4.179   4.216  15.447  0.4999  0.8185  1.2910
  556MPD2     C 8245   2.950   1.139  10.781  0.2681 -0.6783 -0.4513
  556MPD2    C1 8246   2.823   1.135  10.821 -0.4420 -0.0634  0.1768
  556MPD2    C2 8247   2.728   1.081  10.737 -0.5291 -0.6202 -0.5798
  556MPD2    C3 8248   2.763   1.037  10.608  0.0484 -0.5807  0.8486
  556MPD2    C4 8249   2.895   1.056  10.562 -0.1837 -0.3802 -0.0064
  556MPD2    C5 8250   2.984   1.106  10.653  0.1432  0.2947  0.2302
  556MPD2     H 8251   2.626   1.073  10.773 -0.6968  1.9089 -0.4600
  556MPD2    H1 8252   2.933   1.040  10.461  0.9590  0.3755  0.3060
  556MPD2    H2 8253   3.029   1.176  10.846 -1.0227 -1.2247  1.4470
  556MPD2    H3 8254   3.081   1.134  10.614 -1.4622  2.9648 -1.8846
  556MPD2     N 8255   2.660   0.965  10.538  0.2001  0.4153  0.1536
  556MPD2    H5 8256   2.569   0.948  10.579  0.0839  0.4892 -0.0720
  556MPD2    N1 8257   2.770   1.191  10.940  0.6977  0.1936  1.2864
  556MPD2    H7 8258   2.671   1.195  10.961  0.4369  0.2151  0.0062
  557TMC3    C1 8259   2.572   0.829  10.363 -0.5333  0.6888 -0.0927
  557TMC3    C2 8260   2.604   0.739  10.269 -0.1011 -0.0100 -0.4443
  557TMC3    C3 8261   2.506   0.666  10.209  1.1068  0.4306  0.4068
  557TMC3    C4 8262   2.444   0.851  10.406 -0.3839 -0.3202 -0.3544
  557TMC3    C5 8263   2.351   0.780  10.338  0.2305 -0.4970  0.4002
  557TMC3    C6 8264   2.380   0.677  10.253  0.5093 -0.4494 -0.3249
  557TMC3     C 8265   2.681   0.904  10.415 -0.1561 -0.8140  0.4635
  557TMC3     O 8266   2.786   0.908  10.359  0.4336  0.2584  0.3153
  557TMC3     H 8267   2.707   0.734  10.238 -0.0595 -0.9744 -0.1300
  557TMC3    H1 8268   2.413   0.930  10.473  1.6657 -0.6201  0.9629
  557TMC3    H2 8269   2.299   0.621  10.207  0.0038  0.4685 -0.5592
  557TMC3    C7 8270   2.209   0.802  10.359 -0.7752 -0.8015  0.3431
  557TMC3    C8 8271   2.539   0.592  10.090  0.1063  0.1097 -0.2187
  557TMC3    O1 8272   2.131   0.705  10.343 -0.2125 -0.0464 -0.5881
  557TMC3    O2 8273   2.613   0.657  10.018  0.0100  0.3445 -0.1840
  558TMC3    C1 8274   0.229   3.551   9.894 -0.1138 -0.2719  0.1260
  558TMC3    C2 8275   0.129   3.499   9.971 -0.0476 -0.8387  0.2729
  558TMC3    C3 8276   0.041   3.417   9.901 -0.0636  0.2685  0.7762
  558TMC3    C4 8277   0.242   3.523   9.767  0.4453  0.1064 -0.8906
  558TMC3    C5 8278   0.150   3.442   9.702 -0.0305 -0.1653  0.3510
  558TMC3    C6 8279   0.046   3.389   9.768 -0.0018 -0.1643  0.0135
  558TMC3     C 8280   0.308   3.657   9.957 -0.2275 -0.2318 -0.1529
  558TMC3     O 8281   0.408   3.687   9.895  0.2373  0.1763 -0.4936
  558TMC3     H 8282   0.152   3.492  10.076 -2.1593  0.6112  0.8445
  558TMC3    H1 8283   0.322   3.571   9.711  0.7490 -0.2963 -0.8080
  558TMC3    H2 8284   4.696   3.323   9.723  2.1626 -2.1592 -0.6039
  558TMC3    C7 8285   0.172   3.417   9.558  0.1249 -0.3004  0.2260
  558TMC3    C8 8286   4.673   3.336   9.985  0.0805 -0.3719  0.0968
  558TMC3    O1 8287   0.249   3.487   9.496 -0.0381  0.1847 -0.3107
  558TMC3    O2 8288   4.629   3.226   9.938 -0.0512  0.0124 -0.1128
  559MPD2     C 8289   4.548   4.649  10.734  0.4753 -0.2382  0.2197
  559MPD2    C1 8290   4.509   4.521  10.776  0.1576  0.3862  0.0912
  559MPD2    C2 8291   4.588   4.453  10.876 -0.0414 -0.2635  0.0685
  559MPD2    C3 8292   4.696   4.513  10.932  0.3917 -0.1993 -0.5782
  559MPD2    C4 8293   0.015   4.632  10.870  0.2307  0.0102  0.0987
  559MPD2    C5 8294   4.664   4.703  10.777  0.6644 -0.5165 -0.1370
  559MPD2     H 8295   4.539   4.370  10.927 -0.3842  0.3166  0.6837
  559MPD2    H1 8296   0.109   4.680  10.893 -0.1464  0.4122  0.7842
  559MPD2    H2 8297   4.489   4.698  10.657  0.3295  0.2463  0.6433
  559MPD2    H3 8298   4.701   0.077  10.747 -1.5145  0.1819 -0.5134
  559MPD2     N 8299   0.053   4.434  11.017 -0.3144  0.6247 -0.1198
  559MPD2    H5 8300   0.047   4.333  11.007  0.2315  0.5949 -0.1500
  559MPD2    N1 8301   4.385   4.471  10.718  0.2145  0.1795  0.7121
  559MPD2    H7 8302   4.351   4.525  10.639 -0.3882 -0.0257  0.8338
  560TMC3    C1 8303   0.252   4.398  11.144  0.1785 -0.3152 -0.1221
  560TMC3    C2 8304   0.207   4.270  11.161 -0.4177  0.2700  0.3540
  560TMC3    C3 8305   0.304   4.172  11.186 -0.8281 -0.1215 -0.5242
  560TMC3    C4 8306   0.381   4.431  11.170  0.4551 -0.0284  0.1251
  560TMC3    C5 8307   0.471   4.334  11.215 -0.1618  0.1511 -0.0109
  560TMC3    C6 8308   0.437   4.204  11.215 -0.4349 -0.0362  0.2774
  560TMC3     C 8309   0.166   4.487  11.074 -0.6158 -0.3523  0.4751
  560TMC3     O 8310   0.196   4.609  11.092  0.0936  0.0524  0.1055
  560TMC3     H 8311   0.109   4.228  11.141 -0.0869 -1.8080  3.1530
  560TMC3    H1 8312   0.417   4.529  11.139  2.3126 -0.5067  0.7429
  560TMC3    H2 8313   0.500   4.120  11.240 -2.1691 -0.9969  1.3895
  560TMC3    C7 8314   0.607   4.376  11.237 -0.7582  0.1149  0.0910
  560TMC3    C8 8315   0.273   4.034  11.147 -0.0229 -0.6087 -0.4941
  560TMC3    O1 8316   0.647   4.478  11.181  0.1100  0.4701  0.2541
  560TMC3    O2 8317   0.165   3.994  11.182 -0.2511  0.0538  0.3227
  561TMC3    C1 8318   2.363   3.339  11.383  0.2523 -0.3933  0.0414
  561TMC3    C2 8319   2.330   3.283  11.498 -0.0553  0.4601  0.2207
  561TMC3    C3 8320   2.291   3.371  11.600 -0.3624 -0.3839  0.2233
  561TMC3    C4 8321   2.355   3.474  11.357  0.1761 -0.2845  0.0418
  561TMC3    C5 8322   2.312   3.549  11.457 -0.3537  0.4303 -0.1287
  561TMC3    C6 8323   2.282   3.505  11.584  0.6391 -0.0452 -0.2845
  561TMC3     C 8324   2.391   3.268  11.265 -0.7623  0.5521 -0.2291
  561TMC3     O 8325   2.357   3.309  11.156 -0.2114 -0.1897 -0.2278
  561TMC3     H 8326   2.325   3.176  11.513 -1.5605  0.6162  0.8213
  561TMC3    H1 8327   2.376   3.510  11.257  0.1004  1.2893  0.5964
  561TMC3    H2 8328   2.276   3.584  11.658 -1.6899 -0.6614  0.1903
  561TMC3    C7 8329   2.325   3.694  11.443 -0.0134  0.9575 -0.0729
  561TMC3    C8 8330   2.284   3.313  11.736  0.3132 -0.7108  0.1976
  561TMC3    O1 8331   2.260   3.765  11.523 -0.2692  0.3459  0.4934
  561TMC3    O2 8332   2.327   3.197  11.757  0.5692 -0.2261 -0.3789
  562TMC3    C1 8333   4.383   4.383  16.113  0.7788  0.0038 -0.5244
  562TMC3    C2 8334   4.405   4.490  16.027 -0.0777  0.3318  0.1110
  562TMC3    C3 8335   4.329   4.499  15.918  0.1889 -0.3059 -0.2301
  562TMC3    C4 8336   4.285   4.292  16.089  0.3555  0.6840  0.5340
  562TMC3    C5 8337   4.219   4.304  15.971 -0.6030  0.0179 -0.2903
  562TMC3    C6 8338   4.233   4.407  15.880 -0.1690 -0.1678 -0.0044
  562TMC3     C 8339   4.496   4.317  16.171 -0.2905 -0.5001 -0.3635
  562TMC3     O 8340   4.484   4.195  16.179  0.5352 -0.6038  0.3470
  562TMC3     H 8341   4.473   4.569  16.057  0.3333  0.8751 -2.3241
  562TMC3    H1 8342   4.251   4.223  16.164  0.2732  1.8238  1.5421
  562TMC3    H2 8343   4.201   4.409  15.776 -0.8236  1.3889  0.2143
  562TMC3    C7 8344   4.172   4.174  15.918  0.6034  0.0278 -0.4068
  562TMC3    C8 8345   4.362   4.604  15.829  0.2639 -0.5652 -0.3182
  562TMC3    O1 8346   4.071   4.172  15.853 -0.2672  0.2545 -0.1498
  562TMC3    O2 8347   4.468   4.657  15.842 -0.0548 -0.3350  0.4522
  563MPD2     C 8348   1.207   0.698  16.296  0.4919 -0.1078 -0.7887
  563MPD2    C1 8349   1.232   0.818  16.356 -0.0054 -0.2614  0.6267
  563MPD2    C2 8350   1.364   0.839  16.415 -0.1847 -0.1038 -0.0959
  563MPD2    C3 8351   1.448   0.736  16.421  0.0985 -0.1498  0.0419
  563MPD2    C4 8352   1.423   0.618  16.351 -0.1660 -0.2841 -0.0383
  563MPD2    C5 8353   1.301   0.597  16.298  0.8964  0.1414 -0.1545
  563MPD2     H 8354   1.383   0.929  16.472  1.0342  0.1881 -0.9499
  563MPD2    H1 8355   1.494   0.536  16.357 -0.8674 -0.8004  1.3538
  563MPD2    H2 8356   1.111   0.693  16.246 -0.0193 -1.6465  0.3545
  563MPD2    H3 8357   1.273   0.501  16.255  1.3107  0.0627 -0.2485
  563MPD2     N 8358   1.558   0.756  16.505  0.2673  0.1821 -0.0191
  563MPD2    H5 8359   1.564   0.847  16.551  0.9321 -0.5279  1.2979
  563MPD2    N1 8360   1.123   0.908  16.362 -0.3627 -0.2528  0.1328
  563MPD2    H7 8361   1.037   0.880  16.316  1.0588 -0.7601 -2.2037
  564TMC3    C1 8362   1.034   1.033  16.523 -0.1521  0.2010  0.3033
  564TMC3    C2 8363   0.918   0.971  16.484 -0.2956  0.1057  0.6447
  564TMC3    C3 8364   0.862   0.891  16.580 -0.2392  0.3659  0.3147
  564TMC3    C4 8365   1.085   1.031  16.650 -0.7660 -0.0158  0.6159
  564TMC3    C5 8366   1.036   0.939  16.736  0.3377 -0.0778 -0.1883
  564TMC3    C6 8367   0.927   0.871  16.702 -0.0025  0.4191  0.3082
  564TMC3     C 8368   1.134   1.030  16.423  0.2958  0.3482  0.0473
  564TMC3     O 8369   1.234   1.093  16.443  0.0058 -0.3175 -0.0337
  564TMC3     H 8370   0.874   0.978  16.386  1.0095 -2.9186 -0.1718
  564TMC3    H1 8371   1.173   1.089  16.674 -0.2584 -0.3761 -0.3938
  564TMC3    H2 8372   0.877   0.816  16.781  0.4723 -0.8627 -0.2765
  564TMC3    C7 8373   1.138   0.857  16.797  0.4818 -0.4959  0.4529
  564TMC3    C8 8374   0.787   0.778  16.542 -0.3995 -0.1565  0.2837
  564TMC3    O1 8375   1.213   0.917  16.874 -0.7786 -0.0363 -0.1524
  564TMC3    O2 8376   0.765   0.695  16.631  0.0674  0.2438 -0.8204
  565TMC3    C1 8377   1.330   2.285  10.477 -0.7435  0.1899  1.0045
  565TMC3    C2 8378   1.431   2.313  10.568  0.3346  0.1112 -0.3059
  565TMC3    C3 8379   1.405   2.258  10.693  0.5034 -0.3333  0.3945
  565TMC3    C4 8380   1.227   2.194  10.505  0.4958  0.6229  0.1501
  565TMC3    C5 8381   1.209   2.154  10.634  0.2652 -0.0523  0.8062
  565TMC3    C6 8382   1.291   2.197  10.733  0.0270  0.5148 -0.5175
  565TMC3     C 8383   1.322   2.347  10.348 -0.1948 -0.0437  0.7460
  565TMC3     O 8384   1.235   2.309  10.273 -0.1485 -0.3712 -0.4566
  565TMC3     H 8385   1.523   2.363  10.542  1.7097 -1.0200  2.4177
  565TMC3    H1 8386   1.155   2.166  10.429  0.6518  1.0904 -0.1666
  565TMC3    H2 8387   1.290   2.151  10.831 -1.2882  0.4236 -0.5686
  565TMC3    C7 8388   1.079   2.100  10.665 -0.1972 -0.9061 -0.2643
  565TMC3    C8 8389   1.521   2.255  10.783 -0.7892 -0.2999 -0.3707
  565TMC3    O1 8390   1.016   2.066  10.569  0.8297 -0.5151  0.6254
  565TMC3    O2 8391   1.501   2.249  10.903  0.2641 -0.2684  0.0410
  566MPD2     C 8392   3.380   4.530  14.602  0.4148 -0.1597  0.2900
  566MPD2    C1 8393   3.446   4.414  14.568  0.4606 -0.0116 -0.3218
  566MPD2    C2 8394   3.406   4.346  14.455  0.0735  0.2995 -0.0884
  566MPD2    C3 8395   3.301   4.389  14.378  0.2610 -0.0028 -0.1576
  566MPD2    C4 8396   3.228   4.498  14.419 -0.1122 -0.8442  0.0393
  566MPD2    C5 8397   3.272   4.569  14.530  0.3765  0.3296 -0.4614
  566MPD2     H 8398   3.461   4.264  14.410  0.5593  0.4781  0.1800
  566MPD2    H1 8399   3.132   4.512  14.372 -0.5135  1.0006  1.4315
  566MPD2    H2 8400   3.421   4.590  14.683 -1.7094  0.0778  1.2095
  566MPD2    H3 8401   3.215   4.655  14.562  0.6287  0.1408  0.4770
  566MPD2     N 8402   3.267   4.313  14.263 -0.2426 -0.1911 -0.1319
  566MPD2    H5 8403   3.210   4.361  14.193  0.5960 -0.2762 -0.8808
  566MPD2    N1 8404   3.559   4.369  14.643 -0.3889 -0.5176  0.3589
  566MPD2    H7 8405   3.613   4.430  14.702  1.5230 -0.8849 -1.0206
  567TMC3    C1 8406   3.741   4.230  14.680  0.0264 -0.0566  0.5062
  567TMC3    C2 8407   3.816   4.315  14.606 -0.1146 -0.3365  0.0480
  567TMC3    C3 8408   3.927   4.265  14.539  0.2639  0.2937 -0.4553
  567TMC3    C4 8409   3.787   4.103  14.701  0.7566 -0.1766 -0.3216
  567TMC3    C5 8410   3.903   4.060  14.650 -0.3204 -0.0525  0.6498
  567TMC3    C6 8411   3.968   4.133  14.552  0.0823 -0.2339 -0.3447
  567TMC3     C 8412   3.602   4.243  14.633 -0.2439  0.2451 -0.8100
  567TMC3     O 8413   3.549   4.139  14.600 -0.4235 -0.1773  0.7737
  567TMC3     H 8414   3.778   4.416  14.591  0.2968 -0.8109 -4.2049
  567TMC3    H1 8415   3.714   4.040  14.752  1.9863 -1.7966 -0.6006
  567TMC3    H2 8416   4.060   4.100  14.506  0.8353  1.3453  0.0126
  567TMC3    C7 8417   3.963   3.941  14.705 -0.2223 -0.0260  0.4413
  567TMC3    C8 8418   3.969   4.351  14.425  0.1545 -0.2679  0.1775
  567TMC3    O1 8419   4.031   3.868  14.638  0.3548 -0.0719 -0.1049
  567TMC3    O2 8420   3.903   4.451  14.418 -0.1939 -0.2842  0.4358
  568MPD2     C 8421   0.773   4.228  16.962 -0.1239  0.4560 -0.1001
  568MPD2    C1 8422   0.892   4.286  16.986 -0.2492 -0.6654 -0.4180
  568MPD2    C2 8423   0.933   4.386  16.907 -0.2683 -0.2962 -0.6908
  568MPD2    C3 8424   0.858   4.428  16.799  0.3679  0.0117 -0.5206
  568MPD2    C4 8425   0.735   4.373  16.780 -0.3569  0.6406  0.0735
  568MPD2    C5 8426   0.696   4.264  16.854  0.4402  0.3189 -0.1824
  568MPD2     H 8427   1.032   4.425  16.925 -0.8532 -0.1043  2.0205
  568MPD2    H1 8428   0.667   4.408  16.703 -1.3100 -0.1352  0.5490
  568MPD2    H2 8429   0.737   4.143  17.018 -1.2863  0.9950 -0.0306
  568MPD2    H3 8430   0.609   4.201  16.837 -0.4223  1.5221 -0.1924
  568MPD2     N 8431   0.913   4.523  16.710 -0.1167 -0.0104 -0.4907
  568MPD2    H5 8432   1.008   4.553  16.730 -0.6754  1.7590 -0.4649
  568MPD2    N1 8433   0.968   4.229  17.093 -0.4634  0.3216 -0.0931
  568MPD2    H7 8434   0.928   4.156  17.150 -3.5916  1.2210 -1.1727
  569TMC3    C1 8435   0.931   4.698  16.563 -0.5269 -0.2288 -0.1625
  569TMC3    C2 8436   1.004   0.046  16.655 -0.3362 -0.7831  0.0029
  569TMC3    C3 8437   1.062   0.163  16.608 -0.0327 -0.2155 -0.6065
  569TMC3    C4 8438   0.925   0.007  16.427 -0.0958  0.4929  0.0918
  569TMC3    C5 8439   0.993   0.119  16.385 -1.2519 -0.5023  0.1288
  569TMC3    C6 8440   1.065   0.187  16.474 -0.9288  0.4539 -0.0208
  569TMC3     C 8441   0.855   4.580  16.598 -0.5381  0.4264  0.4684
  569TMC3     O 8442   0.748   4.547  16.547  0.4400 -0.1274 -0.0588
  569TMC3     H 8443   0.979   0.031  16.760 -0.5088 -1.7550 -0.1839
  569TMC3    H1 8444   0.858   4.688  16.354  1.5828  0.1943 -1.2844
  569TMC3    H2 8445   1.113   0.277  16.438 -1.0783 -0.1967 -1.8691
  569TMC3    C7 8446   0.924   0.209  16.296 -0.0553  0.3424 -0.0036
  569TMC3    C8 8447   1.028   0.278  16.690 -0.8552 -0.4609 -0.6575
  569TMC3    O1 8448   0.881   0.162  16.197 -0.6968  0.5146  0.2465
  569TMC3    O2 8449   0.980   0.369  16.624  0.3196 -0.3337  0.0952
  570TMC3    C1 8450   0.464   3.064  16.539  0.1442  0.4316  0.6164
  570TMC3    C2 8451   0.573   3.079  16.450  0.0033  0.0479 -0.4241
  570TMC3    C3 8452   0.618   3.207  16.442 -0.7997 -0.5672  0.2799
  570TMC3    C4 8453   0.395   3.170  16.600  0.0654  0.1055 -0.6496
  570TMC3    C5 8454   0.451   3.292  16.584  0.2420 -0.3395  0.1887
  570TMC3    C6 8455   0.571   3.310  16.520  0.5382  0.1648 -0.3839
  570TMC3     C 8456   0.446   2.932  16.595 -0.6137 -0.4916  0.3736
  570TMC3     O 8457   0.512   2.842  16.542 -1.0692  0.0781  0.3309
  570TMC3     H 8458   0.624   3.003  16.392 -0.3880 -1.5885  1.3797
  570TMC3    H1 8459   0.298   3.168  16.648 -0.1280 -0.5276 -1.0697
  570TMC3    H2 8460   0.600   3.414  16.506 -1.7596  1.1348  1.9969
  570TMC3    C7 8461   0.407   3.402  16.665  0.2313  0.2500  0.5524
  570TMC3    C8 8462   0.746   3.230  16.391  0.7921 -1.1105 -0.3021
  570TMC3    O1 8463   0.361   3.381  16.776 -0.2086  0.4504 -0.3422
  570TMC3    O2 8464   0.805   3.335  16.432 -0.0340 -0.4639  0.6631
  571MPD2     C 8465   2.774   4.640  17.582  0.2460  0.2381  0.1689
  571MPD2    C1 8466   2.838   4.570  17.683 -0.7708  0.3239 -0.6785
  571MPD2    C2 8467   2.791   4.591   0.116  0.1284  0.7743  0.3954
  571MPD2    C3 8468   2.676   4.668   0.142 -0.2808  0.0308 -0.1146
  571MPD2    C4 8469   2.621   0.018   0.033  0.2352  0.2742  0.0512
  571MPD2    C5 8470   2.671   0.007  17.605  0.2462 -0.1071 -0.1782
  571MPD2     H 8471   2.851   4.553   0.199  1.7414  0.1859 -1.0275
  571MPD2    H1 8472   2.536   0.084   0.050 -1.9289 -1.9983 -1.9195
  571MPD2    H2 8473   2.813   4.638  17.481 -0.2383 -1.0446  0.0059
  571MPD2    H3 8474   2.635   0.063  17.520 -0.8169  0.1877  0.4626
  571MPD2     N 8475   2.636   4.700   0.273  0.6202 -0.2288  0.2156
  571MPD2    H5 8476   2.553   0.035   0.268  0.5095 -0.1890  2.4860
  571MPD2    N1 8477   2.943   4.480  17.652 -0.1465  0.4399 -0.6728
  571MPD2    H7 8478   2.976   4.482  17.556  0.3650 -0.8607 -0.5284
  572TMC3    C1 8479   2.642   0.025   0.502  0.7213 -0.6234 -0.1078
  572TMC3    C2 8480   2.678   4.710   0.628  0.5874 -1.0464 -0.2586
  572TMC3    C3 8481   2.687   0.085   0.722 -0.2212 -0.6534 -0.0305
  572TMC3    C4 8482   2.648   0.155   0.467 -0.2004 -0.4341  0.1920
  572TMC3    C5 8483   2.682   0.251   0.561  0.0339 -0.1869  0.8647
  572TMC3    C6 8484   2.702   0.215   0.692 -0.5550 -0.0213 -0.3253
  572TMC3     C 8485   2.686   4.657   0.390  0.3290 -0.2328  0.1473
  572TMC3     O 8486   2.773   4.575   0.420 -0.6512  0.3175  0.3627
  572TMC3     H 8487   2.670   4.608   0.663 -0.6595 -0.7609  0.2771
  572TMC3    H1 8488   2.642   0.183   0.363 -1.0926 -1.1124  0.0670
  572TMC3    H2 8489   2.732   0.292   0.762 -1.4658  2.1453 -2.3428
  572TMC3    C7 8490   2.776   0.339   0.498  0.2723  0.6018 -0.3665
  572TMC3    C8 8491   2.698   0.041   0.859 -0.0686 -0.4978  0.1209
  572TMC3    O1 8492   2.750   0.381   0.385 -0.8094 -0.8267  0.1847
  572TMC3    O2 8493   2.728   4.651   0.883 -0.0560 -0.4561 -0.5342
  573MPD2     C 8494   4.574   0.231   0.277 -0.1692  0.3819  0.4865
  573MPD2    C1 8495   4.444   0.191   0.285  0.2296 -0.0170  0.3620
  573MPD2    C2 8496   4.386   0.132   0.180  0.4055  0.6772  0.4017
  573MPD2    C3 8497   4.456   0.098   0.070 -0.4499 -0.2764  0.8798
  573MPD2    C4 8498   4.590   0.130   0.064 -0.8861 -0.1114 -0.2861
  573MPD2    C5 8499   4.647   0.192   0.169 -0.0972  0.0640  0.2241
  573MPD2     H 8500   4.278   0.117   0.178  0.7011 -1.4300  0.5724
  573MPD2    H1 8501   4.643   0.102  17.670  0.6009  1.2401  0.1774
  573MPD2    H2 8502   4.627   0.280   0.358  2.2426  1.6424 -1.8633
  573MPD2    H3 8503   0.031   0.206   0.167  0.4447 -3.4974  3.7091
  573MPD2     N 8504   4.388   0.045  17.654 -0.7209  0.2765  0.2141
  573MPD2    H5 8505   4.428   0.071  17.565  0.3076 -1.4120  0.1841
  573MPD2    N1 8506   4.370   0.238   0.401 -0.6154  0.4025 -0.2950
  573MPD2    H7 8507   4.419   0.306   0.458 -2.5662 -0.2236  2.1364
  574TMC3    C1 8508   4.197   0.034  17.525  0.0516  0.0665 -0.5451
  574TMC3    C2 8509   4.080   0.097  17.554  0.2542  0.2911  0.0183
  574TMC3    C3 8510   4.031   0.203  17.475 -0.1133  0.9508  0.3552
  574TMC3    C4 8511   4.276   0.078  17.426  0.2727  0.0804  0.0478
  574TMC3    C5 8512   4.227   0.174  17.343  0.7690 -0.1080  0.6149
  574TMC3    C6 8513   4.108   0.241  17.370  0.3690  0.0597 -0.2701
  574TMC3     C 8514   4.256   4.723  17.650  0.3326 -0.7542  0.3809
  574TMC3     O 8515   4.191   4.672   0.049  0.1780  0.1821 -0.0390
  574TMC3     H 8516   4.024   0.067  17.642 -1.1584  0.6871 -0.7359
  574TMC3    H1 8517   4.370   0.031  17.400  0.5788  0.3568  0.6445
  574TMC3    H2 8518   4.074   0.326  17.313  0.9333  0.2826 -0.2797
  574TMC3    C7 8519   4.306   0.213  17.228 -0.2000  0.4532 -0.2950
  574TMC3    C8 8520   3.925   0.275  17.527 -0.4478  1.1822  0.1425
  574TMC3    O1 8521   4.428   0.207  17.244 -0.4029 -0.0600  0.4466
  574TMC3    O2 8522   3.856   0.206  17.598  0.2660  0.6552 -0.7198
  575TMC3    C1 8523   2.151   2.076  11.434  0.6026 -0.8683 -0.0091
  575TMC3    C2 8524   2.123   1.956  11.490 -0.2729 -0.1451  0.7261
  575TMC3    C3 8525   2.010   1.891  11.452 -0.1374  0.4242 -0.0330
  575TMC3    C4 8526   2.075   2.122  11.324 -0.2387 -0.3841  0.3181
  575TMC3    C5 8527   1.964   2.054  11.282 -0.8290  0.8319 -0.3751
  575TMC3    C6 8528   1.930   1.942  11.349 -0.4013 -0.1344 -0.4936
  575TMC3     C 8529   2.258   2.162  11.477  0.8332  0.4512 -0.0839
  575TMC3     O 8530   2.256   2.271  11.423 -0.1204 -0.2751 -0.2092
  575TMC3     H 8531   2.175   1.914  11.576 -0.5989 -0.9284  0.5350
  575TMC3    H1 8532   2.095   2.221  11.285 -1.4288 -0.1298  0.3547
  575TMC3    H2 8533   1.873   1.865  11.298 -1.0516  0.5377 -0.7829
  575TMC3    C7 8534   1.893   2.088  11.156  0.5803  0.1880  0.1034
  575TMC3    C8 8535   2.012   1.746  11.464  0.5441  1.0646 -0.1945
  575TMC3    O1 8536   1.782   2.035  11.140 -0.2961 -0.0657 -0.3082
  575TMC3    O2 8537   2.121   1.692  11.458 -0.1989 -0.7067  0.2402
  576MPD2     C 8538   1.859   3.965  12.958 -0.0828  0.4399 -0.3670
  576MPD2    C1 8539   1.889   4.057  12.860 -0.3084  0.3006 -0.5421
  576MPD2    C2 8540   1.816   4.179  12.858  0.2613  0.6555  0.4296
  576MPD2    C3 8541   1.731   4.208  12.964 -0.0859 -0.2861 -0.5075
  576MPD2    C4 8542   1.734   4.121  13.075 -0.0042 -0.1746  0.4122
  576MPD2    C5 8543   1.796   4.003  13.072 -0.2736  0.9014 -0.0231
  576MPD2     H 8544   1.843   4.243  12.775  0.9264 -0.5488 -0.2901
  576MPD2    H1 8545   1.677   4.145  13.164 -1.1329  0.1582 -0.3950
  576MPD2    H2 8546   1.886   3.860  12.962  1.9028  0.9124 -1.3300
  576MPD2    H3 8547   1.778   3.933  13.153  0.4249 -0.4789 -1.0456
  576MPD2     N 8548   1.669   4.339  12.970 -0.1756 -0.2419  0.0340
  576MPD2    H5 8549   1.697   4.403  12.897  0.2480 -1.1499 -0.5984
  576MPD2    N1 8550   1.980   4.031  12.749  0.2144 -0.3128  0.6564
  576MPD2    H7 8551   1.976   4.095  12.671  0.1840 -0.4602  0.5373
  577TMC3    C1 8552   2.112   3.898  12.609  0.0208 -0.3335  0.3123
  577TMC3    C2 8553   2.131   3.772  12.570  0.5736 -0.1617 -0.2250
  577TMC3    C3 8554   2.165   3.746  12.441 -0.2566  0.0693 -0.1944
  577TMC3    C4 8555   2.141   4.006  12.531  0.1640 -0.0457  0.0927
  577TMC3    C5 8556   2.175   3.979  12.405 -0.5229  0.5246 -0.0553
  577TMC3    C6 8557   2.185   3.853  12.356  0.1487 -0.0863 -0.3502
  577TMC3     C 8558   2.059   3.919  12.746 -0.7249  0.2925 -0.0211
  577TMC3     O 8559   2.080   3.829  12.827 -0.5895 -0.0154 -0.1589
  577TMC3     H 8560   2.123   3.689  12.639 -1.2541  0.4122  0.2696
  577TMC3    H1 8561   2.122   4.111  12.554  0.5510  0.3450 -1.3342
  577TMC3    H2 8562   2.190   3.837  12.249 -2.1025  1.0095 -0.6267
  577TMC3    C7 8563   2.161   4.087  12.304  0.0349  0.3340 -0.0407
  577TMC3    C8 8564   2.198   3.613  12.393 -0.3343  0.2477 -0.3882
  577TMC3    O1 8565   2.202   4.200  12.339  0.1941  0.7670 -0.3447
  577TMC3    O2 8566   2.218   3.528  12.483  0.2583 -0.4647  0.3200
  578MPD2     C 8567   0.198   3.380   2.020 -0.4255 -0.8749  0.1138
  578MPD2    C1 8568   0.255   3.302   1.916  0.0673 -0.0065  0.2254
  578MPD2    C2 8569   0.359   3.217   1.959 -0.0411 -0.8260 -0.1627
  578MPD2    C3 8570   0.405   3.214   2.090  0.4336  0.2366 -0.0600
  578MPD2    C4 8571   0.333   3.284   2.185  0.4696  0.2654  0.4465
  578MPD2    C5 8572   0.248   3.381   2.147 -0.5764 -0.3943 -0.3166
  578MPD2     H 8573   0.407   3.157   1.882  0.3939 -2.5235  1.4246
  578MPD2    H1 8574   0.360   3.293   2.290  1.9547  2.4207 -0.1354
  578MPD2    H2 8575   0.122   3.454   2.000  0.7609  0.2502 -0.2430
  578MPD2    H3 8576   0.201   3.438   2.226  0.8191  1.0919 -0.5815
  578MPD2     N 8577   0.522   3.142   2.119 -0.0713  0.0457  0.1641
  578MPD2    H5 8578   0.561   3.081   2.048  1.3303  0.0915  0.8980
  578MPD2    N1 8579   0.203   3.314   1.780 -0.3770  0.1397 -0.2724
  578MPD2    H7 8580   0.133   3.386   1.770 -1.7094 -1.0721  0.2617
  579TMC3    C1 8581   0.741   3.100   2.197  0.3508  0.2097  0.4186
  579TMC3    C2 8582   0.843   3.139   2.288  0.6463 -0.4279 -1.1400
  579TMC3    C3 8583   0.975   3.118   2.262  0.0173 -0.0380 -0.7980
  579TMC3    C4 8584   0.777   3.041   2.081 -0.2267 -0.4127  0.5643
  579TMC3    C5 8585   0.911   3.009   2.073  0.0515 -0.0726 -0.3268
  579TMC3    C6 8586   1.012   3.039   2.163  0.0838  0.2023 -0.4733
  579TMC3     C 8587   0.608   3.146   2.234 -0.0259  0.3037  0.4950
  579TMC3     O 8588   0.597   3.214   2.339  0.0469  0.4256 -0.0445
  579TMC3     H 8589   0.825   3.184   2.385 -0.4949 -3.0251 -0.1602
  579TMC3    H1 8590   0.699   3.011   2.013 -1.9063  4.0826  0.5204
  579TMC3    H2 8591   1.114   3.009   2.144  0.2854 -0.0919  1.0204
  579TMC3    C7 8592   0.934   2.885   2.003  0.8249  0.6027 -0.0291
  579TMC3    C8 8593   1.070   3.144   2.366  0.6129  0.4579 -0.2425
  579TMC3    O1 8594   1.021   2.818   2.060 -0.7681  0.3990 -0.2224
  579TMC3    O2 8595   1.026   3.156   2.479 -0.7784 -0.1793  0.0301
  580TMC3    C1 8596   0.073   2.915  12.110 -0.7567 -0.6438 -0.2318
  580TMC3    C2 8597   0.037   2.853  11.993 -0.7324  0.3735 -0.0282
  580TMC3    C3 8598   0.054   2.718  11.984 -0.2727  0.2000 -0.1217
  580TMC3    C4 8599   0.119   2.843  12.221  0.4428 -0.3334  0.4850
  580TMC3    C5 8600   0.128   2.707  12.202  0.4110 -0.9414 -0.4451
  580TMC3    C6 8601   0.098   2.639  12.088 -0.2277  0.3805  0.0738
  580TMC3     C 8602   0.104   3.053  12.096  0.1315  0.4020 -0.4144
  580TMC3     O 8603   0.077   3.113  11.991  0.0647 -1.0225 -0.7686
  580TMC3     H 8604   4.715   2.898  11.906  1.4472  0.0917 -1.3251
  580TMC3    H1 8605   0.129   2.890  12.318  3.0166 -0.4738  0.2869
  580TMC3    H2 8606   0.111   2.532  12.078 -1.0114  0.6243 -3.5771
  580TMC3    C7 8607   0.192   2.634  12.313  0.9536  0.5788 -0.1306
  580TMC3    C8 8608   0.095   2.667  11.853  0.4887 -0.1785  0.4148
  580TMC3    O1 8609   0.280   2.699  12.373 -1.1458  0.2469 -0.4122
  580TMC3    O2 8610   0.140   2.552  11.856  0.4939  0.0672 -0.0163
  581MPD2     C 8611   2.271   2.309  15.030 -0.5409 -0.0638 -0.2621
  581MPD2    C1 8612   2.267   2.394  15.140 -0.7706  0.6861  0.1188
  581MPD2    C2 8613   2.169   2.491  15.143  0.5013 -0.2429  0.6234
  581MPD2    C3 8614   2.080   2.506  15.039  0.3547  0.2999 -0.8065
  581MPD2    C4 8615   2.088   2.432  14.926  1.0268  0.1118  0.3726
  581MPD2    C5 8616   2.181   2.325  14.924 -0.4892  0.6873  0.0360
  581MPD2     H 8617   2.158   2.558  15.228 -0.0082 -0.2315  0.5472
  581MPD2    H1 8618   2.019   2.443  14.843 -0.6549 -0.1027  1.7352
  581MPD2    H2 8619   2.334   2.222  15.016  1.5693  1.0655  2.1948
  581MPD2    H3 8620   2.190   2.253  14.844  2.7101 -0.1353  1.1506
  581MPD2     N 8621   1.973   2.601  15.052 -0.4045 -1.0698  0.4298
  581MPD2    H5 8622   1.975   2.656  15.137  0.2178 -0.5642  0.0878
  581MPD2    N1 8623   2.350   2.359  15.250  0.0847 -0.5549  0.0192
  581MPD2    H7 8624   2.400   2.273  15.235 -0.9466 -0.4435 -3.9661
  582TMC3    C1 8625   2.417   2.311  15.472 -0.0811  0.1553  0.5403
  582TMC3    C2 8626   2.448   2.355  15.598  0.2586 -0.9950  0.3533
  582TMC3    C3 8627   2.431   2.254  15.695  0.5143  1.0005 -0.2101
  582TMC3    C4 8628   2.401   2.173  15.442 -0.5391 -0.0255  0.2820
  582TMC3    C5 8629   2.372   2.085  15.547 -1.5720  0.1336 -0.0035
  582TMC3    C6 8630   2.390   2.128  15.677  0.1722  0.3182  0.4377
  582TMC3     C 8631   2.352   2.410  15.381  0.0737 -0.3376  0.2461
  582TMC3     O 8632   2.328   2.520  15.431 -0.0102  0.1058  0.7991
  582TMC3     H 8633   2.447   2.457  15.632 -0.9858 -0.3856 -1.5270
  582TMC3    H1 8634   2.400   2.129  15.342 -3.1966  1.8944 -0.5284
  582TMC3    H2 8635   2.353   2.061  15.755 -0.1052  1.4136  1.2550
  582TMC3    C7 8636   2.332   1.946  15.516 -0.1846  0.7127  0.1129
  582TMC3    C8 8637   2.440   2.290  15.840  0.0166  0.3708 -0.0581
  582TMC3    O1 8638   2.369   1.871  15.607 -0.1622  0.3464  0.2301
  582TMC3    O2 8639   2.443   2.405  15.883  0.0608  0.1361 -0.0536
  583MPD2     C 8640   2.492   3.665  17.127 -0.1977 -0.0757  0.0277
  583MPD2    C1 8641   2.426   3.761  17.060  0.0472 -0.0383  0.5376
  583MPD2    C2 8642   2.335   3.834  17.134  0.3057  0.4044 -0.9104
  583MPD2    C3 8643   2.322   3.831  17.274 -0.7044  0.6620 -0.4691
  583MPD2    C4 8644   2.387   3.722  17.330  0.2648  0.4988 -0.2982
  583MPD2    C5 8645   2.475   3.639  17.263  0.5529 -0.4707  0.4694
  583MPD2     H 8646   2.283   3.906  17.072 -0.2875  1.5545  0.9120
  583MPD2    H1 8647   2.380   3.715  17.438  0.4838  1.2646 -0.2317
  583MPD2    H2 8648   2.547   3.592  17.068  0.1441 -0.1206  0.4040
  583MPD2    H3 8649   2.530   3.566  17.321  1.5939  0.4388  0.6449
  583MPD2     N 8650   2.227   3.923  17.330  0.0064  0.2143 -0.0610
  583MPD2    H5 8651   2.176   3.985  17.268  0.1114  0.8889  0.5196
  583MPD2    N1 8652   2.443   3.789  16.922  0.1187  0.2555  0.2781
  583MPD2    H7 8653   2.376   3.854  16.881 -0.2568  0.2643  0.9133
  584TMC3    C1 8654   2.135   4.046  17.516 -0.3837  0.0009 -0.4122
  584TMC3    C2 8655   2.092   4.151  17.440 -0.1235  0.3884 -0.2361
  584TMC3    C3 8656   2.052   4.259  17.517  0.9247 -0.5325 -0.2425
  584TMC3    C4 8657   2.149   4.051  17.651 -1.4613  0.4242  0.8048
  584TMC3    C5 8658   2.109   4.155   0.025  0.5953 -0.6881 -0.6093
  584TMC3    C6 8659   2.057   4.266  17.658 -1.0733 -0.1769 -0.0100
  584TMC3     C 8660   2.192   3.920  17.463  0.6032  0.0903 -0.2283
  584TMC3     O 8661   2.246   3.841  17.541  0.2134  0.1556 -0.4118
  584TMC3     H 8662   2.097   4.149  17.332 -2.2321 -1.6614 -0.3063
  584TMC3    H1 8663   2.200   3.965  17.694  0.0285 -0.4520 -2.6947
  584TMC3    H2 8664   2.034   4.350   0.027 -1.6638  0.7112 -1.3579
  584TMC3    C7 8665   2.109   4.150   0.169  0.6093 -0.4512 -0.3950
  584TMC3    C8 8666   2.017   4.383  17.447  0.5919  0.0983  0.4083
  584TMC3    O1 8667   2.135   4.253   0.233  0.1673  0.2306 -0.2538
  584TMC3    O2 8668   1.961   4.359  17.343  0.4567 -0.5414  0.3745
  585MPD2     C 8669   2.007   2.712   1.093 -0.1558 -0.4915  0.6573
  585MPD2    C1 8670   2.064   2.809   1.015 -0.2040  0.9277  0.1601
  585MPD2    C2 8671   2.021   2.829   0.887 -0.0848 -0.3344 -0.4604
  585MPD2    C3 8672   1.912   2.760   0.842 -0.3447  0.5244 -0.0127
  585MPD2    C4 8673   1.860   2.659   0.915 -0.4522 -0.4751 -0.8875
  585MPD2    C5 8674   1.904   2.637   1.047 -0.1839 -0.1430 -0.7331
  585MPD2     H 8675   2.073   2.909   0.836  1.5635 -2.3245 -1.9103
  585MPD2    H1 8676   1.782   2.602   0.866 -0.6054 -0.3746 -0.7648
  585MPD2    H2 8677   2.047   2.687   1.190  1.6083 -1.4084 -0.3191
  585MPD2    H3 8678   1.885   2.550   1.108  0.6685  1.4878  1.8518
  585MPD2     N 8679   1.849   2.808   0.720  0.2769  0.1838  0.4540
  585MPD2    H5 8680   1.752   2.780   0.714 -0.3333  1.9965  1.7410
  585MPD2    N1 8681   2.159   2.893   1.076  0.0049  0.1672 -0.7261
  585MPD2    H7 8682   2.159   2.906   1.177 -1.4574  0.6571 -0.7885
  586TMC3    C1 8683   1.837   2.952   0.529  0.8716 -0.1894 -0.1616
  586TMC3    C2 8684   1.905   3.031   0.442 -0.0035 -0.7205  0.4891
  586TMC3    C3 8685   1.830   3.100   0.347  1.0486 -0.4254 -0.2009
  586TMC3    C4 8686   1.701   2.952   0.535 -0.2752 -0.0675  0.8885
  586TMC3    C5 8687   1.630   3.017   0.437 -0.5020  0.0842  0.0463
  586TMC3    C6 8688   1.696   3.094   0.342 -0.6409  0.0616  0.3402
  586TMC3     C 8689   1.924   2.869   0.621 -0.0407  0.1401 -0.1549
  586TMC3     O 8690   2.044   2.868   0.610 -0.0811 -0.5643 -0.0203
  586TMC3     H 8691   2.014   3.032   0.445  0.0073  2.1359 -0.6710
  586TMC3    H1 8692   1.649   2.889   0.606 -1.5118  0.1731  0.1973
  586TMC3    H2 8693   1.642   3.162   0.277  0.2781  0.6531  0.1968
  586TMC3    C7 8694   1.504   2.961   0.395  0.2977 -0.8223  0.8588
  586TMC3    C8 8695   1.885   3.082   0.214  0.4212 -0.0897  0.3048
  586TMC3    O1 8696   1.468   2.860   0.451  0.0420 -0.2095  0.9548
  586TMC3    O2 8697   1.977   3.005   0.210 -0.0841  0.5654  0.5437
  587TMC3    C1 8698   3.631   1.246  17.305  0.0176 -0.7676  0.0493
  587TMC3    C2 8699   3.667   1.345  17.213 -0.0960 -0.2541  0.0073
  587TMC3    C3 8700   3.801   1.375  17.187  0.4909 -0.3112  1.3693
  587TMC3    C4 8701   3.726   1.168  17.359  0.0533  0.4074  0.8240
  587TMC3    C5 8702   3.853   1.195  17.320  0.3437 -0.1832  0.8307
  587TMC3    C6 8703   3.902   1.301  17.243  0.1583  0.7066  0.1609
  587TMC3     C 8704   3.489   1.203  17.316  0.0482 -0.4389 -0.3117
  587TMC3     O 8705   3.470   1.085  17.351  0.1635 -0.2962  0.5568
  587TMC3     H 8706   3.592   1.387  17.148  0.1423  2.2290  1.3536
  587TMC3    H1 8707   3.696   1.099  17.437 -0.2408  0.3086  0.6228
  587TMC3    H2 8708   4.005   1.330  17.226  0.8158 -0.3908  2.2235
  587TMC3    C7 8709   3.953   1.110  17.375 -0.3306 -0.1069 -0.5255
  587TMC3    C8 8710   3.839   1.480  17.096 -0.8447  0.6810 -0.1703
  587TMC3    O1 8711   3.916   1.033  17.459  0.2421  0.7725  0.3608
  587TMC3    O2 8712   3.954   1.489  17.060  0.2081 -0.3535 -0.1057
  588TMC3    C1 8713   1.535   4.621   9.639 -0.4053  0.5626 -0.8024
  588TMC3    C2 8714   1.479   4.496   9.617  0.0068  0.7448  0.2874
  588TMC3    C3 8715   1.563   4.394   9.639  0.0531  0.2819 -0.4355
  588TMC3    C4 8716   1.656   4.640   9.712 -0.3020  0.4814  0.2976
  588TMC3    C5 8717   1.738   4.532   9.723  0.5073 -1.0210 -0.2406
  588TMC3    C6 8718   1.693   4.411   9.692  0.5717 -0.9578 -0.0460
  588TMC3     C 8719   1.449   0.010   9.617  0.0588 -0.1040  0.6718
  588TMC3     O 8720   1.331   4.723   9.596  0.1914 -0.0215 -0.2343
  588TMC3     H 8721   1.377   4.481   9.583 -0.1670  1.6827  0.3985
  588TMC3    H1 8722   1.690   0.013   9.748  1.7277 -0.4864  0.9828
  588TMC3    H2 8723   1.763   4.329   9.702  2.5293  0.7319  0.0446
  588TMC3    C7 8724   1.862   4.550   9.799 -0.4651  0.1646  0.4549
  588TMC3    C8 8725   1.516   4.255   9.627 -0.0068  0.8151  0.2639
  588TMC3    O1 8726   1.901   4.463   9.875  0.8497  0.5561 -0.5075
  588TMC3    O2 8727   1.417   4.224   9.558 -0.0580 -0.1111 -0.6058
  589TMC3    C1 8728   0.519   1.508   1.687 -0.3156  0.3608  0.1405
  589TMC3    C2 8729   0.584   1.553   1.796 -0.6191  0.4990  0.3587
  589TMC3    C3 8730   0.643   1.456   1.873 -0.6347  0.2423 -0.6429
  589TMC3    C4 8731   0.531   1.381   1.639 -0.2291 -0.7290  0.1081
  589TMC3    C5 8732   0.608   1.292   1.708 -0.6547 -0.2397  0.0459
  589TMC3    C6 8733   0.665   1.325   1.834  0.8352  0.1237 -0.2931
  589TMC3     C 8734   0.441   1.599   1.605  0.6160  0.2383  0.4870
  589TMC3     O 8735   0.449   1.582   1.487  0.0389 -0.1131 -0.2209
  589TMC3     H 8736   0.586   1.657   1.824 -1.5266  0.6569 -0.1518
  589TMC3    H1 8737   0.468   1.355   1.554  1.0983  0.7549 -1.3158
  589TMC3    H2 8738   0.725   1.259   1.895 -3.1780 -2.3319  0.9773
  589TMC3    C7 8739   0.599   1.152   1.674 -0.3706 -0.2175 -0.1938
  589TMC3    C8 8740   0.724   1.509   1.975  0.5080 -0.4462 -0.7179
  589TMC3    O1 8741   0.648   1.064   1.744  0.2206 -0.0637  0.0972
  589TMC3    O2 8742   0.755   1.627   1.970 -0.0861 -0.6787  0.1672
  590MPD2     C 8743   0.136   0.030  17.184 -0.6040 -0.4601 -0.1685
  590MPD2    C1 8744   0.108   0.097  17.062 -1.0530 -0.2956  0.1048
  590MPD2    C2 8745   0.199   0.182  17.005 -0.2450  0.2523 -0.5804
  590MPD2    C3 8746   0.322   0.190  17.063 -0.4800  0.4032  0.1060
  590MPD2    C4 8747   0.356   0.103  17.165 -0.6099  0.1674  0.3769
  590MPD2    C5 8748   0.266   0.032  17.233  0.5197 -0.1419  0.2371
  590MPD2     H 8749   0.186   0.238  16.913  0.7217  3.2218  1.0718
  590MPD2    H1 8750   0.451   0.115  17.215 -1.1331 -2.2943  1.9780
  590MPD2    H2 8751   0.069   4.677  17.221  0.3562 -0.3360  1.8338
  590MPD2    H3 8752   0.289   4.696  17.321 -0.6312 -0.5477  0.2717
  590MPD2     N 8753   0.416   0.281  17.010  0.5002  0.1725  0.1206
  590MPD2    H5 8754   0.383   0.339  16.933  2.1799  1.8309  0.6631
  590MPD2    N1 8755   4.705   0.070  16.998 -0.0915 -0.0914  0.6588
  590MPD2    H7 8756   4.634   0.011  17.039 -0.3106 -0.0436  0.3474
  591TMC3    C1 8757   0.597   0.403  16.965  0.5834 -0.0266  0.0351
  591TMC3    C2 8758   0.626   0.318  16.854  0.7250 -0.0298  0.8309
  591TMC3    C3 8759   0.612   0.368  16.726 -0.3947 -0.4068  0.2426
  591TMC3    C4 8760   0.528   0.521  16.940 -0.7572 -0.5666  0.1010
  591TMC3    C5 8761   0.537   0.576  16.812  0.0087  0.6633 -0.2967
  591TMC3    C6 8762   0.569   0.497  16.701  0.3880  0.1815  0.5708
  591TMC3     C 8763   0.540   0.323  17.066  0.3474  0.4822 -0.0618
  591TMC3     O 8764   0.607   0.281  17.162 -0.3662 -0.1318 -0.1847
  591TMC3     H 8765   0.647   0.213  16.876  0.5298  0.0262  1.2880
  591TMC3    H1 8766   0.509   0.583  17.026 -0.7500 -2.4723  1.4849
  591TMC3    H2 8767   0.577   0.537  16.600  0.1125  0.8978  0.8306
  591TMC3    C7 8768   0.440   0.673  16.780 -0.8446 -0.2821  1.0934
  591TMC3    C8 8769   0.626   0.272  16.620 -0.9902 -0.3653 -0.1832
  591TMC3    O1 8770   0.351   0.688  16.866  0.5841  0.2008  0.2538
  591TMC3    O2 8771   0.690   0.171  16.638  0.9155 -0.1243 -0.1089
  592MPD2     C 8772   0.804   2.494  11.762  0.4412  0.5938 -0.1112
  592MPD2    C1 8773   0.805   2.591  11.862 -0.2061  0.7287  0.7911
  592MPD2    C2 8774   0.816   2.547  11.996 -0.3723  0.3692  0.0331
  592MPD2    C3 8775   0.813   2.414  12.018 -0.1039 -0.3601 -0.2648
  592MPD2    C4 8776   0.806   2.316  11.915 -0.2992  0.5408 -0.5776
  592MPD2    C5 8777   0.808   2.361  11.786  0.0364 -0.3470 -0.0457
  592MPD2     H 8778   0.820   2.606  12.087 -1.4245 -0.3469  0.5522
  592MPD2    H1 8779   0.819   2.210  11.932 -1.0548  0.4839 -0.3361
  592MPD2    H2 8780   0.810   2.532  11.661 -0.0415 -1.1642 -0.8031
  592MPD2    H3 8781   0.818   2.292  11.702  2.6591  2.6272 -2.1668
  592MPD2     N 8782   0.810   2.381  12.154 -0.1950 -0.0435  0.6173
  592MPD2    H5 8783   0.789   2.455  12.220  1.3103  1.7042 -0.8557
  592MPD2    N1 8784   0.811   2.724  11.824  0.4344 -0.0076 -0.3791
  592MPD2    H7 8785   0.803   2.741  11.724  1.3576  2.2830 -0.0577
  593TMC3    C1 8786   0.847   2.961  11.859  0.4051 -0.4352  0.2148
  593TMC3    C2 8787   0.882   3.052  11.955 -0.5941  0.3441  0.0839
  593TMC3    C3 8788   0.908   3.180  11.927 -0.1466 -0.7171  1.3554
  593TMC3    C4 8789   0.834   2.994  11.727  0.4280  0.8129 -0.5909
  593TMC3    C5 8790   0.852   3.127  11.698 -0.1800 -0.4172 -0.2730
  593TMC3    C6 8791   0.889   3.226  11.800 -0.0000  0.3180 -0.2298
  593TMC3     C 8792   0.855   2.820  11.911  0.6597 -1.2019  0.1897
  593TMC3     O 8793   0.913   2.804  12.018  0.0593  0.1677  0.5637
  593TMC3     H 8794   0.858   3.029  12.058 -0.7278 -2.9355 -0.6706
  593TMC3    H1 8795   0.797   2.922  11.656  2.6766 -0.8233 -0.1045
  593TMC3    H2 8796   0.909   3.331  11.783 -0.7628  0.3299 -1.0816
  593TMC3    C7 8797   0.874   3.183  11.564 -0.1448 -0.0723  0.6339
  593TMC3    C8 8798   0.992   3.263  12.004 -0.1338 -0.2266  0.0303
  593TMC3    O1 8799   0.943   3.281  11.566 -0.0223 -0.1675 -0.5183
  593TMC3    O2 8800   1.001   3.382  11.975  0.1811  0.3571  0.2788
  594MPD2     C 8801   3.908   1.451  14.277  0.1840 -0.8061  0.4163
  594MPD2    C1 8802   3.952   1.438  14.404 -0.2034  0.7731 -0.4466
  594MPD2    C2 8803   4.055   1.508  14.452 -0.2169 -0.6445  0.5818
  594MPD2    C3 8804   4.120   1.599  14.372  0.2052 -0.5582 -0.1674
  594MPD2    C4 8805   4.064   1.620  14.245  0.5019  0.2841  0.6812
  594MPD2    C5 8806   3.961   1.546  14.197 -1.1191  0.2891  0.7674
  594MPD2     H 8807   4.084   1.498  14.556  2.0293 -0.1291 -0.0021
  594MPD2    H1 8808   4.095   1.698  14.176  0.6680 -1.1563 -0.8913
  594MPD2    H2 8809   3.821   1.395  14.246 -0.5312 -0.0214  1.0014
  594MPD2    H3 8810   3.920   1.560  14.098 -2.9347 -2.8929  1.0578
  594MPD2     N 8811   4.211   1.687  14.436  0.1716 -0.8959  0.1368
  594MPD2    H5 8812   4.208   1.691  14.538  1.0774  0.1972  0.1131
  594MPD2    N1 8813   3.868   1.354  14.478  0.2550  0.1515 -0.1625
  594MPD2    H7 8814   3.788   1.317  14.428  0.3837  1.3009 -1.2195
  595TMC3    C1 8815   4.593   1.907  14.521 -0.2210  0.0845  0.1281
  595TMC3    C2 8816   4.518   1.837  14.423 -0.3132  0.0923  0.1521
  595TMC3    C3 8817   4.385   1.840  14.438 -0.6614  0.1445  0.2622
  595TMC3    C4 8818   4.531   1.963  14.631 -0.1983 -0.2167 -0.6083
  595TMC3    C5 8819   4.397   1.954  14.640 -0.6016  0.3984 -0.0235
  595TMC3    C6 8820   4.318   1.894  14.546  0.9113  0.3669  0.7841
  595TMC3     C 8821   4.717   1.836  14.558  0.1178  0.1141 -0.0957
  595TMC3     O 8822   0.022   1.836  14.677 -0.4274 -0.9926  0.1911
  595TMC3     H 8823   4.558   1.801  14.329 -1.9982  1.3491 -1.0618
  595TMC3    H1 8824   4.595   2.015  14.702 -1.9102  2.0151 -0.6998
  595TMC3    H2 8825   4.213   1.889  14.570  0.6943 -1.6284 -0.5902
  595TMC3    C7 8826   4.333   1.994  14.765  0.1838  0.0229 -1.3229
  595TMC3    C8 8827   4.321   1.734  14.363  0.3059  0.8784 -0.0658
  595TMC3    O1 8828   4.242   1.925  14.806  0.1282 -0.0268 -0.6227
  595TMC3    O2 8829   4.361   1.690  14.256  0.7613 -0.2113  0.5154
  596MPD2     C 8830   3.247   3.757  16.894  1.0259 -1.1437  0.0154
  596MPD2    C1 8831   3.246   3.887  16.842 -0.6392  0.6380 -0.0890
  596MPD2    C2 8832   3.269   3.900  16.710 -0.5143  0.7527 -0.2543
  596MPD2    C3 8833   3.303   3.799  16.625 -0.1074 -0.1769 -0.3763
  596MPD2    C4 8834   3.312   3.673  16.676  0.4460 -0.2234  0.5555
  596MPD2    C5 8835   3.285   3.656  16.809  0.3233  0.4569 -0.1607
  596MPD2     H 8836   3.243   3.994  16.663  1.7716  1.5316  0.0586
  596MPD2    H1 8837   3.340   3.583  16.622 -1.0025 -0.2204 -0.2008
  596MPD2    H2 8838   3.214   3.738  16.996  0.7702 -1.7791 -0.1860
  596MPD2    H3 8839   3.288   3.552  16.840  2.8954 -0.0297 -2.0454
  596MPD2     N 8840   3.327   3.808  16.489 -0.2889 -0.9730 -0.0830
  596MPD2    H5 8841   3.352   3.727  16.434 -1.8664 -0.5852 -1.3816
  596MPD2    N1 8842   3.211   4.000  16.919  0.3385  0.3984 -0.1925
  596MPD2    H7 8843   3.205   4.081  16.858 -1.5474 -0.5182 -1.2227
  597TMC3    C1 8844   3.101   4.139  17.089  0.9860 -0.0991 -0.6544
  597TMC3    C2 8845   3.144   4.249  17.020 -0.2282  0.4154  0.4744
  597TMC3    C3 8846   3.067   4.369  17.042  0.2096 -0.1529  0.2624
  597TMC3    C4 8847   2.995   4.142  17.179 -0.3035 -0.3828 -0.0066
  597TMC3    C5 8848   2.938   4.262  17.209 -0.0215 -0.5771  0.2978
  597TMC3    C6 8849   2.958   4.377  17.126 -0.1008 -0.1672 -0.1263
  597TMC3     C 8850   3.168   4.015  17.051  0.5219  0.3540  0.0692
  597TMC3     O 8851   3.151   3.926  17.136  0.4970  0.4414  0.0445
  597TMC3     H 8852   3.240   4.248  16.970 -1.8425  2.9457 -2.6982
  597TMC3    H1 8853   2.957   4.048  17.219  0.4988 -0.0391  1.5622
  597TMC3    H2 8854   2.919   4.474  17.156  3.1325  0.5247  1.8047
  597TMC3    C7 8855   2.831   4.269  17.309  0.0653 -0.2512 -0.2309
  597TMC3    C8 8856   3.123   4.494  16.991  0.1494 -0.3268 -0.7534
  597TMC3    O1 8857   2.838   4.175  17.389  0.0298  0.3751  0.4754
  597TMC3    O2 8858   3.106   4.598  17.058  0.2661 -0.8203 -0.2147
  598TMC3    C1 8859   1.482   0.975  15.782  0.2149  0.7316  0.4877
  598TMC3    C2 8860   1.445   0.844  15.823  0.0589  0.1437 -0.3489
  598TMC3    C3 8861   1.426   0.760  15.725  0.5820 -0.6655  0.3719
  598TMC3    C4 8862   1.502   1.002  15.653  0.6493  0.2388 -0.1693
  598TMC3    C5 8863   1.493   0.905  15.559  0.2710  0.1316  0.5073
  598TMC3    C6 8864   1.456   0.785  15.592  0.1061  0.0950 -0.0680
  598TMC3     C 8865   1.565   1.052  15.868  0.3335 -0.2937 -0.4959
  598TMC3     O 8866   1.671   1.089  15.816  0.3878 -0.4343 -0.3593
  598TMC3     H 8867   1.471   0.810  15.923  0.1115  0.1192 -0.3712
  598TMC3    H1 8868   1.504   1.109  15.637 -2.8709  0.1382 -1.2872
  598TMC3    H2 8869   1.445   0.705  15.520 -0.4218 -0.3925  0.5554
  598TMC3    C7 8870   1.506   0.935  15.418 -0.4579  0.0330 -0.4138
  598TMC3    C8 8871   1.342   0.644  15.741 -0.5052  0.1507  0.5841
  598TMC3    O1 8872   1.529   0.833  15.352  0.5282  0.6596  0.1153
  598TMC3    O2 8873   1.332   0.568  15.644 -0.0715 -0.1669 -0.6471
  599MPD2     C 8874   1.579   3.134  16.296  0.5964 -0.6058  0.0662
  599MPD2    C1 8875   1.510   3.013  16.279  0.1550  0.6126 -0.0182
  599MPD2    C2 8876   1.385   2.998  16.331 -0.3520  0.0129 -0.4372
  599MPD2    C3 8877   1.317   3.100  16.398  0.3008  0.4724  0.6456
  599MPD2    C4 8878   1.381   3.222  16.403 -0.1244  0.5499  0.3744
  599MPD2    C5 8879   1.506   3.235  16.351  0.7646  0.1656 -0.1886
  599MPD2     H 8880   1.334   2.903  16.318  1.5908 -1.3565  1.7835
  599MPD2    H1 8881   1.327   3.306  16.444  2.3170  2.0033  0.6404
  599MPD2    H2 8882   1.679   3.138  16.254 -0.4467  0.9166 -2.2801
  599MPD2    H3 8883   1.553   3.330  16.373  0.1189  0.6117 -0.7561
  599MPD2     N 8884   1.177   3.098  16.442 -0.2029  0.4271 -0.4097
  599MPD2    H5 8885   1.148   3.169  16.508  0.7294  0.4343 -0.0029
  599MPD2    N1 8886   1.591   2.910  16.233  0.7430  0.0524 -0.1549
  599MPD2    H7 8887   1.684   2.923  16.193  0.9335  1.0899  0.6075
  600TMC3    C1 8888   0.983   3.009  16.529  0.0439  0.4322 -0.4453
  600TMC3    C2 8889   0.913   2.891  16.553  0.3329 -1.3255  0.7359
  600TMC3    C3 8890   0.811   2.892  16.644  0.7870  0.3626 -0.1994
  600TMC3    C4 8891   0.966   3.119  16.600  0.6258 -0.3957 -0.3574
  600TMC3    C5 8892   0.870   3.111  16.698  0.2404  0.1147 -0.7883
  600TMC3    C6 8893   0.796   3.000  16.722 -0.9870  0.5358  0.5497
  600TMC3     C 8894   1.086   2.996  16.431 -0.3113 -0.0808  0.1686
  600TMC3     O 8895   1.094   2.895  16.364  0.4427 -0.1902 -0.6863
  600TMC3     H 8896   0.958   2.795  16.530  1.6733 -0.7372  0.8827
  600TMC3    H1 8897   1.002   3.218  16.577 -1.9012  1.0774  1.9998
  600TMC3    H2 8898   0.724   2.998  16.803 -1.3915 -1.7761  0.1329
  600TMC3    C7 8899   0.853   3.216  16.796  0.5864 -0.1064  0.4663
  600TMC3    C8 8900   0.805   2.771  16.725 -0.4959  0.3563 -0.4205
  600TMC3    O1 8901   0.744   3.226  16.851 -0.0869  0.0280 -0.2222
  600TMC3    O2 8902   0.834   2.784  16.841  0.0478 -0.7404  0.1826
  601MPD2     C 8903   3.275   0.502   0.464 -0.0635 -0.2530  0.2157
  601MPD2    C1 8904   3.172   0.514   0.370  0.1802 -0.2970 -0.7032
  601MPD2    C2 8905   3.055   0.441   0.396 -0.0908  0.0335  0.3114
  601MPD2    C3 8906   3.026   0.383   0.521 -0.2358  0.1218 -0.0164
  601MPD2    C4 8907   3.133   0.364   0.603  0.4095 -0.4424  0.3257
  601MPD2    C5 8908   3.252   0.419   0.575 -0.5253  0.3941 -0.4332
  601MPD2     H 8909   2.970   0.444   0.329 -0.8095  1.1723  1.2714
  601MPD2    H1 8910   3.117   0.318   0.700 -1.6123  0.3326  0.3633
  601MPD2    H2 8911   3.370   0.552   0.454  0.1609 -0.7341 -0.0384
  601MPD2    H3 8912   3.336   0.410   0.642 -0.9783 -0.1392  0.0606
  601MPD2     N 8913   2.900   0.330   0.560  0.1248  0.2438 -0.4635
  601MPD2    H5 8914   2.900   0.293   0.655  3.1619 -1.1345 -1.0120
  601MPD2    N1 8915   3.172   0.586   0.249 -0.0216 -0.6713 -0.3988
  601MPD2    H7 8916   3.096   0.576   0.181 -0.4070 -3.5849  0.4834
  602TMC3    C1 8917   3.231   0.761   0.101 -0.3202  0.3396 -0.7976
  602TMC3    C2 8918   3.328   0.850   0.060  0.4354  0.2583  0.7215
  602TMC3    C3 8919   3.285   0.970   0.005  0.0413  0.1477  0.4448
  602TMC3    C4 8920   3.098   0.782   0.096 -0.4054  0.2596  0.0647
  602TMC3    C5 8921   3.060   0.896   0.035  0.2337  0.2663 -0.7774
  602TMC3    C6 8922   3.150   0.990  17.679  0.0943  0.0453 -0.1548
  602TMC3     C 8923   3.273   0.668   0.209 -0.3455  0.9259 -0.1419
  602TMC3     O 8924   3.364   0.703   0.276  0.2913 -0.3678  0.4498
  602TMC3     H 8925   3.434   0.844   0.086  0.3838  2.9337  1.5863
  602TMC3    H1 8926   3.017   0.724   0.139 -0.8639 -1.0911 -2.6315
  602TMC3    H2 8927   3.118   1.062  17.604  0.2253 -0.7091 -0.9396
  602TMC3    C7 8928   2.923   0.912  17.674  0.4546  0.0045  0.4853
  602TMC3    C8 8929   3.367   1.082  17.689 -0.2890 -0.4182 -0.0886
  602TMC3    O1 8930   2.842   0.822  17.682 -0.1954 -0.5043  0.1675
  602TMC3    O2 8931   3.487   1.068  17.675 -0.1445 -0.2685 -0.0290
  603TMC3    C1 8932   1.156   2.295  11.423 -0.9520  0.2376 -0.3459
  603TMC3    C2 8933   1.243   2.236  11.508  0.4144  0.0462 -0.2468
  603TMC3    C3 8934   1.351   2.310  11.542  0.0645  0.2634 -0.0895
  603TMC3    C4 8935   1.188   2.409  11.355 -0.1485 -0.0277 -0.4552
  603TMC3    C5 8936   1.300   2.477  11.397 -0.2483  0.4830  0.4619
  603TMC3    C6 8937   1.369   2.442  11.504  0.1800 -0.4052 -0.7911
  603TMC3     C 8938   1.047   2.225  11.370  0.2175 -0.3613 -0.1865
  603TMC3     O 8939   0.998   2.263  11.262  0.8002 -0.1484  0.4298
  603TMC3     H 8940   1.235   2.130  11.527 -0.2131  0.3610  1.2556
  603TMC3    H1 8941   1.116   2.459  11.292  0.7776  1.9825  0.0689
  603TMC3    H2 8942   1.468   2.485  11.518 -0.9631  1.2633  2.1162
  603TMC3    C7 8943   1.360   2.564  11.313  0.5914  0.3589 -0.2299
  603TMC3    C8 8944   1.443   2.245  11.630 -0.0269 -0.1069 -0.1946
  603TMC3    O1 8945   1.455   2.629  11.350  0.1814  0.3826  0.4260
  603TMC3    O2 8946   1.389   2.179  11.716 -0.2586 -0.3766  0.4503
  604MPD2     C 8947   2.349   0.440  16.885  0.2623  0.9760  0.2869
  604MPD2    C1 8948   2.223   0.418  16.842  0.0522 -0.1747  0.2608
  604MPD2    C2 8949   2.201   0.388  16.710  0.1112  0.4017  0.3343
  604MPD2    C3 8950   2.307   0.376  16.621 -0.3171  0.3869 -0.6352
  604MPD2    C4 8951   2.437   0.388  16.671  1.1210  0.4514  0.7503
  604MPD2    C5 8952   2.452   0.404  16.806 -0.4367 -0.1429 -0.0543
  604MPD2     H 8953   2.102   0.369  16.671 -1.1226  1.2820  3.0475
  604MPD2    H1 8954   2.530   0.392  16.616  1.8992  1.5299  2.1208
  604MPD2    H2 8955   2.372   0.459  16.989  2.0511 -1.1972  0.3066
  604MPD2    H3 8956   2.551   0.420  16.846 -0.2258 -4.2676  1.0475
  604MPD2     N 8957   2.279   0.327  16.490 -0.2501 -0.0988  0.0313
  604MPD2    H5 8958   2.188   0.354  16.453 -0.8171 -1.2460  0.5690
  604MPD2    N1 8959   2.123   0.422  16.936 -0.2137  0.2271 -0.3762
  604MPD2    H7 8960   2.154   0.458  17.026  0.3863  3.2150 -1.8097
  605TMC3    C1 8961   1.903   0.452  17.021  0.5027  0.2551 -0.2914
  605TMC3    C2 8962   1.957   0.459  17.151  0.3736 -0.1714  0.3644
  605TMC3    C3 8963   1.889   0.534  17.242 -0.4645 -0.2657  0.2143
  605TMC3    C4 8964   1.794   0.524  16.992  0.2622  0.2057  0.3432
  605TMC3    C5 8965   1.730   0.602  17.086  0.6141  0.5021 -0.3781
  605TMC3    C6 8966   1.771   0.609  17.224  0.5991  0.5334 -0.2329
  605TMC3     C 8967   1.988   0.414  16.911 -0.5312  0.1663 -0.6682
  605TMC3     O 8968   1.924   0.393  16.810  0.2239  0.0710 -0.1548
  605TMC3     H 8969   2.041   0.393  17.169 -0.2190 -0.8397  0.6971
  605TMC3    H1 8970   1.776   0.544  16.887 -0.0087  1.2890  0.6023
  605TMC3    H2 8971   1.728   0.665  17.306  2.7951  0.1165  1.2172
  605TMC3    C7 8972   1.590   0.632  17.046  0.7294  0.4152 -0.4116
  605TMC3    C8 8973   1.968   0.581  17.351  0.1640  0.0486 -0.0431
  605TMC3    O1 8974   1.526   0.712  17.110 -0.1461  0.0306  0.0799
  605TMC3    O2 8975   1.922   0.592  17.463  0.4401  0.2934  0.7309
  606TMC3    C1 8976   3.969   3.308  16.960  0.5808 -1.0340  0.2894
  606TMC3    C2 8977   4.028   3.311  17.086  0.0401 -0.8240  0.5800
  606TMC3    C3 8978   3.989   3.210  17.173 -0.2652 -0.6969 -0.3277
  606TMC3    C4 8979   3.862   3.224  16.940 -0.5716  0.4850 -0.2347
  606TMC3    C5 8980   3.821   3.140  17.037 -0.0766  0.4796 -0.3051
  606TMC3    C6 8981   3.891   3.123  17.148 -1.0448 -0.2400  0.9451
  606TMC3     C 8982   3.983   3.424  16.882 -0.1538 -0.4595  0.3994
  606TMC3     O 8983   4.036   3.509  16.948  0.0192 -0.0395 -0.5718
  606TMC3     H 8984   4.102   3.381  17.122 -1.9852  2.8500 -2.2932
  606TMC3    H1 8985   3.804   3.224  16.849 -1.8204  1.9227  0.5466
  606TMC3    H2 8986   3.870   3.043  17.219 -1.7779 -2.4644 -1.7869
  606TMC3    C7 8987   3.696   3.062  17.015  0.7091  0.0318 -0.1110
  606TMC3    C8 8988   4.064   3.203  17.294 -0.2996  0.3383 -0.0461
  606TMC3    O1 8989   3.671   3.027  16.900  0.3649  0.3133 -0.2243
  606TMC3    O2 8990   4.179   3.238  17.290 -0.1080 -0.3977  0.2246
  607MPD2     C 8991   1.017   1.794  11.866 -0.4882  0.3722 -0.0180
  607MPD2    C1 8992   1.020   1.881  11.972  0.3433 -0.2469 -0.3114
  607MPD2    C2 8993   0.999   1.842  12.096 -0.5929  0.2430 -0.2560
  607MPD2    C3 8994   0.974   1.704  12.119 -0.5538 -0.0447  0.3873
  607MPD2    C4 8995   0.982   1.614  12.014 -0.1476 -0.0930  0.8818
  607MPD2    C5 8996   1.007   1.663  11.889  1.0016  0.4968  0.2129
  607MPD2     H 8997   0.997   1.908  12.181  1.3922 -0.4792  0.3615
  607MPD2    H1 8998   0.960   1.509  12.031 -0.9536 -0.4357 -2.1191
  607MPD2    H2 8999   1.030   1.829  11.764  3.0654  1.1847  0.7268
  607MPD2    H3 9000   1.018   1.601  11.801 -1.4554 -0.1172  0.3354
  607MPD2     N 9001   0.950   1.662  12.252  1.1071  0.4944 -0.5605
  607MPD2    H5 9002   0.933   1.736  12.320  1.2980 -1.2023  1.3038
  607MPD2    N1 9003   1.047   2.020  11.963  0.1830  0.2014 -0.5938
  607MPD2    H7 9004   1.037   2.069  12.051 -2.9968 -0.6470 -0.5057
  608TMC3    C1 9005   1.142   2.225  11.899  0.0436  0.0292  0.1705
  608TMC3    C2 9006   1.167   2.244  12.032  0.5229  0.3571  0.8497
  608TMC3    C3 9007   1.170   2.374  12.080  0.9615 -0.3107 -0.7343
  608TMC3    C4 9008   1.131   2.333  11.818 -0.2503 -0.3934  0.0660
  608TMC3    C5 9009   1.146   2.458  11.869 -0.5725  0.0549  0.5794
  608TMC3    C6 9010   1.165   2.484  11.999  0.5070  0.7807  0.1317
  608TMC3     C 9011   1.094   2.093  11.855 -0.4352 -0.0892  0.0627
  608TMC3     O 9012   1.093   2.067  11.735 -0.0013 -0.0155  0.2741
  608TMC3     H 9013   1.212   2.162  12.086  3.1441  1.9473  1.0609
  608TMC3    H1 9014   1.123   2.322  11.711  1.2786  0.6430 -0.1589
  608TMC3    H2 9015   1.176   2.585  12.037 -0.4609  0.9429 -0.0097
  608TMC3    C7 9016   1.136   2.568  11.769 -0.2342  0.6513 -0.5661
  608TMC3    C8 9017   1.162   2.390  12.224  0.6196  0.2429  0.6120
  608TMC3    O1 9018   1.092   2.540  11.657  0.0629  0.0488  0.2600
  608TMC3    O2 9019   1.173   2.494  12.274 -0.2099 -0.4594  0.5314
  609TMC3    C1 9020   4.291   0.768   9.899  0.2326 -0.0303  0.0806
  609TMC3    C2 9021   4.251   0.727   9.775  0.7811 -0.1082  0.4985
  609TMC3    C3 9022   4.301   0.611   9.733 -0.4863 -0.0369 -0.0698
  609TMC3    C4 9023   4.366   0.691   9.988  0.7277 -0.6394 -0.6241
  609TMC3    C5 9024   4.413   0.567   9.941  0.6270 -0.0939  0.3474
  609TMC3    C6 9025   4.385   0.528   9.812 -0.0685  0.9072 -0.7339
  609TMC3     C 9026   4.257   0.906   9.941 -0.1204  0.4727  0.2786
  609TMC3     O 9027   4.181   0.965   9.864 -0.4272 -0.1828  0.2590
  609TMC3     H 9028   4.211   0.798   9.703 -0.1166 -0.3014  0.8175
  609TMC3    H1 9029   4.387   0.726  10.089 -1.0870 -0.8015 -0.1872
  609TMC3    H2 9030   4.431   0.441   9.766 -0.2303  0.3676  0.1211
  609TMC3    C7 9031   4.522   0.506  10.020  0.0447  0.1312  0.2239
  609TMC3    C8 9032   4.277   0.564   9.600 -0.5974  0.2732 -0.1621
  609TMC3    O1 9033   4.576   0.573  10.103  0.3730 -0.2894 -0.5097
  609TMC3    O2 9034   4.337   0.464   9.559  0.3662 -0.8446  0.1737
  610TMC3    C1 9035   1.386   1.973  12.878 -0.0144  0.1725 -0.4165
  610TMC3    C2 9036   1.403   2.020  12.753 -0.4472 -0.5855 -0.2262
  610TMC3    C3 9037   1.451   1.936  12.650 -0.1441 -0.0933  0.9291
  610TMC3    C4 9038   1.412   1.838  12.910  0.0100  0.0239 -0.0690
  610TMC3    C5 9039   1.445   1.755  12.804 -0.1378 -0.4525 -0.2795
  610TMC3    C6 9040   1.472   1.803  12.678  0.3784 -0.0313 -0.3023
  610TMC3     C 9041   1.343   2.058  12.990  0.7545 -0.6886  1.1475
  610TMC3     O 9042   1.317   2.007  13.094 -0.5208  0.0002 -0.2373
  610TMC3     H 9043   1.390   2.122  12.718 -1.8419  0.4431  3.3119
  610TMC3    H1 9044   1.408   1.799  13.011  3.2825  2.4007  0.9893
  610TMC3    H2 9045   1.505   1.739  12.597  0.1574  0.1887 -0.5674
  610TMC3    C7 9046   1.509   1.634  12.849  0.7296  0.6323 -0.1010
  610TMC3    C8 9047   1.449   1.982  12.509  0.2096  0.1697 -0.0584
  610TMC3    O1 9048   1.622   1.609  12.812  0.2186 -0.2026  0.0370
  610TMC3    O2 9049   1.475   2.100  12.500  0.4446  0.3382  0.2789
  611MPD2     C 9050   0.406   2.328  10.890 -0.1925 -0.1271 -0.4901
  611MPD2    C1 9051   0.421   2.266  10.767  0.1713  0.1048 -0.4744
  611MPD2    C2 9052   0.533   2.302  10.693 -0.0909  0.2099 -0.4580
  611MPD2    C3 9053   0.637   2.381  10.740 -0.0968  0.1209 -0.4654
  611MPD2    C4 9054   0.626   2.423  10.872  0.0918  0.0110  0.3088
  611MPD2    C5 9055   0.512   2.386  10.942  0.3046  0.4328 -0.2796
  611MPD2     H 9056   0.535   2.270  10.590 -3.3379 -1.6493  0.0283
  611MPD2    H1 9057   0.703   2.481  10.922  0.6878 -0.3587 -0.1875
  611MPD2    H2 9058   0.327   2.308  10.961 -0.8444  2.2141 -0.5592
  611MPD2    H3 9059   0.510   2.419  11.045  1.7339  0.5497 -0.3013
  611MPD2     N 9060   0.759   2.415  10.668 -0.2824  0.3180 -0.5505
  611MPD2    H5 9061   0.831   2.464  10.719  2.0081 -0.8584 -2.6450
  611MPD2    N1 9062   0.307   2.189  10.726  0.2784  0.6968  0.2798
  611MPD2    H7 9063   0.231   2.179  10.793 -0.7559 -2.6013 -1.3608
  612TMC3    C1 9064   0.918   2.419  10.483  0.0323 -0.7938 -0.6843
  612TMC3    C2 9065   1.013   2.457  10.571  0.2307 -0.3776  0.4384
  612TMC3    C3 9066   1.099   2.541  10.517  0.2831 -0.3250 -0.0250
  612TMC3    C4 9067   0.902   2.463  10.352 -0.1152  0.4352  0.2997
  612TMC3    C5 9068   0.997   2.550  10.309 -0.2552  0.3608 -0.6364
  612TMC3    C6 9069   1.098   2.585  10.393 -0.8568  0.0875 -0.4139
  612TMC3     C 9070   0.787   2.381  10.537 -0.8306  0.2718 -0.2336
  612TMC3     O 9071   0.704   2.357  10.452 -0.6149  0.2093 -0.5300
  612TMC3     H 9072   1.011   2.417  10.672 -1.2315  0.6628  0.8279
  612TMC3    H1 9073   0.836   2.415  10.280  0.2667  0.4327 -0.0459
  612TMC3    H2 9074   1.183   2.638  10.353 -1.1017  1.5734  1.0393
  612TMC3    C7 9075   0.984   2.608  10.179  0.9594 -0.3011  0.5990
  612TMC3    C8 9076   1.207   2.592  10.602  0.5255 -0.4838 -0.6955
  612TMC3    O1 9077   0.888   2.572  10.110  0.5154 -0.6279 -0.1567
  612TMC3    O2 9078   1.305   2.645  10.548 -0.2346 -1.0711  0.4754
  613MPD2     C 9079   0.054   3.666  16.676  0.5924 -0.0639  0.2004
  613MPD2    C1 9080   0.002   3.666  16.547 -0.6334  0.3154 -0.0303
  613MPD2    C2 9081   4.658   3.548  16.509  0.9531  0.0296 -0.2790
  613MPD2    C3 9082   4.680   3.427  16.583  0.5825 -0.2143 -0.2169
  613MPD2    C4 9083   0.019   3.429  16.711 -0.2484  0.1403  0.4536
  613MPD2    C5 9084   0.064   3.551  16.755  0.2392  0.2050  0.4651
  613MPD2     H 9085   4.601   3.559  16.417 -0.1927  0.8723  0.5356
  613MPD2    H1 9086   0.018   3.341  16.774  1.4419  0.0857  0.4167
  613MPD2    H2 9087   0.112   3.749  16.714 -0.1310  1.0855 -1.2064
  613MPD2    H3 9088   0.116   3.554  16.850 -1.2560 -0.5432  1.2922
  613MPD2     N 9089   4.640   3.300  16.536 -0.0132 -0.1915 -0.4150
  613MPD2    H5 9090   4.655   3.222  16.600  3.8345  0.9392  0.0388
  613MPD2    N1 9091   0.006   3.783  16.472 -0.0162 -0.1090  0.0506
  613MPD2    H7 9092   0.059   3.858  16.514  0.7396 -0.2614 -0.6302
  614TMC3    C1 9093   0.034   3.905  16.273  0.8337  0.1692  0.2147
  614TMC3    C2 9094   0.165   3.927  16.313 -0.1008 -0.4328  0.1567
  614TMC3    C3 9095   0.251   3.992  16.228 -0.0708 -0.0101  0.0977
  614TMC3    C4 9096   4.712   3.945  16.155 -0.3702  0.5848  0.0456
  614TMC3    C5 9097   0.070   4.024  16.081 -0.4060  0.2317 -0.4631
  614TMC3    C6 9098   0.201   4.042  16.108 -0.0025  0.0838 -0.3557
  614TMC3     C 9099   4.692   3.793  16.340  0.6130  0.6200  0.0695
  614TMC3     O 9100   4.600   3.740  16.275 -0.8089  0.3344  0.0878
  614TMC3     H 9101   0.206   3.881  16.403 -0.5978  1.1828  1.2141
  614TMC3    H1 9102   4.605   3.942  16.138 -0.4690 -0.1973  0.7966
  614TMC3    H2 9103   0.265   4.114  16.058  0.9659  0.1788  1.0374
  614TMC3    C7 9104   0.020   4.095  15.969  0.0834 -0.2261  0.1574
  614TMC3    C8 9105   0.392   3.979  16.248 -0.2016  0.0102 -0.8045
  614TMC3    O1 9106   0.091   4.193  15.934 -0.2344 -0.1423  0.5142
  614TMC3    O2 9107   0.434   4.048  16.339  0.0594 -0.0139 -0.6544
  615MPD2     C 9108   3.734   0.390  16.754 -0.0765 -0.1284 -0.8425
  615MPD2    C1 9109   3.813   0.499  16.722  0.3975 -0.2227 -0.0781
  615MPD2    C2 9110   3.806   0.550  16.592  0.7908 -0.1612  0.2903
  615MPD2    C3 9111   3.708   0.505  16.504 -0.5249  0.4886  0.5584
  615MPD2    C4 9112   3.621   0.396  16.545  0.7457 -0.6801  0.2437
  615MPD2    C5 9113   3.646   0.337  16.667 -0.7527  0.2508 -0.2841
  615MPD2     H 9114   3.876   0.627  16.561  0.2338 -0.2906 -1.2785
  615MPD2    H1 9115   3.555   0.354  16.471  1.2027 -2.0277  0.6034
  615MPD2    H2 9116   3.747   0.341  16.850 -2.1825 -0.1356 -0.5703
  615MPD2    H3 9117   3.593   0.250  16.703  0.1003  0.2529  0.9822
  615MPD2     N 9118   3.683   0.567  16.377 -0.0647  0.3350 -0.3709
  615MPD2    H5 9119   3.598   0.536  16.329  0.6905 -0.4840 -1.2031
  615MPD2    N1 9120   3.908   0.557  16.815  0.2729  0.3067  0.0309
  615MPD2    H7 9121   3.950   0.645  16.787  2.5356 -0.6647  0.4269
  616TMC3    C1 9122   4.041   0.595  17.002 -0.9883  0.3728  0.6513
  616TMC3    C2 9123   4.129   0.665  16.914  0.4868  0.0293 -0.5182
  616TMC3    C3 9124   4.239   0.723  16.980 -0.1941  0.0628  0.1176
  616TMC3    C4 9125   4.057   0.583  17.133 -0.4893 -0.2740 -0.7349
  616TMC3    C5 9126   4.178   0.632  17.184  0.2050  1.1396 -0.1378
  616TMC3    C6 9127   4.268   0.699  17.106  0.0674  0.1798  0.2939
  616TMC3     C 9128   3.930   0.519  16.946 -0.1660 -0.2421 -0.3548
  616TMC3     O 9129   3.865   0.440  17.016 -0.6143 -0.4064 -0.2587
  616TMC3     H 9130   4.121   0.670  16.806  0.2721  1.6232 -0.4377
  616TMC3    H1 9131   3.978   0.546  17.197 -1.5246  2.6177 -0.3112
  616TMC3    H2 9132   4.339   0.768  17.151 -0.5441 -0.3314  2.0626
  616TMC3    C7 9133   4.219   0.601  17.318  1.2970 -0.1962 -0.7712
  616TMC3    C8 9134   4.314   0.816  16.896  0.4521  1.0944  0.2986
  616TMC3    O1 9135   4.131   0.556  17.389  0.5705 -0.2392 -0.0731
  616TMC3    O2 9136   4.259   0.844  16.789 -0.0817  0.2327  0.4384
  617MPD2     C 9137   2.165   4.051  14.127 -0.2649  0.1150 -0.2159
  617MPD2    C1 9138   2.176   3.976  14.243  0.1457 -0.2376 -0.7372
  617MPD2    C2 9139   2.062   3.924  14.293  0.3792  0.2047 -0.5957
  617MPD2    C3 9140   1.943   3.951  14.236  0.2364  0.4415 -0.1549
  617MPD2    C4 9141   1.933   4.027  14.123 -0.0244 -0.6940  0.2333
  617MPD2    C5 9142   2.046   4.074  14.063  0.1066  0.4323 -0.0852
  617MPD2     H 9143   2.059   3.869  14.386  3.7122 -1.8251 -1.6909
  617MPD2    H1 9144   1.838   4.039  14.073 -0.8729 -1.9775  1.5333
  617MPD2    H2 9145   2.257   4.086  14.080  0.2448 -1.3423 -0.2825
  617MPD2    H3 9146   2.044   4.118  13.963  2.4799 -0.2138 -0.4306
  617MPD2     N 9147   1.823   3.908  14.295  0.3177  0.6457  0.2687
  617MPD2    H5 9148   1.738   3.938  14.248 -0.1839 -0.8360  0.2321
  617MPD2    N1 9149   2.298   3.947  14.306  0.4730 -0.1761  0.0090
  617MPD2    H7 9150   2.383   3.964  14.253  0.1234  0.5880 -0.3007
  618TMC3    C1 9151   2.459   3.846  14.433 -0.0478  0.5484  0.3003
  618TMC3    C2 9152   2.486   3.728  14.373 -0.2890  0.2850 -0.3207
  618TMC3    C3 9153   2.605   3.709  14.318 -0.3747 -1.2344 -0.1751
  618TMC3    C4 9154   2.550   3.946  14.446  0.3244  0.1415 -0.7285
  618TMC3    C5 9155   2.669   3.926  14.384 -0.6343 -0.9679 -0.0852
  618TMC3    C6 9156   2.698   3.810  14.323 -0.1292 -0.0186 -0.5383
  618TMC3     C 9157   2.321   3.876  14.423 -0.4290  0.3938  0.0608
  618TMC3     O 9158   2.241   3.823  14.501 -0.0314 -0.3050  0.0937
  618TMC3     H 9159   2.412   3.650  14.362 -1.8570  1.8711 -1.0738
  618TMC3    H1 9160   2.537   4.040  14.497 -0.3759  1.0134 -2.5079
  618TMC3    H2 9161   2.802   3.786  14.306 -0.4173 -1.9141  0.4187
  618TMC3    C7 9162   2.775   4.024  14.408  0.2902 -0.2229 -0.4977
  618TMC3    C8 9163   2.607   3.622  14.206  0.0900  0.4205  0.3730
  618TMC3    O1 9164   2.764   4.095  14.505  0.3993  0.3228  0.6028
  618TMC3    O2 9165   2.514   3.543  14.182 -0.2257  0.8394 -0.5064
  619MPD2     C 9166   3.919   0.874  13.913 -0.3284 -0.0640 -0.3178
  619MPD2    C1 9167   3.837   0.917  13.815 -0.3480 -0.0420 -0.5129
  619MPD2    C2 9168   3.764   0.824  13.743 -0.3080  0.3134 -0.4369
  619MPD2    C3 9169   3.758   0.697  13.783 -0.8255 -0.3085 -0.1301
  619MPD2    C4 9170   3.825   0.652  13.891  0.0523 -0.1185 -0.5446
  619MPD2    C5 9171   3.915   0.737  13.945  0.1388  0.1599 -0.2844
  619MPD2     H 9172   3.712   0.859  13.655 -0.4525 -2.6022 -1.5101
  619MPD2    H1 9173   3.809   0.554  13.933  2.2989  0.9406  2.8271
  619MPD2    H2 9174   3.978   0.939  13.975 -0.6305 -1.3788  1.3615
  619MPD2    H3 9175   3.971   0.695  14.028  0.7773  1.0326 -0.2693
  619MPD2     N 9176   3.680   0.614  13.713 -0.6834 -0.2707  0.0571
  619MPD2    H5 9177   3.647   0.531  13.761  1.5436  0.0240  2.0929
  619MPD2    N1 9178   3.829   1.054  13.775  0.4643 -0.2008 -0.1335
  619MPD2    H7 9179   3.765   1.082  13.702  0.1560  0.0680  0.2439
  620TMC3    C1 9180   3.858   1.272  13.766  0.1263 -0.2860  0.3389
  620TMC3    C2 9181   3.803   1.262  13.640  0.1082 -0.3042 -0.1935
  620TMC3    C3 9182   3.736   1.376  13.592 -0.8530  0.7012  0.8132
  620TMC3    C4 9183   3.835   1.374  13.850 -0.1607 -0.3016 -0.9933
  620TMC3    C5 9184   3.760   1.485  13.805 -0.3403 -1.3033 -0.2094
  620TMC3    C6 9185   3.728   1.487  13.674 -0.1438  0.0227  0.2519
  620TMC3     C 9186   3.902   1.154  13.826 -0.0276  0.0943  0.8065
  620TMC3     O 9187   3.975   1.162  13.923 -0.7256 -0.4023 -0.1790
  620TMC3     H 9188   3.824   1.181  13.570 -0.0618 -0.7147  0.2332
  620TMC3    H1 9189   3.860   1.366  13.955  3.0425  2.0286 -1.5735
  620TMC3    H2 9190   3.681   1.578  13.637  0.0533 -0.7458 -1.9064
  620TMC3    C7 9191   3.657   1.535  13.891  0.2679  0.0379 -0.2416
  620TMC3    C8 9192   3.603   1.332  13.552 -0.1267 -0.2528 -0.3689
  620TMC3    O1 9193   3.597   1.628  13.836  0.2919 -0.6277 -0.1996
  620TMC3    O2 9194   3.512   1.369  13.625  0.2003 -0.3926 -0.8614
  621MPD2     C 9195   3.752   0.026  11.027 -0.0520 -0.5794  0.2772
  621MPD2    C1 9196   3.639   0.091  10.982 -0.4268  0.0588 -0.3440
  621MPD2    C2 9197   3.648   0.217  10.940 -0.4057 -0.0759 -0.1231
  621MPD2    C3 9198   3.767   0.283  10.933  0.1242  0.6959 -0.7514
  621MPD2    C4 9199   3.881   0.223  10.968 -0.3384 -0.0494 -0.4742
  621MPD2    C5 9200   3.876   0.093  11.018 -0.1084  0.2174  0.4781
  621MPD2     H 9201   3.558   0.270  10.909  1.4517  3.1889  0.1022
  621MPD2    H1 9202   3.977   0.272  10.957 -0.5957  0.3212 -1.0360
  621MPD2    H2 9203   3.743   4.653  11.076 -0.3313 -0.6641  0.0642
  621MPD2    H3 9204   3.972   0.053  11.049  0.5691  3.3175  2.4042
  621MPD2     N 9205   3.769   0.414  10.879 -0.1754 -0.5354  0.0734
  621MPD2    H5 9206   3.679   0.458  10.864  1.1719  2.7600  1.6039
  621MPD2    N1 9207   3.514   0.026  10.969 -0.7594 -0.1411  0.5926
  621MPD2    H7 9208   3.434   0.077  10.933 -0.1988  0.1262 -0.2603
  622TMC3    C1 9209   3.359   4.584  10.921  0.4935  0.1439  0.1098
  622TMC3    C2 9210   3.254   4.644  10.977 -0.9108  0.4817 -0.0089
  622TMC3    C3 9211   3.130   4.585  10.959  0.2656 -0.2649  0.0655
  622TMC3    C4 9212   3.347   4.476  10.847 -1.2212  0.4798  0.3932
  622TMC3    C5 9213   3.222   4.417  10.834  0.5365  0.4075 -1.0220
  622TMC3    C6 9214   3.110   4.464  10.896  0.0084  0.1447 -0.4636
  622TMC3     C 9215   3.488   4.619  10.968 -0.1182 -0.1728 -0.3316
  622TMC3     O 9216   3.568   4.527  10.975 -0.0586 -0.2336  0.4582
  622TMC3     H 9217   3.260   0.016  11.028 -1.5327  0.8830 -0.6769
  622TMC3    H1 9218   3.438   4.438  10.803 -1.8837 -1.0414  0.3352
  622TMC3    H2 9219   3.012   4.419  10.892  0.5102 -1.0973  0.8729
  622TMC3    C7 9220   3.225   4.296  10.772 -0.8095 -0.3646 -0.2362
  622TMC3    C8 9221   3.015   4.674  10.970  0.2313 -0.0159  0.6668
  622TMC3    O1 9222   3.139   4.221  10.812 -0.1223 -0.0190  0.0452
  622TMC3    O2 9223   2.914   4.622  11.015  0.5066  0.5069 -0.1128
  623MPD2     C 9224   2.324   0.673  16.431  1.0229 -0.4761 -0.3371
  623MPD2    C1 9225   2.286   0.693  16.562  0.6138  0.5272  0.5558
  623MPD2    C2 9226   2.383   0.710  16.664 -0.4500  0.0682  0.4113
  623MPD2    C3 9227   2.514   0.716  16.627  0.6745  0.1162 -0.1916
  623MPD2    C4 9228   2.553   0.687  16.500 -0.5041 -0.5908  1.0210
  623MPD2    C5 9229   2.460   0.667  16.397  0.3248  0.0525 -0.2526
  623MPD2     H 9230   2.354   0.700  16.768  3.2161 -0.3757  1.3780
  623MPD2    H1 9231   2.652   0.647  16.480 -1.2852 -1.0419 -2.0350
  623MPD2    H2 9232   2.255   0.679  16.348 -0.0280  1.2928  0.6731
  623MPD2    H3 9233   2.493   0.645  16.296 -0.8109 -1.1608 -0.3659
  623MPD2     N 9234   2.598   0.743  16.728  0.1183  0.0375  0.1707
  623MPD2    H5 9235   2.565   0.764  16.822 -0.5001 -0.7701  0.1336
  623MPD2    N1 9236   2.148   0.716  16.584 -0.5055 -0.1098  0.1405
  623MPD2    H7 9237   2.090   0.702  16.502  1.6712  3.4020 -2.0251
  624TMC3    C1 9238   2.877   0.610  17.033  0.8974  0.4417 -0.5879
  624TMC3    C2 9239   2.779   0.619  17.120 -0.7270  0.2731  0.0606
  624TMC3    C3 9240   2.691   0.717  17.084  0.0027 -0.5458  0.3473
  624TMC3    C4 9241   2.884   0.662  16.908 -0.1468  0.0589 -0.2972
  624TMC3    C5 9242   2.782   0.741  16.865  0.5188 -0.1074 -0.5525
  624TMC3    C6 9243   2.686   0.769  16.955 -0.4398 -0.0414  0.1697
  624TMC3     C 9244   3.001   0.546  17.081  0.5234  0.0217  0.2538
  624TMC3     O 9245   2.995   0.466  17.173 -0.4304  0.2070  0.5273
  624TMC3     H 9246   2.790   0.574  17.218  2.2202  0.6997 -0.0693
  624TMC3    H1 9247   2.952   0.641  16.826  0.1166 -0.6701  0.1051
  624TMC3    H2 9248   2.621   0.854  16.935  0.6419  1.2036  1.9482
  624TMC3    C7 9249   2.737   0.725  16.727  0.3169 -0.2427 -0.4519
  624TMC3    C8 9250   2.564   0.726  17.147  0.2805  0.9172  0.2415
  624TMC3    O1 9251   2.820   0.719  16.642  0.4414  0.4438 -0.1327
  624TMC3    O2 9252   2.465   0.756  17.072 -0.2162 -0.3164  0.0661
  625MPD2     C 9253   2.667   1.139   0.388 -0.3136 -0.4532  0.2625
  625MPD2    C1 9254   2.663   1.170   0.521  0.0447 -0.3192  0.0414
  625MPD2    C2 9255   2.725   1.086   0.614  0.2236 -0.3926 -0.1246
  625MPD2    C3 9256   2.792   0.972   0.578 -0.1026 -0.0046 -0.3055
  625MPD2    C4 9257   2.804   0.949   0.442 -0.0928 -0.4402  0.0059
  625MPD2    C5 9258   2.739   1.032   0.351  0.8343  0.3449 -0.8160
  625MPD2     H 9259   2.734   1.118   0.717 -0.2786 -0.7657  0.0357
  625MPD2    H1 9260   2.863   0.865   0.408  1.0575  1.0064 -1.5287
  625MPD2    H2 9261   2.616   1.199   0.313 -2.5146 -3.0649 -0.3292
  625MPD2    H3 9262   2.736   1.000   0.248 -0.2311 -3.2740  0.3321
  625MPD2     N 9263   2.854   0.898   0.680 -0.0148  0.0897 -0.0641
  625MPD2    H5 9264   2.831   0.926   0.775  2.2710  1.5764  0.0394
  625MPD2    N1 9265   2.591   1.285   0.568  0.3559  0.7810  0.3577
  625MPD2    H7 9266   2.563   1.279   0.666 -0.4820 -0.9463  0.0090
  626TMC3    C1 9267   2.465   1.501   0.550 -0.4284  0.1290  0.7885
  626TMC3    C2 9268   2.448   1.621   0.485  0.2325  0.2928  0.8492
  626TMC3    C3 9269   2.334   1.692   0.501 -0.1733  0.2344  0.0637
  626TMC3    C4 9270   2.365   1.454   0.631 -0.0107  0.2396  0.2601
  626TMC3    C5 9271   2.247   1.523   0.644  0.9679  0.4515  0.4525
  626TMC3    C6 9272   2.234   1.642   0.582  0.0908 -0.4410 -0.3709
  626TMC3     C 9273   2.560   1.398   0.492  0.4889  0.1562 -0.2672
  626TMC3     O 9274   2.606   1.436   0.384 -0.9015  0.0674 -0.2643
  626TMC3     H 9275   2.532   1.664   0.432 -0.2187 -1.5504 -1.3731
  626TMC3    H1 9276   2.370   1.351   0.665 -1.1584  0.3832  0.8648
  626TMC3    H2 9277   2.136   1.689   0.577 -0.8004 -2.3289 -0.8624
  626TMC3    C7 9278   2.163   1.475   0.753 -0.3186  0.1926 -0.1553
  626TMC3    C8 9279   2.308   1.817   0.433 -0.4028  0.3438  0.6290
  626TMC3    O1 9280   2.169   1.359   0.785 -0.6626  0.4211 -0.1586
  626TMC3    O2 9281   2.370   1.835   0.330 -0.0194  0.0335  0.2160
  627MPD2     C 9282   1.129   2.636  14.819  0.3615 -0.8069 -0.1322
  627MPD2    C1 9283   1.227   2.572  14.896 -0.2073  0.4394  0.7553
  627MPD2    C2 9284   1.191   2.442  14.935  0.9142  0.9446  0.2131
  627MPD2    C3 9285   1.078   2.378  14.899 -0.1202 -0.1625  0.0585
  627MPD2    C4 9286   0.987   2.443  14.828  0.1846 -0.3143  0.2231
  627MPD2    C5 9287   1.016   2.568  14.789 -0.2037 -0.1318 -0.4119
  627MPD2     H 9288   1.264   2.397  15.002  0.8181  0.1586 -0.2223
  627MPD2    H1 9289   0.888   2.405  14.803  0.4511 -0.4618 -0.5811
  627MPD2    H2 9290   1.139   2.734  14.775  1.9342  0.2131  2.5540
  627MPD2    H3 9291   0.945   2.620  14.727  1.5858  3.4572  0.5224
  627MPD2     N 9292   1.054   2.248  14.937  0.0972  0.3238  0.0185
  627MPD2    H5 9293   1.113   2.215  15.013  0.4888  1.5027  0.2171
  627MPD2    N1 9294   1.353   2.619  14.937 -0.5568 -0.2062 -0.2182
  627MPD2    H7 9295   1.394   2.572  15.018  1.6472  2.1510  0.0166
  628TMC3    C1 9296   1.546   2.751  14.936  0.0632 -0.0091  0.2260
  628TMC3    C2 9297   1.631   2.648  14.975 -0.0483 -0.3664  0.4832
  628TMC3    C3 9298   1.752   2.676  15.036  0.2559  0.3480 -0.3818
  628TMC3    C4 9299   1.585   2.878  14.955  0.7656 -0.2297 -0.9234
  628TMC3    C5 9300   1.705   2.905  15.013  0.3813 -0.1933 -0.0674
  628TMC3    C6 9301   1.784   2.804  15.068 -0.6551  0.6822 -0.2251
  628TMC3     C 9302   1.416   2.725  14.874 -0.4297 -0.8362 -0.3825
  628TMC3     O 9303   1.373   2.814  14.794  0.6778 -0.4709 -0.7354
  628TMC3     H 9304   1.601   2.544  14.969 -0.6967 -0.2386  1.4002
  628TMC3    H1 9305   1.513   2.957  14.935  1.7419  0.8982  0.0479
  628TMC3    H2 9306   1.884   2.829  15.102 -1.4871  1.0396  1.9133
  628TMC3    C7 9307   1.764   3.038  15.022  0.6435 -0.5496  0.4733
  628TMC3    C8 9308   1.853   2.583  14.989  0.4633  0.0407 -0.2716
  628TMC3    O1 9309   1.879   3.052  15.059  0.5478  0.5164  0.2397
  628TMC3    O2 9310   1.820   2.505  14.904  0.2259 -0.2800  0.0209
  629MPD2     C 9311   4.597   1.234  16.930  0.2993  1.3429  0.0266
  629MPD2    C1 9312   4.685   1.127  16.956 -0.4449  0.0346 -0.7366
  629MPD2    C2 9313   4.629   0.999  16.956 -0.1164  0.2942  0.7019
  629MPD2    C3 9314   4.495   0.978  16.918 -0.2458 -0.2020  0.1055
  629MPD2    C4 9315   4.415   1.087  16.888 -0.7852 -0.0895 -0.3054
  629MPD2    C5 9316   4.466   1.214  16.898 -0.3384  0.0709  0.9233
  629MPD2     H 9317   4.682   0.906  16.976  1.0804  0.9363  0.5045
  629MPD2    H1 9318   4.311   1.092  16.858 -1.0490  1.2798  0.8180
  629MPD2    H2 9319   4.638   1.334  16.941 -0.6050  1.5829  1.2418
  629MPD2    H3 9320   4.408   1.303  16.878  0.7875 -0.2965 -3.9811
  629MPD2     N 9321   4.435   0.849  16.936 -0.3396 -0.0303 -0.3102
  629MPD2    H5 9322   4.483   0.792  17.005  0.4631  0.8118 -0.1739
  629MPD2    N1 9323   0.100   1.149  16.961 -0.0104 -0.5102 -0.1086
  629MPD2    H7 9324   0.131   1.245  16.954  0.7273 -0.7127  0.4005
  630TMC3    C1 9325   0.327   1.118  17.022  0.6986 -0.1564  0.1652
  630TMC3    C2 9326   0.359   1.211  16.928 -0.5270  0.2516 -0.5326
  630TMC3    C3 9327   0.467   1.290  16.950  0.6054 -0.1762  0.3956
  630TMC3    C4 9328   0.397   1.097  17.138 -0.4899  0.6441  0.1128
  630TMC3    C5 9329   0.497   1.185  17.162 -0.1069 -0.8578 -1.5831
  630TMC3    C6 9330   0.532   1.282  17.073  0.5760  0.0440 -0.0439
  630TMC3     C 9331   0.193   1.056  17.004 -0.7490 -0.1144 -0.6197
  630TMC3     O 9332   0.172   0.954  17.067 -0.5753  0.0671  0.1472
  630TMC3     H 9333   0.313   1.196  16.831  1.4133 -0.9480 -1.2688
  630TMC3    H1 9334   0.363   1.041  17.224  3.5192 -0.5866  0.9105
  630TMC3    H2 9335   0.598   1.366  17.090  1.7564 -1.2642  1.7848
  630TMC3    C7 9336   0.577   1.160  17.281  0.9423  0.1036  0.3960
  630TMC3    C8 9337   0.509   1.393  16.854  0.6414 -0.3713 -0.2742
  630TMC3    O1 9338   0.566   1.053  17.337 -0.0889  0.0029  0.0982
  630TMC3    O2 9339   0.603   1.460  16.894 -0.0407 -0.1968  0.0584
  631MPD2     C 9340   2.948   0.681  15.794  0.5104  0.1796 -0.0985
  631MPD2    C1 9341   3.037   0.749  15.714 -0.2161 -0.1878 -0.0480
  631MPD2    C2 9342   3.177   0.753  15.742 -0.2711  0.0712 -0.2087
  631MPD2    C3 9343   3.217   0.691  15.859  0.1851  0.6507 -0.1181
  631MPD2    C4 9344   3.129   0.617  15.936 -0.2925  0.6265 -0.3411
  631MPD2    C5 9345   2.997   0.612  15.903  0.5606  0.3228 -0.1245
  631MPD2     H 9346   3.241   0.811  15.676 -0.8469  1.7393  0.6963
  631MPD2    H1 9347   3.155   0.561  16.025 -0.8231  1.1886  0.1658
  631MPD2    H2 9348   2.843   0.682  15.768  0.8136 -1.0864 -1.3448
  631MPD2    H3 9349   2.925   0.548  15.953  2.2934 -0.9447  0.7435
  631MPD2     N 9350   3.353   0.707  15.891 -0.1667 -0.1273 -0.2747
  631MPD2    H5 9351   3.408   0.770  15.833  0.4006 -0.6834 -0.3315
  631MPD2    N1 9352   2.987   0.821  15.600 -0.5057 -0.4234  0.2624
  631MPD2    H7 9353   2.887   0.817  15.586 -0.3194 -1.7598 -0.6750
  632TMC3    C1 9354   2.957   0.979  15.439 -0.1872  0.1989 -0.1825
  632TMC3    C2 9355   2.831   1.019  15.485 -0.2951  0.3700 -0.2226
  632TMC3    C3 9356   2.775   1.133  15.421  0.0994 -0.4629 -0.0723
  632TMC3    C4 9357   3.019   1.044  15.334 -0.1140 -0.2483  0.4233
  632TMC3    C5 9358   2.953   1.144  15.267 -0.0408 -0.5262 -1.1004
  632TMC3    C6 9359   2.831   1.196  15.309  0.3649  0.1059 -0.0195
  632TMC3     C 9360   3.051   0.904  15.514 -0.2354 -0.7566  0.7180
  632TMC3     O 9361   3.169   0.929  15.507  0.1796  0.2123  0.4135
  632TMC3     H 9362   2.812   0.986  15.587  2.7904  1.3333  0.6480
  632TMC3    H1 9363   3.111   0.999  15.299 -0.1070  0.2634 -0.2101
  632TMC3    H2 9364   2.780   1.275  15.255 -0.9532 -1.4521 -1.0401
  632TMC3    C7 9365   3.024   1.226  15.172 -0.7395  0.0538  0.6488
  632TMC3    C8 9366   2.647   1.166  15.468  0.7892 -0.5636 -0.7650
  632TMC3    O1 9367   2.952   1.298  15.105  0.1256  0.7791 -0.6459
  632TMC3    O2 9368   2.616   1.284  15.458 -0.6988 -0.0909  0.5060
  633MPD2     C 9369   2.623   3.536  17.597 -0.4776 -0.5761 -0.4726
  633MPD2    C1 9370   2.759   3.545  17.569 -0.1111 -0.4881 -0.2284
  633MPD2    C2 9371   2.835   3.430  17.599  0.4036 -0.0924  0.8758
  633MPD2    C3 9372   2.794   3.324  17.679  0.2480  0.4638  0.4441
  633MPD2    C4 9373   2.664   3.329   0.022 -0.2178 -0.1570 -0.3794
  633MPD2    C5 9374   2.581   3.430  17.673 -0.1204  0.3831  0.0939
  633MPD2     H 9375   2.943   3.428  17.589  0.3851 -0.1875  0.6938
  633MPD2    H1 9376   2.617   3.261   0.092  0.2678 -3.5693 -3.3734
  633MPD2    H2 9377   2.554   3.619  17.584  1.6185  1.1673 -0.5715
  633MPD2    H3 9378   2.480   3.444   0.015  0.2427 -1.4241  1.7578
  633MPD2     N 9379   2.863   3.212   0.028  0.0618  0.2962 -0.0013
  633MPD2    H5 9380   2.809   3.138   0.072  0.3233  0.5064  0.6774
  633MPD2    N1 9381   2.806   3.642  17.482 -0.3184 -0.2893  0.5288
  633MPD2    H7 9382   2.897   3.641  17.438  0.8676  2.1069  2.8822
  634TMC3    C1 9383   2.782   3.813  17.320  0.5888  0.4055 -0.3230
  634TMC3    C2 9384   2.843   3.736  17.229 -0.1708  0.0237  0.7089
  634TMC3    C3 9385   2.830   3.766  17.096  0.2253 -0.1112  0.3198
  634TMC3    C4 9386   2.700   3.912  17.276  0.4849  0.2851 -0.3934
  634TMC3    C5 9387   2.691   3.938  17.139  0.3128 -0.1858  0.3008
  634TMC3    C6 9388   2.762   3.874  17.045  0.2267 -0.6003  0.1002
  634TMC3     C 9389   2.730   3.748  17.445  0.0405  0.5489  0.2094
  634TMC3     O 9390   2.629   3.800  17.496 -0.6665  0.3502  0.6164
  634TMC3     H 9391   2.888   3.639  17.246 -0.3483 -0.2245 -0.2099
  634TMC3    H1 9392   2.648   3.973  17.349 -0.3451 -0.8912 -0.0043
  634TMC3    H2 9393   2.726   3.885  16.943 -1.3784 -0.7919  0.6467
  634TMC3    C7 9394   2.610   4.048  17.085 -0.1368 -0.2743 -0.1052
  634TMC3    C8 9395   2.873   3.667  17.006 -0.8325  0.6896 -0.3550
  634TMC3    O1 9396   2.634   4.080  16.969  0.1140  0.0460  0.3614
  634TMC3    O2 9397   2.887   3.554  17.051  0.0218  0.6238 -0.0536
  635TMC3    C1 9398   3.104   4.316  17.682 -0.3779  0.2013  0.6429
  635TMC3    C2 9399   3.187   4.377  17.590  0.5464 -0.6210  0.3237
  635TMC3    C3 9400   3.283   4.298  17.528  0.0187 -0.6875  0.9042
  635TMC3    C4 9401   3.121   4.190   0.035 -0.7919  0.0432  0.3274
  635TMC3    C5 9402   3.207   4.108  17.655 -0.8281 -0.2754 -0.0758
  635TMC3    C6 9403   3.283   4.160  17.548 -0.1410 -0.1661 -1.0608
  635TMC3     C 9404   3.000   4.393   0.046 -0.7749 -0.2780 -1.3008
  635TMC3     O 9405   2.972   4.354   0.157 -0.0344  0.2001 -0.0329
  635TMC3     H 9406   3.192   4.483  17.566  2.6223 -1.4182 -2.6602
  635TMC3    H1 9407   3.045   4.146   0.097 -1.6988 -1.6466 -1.9606
  635TMC3    H2 9408   3.330   4.091  17.479  1.3370  0.9411 -1.1615
  635TMC3    C7 9409   3.262   3.997   0.029  0.4523 -0.1344 -0.6103
  635TMC3    C8 9410   3.334   4.356  17.405 -0.4245 -0.2157  0.3435
  635TMC3    O1 9411   3.249   3.994   0.146 -0.4373  0.5363  0.3881
  635TMC3    O2 9412   3.280   4.451  17.351 -0.1393  0.3774  0.1122
  636MPD2     C 9413   4.124   3.877  15.862 -0.5671 -0.2191 -0.0707
  636MPD2    C1 9414   4.225   3.926  15.941  0.8639  0.3421 -0.0287
  636MPD2    C2 9415   4.312   3.833  15.994  0.5106  0.7123 -0.3041
  636MPD2    C3 9416   4.303   3.698  15.970  0.0719  0.3474  0.4147
  636MPD2    C4 9417   4.202   3.655  15.886 -0.6229  0.4075  0.3778
  636MPD2    C5 9418   4.115   3.740  15.834  0.0089 -0.0741 -0.1900
  636MPD2     H 9419   4.367   3.867  16.081 -0.3115  2.7382 -0.5740
  636MPD2    H1 9420   4.187   3.554  15.847  0.9632 -0.2330  1.4452
  636MPD2    H2 9421   4.040   3.935  15.824  0.3818  0.6576 -0.8037
  636MPD2    H3 9422   4.039   3.707  15.764 -0.1918  2.1311 -1.0083
  636MPD2     N 9423   4.406   3.619  16.035  0.3569  0.3482 -0.3597
  636MPD2    H5 9424   4.477   3.664  16.090  0.8685  0.1461 -0.8543
  636MPD2    N1 9425   4.246   4.066  15.969  0.1764 -0.0370 -0.1405
  636MPD2    H7 9426   4.330   4.096  16.017 -1.6344  2.0608  1.7107
  637TMC3    C1 9427   4.527   3.433  16.095  1.2959  0.9858  0.2188
  637TMC3    C2 9428   4.494   3.377  16.219  0.0863 -0.1662  0.2737
  637TMC3    C3 9429   4.597   3.356  16.301 -0.3184 -0.5671 -0.3180
  637TMC3    C4 9430   4.656   3.467  16.061  0.2820  0.3720 -0.5371
  637TMC3    C5 9431   0.032   3.427  16.139  0.2876 -0.2336 -0.0280
  637TMC3    C6 9432   0.006   3.371  16.257  0.0096  0.5633 -0.6644
  637TMC3     C 9433   4.417   3.485  16.019  0.5409 -0.7760  0.5577
  637TMC3     O 9434   4.327   3.405  15.980  0.0309 -0.0882  0.5355
  637TMC3     H 9435   4.391   3.357  16.247  0.4957 -0.8582  1.2680
  637TMC3    H1 9436   4.667   3.509  15.961  1.7284  2.4367  0.4945
  637TMC3    H2 9437   0.083   3.342  16.328  0.8929 -1.2837 -2.3905
  637TMC3    C7 9438   0.144   3.525  16.138 -0.0212  0.2446  0.0584
  637TMC3    C8 9439   4.576   3.272  16.415  0.2063  0.0216  0.5341
  637TMC3    O1 9440   0.188   3.558  16.251 -0.2302  0.4169 -0.8865
  637TMC3    O2 9441   4.505   3.170  16.393  0.3454 -0.6553 -0.2639
  638MPD2     C 9442   3.630   3.099  15.177  0.0984  1.1911 -0.5508
  638MPD2    C1 9443   3.601   3.014  15.078  0.3253 -0.4606 -0.2749
  638MPD2    C2 9444   3.572   2.883  15.111 -1.0839 -0.0487 -0.0283
  638MPD2    C3 9445   3.561   2.850  15.241  0.2179  0.6325 -0.8384
  638MPD2    C4 9446   3.585   2.942  15.340  0.2547  0.3636 -0.1997
  638MPD2    C5 9447   3.628   3.067  15.306 -0.3796  0.1036  0.0050
  638MPD2     H 9448   3.538   2.812  15.035  0.3232  0.5662 -1.2345
  638MPD2    H1 9449   3.571   2.915  15.444  0.6170 -1.2587 -0.5848
  638MPD2    H2 9450   3.672   3.198  15.161  0.5643  0.7114 -2.3992
  638MPD2    H3 9451   3.657   3.138  15.383 -0.5724  1.7335 -1.4443
  638MPD2     N 9452   3.522   2.720  15.275 -0.0846 -0.2885  0.2303
  638MPD2    H5 9453   3.484   2.663  15.200  0.5221  0.2377 -0.4720
  638MPD2    N1 9454   3.625   3.064  14.948  0.0729 -0.3626 -0.2120
  638MPD2    H7 9455   3.636   3.164  14.940  1.5128 -0.2946  2.4476
  639TMC3    C1 9456   3.487   2.523  15.399  0.3867  0.0448 -0.8402
  639TMC3    C2 9457   3.363   2.483  15.353 -0.5108 -0.3452  0.1226
  639TMC3    C3 9458   3.328   2.352  15.380 -0.5748  0.2774  0.2438
  639TMC3    C4 9459   3.564   2.440  15.475 -0.1977 -0.1694 -0.1312
  639TMC3    C5 9460   3.524   2.309  15.497  0.9094  0.4449  0.3211
  639TMC3    C6 9461   3.403   2.266  15.446  0.8748  0.3618 -0.1818
  639TMC3     C 9462   3.545   2.658  15.396  0.0282  0.2049  0.3750
  639TMC3     O 9463   3.595   2.700  15.497  0.3757  0.2353  0.0477
  639TMC3     H 9464   3.305   2.547  15.288  0.7274 -0.5135 -1.1550
  639TMC3    H1 9465   3.657   2.479  15.515 -0.7797 -1.5526  2.5336
  639TMC3    H2 9466   3.373   2.163  15.463 -1.7144  0.9398 -1.1733
  639TMC3    C7 9467   3.617   2.206  15.534  0.6340  0.0245  0.1948
  639TMC3    C8 9468   3.272   2.291  15.261 -0.5094 -0.1692 -0.1621
  639TMC3    O1 9469   3.581   2.109  15.595  0.4954 -0.4405  0.3236
  639TMC3    O2 9470   3.285   2.353  15.157  0.1362  0.8500  0.9939
  640MPD2     C 9471   4.602   1.813  10.292 -0.4000  0.2957  0.6143
  640MPD2    C1 9472   4.641   1.776  10.166 -0.8863  0.6818  0.1482
  640MPD2    C2 9473   4.659   1.877  10.068 -0.5799 -0.5626  0.3196
  640MPD2    C3 9474   4.632   2.009  10.104  0.1375  0.7953  0.5825
  640MPD2    C4 9475   4.591   2.040  10.236 -0.3361  0.1521  0.0198
  640MPD2    C5 9476   4.589   1.937  10.328  0.3986  0.8177 -0.5980
  640MPD2     H 9477   4.688   1.841   9.970  0.4897  1.4827 -0.1178
  640MPD2    H1 9478   4.574   2.142  10.271  1.8996 -0.2083  2.1442
  640MPD2    H2 9479   4.589   1.741  10.372  0.0888 -0.6655 -0.1728
  640MPD2    H3 9480   4.585   1.969  10.431 -3.1744 -0.0339 -0.4865
  640MPD2     N 9481   4.643   2.120  10.018 -0.2463  0.3359 -0.3487
  640MPD2    H5 9482   4.609   2.207  10.056 -0.5297 -0.6489  1.6530
  640MPD2    N1 9483   4.662   1.644  10.148  0.5562 -0.1559 -0.0340
  640MPD2    H7 9484   4.673   1.593  10.235  2.5744  0.7737  0.2611
  641TMC3    C1 9485   4.688   1.442  10.037 -0.0120 -0.2056  0.1114
  641TMC3    C2 9486   4.687   1.386  10.162 -0.4796  0.0284 -0.2875
  641TMC3    C3 9487   4.657   1.254  10.170 -0.6004  0.0665 -0.0927
  641TMC3    C4 9488   4.635   1.381   9.926  0.5116 -0.7533  1.0269
  641TMC3    C5 9489   4.596   1.253   9.940  0.1886  0.2823  0.4709
  641TMC3    C6 9490   4.616   1.190  10.056  0.2140 -0.0135  0.5910
  641TMC3     C 9491   4.665   1.580  10.028 -0.0307  0.2896  0.5655
  641TMC3     O 9492   4.644   1.628   9.917  0.1977  0.4445 -0.4229
  641TMC3     H 9493   0.013   1.438  10.242  0.1448  0.3404 -0.8818
  641TMC3    H1 9494   4.632   1.422   9.825 -0.0171  2.5473  2.3664
  641TMC3    H2 9495   4.589   1.085  10.061 -1.1614  0.3292  0.3977
  641TMC3    C7 9496   4.547   1.181   9.818  0.4271 -0.4050  0.1361
  641TMC3    C8 9497   0.013   1.164  10.259 -0.3143 -0.2393  0.0666
  641TMC3    O1 9498   4.524   1.247   9.718 -0.3895 -0.2918 -0.6499
  641TMC3    O2 9499   0.027   1.051  10.213 -0.0387  0.5052  0.8461
  642TMC3    C1 9500   1.038   3.354  12.500  0.0784 -0.9596  0.3186
  642TMC3    C2 9501   1.171   3.393  12.499 -0.2169 -0.1001 -0.3162
  642TMC3    C3 9502   1.273   3.306  12.528  0.2681  0.0354  0.0256
  642TMC3    C4 9503   1.003   3.229  12.524 -0.9302  0.3501  0.4813
  642TMC3    C5 9504   1.108   3.146  12.555  0.4241  0.4474 -0.2007
  642TMC3    C6 9505   1.240   3.182  12.567 -0.3654  0.5869 -0.2301
  642TMC3     C 9506   0.932   3.444  12.462  0.4366 -0.0230 -0.6235
  642TMC3     O 9507   0.965   3.534  12.385  0.4767  0.3234  0.3581
  642TMC3     H 9508   1.192   3.498  12.483 -0.4768 -0.1413 -0.9432
  642TMC3    H1 9509   0.901   3.194  12.510 -0.6615  0.8361 -2.7595
  642TMC3    H2 9510   1.311   3.104  12.588 -1.9950 -0.6697  0.6265
  642TMC3    C7 9511   1.068   3.016  12.607 -0.1538  0.1461 -0.3604
  642TMC3    C8 9512   1.415   3.341  12.523 -0.1331  0.1775  0.7286
  642TMC3    O1 9513   1.145   2.927  12.585 -0.0918 -0.2223 -0.6130
  642TMC3    O2 9514   1.490   3.256  12.567  0.5655  0.7204  0.5618
  643TMC3    C1 9515   4.502   1.851   0.914 -0.0564 -0.0968 -0.7195
  643TMC3    C2 9516   4.372   1.826   0.923 -0.3690 -0.0325  0.4785
  643TMC3    C3 9517   4.322   1.739   0.835  0.3686 -0.1839 -0.2649
  643TMC3    C4 9518   4.581   1.800   0.815  0.3891 -0.6141 -0.4690
  643TMC3    C5 9519   4.527   1.710   0.733  0.1837 -0.7936  0.0940
  643TMC3    C6 9520   4.395   1.679   0.739  0.8457 -0.3882 -0.3432
  643TMC3     C 9521   4.539   1.977   0.970 -0.1890  0.5558 -0.0518
  643TMC3     O 9522   4.461   2.070   0.950 -0.3070 -0.2411  0.2712
  643TMC3     H 9523   4.311   1.893   0.984 -1.0054  0.1957 -0.4053
  643TMC3    H1 9524   4.681   1.838   0.805 -0.1451  0.3812 -1.9915
  643TMC3    H2 9525   4.353   1.620   0.659  1.0015 -2.0971  0.8475
  643TMC3    C7 9526   4.591   1.705   0.602 -0.2899  0.6938 -0.8356
  643TMC3    C8 9527   4.204   1.797   0.782  0.2326 -0.3177  0.3041
  643TMC3    O1 9528   4.663   1.803   0.578  0.1055  0.0520  0.1798
  643TMC3    O2 9529   4.107   1.731   0.742 -0.3803 -0.2582  0.1198
  644MPD2     C 9530   0.612   2.462   9.756  0.0751 -0.2284  0.3106
  644MPD2    C1 9531   0.560   2.441   9.634 -0.1488  1.0223 -0.3030
  644MPD2    C2 9532   0.585   2.541   9.537  0.5836 -0.6607  0.5876
  644MPD2    C3 9533   0.645   2.662   9.576 -0.3584 -0.3232  0.4325
  644MPD2    C4 9534   0.681   2.678   9.711 -0.1338 -0.5044 -0.3999
  644MPD2    C5 9535   0.688   2.575   9.792  0.3109 -0.1635  0.3104
  644MPD2     H 9536   0.561   2.523   9.433  1.2391  1.1932  0.1063
  644MPD2    H1 9537   0.725   2.772   9.740  1.4771 -0.7303 -2.1044
  644MPD2    H2 9538   0.609   2.397   9.843 -2.2962 -0.0241  0.3884
  644MPD2    H3 9539   0.722   2.581   9.895  0.3910 -1.9822  0.3944
  644MPD2     N 9540   0.668   2.764   9.482 -0.2855 -0.2135 -0.3727
  644MPD2    H5 9541   0.634   2.745   9.388 -2.0392  2.6493 -0.3079
  644MPD2    N1 9542   0.490   2.321   9.623  0.9051  0.5026  0.5314
  644MPD2    H7 9543   0.507   2.255   9.699  0.7758 -2.1696 -1.7704
  645TMC3    C1 9544   0.744   2.955   9.370 -0.3671 -0.5643 -0.5050
  645TMC3    C2 9545   0.835   3.060   9.372 -0.3650  0.4482 -0.2461
  645TMC3    C3 9546   0.841   3.137   9.256 -0.3356  0.2007 -0.2108
  645TMC3    C4 9547   0.672   2.925   9.267 -1.0372  0.1357  0.1693
  645TMC3    C5 9548   0.676   3.008   9.156 -0.2955 -0.4407 -0.1672
  645TMC3    C6 9549   0.756   3.113   9.150 -0.0694 -0.2635  0.2445
  645TMC3     C 9550   0.726   2.889   9.499 -0.2647 -0.3826 -0.0916
  645TMC3     O 9551   0.774   2.944   9.600  0.4719  0.2161  0.3106
  645TMC3     H 9552   0.901   3.078   9.456 -1.1317  1.8560  0.0649
  645TMC3    H1 9553   0.591   2.853   9.268  1.8283 -3.1331 -1.0049
  645TMC3    H2 9554   0.757   3.172   9.059  1.7368  0.3479  0.6491
  645TMC3    C7 9555   0.596   2.978   9.034 -0.0056  0.9047 -0.1906
  645TMC3    C8 9556   0.917   3.258   9.243 -0.1656  0.2213 -0.1822
  645TMC3    O1 9557   0.580   3.069   8.955  0.0719 -0.3557  0.2650
  645TMC3    O2 9558   0.899   3.317   9.141 -0.4030  0.2794 -0.5997
  646MPD2     C 9559   3.966   1.686  14.814 -0.8000 -0.3771 -0.5282
  646MPD2    C1 9560   3.848   1.639  14.873 -0.4040  0.5581  0.1622
  646MPD2    C2 9561   3.719   1.684  14.828  0.4701  0.4085 -0.3346
  646MPD2    C3 9562   3.708   1.767  14.717 -0.9490 -0.6266  0.0818
  646MPD2    C4 9563   3.830   1.815  14.662 -0.4810  0.0166 -0.0081
  646MPD2    C5 9564   3.952   1.771  14.700 -0.8419 -0.0096  0.1254
  646MPD2     H 9565   3.633   1.644  14.879  0.6447 -0.0402 -0.3960
  646MPD2    H1 9566   3.832   1.893  14.587  0.8754  0.0954  0.1052
  646MPD2    H2 9567   4.064   1.649  14.842 -0.7832  0.3731  0.4422
  646MPD2    H3 9568   4.035   1.822  14.652 -0.1847 -0.7512  0.4641
  646MPD2     N 9569   3.578   1.813  14.674  0.0092 -0.0849 -0.1075
  646MPD2    H5 9570   3.501   1.767  14.723 -0.6922  1.6178  0.3918
  646MPD2    N1 9571   3.868   1.551  14.981  0.6832 -0.4762 -0.2627
  646MPD2    H7 9572   3.963   1.518  14.994  0.5538 -0.6477  0.2464
  647TMC3    C1 9573   3.837   1.404  15.162  0.1618  0.5585 -0.2631
  647TMC3    C2 9574   3.747   1.327  15.240 -0.2479  0.3504  0.3393
  647TMC3    C3 9575   3.799   1.204  15.279  0.0952  0.3259  0.2294
  647TMC3    C4 9576   3.968   1.369  15.146  0.0203 -0.0413 -0.3245
  647TMC3    C5 9577   4.012   1.255  15.210  1.0462  0.1717 -0.0859
  647TMC3    C6 9578   3.927   1.170  15.276  0.1815  0.2601  0.1268
  647TMC3     C 9579   3.783   1.507  15.076 -0.2131  0.3377  0.1125
  647TMC3     O 9580   3.662   1.534  15.099 -0.3181  0.2475  0.3964
  647TMC3     H 9581   3.645   1.359  15.257 -0.2271  0.7527 -0.2894
  647TMC3    H1 9582   4.044   1.418  15.087  0.3202 -2.2821 -1.7939
  647TMC3    H2 9583   3.955   1.069  15.304  2.0207 -0.0165 -2.6923
  647TMC3    C7 9584   4.154   1.214  15.221 -0.1945 -0.0117  0.4545
  647TMC3    C8 9585   3.705   1.112  15.351  0.1970 -0.2828  0.0053
  647TMC3    O1 9586   4.175   1.137  15.318  0.4993  0.7157  0.0967
  647TMC3    O2 9587   3.582   1.132  15.337  0.3478  0.3346 -0.5174
  648TMC3    C1 9588   3.319   3.898  16.269 -0.6292  0.0721 -0.3816
  648TMC3    C2 9589   3.332   3.786  16.195 -0.5100 -0.3700 -0.8447
  648TMC3    C3 9590   3.294   3.792  16.064  0.2646  0.6515 -0.3412
  648TMC3    C4 9591   3.255   4.010  16.213  0.2143 -0.2283 -0.0518
  648TMC3    C5 9592   3.213   4.007  16.087  0.1377  0.3251  0.0300
  648TMC3    C6 9593   3.232   3.902  16.003 -0.1857  1.1790 -0.1092
  648TMC3     C 9594   3.338   3.916  16.418  0.1667  0.3508 -0.3497
  648TMC3     O 9595   3.325   4.033  16.453  0.9874 -0.3073  0.2268
  648TMC3     H 9596   3.365   3.692  16.238 -0.1619 -0.3663 -1.1103
  648TMC3    H1 9597   3.236   4.105  16.262 -1.6700  0.1351 -1.5045
  648TMC3    H2 9598   3.187   3.898  15.905 -2.2484 -0.0107  0.8845
  648TMC3    C7 9599   3.146   4.125  16.029 -0.2278  0.4810  0.6291
  648TMC3    C8 9600   3.253   3.671  16.011  0.2600  0.0048 -0.1687
  648TMC3    O1 9601   3.192   4.175  15.924  0.0927  0.0756 -0.1034
  648TMC3    O2 9602   3.133   3.669  15.998 -0.3926 -0.2421  0.0917
  649TMC3    C1 9603   2.920   0.237  13.003 -0.5608  0.2631  0.1232
  649TMC3    C2 9604   3.051   0.221  13.027  0.4956 -0.1212  0.1491
  649TMC3    C3 9605   3.088   0.162  13.143 -0.6905  0.6496 -0.2057
  649TMC3    C4 9606   2.822   0.202  13.096  0.5688  0.0337  0.1689
  649TMC3    C5 9607   2.868   0.148  13.208  0.5131  0.1262 -0.0717
  649TMC3    C6 9608   3.001   0.135  13.242  0.8020  0.1642 -0.2066
  649TMC3     C 9609   2.874   0.293  12.880 -0.5300 -0.8480 -0.1856
  649TMC3     O 9610   2.782   0.238  12.820 -0.1544 -0.0055  0.2833
  649TMC3     H 9611   3.128   0.235  12.953  0.0636 -1.3664 -0.5341
  649TMC3    H1 9612   2.717   0.217  13.071  0.6643  1.7582  0.7823
  649TMC3    H2 9613   3.036   0.091  13.335 -0.3236  0.1748  0.2180
  649TMC3    C7 9614   2.776   0.145  13.323  0.4565 -0.6853  0.3556
  649TMC3    C8 9615   3.226   0.163  13.177 -0.3513 -0.3680 -0.5198
  649TMC3    O1 9616   2.655   0.152  13.294  0.3868  0.1019 -0.4604
  649TMC3    O2 9617   3.258   0.077  13.259 -0.1518  0.6016  0.3104
  650TMC3    C1 9618   0.601   2.486  13.156 -0.1479  0.1726  0.3123
  650TMC3    C2 9619   0.547   2.607  13.183  0.4471  0.7533  0.6878
  650TMC3    C3 9620   0.448   2.648  13.097 -0.2857  0.5308 -0.2717
  650TMC3    C4 9621   0.548   2.398  13.067 -0.0742 -0.5772  0.0410
  650TMC3    C5 9622   0.450   2.448  12.983  0.0902  0.7474  0.0751
  650TMC3    C6 9623   0.409   2.577  12.994  0.5453  0.1462  0.0982
  650TMC3     C 9624   0.709   2.447  13.246  0.2297 -0.6920  0.2009
  650TMC3     O 9625   0.767   2.541  13.300  0.0468 -0.4071 -0.1361
  650TMC3     H 9626   0.595   2.677  13.250  1.7100 -0.9675  1.5681
  650TMC3    H1 9627   0.605   2.308  13.048 -1.6707 -1.5533 -0.0871
  650TMC3    H2 9628   0.343   2.618  12.919 -0.6241 -0.7117  0.6532
  650TMC3    C7 9629   0.399   2.363  12.877 -0.3415  0.1797  0.0521
  650TMC3    C8 9630   0.370   2.763  13.121 -0.1803  0.2326  0.0167
  650TMC3    O1 9631   0.408   2.243  12.896 -0.2310  0.0550 -0.3452
  650TMC3    O2 9632   0.325   2.823  13.020 -0.0928  0.5231  0.2041
  651MPD2     C 9633   3.499   3.859  10.802 -0.1762 -0.3755 -0.3462
  651MPD2    C1 9634   3.487   3.990  10.852  0.7719 -0.5038 -0.1156
  651MPD2    C2 9635   3.598   4.082  10.825 -0.3010 -0.8760  0.6837
  651MPD2    C3 9636   3.707   4.042  10.752 -0.0109 -0.2687 -0.6102
  651MPD2    C4 9637   3.722   3.912  10.705 -0.4535  0.3508 -0.3336
  651MPD2    C5 9638   3.616   3.831  10.737  0.7202 -0.2364 -0.0130
  651MPD2     H 9639   3.582   4.178  10.872  3.1411  0.2235 -0.3774
  651MPD2    H1 9640   3.807   3.875  10.649  1.0271  0.2958  1.9464
  651MPD2    H2 9641   3.443   3.771  10.832 -2.5933  1.2410 -0.1837
  651MPD2    H3 9642   3.628   3.727  10.710 -0.0305 -0.1377 -0.7476
  651MPD2     N 9643   3.808   4.138  10.735 -0.2978 -0.1789  0.0354
  651MPD2    H5 9644   3.790   4.232  10.770 -0.5446 -1.0558  2.2498
  651MPD2    N1 9645   3.400   4.031  10.948 -0.0336  0.3245  0.7437
  651MPD2    H7 9646   3.414   4.114  11.005 -0.4347 -0.7230  2.3594
  652TMC3    C1 9647   4.195   4.358  10.698 -0.7891  0.0334  0.2291
  652TMC3    C2 9648   4.136   4.238  10.695 -1.0334 -0.8848 -0.4336
  652TMC3    C3 9649   4.001   4.238  10.670 -0.3125 -0.7492  0.8455
  652TMC3    C4 9650   4.125   4.474  10.681 -0.4224  0.0110 -0.5932
  652TMC3    C5 9651   3.999   4.464  10.627  0.5801  0.4608 -0.1912
  652TMC3    C6 9652   3.931   4.347  10.625 -0.1864 -0.2896  0.0134
  652TMC3     C 9653   4.320   4.364  10.758  0.4453 -0.7553 -0.4259
  652TMC3     O 9654   4.343   4.288  10.851  0.3950 -0.2012 -0.2994
  652TMC3     H 9655   4.186   4.147  10.725 -0.2156 -0.8927 -1.8434
  652TMC3    H1 9656   4.174   4.570  10.687  1.2077 -0.8141 -0.6023
  652TMC3    H2 9657   3.827   4.336  10.598  0.1403  0.5691 -1.5524
  652TMC3    C7 9658   3.927   4.585  10.637 -0.2551 -0.7077  0.2723
  652TMC3    C8 9659   3.932   4.114  10.700 -0.1457  0.1954 -0.2224
  652TMC3    O1 9660   3.958   4.655  10.730  0.0348 -0.2271 -0.4272
  652TMC3    O2 9661   3.997   4.008  10.694  0.8679 -0.1373  0.1954
  653MPD2     C 9662   2.419   3.679   0.363 -0.1477  0.8608  0.1198
  653MPD2    C1 9663   2.403   3.781   0.273  0.0430 -0.1003  0.5591
  653MPD2    C2 9664   2.351   3.748   0.151 -0.3546  0.3481 -0.8747
  653MPD2    C3 9665   2.314   3.620   0.114  0.3745 -0.4613  0.4709
  653MPD2    C4 9666   2.340   3.518   0.207 -0.4499  0.1650 -0.8998
  653MPD2    C5 9667   2.391   3.552   0.330  0.3874 -0.2314 -0.2417
  653MPD2     H 9668   2.329   3.839   0.097  0.5096 -0.2870 -2.2758
  653MPD2    H1 9669   2.313   3.414   0.194  1.0834 -0.1697 -1.4185
  653MPD2    H2 9670   2.454   3.702   0.463 -2.4594 -0.9394  1.3420
  653MPD2    H3 9671   2.412   3.474   0.402 -1.4586 -1.3972 -0.9637
  653MPD2     N 9672   2.256   3.606  17.687 -0.4144  0.6766  0.1413
  653MPD2    H5 9673   2.238   3.695  17.641  2.3521  0.6929 -0.8880
  653MPD2    N1 9674   2.434   3.916   0.291  0.1548 -0.2692  0.2212
  653MPD2    H7 9675   2.406   3.973   0.212 -1.5521  0.3789  1.2866
  654TMC3    C1 9676   2.139   3.502  17.509  0.3795 -0.1965 -0.1293
  654TMC3    C2 9677   2.055   3.610  17.497  0.0195 -0.8420  0.6851
  654TMC3    C3 9678   1.988   3.613  17.378  0.2774  1.1420 -0.2660
  654TMC3    C4 9679   2.138   3.397  17.426  0.2566  0.5898 -0.2380
  654TMC3    C5 9680   2.055   3.402  17.315  0.9612 -0.0145  0.2625
  654TMC3    C6 9681   1.986   3.515  17.282 -0.5985  0.9187  0.0649
  654TMC3     C 9682   2.219   3.480  17.632 -0.0256  0.0114  0.0074
  654TMC3     O 9683   2.230   3.371  17.675 -0.4795 -0.1758 -0.0811
  654TMC3     H 9684   2.033   3.684  17.574  0.2836  0.7927 -0.8033
  654TMC3    H1 9685   2.212   3.321  17.449 -0.5259  0.5435  2.1229
  654TMC3    H2 9686   1.917   3.512  17.198 -1.1435 -1.7856  0.6049
  654TMC3    C7 9687   2.074   3.295  17.219 -0.0030 -0.1602  0.0429
  654TMC3    C8 9688   1.885   3.719  17.348  0.8541  0.3999 -0.4710
  654TMC3    O1 9689   2.054   3.314  17.103  0.2866  0.0690 -0.1900
  654TMC3    O2 9690   1.864   3.787  17.449  0.0119 -1.0870  0.5412
  655MPD2     C 9691   3.607   4.115  16.105 -0.0131  0.1947 -0.3441
  655MPD2    C1 9692   3.526   4.185  16.023  0.3411  0.4260 -0.1884
  655MPD2    C2 9693   3.517   4.158  15.891 -0.6764  0.3740 -0.1402
  655MPD2    C3 9694   3.596   4.060  15.828  0.3391 -0.3051 -0.0628
  655MPD2    C4 9695   3.682   3.990  15.910  0.1429 -1.3522  0.8174
  655MPD2    C5 9696   3.679   4.014  16.049 -0.5275  0.6818 -0.1139
  655MPD2     H 9697   3.451   4.220  15.832  0.5188  0.4063 -1.4349
  655MPD2    H1 9698   3.750   3.914  15.873  1.6060 -0.0220  0.7744
  655MPD2    H2 9699   3.617   4.132  16.211  0.0732  0.0542 -0.3306
  655MPD2    H3 9700   3.739   3.955  16.117  0.9167  2.8210  0.4450
  655MPD2     N 9701   3.588   4.016  15.693  0.5324  0.0612  0.4026
  655MPD2    H5 9702   3.653   3.943  15.664  3.3115  3.5109 -1.9667
  655MPD2    N1 9703   3.445   4.296  16.066  0.0153  0.9849  0.1016
  655MPD2    H7 9704   3.377   4.328  15.998  0.3271 -2.5514 -1.8753
  656TMC3    C1 9705   3.327   4.437  16.219  0.6282 -0.3387  0.7358
  656TMC3    C2 9706   3.260   4.419  16.336 -0.0212  0.2551 -0.3558
  656TMC3    C3 9707   3.143   4.491  16.348 -0.0346  0.3933  0.1054
  656TMC3    C4 9708   3.281   4.520  16.124 -0.0179 -0.2192  0.0710
  656TMC3    C5 9709   3.166   4.588  16.143  0.2445  1.1373  0.8121
  656TMC3    C6 9710   3.096   4.576  16.256  0.2648 -1.0698  0.4257
  656TMC3     C 9711   3.429   4.332  16.198 -0.8516  0.6891  0.2261
  656TMC3     O 9712   3.471   4.289  16.302 -0.0222  0.3130 -0.2309
  656TMC3     H 9713   3.286   4.342  16.408  2.1431 -0.7386 -2.1696
  656TMC3    H1 9714   3.336   4.520  16.030  1.8049  2.3903  1.1051
  656TMC3    H2 9715   2.998   4.617  16.272  1.5621  0.9897  3.0295
  656TMC3    C7 9716   3.126   4.689  16.043  0.0313  0.5369  0.1829
  656TMC3    C8 9717   3.051   4.422  16.439 -0.1632  0.4644  0.0223
  656TMC3    O1 9718   3.189   4.692  15.937  0.2189 -0.9448 -0.1183
  656TMC3    O2 9719   3.071   4.303  16.460 -0.3670  0.3714 -0.1606
  657TMC3    C1 9720   2.446   3.677  15.211 -0.0200 -0.6203  0.1686
  657TMC3    C2 9721   2.448   3.672  15.342 -0.3765  0.1011 -0.1944
  657TMC3    C3 9722   2.411   3.774  15.421 -0.5892  0.3239 -0.5529
  657TMC3    C4 9723   2.377   3.778  15.155 -0.9583  0.1804 -0.5224
  657TMC3    C5 9724   2.313   3.872  15.233  0.3223  0.1024  0.2127
  657TMC3    C6 9725   2.338   3.877  15.370  0.0521 -0.2350  0.1823
  657TMC3     C 9726   2.467   3.551  15.142 -0.2411  0.2890 -0.1275
  657TMC3     O 9727   2.408   3.543  15.035 -0.2717  0.3689 -0.4447
  657TMC3     H 9728   2.481   3.576  15.377 -0.8610  0.2877  0.7882
  657TMC3    H1 9729   2.358   3.776  15.049  2.6395 -0.2059 -1.1727
  657TMC3    H2 9730   2.314   3.968  15.424  2.9313 -0.9562  2.6905
  657TMC3    C7 9731   2.245   3.986  15.168  0.2622  0.8204  0.8462
  657TMC3    C8 9732   2.436   3.778  15.568 -0.3242  0.4804 -0.2070
  657TMC3    O1 9733   2.190   4.075  15.235 -0.5139  0.1605 -0.5145
  657TMC3    O2 9734   2.400   3.883  15.624  0.2031 -0.5595 -0.7023
  658MPD2     C 9735   3.845   3.564  15.042  0.6635  0.2071 -0.5107
  658MPD2    C1 9736   3.806   3.688  15.090  0.2148  0.2837  0.4717
  658MPD2    C2 9737   3.833   3.799  15.012 -0.1230 -0.1171  0.2157
  658MPD2    C3 9738   3.905   3.789  14.897  0.1616  0.7343 -0.2116
  658MPD2    C4 9739   3.956   3.667  14.851 -0.0314 -0.2361  0.3991
  658MPD2    C5 9740   3.918   3.558  14.925 -0.6055 -1.0167 -0.3968
  658MPD2     H 9741   3.810   3.898  15.047  1.3218  1.0621 -2.2029
  658MPD2    H1 9742   4.021   3.654  14.766 -1.5955 -0.7074 -0.7071
  658MPD2    H2 9743   3.814   3.472  15.089  2.2604 -0.4122 -0.6666
  658MPD2    H3 9744   3.954   3.460  14.895  0.5626 -1.1473  1.4362
  658MPD2     N 9745   3.905   3.909  14.821  0.3431  0.1220  0.0826
  658MPD2    H5 9746   3.855   3.987  14.862  1.3031  0.9287 -0.3034
  658MPD2    N1 9747   3.736   3.701  15.206  0.2728 -0.3285  0.1419
  658MPD2    H7 9748   3.691   3.618  15.245  1.9786 -0.2917  2.2172
  659TMC3    C1 9749   3.606   3.833  15.351 -0.4391 -0.1017  0.0096
  659TMC3    C2 9750   3.611   3.918  15.456 -0.4251  0.6367  0.1117
  659TMC3    C3 9751   3.508   4.006  15.478 -0.0163  0.5536  0.0789
  659TMC3    C4 9752   3.490   3.827  15.275 -0.2870  0.0922 -0.1977
  659TMC3    C5 9753   3.379   3.899  15.320 -0.2988 -0.2656  0.7800
  659TMC3    C6 9754   3.395   3.989  15.420  0.3259  0.5830  0.2302
  659TMC3     C 9755   3.729   3.817  15.280 -0.2599 -0.4727  0.7659
  659TMC3     O 9756   3.808   3.908  15.278  0.5185 -0.2106  0.6911
  659TMC3     H 9757   3.707   3.939  15.502  0.0713 -3.0984  0.7657
  659TMC3    H1 9758   3.491   3.789  15.173  0.3683 -2.6569  0.8453
  659TMC3    H2 9759   3.322   4.067  15.440 -1.0232 -0.8825  1.0005
  659TMC3    C7 9760   3.263   3.911  15.233 -0.7502  0.0017 -0.1350
  659TMC3    C8 9761   3.507   4.074  15.608  0.7093 -0.5646 -0.4489
  659TMC3    O1 9762   3.196   4.009  15.257  0.1102  0.0680  0.0203
  659TMC3    O2 9763   3.424   4.165  15.619 -0.2504  0.2828  0.3360
  660MPD2     C 9764   1.692   2.307  12.592 -0.2632  0.6366 -1.1900
  660MPD2    C1 9765   1.691   2.444  12.616  0.0078 -0.2717  0.2719
  660MPD2    C2 9766   1.673   2.493  12.750  0.5424 -0.6444  0.2491
  660MPD2    C3 9767   1.672   2.398  12.850  0.1655 -0.1674  0.0466
  660MPD2    C4 9768   1.700   2.269  12.819 -0.7750  0.0082  0.3882
  660MPD2    C5 9769   1.697   2.219  12.698 -0.5279  1.1053 -0.0570
  660MPD2     H 9770   1.691   2.596  12.776  0.7031 -0.5220 -0.3355
  660MPD2    H1 9771   1.698   2.191  12.894 -1.4801  1.2255  1.6344
  660MPD2    H2 9772   1.690   2.271  12.489 -0.7809 -0.7574 -0.6891
  660MPD2    H3 9773   1.682   2.113  12.682  0.7284  0.9694 -0.3161
  660MPD2     N 9774   1.650   2.425  12.989 -0.0764  0.1702  0.4531
  660MPD2    H5 9775   1.653   2.346  13.052  3.1409  0.4517  0.6305
  660MPD2    N1 9776   1.699   2.534  12.506 -0.2700 -0.1985  0.4178
  660MPD2    H7 9777   1.704   2.498  12.412 -0.6167  0.6126  0.0896
  661TMC3    C1 9778   1.686   2.724  12.377 -0.0549 -0.2355 -0.0011
  661TMC3    C2 9779   1.786   2.694  12.289 -0.3831 -0.3622  0.7803
  661TMC3    C3 9780   1.840   2.783  12.204 -0.0506  0.4112  0.1977
  661TMC3    C4 9781   1.640   2.852  12.382 -0.2055  0.0705  0.2447
  661TMC3    C5 9782   1.696   2.938  12.295  0.2684  0.0412 -0.9257
  661TMC3    C6 9783   1.800   2.912  12.206  0.1090  0.0978 -0.3203
  661TMC3     C 9784   1.705   2.671  12.514  0.1803  0.2255 -0.2415
  661TMC3     O 9785   1.700   2.753  12.607  0.3640  0.1053 -0.0642
  661TMC3     H 9786   1.828   2.596  12.306  1.8041  0.2660 -0.9485
  661TMC3    H1 9787   1.573   2.885  12.461  0.1207  0.1760  0.4731
  661TMC3    H2 9788   1.832   2.990  12.137 -0.4362  0.1453 -0.5198
  661TMC3    C7 9789   1.641   3.068  12.263  0.5655 -0.5163 -0.5830
  661TMC3    C8 9790   1.922   2.748  12.091 -0.5757 -0.1804  0.0871
  661TMC3    O1 9791   1.726   3.153  12.236 -0.2047 -0.2776  0.1302
  661TMC3    O2 9792   1.940   2.837  12.006  0.0488  0.3270 -0.0539
  662MPD2     C 9793   1.579   2.774  17.653  0.4091  0.3277  0.1772
  662MPD2    C1 9794   1.685   2.744   0.036 -0.2208  0.4300  0.0406
  662MPD2    C2 9795   1.763   2.847   0.083  0.0252 -0.5550  0.4474
  662MPD2    C3 9796   1.734   2.981   0.049  0.1686 -0.6285 -0.2252
  662MPD2    C4 9797   1.618   3.008  17.671  0.5433  0.4872  0.0919
  662MPD2    C5 9798   1.544   2.902  17.627 -0.8569 -0.6657 -0.2267
  662MPD2     H 9799   1.844   2.827   0.151  0.0552  0.1031  0.6044
  662MPD2    H1 9800   1.578   3.107  17.653  0.1939  0.3457  0.0936
  662MPD2    H2 9801   1.516   2.691  17.623  1.8033  0.5293 -3.2248
  662MPD2    H3 9802   1.446   2.918  17.583 -0.1223 -1.4858 -2.1746
  662MPD2     N 9803   1.796   3.092   0.110  0.2670 -0.2129 -0.2614
  662MPD2    H5 9804   1.743   3.179   0.105  0.9476  0.2819  1.1171
  662MPD2    N1 9805   1.723   2.622   0.084 -0.1217  0.1334  0.1361
  662MPD2    H7 9806   1.789   2.619   0.160  1.0795  0.2695 -0.9016
  663TMC3    C1 9807   1.732   2.388   0.117 -0.2188 -0.2847 -0.1257
  663TMC3    C2 9808   1.692   2.381   0.247  0.4019 -0.1322  0.0553
  663TMC3    C3 9809   1.669   2.260   0.309  0.6112  0.3146 -1.2671
  663TMC3    C4 9810   1.763   2.274   0.052 -1.0122  0.7222 -0.0647
  663TMC3    C5 9811   1.769   2.153   0.119  0.9883 -0.0818 -0.3283
  663TMC3    C6 9812   1.716   2.147   0.241  0.4780 -0.2051 -0.6247
  663TMC3     C 9813   1.682   2.499   0.035 -0.2480  0.3836 -0.3760
  663TMC3     O 9814   1.621   2.462  17.628  0.2144 -0.4806  0.0073
  663TMC3     H 9815   1.642   2.465   0.295  1.0420  1.0624 -1.3650
  663TMC3    H1 9816   1.804   2.284  17.648 -0.5592  3.5593  0.3955
  663TMC3    H2 9817   1.733   2.056   0.298  0.9538 -0.6299 -1.4387
  663TMC3    C7 9818   1.827   2.029   0.066 -0.4907 -0.7430  0.3717
  663TMC3    C8 9819   1.529   2.254   0.360  0.1028  0.0669 -0.5129
  663TMC3    O1 9820   1.904   2.044  17.666  0.1477 -0.4169 -0.5167
  663TMC3    O2 9821   1.446   2.316   0.291 -0.3966 -0.1534  0.3262
  664MPD2     C 9822   0.272   0.602   0.170  0.0016  0.0012 -0.0547
  664MPD2    C1 9823   0.261   0.728   0.230 -0.4008 -0.9600  0.3702
  664MPD2    C2 9824   0.152   0.746   0.320  0.8843  0.3560  0.7884
  664MPD2    C3 9825   0.066   0.640   0.349 -0.7649 -0.1518 -0.2998
  664MPD2    C4 9826   0.091   0.515   0.298  0.0182  0.1366 -0.0077
  664MPD2    C5 9827   0.188   0.501   0.201  0.2864  0.5075  1.0162
  664MPD2     H 9828   0.138   0.835   0.380 -0.1429 -0.3278  1.5809
  664MPD2    H1 9829   0.044   0.429   0.345 -2.2128  0.2130 -2.0828
  664MPD2    H2 9830   0.349   0.560   0.106 -1.2667 -0.5512 -1.2155
  664MPD2    H3 9831   0.211   0.406   0.155  0.4811  1.2323 -0.3579
  664MPD2     N 9832   4.698   0.664   0.458 -0.2785 -0.4697  0.0942
  664MPD2    H5 9833   4.688   0.757   0.499 -0.8158 -0.9035  0.9436
  664MPD2    N1 9834   0.351   0.837   0.213 -0.5725  0.0417  0.1046
  664MPD2    H7 9835   0.332   0.916   0.274 -0.5537 -0.9315  1.3794
  665TMC3    C1 9836   4.554   0.632   0.640 -0.6393 -0.4739 -0.0694
  665TMC3    C2 9837   4.585   0.578   0.764  0.1329  0.9084  0.2696
  665TMC3    C3 9838   4.568   0.666   0.871  0.1370  0.3009  0.6066
  665TMC3    C4 9839   4.525   0.764   0.620  0.4369 -0.0023 -0.1981
  665TMC3    C5 9840   4.527   0.849   0.729 -0.1673 -0.0634 -0.9750
  665TMC3    C6 9841   4.541   0.803   0.853  0.3227 -0.3916 -0.1036
  665TMC3     C 9842   4.623   0.572   0.528 -0.0464 -0.2827  0.2625
  665TMC3     O 9843   4.617   0.453   0.518  0.0362 -1.1377 -0.4169
  665TMC3     H 9844   4.613   0.474   0.778  0.2051  0.6255 -2.0419
  665TMC3    H1 9845   4.507   0.807   0.522 -1.1515  3.6334  1.6914
  665TMC3    H2 9846   4.570   0.860   0.940  1.5510 -0.4285 -0.4969
  665TMC3    C7 9847   4.551   0.989   0.694 -0.7768  0.3890 -0.0056
  665TMC3    C8 9848   4.618   0.626   0.998  0.3135 -0.3242 -0.3080
  665TMC3    O1 9849   4.548   1.023   0.576  0.2520  0.3138 -0.0324
  665TMC3    O2 9850   4.685   0.710   1.055  0.4749 -0.1258 -1.2675
  666TMC3    C1 9851   3.848   0.619  10.798 -0.3059  0.7053 -0.7034
  666TMC3    C2 9852   3.746   0.620  10.703 -0.0708  0.7966  0.1428
  666TMC3    C3 9853   3.738   0.723  10.614 -0.8467  0.6187  0.6894
  666TMC3    C4 9854   3.941   0.723  10.802  0.5035  0.0905  0.3533
  666TMC3    C5 9855   3.923   0.824  10.708 -0.6208 -0.3941 -0.3818
  666TMC3    C6 9856   3.822   0.827  10.613 -0.2311  0.2197 -0.3498
  666TMC3     C 9857   3.879   0.499  10.873 -0.9316  0.8866  0.0077
  666TMC3     O 9858   4.002   0.481  10.887 -0.4679  0.7956  0.4207
  666TMC3     H 9859   3.679   0.535  10.707  1.2373 -0.2256  0.6257
  666TMC3    H1 9860   4.008   0.734  10.887 -0.1773  2.1354  0.6133
  666TMC3    H2 9861   3.827   0.897  10.530 -2.1115  1.9407  0.9897
  666TMC3    C7 9862   4.023   0.930  10.700 -0.6821  0.3464  0.3592
  666TMC3    C8 9863   3.645   0.696  10.504 -0.0957 -0.3902 -0.9175
  666TMC3    O1 9864   4.009   1.009  10.609 -0.2685 -0.3262  0.1516
  666TMC3    O2 9865   3.587   0.589  10.501  0.0061 -0.0587 -0.8067
  667MPD2     C 9866   0.781   0.780  15.033  0.8638  0.5218  0.0771
  667MPD2    C1 9867   0.749   0.709  15.144  0.3558  0.2489  0.1498
  667MPD2    C2 9868   0.637   0.623  15.136 -0.1896 -0.4205  0.1091
  667MPD2    C3 9869   0.550   0.616  15.026  0.2866  0.7041  0.4060
  667MPD2    C4 9870   0.581   0.694  14.921 -0.0074  0.2697  0.7279
  667MPD2    C5 9871   0.701   0.773  14.924  0.5256  1.4868  0.0699
  667MPD2     H 9872   0.603   0.568  15.223  0.7249  1.1602  1.4708
  667MPD2    H1 9873   0.515   0.692  14.835  0.9562 -0.5296 -0.0059
  667MPD2    H2 9874   0.864   0.849  15.026 -0.2233  1.4932 -2.9559
  667MPD2    H3 9875   0.727   0.836  14.839  1.4742 -1.0957 -1.5403
  667MPD2     N 9876   0.434   0.537  15.011  0.0732  0.0130 -0.5557
  667MPD2    H5 9877   0.399   0.530  14.916  0.6539  1.4563 -0.8822
  667MPD2    N1 9878   0.821   0.717  15.269 -0.3686 -0.2979 -0.5012
  667MPD2    H7 9879   0.790   0.664  15.350  1.0116 -0.7050 -0.2509
  668TMC3    C1 9880   0.951   0.821  15.446  0.3319  0.3956 -0.0278
  668TMC3    C2 9881   1.062   0.897  15.477 -0.3772  0.9736 -0.0444
  668TMC3    C3 9882   1.095   0.923  15.603  0.6391  0.0355  0.5892
  668TMC3    C4 9883   0.859   0.805  15.547 -0.1817  0.2870 -0.0189
  668TMC3    C5 9884   0.903   0.817  15.681 -0.0682 -0.4800 -1.5313
  668TMC3    C6 9885   1.025   0.867  15.701  0.3184 -0.9326  0.4491
  668TMC3     C 9886   0.915   0.812  15.301  0.6226  0.4656 -0.5182
  668TMC3     O 9887   0.970   0.893  15.228  0.6748  0.4203 -0.5661
  668TMC3     H 9888   1.138   0.907  15.400 -0.1777  2.8195  0.3872
  668TMC3    H1 9889   0.756   0.791  15.516  0.0993 -2.0134  0.0204
  668TMC3    H2 9890   1.035   0.917  15.797  0.0732  0.1494 -0.0855
  668TMC3    C7 9891   0.811   0.791  15.786 -0.4584  0.0882  0.1832
  668TMC3    C8 9892   1.166   1.052  15.633  0.6144  0.4069  0.4783
  668TMC3    O1 9893   0.842   0.833  15.899 -0.2040  0.1547  0.0844
  668TMC3    O2 9894   1.199   1.073  15.748  0.0289 -0.1003 -0.3343
  669TMC3    C1 9895   3.661   1.122  14.831  0.3585 -0.3005  0.0829
  669TMC3    C2 9896   3.558   1.098  14.751 -0.4926  0.4287 -0.0896
  669TMC3    C3 9897   3.543   1.178  14.640 -0.4058  0.6297 -0.8641
  669TMC3    C4 9898   3.760   1.208  14.796  0.3846  0.0282  0.2097
  669TMC3    C5 9899   3.749   1.278  14.673 -0.0278  0.0855  0.4568
  669TMC3    C6 9900   3.636   1.270  14.600  0.4564 -0.2343 -0.5789
  669TMC3     C 9901   3.684   1.017  14.925 -0.5857 -0.7286  0.5194
  669TMC3     O 9902   3.581   0.955  14.964 -0.6678 -0.2200  0.0121
  669TMC3     H 9903   3.499   1.009  14.769  0.5772 -0.3078 -0.1611
  669TMC3    H1 9904   3.842   1.244  14.858  0.1950 -4.0283  2.8331
  669TMC3    H2 9905   3.630   1.325  14.506 -0.2699  0.0817 -0.3447
  669TMC3    C7 9906   3.876   1.335  14.612 -0.4915  0.4324  0.6595
  669TMC3    C8 9907   3.452   1.141  14.540  0.2267  0.4411  0.6660
  669TMC3    O1 9908   3.979   1.339  14.681  0.3034  0.5454  0.2803
  669TMC3    O2 9909   3.499   1.148  14.426 -0.5472 -0.0798 -0.2372
  670MPD2     C 9910   1.826   3.676  13.852  0.8475  0.1716 -0.2277
  670MPD2    C1 9911   1.936   3.695  13.931  0.2920  0.1219  0.1892
  670MPD2    C2 9912   1.948   3.632  14.054  0.7223  0.5231 -0.5746
  670MPD2    C3 9913   1.859   3.531  14.091 -0.5873 -0.0614 -0.4004
  670MPD2    C4 9914   1.748   3.516  14.014 -0.0688 -0.5588 -1.0962
  670MPD2    C5 9915   1.723   3.594  13.905 -0.2093  0.3410  0.1187
  670MPD2     H 9916   2.023   3.662  14.126 -0.5343 -0.0182  0.9769
  670MPD2    H1 9917   1.673   3.445  14.047 -0.8808  0.3706 -0.9125
  670MPD2    H2 9918   1.798   3.718  13.757 -0.5076  2.4531  1.1751
  670MPD2    H3 9919   1.638   3.593  13.839  0.4524  2.3870 -0.7622
  670MPD2     N 9920   1.885   3.459  14.211 -0.1753 -0.0066 -0.4900
  670MPD2    H5 9921   1.977   3.479  14.249 -0.7697  2.8447 -0.5640
  670MPD2    N1 9922   2.044   3.774  13.886  0.2346 -0.6345 -0.2295
  670MPD2    H7 9923   2.127   3.782  13.945 -0.8427 -0.2611  1.2425
  671TMC3    C1 9924   1.877   3.315  14.392  0.0808  0.1186 -0.3452
  671TMC3    C2 9925   2.013   3.280  14.388  0.3767 -0.2756  0.2590
  671TMC3    C3 9926   2.049   3.196  14.489 -0.2952 -0.2664  0.7185
  671TMC3    C4 9927   1.794   3.281  14.490 -0.2026 -0.4253 -0.4619
  671TMC3    C5 9928   1.832   3.182  14.583  0.2490  0.6195 -0.2314
  671TMC3    C6 9929   1.965   3.147  14.591  0.4083  0.0297  0.4225
  671TMC3     C 9930   1.806   3.365  14.273 -0.4038  0.3840 -0.5365
  671TMC3     O 9931   1.690   3.330  14.251 -0.8375  0.1517  0.0938
  671TMC3     H 9932   2.066   3.279  14.293 -0.1166  1.6403 -0.0265
  671TMC3    H1 9933   1.696   3.326  14.497 -0.2774 -0.5533 -0.6831
  671TMC3    H2 9934   2.010   3.074  14.657 -0.3734  0.4288  1.3998
  671TMC3    C7 9935   1.722   3.092  14.612 -0.3004  0.1820 -0.7745
  671TMC3    C8 9936   2.151   3.098  14.454 -0.6527  0.2589 -0.1429
  671TMC3    O1 9937   1.605   3.120  14.588  0.0669 -0.1297 -0.6269
  671TMC3    O2 9938   2.136   2.985  14.501 -0.1707 -0.3233  0.8014
  672MPD2     C 9939   2.333   3.571   2.120  0.0700  0.2612 -0.2472
  672MPD2    C1 9940   2.384   3.586   1.991  0.2151  0.0110  0.1113
  672MPD2    C2 9941   2.481   3.680   1.979 -0.6625 -0.5576 -0.1368
  672MPD2    C3 9942   2.549   3.742   2.082 -0.0912  0.6623 -0.6356
  672MPD2    C4 9943   2.502   3.712   2.206 -0.4745  0.1418 -0.1030
  672MPD2    C5 9944   2.392   3.638   2.228 -0.3160 -0.6841 -0.0071
  672MPD2     H 9945   2.511   3.704   1.877  0.8257 -2.1809 -0.0846
  672MPD2    H1 9946   2.554   3.761   2.288 -1.5345  1.3230 -0.1451
  672MPD2    H2 9947   2.258   3.493   2.124 -0.4396  0.7358 -0.5151
  672MPD2    H3 9948   2.352   3.624   2.328  2.4242 -0.5399  1.0874
  672MPD2     N 9949   2.649   3.837   2.056  0.4782 -0.1562 -0.1246
  672MPD2    H5 9950   2.662   3.865   1.960  1.6464  0.2141  0.1375
  672MPD2    N1 9951   2.328   3.517   1.881  0.1712  0.0945 -1.2842
  672MPD2    H7 9952   2.376   3.541   1.795  0.0796 -0.7076 -1.5650
  673TMC3    C1 9953   2.249   3.338   1.744 -0.2993  0.1196  0.4322
  673TMC3    C2 9954   2.227   3.204   1.742 -0.0503 -0.0816 -0.0193
  673TMC3    C3 9955   2.301   3.126   1.657 -0.5279  0.1225  0.2617
  673TMC3    C4 9956   2.322   3.395   1.640  0.1495  0.2491 -0.0320
  673TMC3    C5 9957   2.372   3.312   1.538  0.2690  0.2126  0.5430
  673TMC3    C6 9958   2.374   3.179   1.556  0.0351  0.0688 -0.3663
  673TMC3     C 9959   2.251   3.405   1.878  0.0398 -0.6332 -0.3644
  673TMC3     O 9960   2.208   3.333   1.967  0.6137  0.6823 -0.1425
  673TMC3     H 9961   2.171   3.163   1.825  0.3923  1.1569  0.8904
  673TMC3    H1 9962   2.320   3.502   1.622  1.4020  0.4996  1.3268
  673TMC3    H2 9963   2.434   3.112   1.496  1.8367  1.1503  0.2161
  673TMC3    C7 9964   2.430   3.354   1.407 -0.2381  0.5122  0.0336
  673TMC3    C8 9965   2.338   2.999   1.716 -0.0664  0.7321 -0.2551
  673TMC3    O1 9966   2.474   3.261   1.342  0.3064 -0.2039 -0.4089
  673TMC3    O2 9967   2.252   2.933   1.774  0.3659 -0.5302 -0.4105
  674MPD2     C 9968   2.472   3.098   0.346  0.1445 -0.2720 -0.4063
  674MPD2    C1 9969   2.387   3.023   0.421 -0.9177 -0.7703  0.2886
  674MPD2    C2 9970   2.366   3.065   0.550 -0.1611  0.0210 -0.0095
  674MPD2    C3 9971   2.420   3.174   0.610  1.1799  0.5986  0.1216
  674MPD2    C4 9972   2.513   3.247   0.541  0.6950  0.1962 -0.5552
  674MPD2    C5 9973   2.531   3.216   0.405 -0.5497  0.3489 -0.2093
  674MPD2     H 9974   2.309   3.010   0.623 -1.8047  0.3764 -1.0425
  674MPD2    H1 9975   2.561   3.332   0.588  0.0706 -0.8965  2.0530
  674MPD2    H2 9976   2.496   3.091   0.240  1.5330 -0.5462 -0.0719
  674MPD2    H3 9977   2.603   3.276   0.350  0.1487 -0.3115 -0.0201
  674MPD2     N 9978   2.380   3.198   0.743  0.4825  0.7161 -0.2682
  674MPD2    H5 9979   2.312   3.131   0.778  1.8439 -0.4326  0.1621
  674MPD2    N1 9980   2.325   2.908   0.371 -0.4868  0.6895  0.2226
  674MPD2    H7 9981   2.246   2.880   0.428 -1.5916 -0.5323 -1.9245
  675TMC3    C1 9982   2.288   2.708   0.271 -0.0027  0.1433 -0.4408
  675TMC3    C2 9983   2.157   2.716   0.318 -0.4589  0.1646  1.0521
  675TMC3    C3 9984   2.110   2.613   0.394  0.1275  0.5281  1.1681
  675TMC3    C4 9985   2.365   2.596   0.292  0.2772  0.5904 -0.0684
  675TMC3    C5 9986   2.313   2.496   0.366 -0.0105 -0.4469 -0.0243
  675TMC3    C6 9987   2.184   2.503   0.419  0.1766 -0.0519 -0.7365
  675TMC3     C 9988   2.356   2.835   0.264 -0.2744  0.4918  0.1647
  675TMC3     O 9989   2.464   2.837   0.205  0.1915  1.0277  0.0348
  675TMC3     H 9990   2.086   2.796   0.306  0.5672  0.9571  0.2105
  675TMC3    H1 9991   2.466   2.592   0.254  0.0842 -0.9943 -0.4262
  675TMC3    H2 9992   2.161   2.424   0.489  1.3365  0.2155 -0.0563
  675TMC3    C7 9993   2.402   2.378   0.391 -0.7477 -0.1224 -0.1203
  675TMC3    C8 9994   1.972   2.600   0.408 -0.4138  0.3976 -0.1277
  675TMC3    O1 9995   2.488   2.353   0.312  0.1781 -0.4611 -0.2206
  675TMC3    O2 9996   1.900   2.662   0.331 -0.1730  0.4269  0.7149
  676MPD2     C 9997   0.461   2.234  11.383  0.0782 -0.2570 -0.3845
  676MPD2    C1 9998   0.396   2.180  11.498 -0.1594 -0.6814 -0.6114
  676MPD2    C2 9999   0.345   2.056  11.490 -0.0949  0.2401  0.4210
  676MPD2    C310000   0.360   1.978  11.376  0.3061 -0.1754 -0.2668
  676MPD2    C410001   0.429   2.032  11.267 -0.0869  0.3040  0.5051
  676MPD2    C510002   0.469   2.161  11.269 -0.0597  0.1716  0.1651
  676MPD2     H10003   0.292   2.016  11.576 -2.0745 -1.2508 -1.5222
  676MPD2    H110004   0.419   1.978  11.173  0.2435 -0.8210  1.1111
  676MPD2    H210005   0.508   2.332  11.389 -0.4661  0.1607 -2.7216
  676MPD2    H310006   0.504   2.199  11.173  0.8190  2.0784  1.2356
  676MPD2     N10007   0.299   1.853  11.357  0.0307  0.1132  0.7157
  676MPD2    H510008   0.311   1.799  11.272  0.0085 -0.1910  0.9065
  676MPD2    N110009   0.374   2.254  11.617  0.0368  0.3074  0.3322
  676MPD2    H710010   0.316   2.214  11.691 -0.0513 -0.4177 -0.1222
  677TMC3    C110011   0.415   2.425  11.776 -0.1860 -0.1123 -0.1618
  677TMC3    C210012   0.426   2.328  11.878 -0.4563 -0.5260 -0.4114
  677TMC3    C310013   0.423   2.374  12.008 -0.3772 -0.5383 -0.1176
  677TMC3    C410014   0.447   2.555  11.800  0.0208  0.2612  0.4992
  677TMC3    C510015   0.465   2.592  11.928 -0.2393  0.0009 -0.0770
  677TMC3    C610016   0.450   2.504  12.030 -0.7565 -0.5767 -0.1079
  677TMC3     C10017   0.420   2.383  11.638  0.2190  0.1513  0.1103
  677TMC3     O10018   0.480   2.453  11.563 -0.2309  0.1700 -0.9160
  677TMC3     H10019   0.411   2.224  11.853  1.0344 -0.9392  0.4434
  677TMC3    H110020   0.439   2.621  11.715 -2.5524  1.0524  1.3490
  677TMC3    H210021   0.453   2.542  12.132  1.9173 -0.3503 -0.2773
  677TMC3    C710022   0.472   2.732  11.970 -0.2360  0.0264  0.4194
  677TMC3    C810023   0.449   2.283  12.120 -0.1939  0.1187  0.2817
  677TMC3    O110024   0.482   2.768  12.083 -0.3341 -0.5346 -0.1227
  677TMC3    O210025   0.479   2.329  12.232  0.0729 -0.2138 -0.3624
  678MPD2     C10026   1.004   1.519   2.397  0.1211 -0.1859  0.8571
  678MPD2    C110027   1.037   1.560   2.269 -0.0195 -0.3364  0.5195
  678MPD2    C210028   0.955   1.526   2.162  0.0211 -0.4761  0.5293
  678MPD2    C310029   0.839   1.454   2.186  0.0259  0.0847  0.1962
  678MPD2    C410030   0.821   1.399   2.311 -0.2315  0.1662 -0.0229
  678MPD2    C510031   0.899   1.440   2.418  0.0568 -0.1218 -0.1037
  678MPD2     H10032   0.978   1.561   2.062  0.4689  2.5631  1.7104
  678MPD2    H110033   0.753   1.317   2.328  0.4792 -0.3324  0.4306
  678MPD2    H210034   1.058   1.556   2.484  0.1943  1.0814  0.2773
  678MPD2    H310035   0.887   1.402   2.519  0.0442  2.5751  0.8848
  678MPD2     N10036   0.755   1.423   2.078  0.5367  0.3328  0.0732
  678MPD2    H510037   0.697   1.340   2.076  1.4032 -0.2909  1.2932
  678MPD2    N110038   1.151   1.636   2.233  0.1017 -0.0392 -0.5181
  678MPD2    H710039   1.160   1.664   2.136  3.0886  1.1959  0.1114
  679TMC3    C110040   1.601   1.729   2.203  0.1539  0.1213  0.0177
  679TMC3    C210041   1.500   1.690   2.282  0.9476  0.0598 -0.0620
  679TMC3    C310042   1.368   1.720   2.247  0.2806  1.2727  0.0466
  679TMC3    C410043   1.581   1.813   2.099 -0.6283  0.3068  0.3470
  679TMC3    C510044   1.453   1.831   2.059 -0.4618  0.3056 -0.3534
  679TMC3    C610045   1.345   1.793   2.134  1.2291 -0.5118 -0.4069
  679TMC3     C10046   1.729   1.659   2.203 -0.5870  0.3101 -0.8113
  679TMC3     O10047   1.786   1.676   2.095 -0.4103  0.1232 -0.1774
  679TMC3     H10048   1.511   1.623   2.366 -1.0705  0.5427  0.5967
  679TMC3    H110049   1.665   1.849   2.040  0.1164 -1.7445  0.1163
  679TMC3    H210050   1.258   1.856   2.128  1.4573  0.0551  2.6614
  679TMC3    C710051   1.429   1.847   1.910 -0.5075 -0.3233 -0.1216
  679TMC3    C810052   1.262   1.644   2.315 -0.2628  0.1364  0.3662
  679TMC3    O110053   1.315   1.879   1.874 -0.4793  0.6060  0.1858
  679TMC3    O210054   1.290   1.582   2.418  0.2944 -0.5133 -0.0731
  680MPD2     C10055   1.851   0.377  13.799  0.0760 -0.4315  0.0340
  680MPD2    C110056   1.897   0.333  13.925  0.6622 -0.3658  0.3989
  680MPD2    C210057   1.852   0.406  14.029  0.2109  0.2697  0.3525
  680MPD2    C310058   1.766   0.504  14.018 -0.1809 -0.0603  0.1382
  680MPD2    C410059   1.715   0.543  13.899 -0.6153  0.2795 -0.2349
  680MPD2    C510060   1.766   0.483  13.789 -0.1574  0.1068 -0.2711
  680MPD2     H10061   1.882   0.386  14.131 -0.1800  0.3202  0.4766
  680MPD2    H110062   1.650   0.628  13.881  1.0276  1.4682 -0.6142
  680MPD2    H210063   1.876   0.326  13.707 -0.0474  0.4971 -0.5028
  680MPD2    H310064   1.718   0.513  13.697  2.4579  0.8869 -1.3886
  680MPD2     N10065   1.729   0.562  14.140  0.4114 -0.3676  0.0126
  680MPD2    H510066   1.772   0.525  14.224 -1.4642 -1.2968  0.5851
  680MPD2    N110067   1.982   0.223  13.940  0.2293 -0.2858 -0.4520
  680MPD2    H710068   2.005   0.193  14.034 -1.1545 -2.4669 -0.8109
  681TMC3    C110069   2.145   0.063  13.884  1.2351 -0.3697 -0.0617
  681TMC3    C210070   2.093   4.707  13.983 -0.5229 -0.0847  0.6106
  681TMC3    C310071   2.174   4.612  14.035  0.3549 -0.4639  0.1835
  681TMC3    C410072   2.269   0.047  13.839 -0.6781  0.2984  0.2355
  681TMC3    C510073   2.344   4.664  13.884 -0.1039 -0.3460  0.0866
  681TMC3    C610074   2.300   4.587  13.988  0.2590 -0.0092  1.0670
  681TMC3     C10075   2.072   0.179  13.842  0.4593 -0.4275 -0.8749
  681TMC3     O10076   2.101   0.228  13.737 -0.4988  0.2369  0.5352
  681TMC3     H10077   1.991   4.721  14.017 -0.9775  0.9697 -1.1923
  681TMC3    H110078   2.306   0.107  13.756 -2.8063  1.8557  0.4121
  681TMC3    H210079   2.368   4.515  14.033 -0.6385 -2.3691 -1.3599
  681TMC3    C710080   2.484   4.680  13.881  0.1767 -0.3892  0.3135
  681TMC3    C810081   2.121   4.507  14.108  0.0674 -0.1665 -0.6530
  681TMC3    O110082   2.550   4.639  13.971  0.0806  0.3638 -0.0933
  681TMC3    O210083   2.166   4.398  14.084 -0.0097 -0.5870 -0.0159
  682MPD2     C10084   4.404   1.774  11.292 -0.1588  0.1296  0.1387
  682MPD2    C110085   4.280   1.749  11.231 -0.3768  0.1355 -0.4085
  682MPD2    C210086   4.175   1.747  11.318  0.4285  0.3658  0.4013
  682MPD2    C310087   4.181   1.781  11.453 -0.2331  0.0998  0.1434
  682MPD2    C410088   4.303   1.808  11.510 -0.5955  0.1650 -0.5278
  682MPD2    C510089   4.416   1.798  11.434 -0.3869 -0.3125 -0.4337
  682MPD2     H10090   4.079   1.731  11.269  2.0200 -0.9100 -2.3157
  682MPD2    H110091   4.314   1.826  11.617 -1.8205  1.0128 -0.5493
  682MPD2    H210092   4.499   1.775  11.240 -0.6220  1.2045 -0.6868
  682MPD2    H310093   4.512   1.817  11.480 -1.1046  2.3151 -0.0590
  682MPD2     N10094   4.060   1.788  11.522  0.4192  0.2098 -0.4216
  682MPD2    H510095   3.977   1.769  11.466 -1.0322  0.8692  1.5213
  682MPD2    N110096   4.257   1.735  11.095 -0.4360 -0.1651  0.2281
  682MPD2    H710097   4.162   1.709  11.071  0.4150 -2.0582 -1.1097
  683TMC3    C110098   3.812   1.803  11.917  0.6682  0.0333 -0.0044
  683TMC3    C210099   3.746   1.686  11.876  0.5501  0.1413  0.5576
  683TMC3    C310100   3.759   1.651  11.747  0.2580 -0.7965  0.6489
  683TMC3    C410101   3.892   1.866  11.825  0.2285 -0.8848  0.7339
  683TMC3    C510102   3.912   1.819  11.702  0.0656 -0.2596 -0.6009
  683TMC3    C610103   3.841   1.714  11.654  0.7311  0.8975 -0.7866
  683TMC3     C10104   3.784   1.863  12.043 -0.0114  0.5998 -0.6420
  683TMC3     O10105   3.858   1.956  12.076 -0.1182  0.9423  0.8266
  683TMC3     H10106   3.679   1.618  11.926  1.0443 -0.1503  0.8288
  683TMC3    H110107   3.948   1.951  11.860 -0.9897 -0.0422  0.6431
  683TMC3    H210108   3.851   1.670  11.556 -2.0906  0.7782 -1.0362
  683TMC3    C710109   4.042   1.845  11.646  0.8453  0.0453 -0.0509
  683TMC3    C810110   3.716   1.514  11.714  0.1387 -0.3142  0.2975
  683TMC3    O110111   4.120   1.899  11.726 -0.1322 -0.0044  0.1208
  683TMC3    O210112   3.621   1.506  11.637  0.2854 -0.1293  0.0528
  684MPD2     C10113   1.679   1.232  17.040  0.1382 -0.0890  1.1654
  684MPD2    C110114   1.740   1.229  16.914 -0.1674  0.1897  0.4506
  684MPD2    C210115   1.797   1.345  16.876 -0.7703 -0.4414  0.0021
  684MPD2    C310116   1.810   1.456  16.959  0.0420 -0.1740  0.0218
  684MPD2    C410117   1.768   1.446  17.087 -0.5594  0.2432 -0.0475
  684MPD2    C510118   1.697   1.336  17.126 -0.4936  0.5581 -0.5142
  684MPD2     H10119   1.830   1.348  16.773 -0.0278  2.5755  0.3153
  684MPD2    H110120   1.767   1.530  17.156 -2.0865  0.3826 -0.2289
  684MPD2    H210121   1.619   1.152  17.080 -1.5799 -0.6015 -2.3712
  684MPD2    H310122   1.635   1.339  17.215 -3.1633  0.7204 -2.3752
  684MPD2     N10123   1.869   1.575  16.906 -0.0068  0.0390 -0.1475
  684MPD2    H510124   1.890   1.650  16.971  0.8324 -0.5390  0.2543
  684MPD2    N110125   1.746   1.115  16.831  0.0719  0.1606 -0.4922
  684MPD2    H710126   1.795   1.121  16.742 -2.5682 -1.0792 -2.0095
  685TMC3    C110127   1.766   0.891  16.775 -0.6544 -0.2997  0.4616
  685TMC3    C210128   1.681   0.802  16.724 -0.2629 -0.2347 -0.0945
  685TMC3    C310129   1.737   0.703  16.645  1.4181 -0.5104  0.0475
  685TMC3    C410130   1.897   0.891  16.752  0.2747  0.0437 -0.4030
  685TMC3    C510131   1.949   0.786  16.674  0.2401  1.1062 -0.3259
  685TMC3    C610132   1.868   0.685  16.622  0.0419 -0.0932 -0.5487
  685TMC3     C10133   1.706   0.985  16.866 -0.8210 -0.4063 -0.0202
  685TMC3     O10134   1.656   0.937  16.971 -0.2627 -0.1867 -0.3944
  685TMC3     H10135   1.577   0.792  16.753 -0.0955 -1.0043  0.2543
  685TMC3    H110136   1.959   0.966  16.800 -1.1375  0.2415  1.1187
  685TMC3    H210137   1.908   0.616  16.548 -1.3898 -1.2455 -0.2486
  685TMC3    C710138   2.094   0.767  16.693 -0.5696  0.5469 -0.2509
  685TMC3    C810139   1.646   0.660  16.541 -0.1191  0.3716 -0.0711
  685TMC3    O110140   2.141   0.809  16.795  0.0402  0.0561 -0.4950
  685TMC3    O210141   1.670   0.550  16.488  0.3562  0.1751  0.0219
  686MPD2     C10142   3.239   1.111  15.837  0.7844  1.0835  0.3177
  686MPD2    C110143   3.289   1.055  15.959 -0.0484  0.1464  0.0117
  686MPD2    C210144   3.432   1.052  15.975 -0.1892 -0.2032  0.1552
  686MPD2    C310145   3.515   1.084  15.871  0.1738 -0.4751  0.8417
  686MPD2    C410146   3.463   1.131  15.753  0.5270  0.2907  0.3729
  686MPD2    C510147   3.328   1.139  15.743 -0.1912  0.4308  0.1379
  686MPD2     H10148   3.464   1.021  16.073 -0.2004  2.1437  0.9168
  686MPD2    H110149   3.528   1.150  15.669  1.4765 -1.4949  0.7257
  686MPD2    H210150   3.134   1.134  15.824  0.4200  0.6285  2.3331
  686MPD2    H310151   3.286   1.175  15.650 -3.0217  0.8731  1.5829
  686MPD2     N10152   3.656   1.069  15.881  0.5584  0.1598  0.0562
  686MPD2    H510153   3.707   1.126  15.815 -0.1599  0.2020 -0.4651
  686MPD2    N110154   3.202   0.990  16.045 -0.5386 -0.1386 -0.5603
  686MPD2    H710155   3.103   0.997  16.026 -0.7847 -1.6937  0.1468
  687TMC3    C110156   3.671   0.882  16.037 -0.4562 -0.6434 -0.6721
  687TMC3    C210157   3.590   0.801  15.954  0.6086 -0.3623 -0.2343
  687TMC3    C310158   3.558   0.678  16.006 -0.1865  1.1899  0.8519
  687TMC3    C410159   3.729   0.835  16.153 -0.2210 -0.3058 -0.6824
  687TMC3    C510160   3.700   0.708  16.189 -0.3179  1.0551 -0.6117
  687TMC3    C610161   3.610   0.634  16.124 -0.0330  0.8030  0.5593
  687TMC3     C10162   3.728   1.001  15.978  0.0967 -0.3092  0.2368
  687TMC3     O10163   3.842   1.010  16.007 -0.2501 -0.0199 -0.0045
  687TMC3     H10164   3.542   0.842  15.866  2.1044  1.5213 -0.1755
  687TMC3    H110165   3.796   0.893  16.216  0.7344 -1.4439 -0.6514
  687TMC3    H210166   3.608   0.527  16.142 -0.4379  0.7894  0.4313
  687TMC3    C710167   3.755   0.666  16.318  0.1465 -0.1558 -0.5641
  687TMC3    C810168   3.422   0.629  15.982 -0.4383 -0.0087 -0.0565
  687TMC3    O110169   3.853   0.729  16.356 -0.0353  0.4053  0.4245
  687TMC3    O210170   3.388   0.541  16.059 -0.2468  0.5946  0.1397
  688MPD2     C10171   2.433   4.484  17.545  0.6623  0.0038  0.4101
  688MPD2    C110172   2.518   4.382  17.592  0.1880  0.2223  0.3787
  688MPD2    C210173   2.619   4.339  17.509 -1.0306  0.0139 -0.5634
  688MPD2    C310174   2.640   4.399  17.389  0.0436 -0.0330  0.4090
  688MPD2    C410175   2.563   4.504  17.340 -0.2382 -0.5365  0.4045
  688MPD2    C510176   2.457   4.542  17.423  0.1556 -0.4842 -0.0315
  688MPD2     H10177   2.700   4.275  17.542  0.3440 -0.2024 -4.4099
  688MPD2    H110178   2.583   4.561  17.251  0.0322  0.8777  1.3685
  688MPD2    H210179   2.362   4.541  17.603  0.8295  0.1258  0.4938
  688MPD2    H310180   2.389   4.621  17.391  0.2013 -0.6867 -0.6272
  688MPD2     N10181   2.742   4.370  17.293 -0.5005  0.5007  0.0136
  688MPD2    H510182   2.743   4.426  17.209 -0.5500  0.2692 -0.1413
  688MPD2    N110183   2.515   4.331   0.033 -0.9083  0.3448 -0.3188
  688MPD2    H710184   2.586   4.262   0.056  0.5752  1.2521 -2.1659
  689TMC3    C110185   2.457   4.319   0.262 -0.4005 -0.5043 -0.1547
  689TMC3    C210186   2.446   4.396   0.374 -0.8074 -0.1358 -0.3144
  689TMC3    C310187   2.465   4.338   0.500 -0.7474 -0.2045  0.6406
  689TMC3    C410188   2.487   4.190   0.275  1.2132  0.0405 -0.9755
  689TMC3    C510189   2.491   4.129   0.394  0.2162 -0.5250  0.4711
  689TMC3    C610190   2.497   4.205   0.511 -0.2854  0.1914  0.5690
  689TMC3     C10191   2.439   4.381   0.132  0.7560  0.0398 -0.7636
  689TMC3     O10192   2.373   4.486   0.137 -0.1439 -1.0156 -0.5384
  689TMC3     H10193   2.424   4.502   0.372 -0.2897  0.0157  1.8055
  689TMC3    H110194   2.484   4.128   0.187  2.1762 -1.8602  0.3322
  689TMC3    H210195   2.503   4.153   0.606 -2.1135 -1.6761 -0.3359
  689TMC3    C710196   2.489   3.979   0.401 -0.5518 -0.7513 -0.0375
  689TMC3    C810197   2.440   4.415   0.619 -0.3695  0.9332  0.0159
  689TMC3    O110198   2.516   3.929   0.509 -0.3428  0.0854  0.7840
  689TMC3    O210199   2.482   4.379   0.728  0.6782  0.2874  0.2653
  690MPD2     C10200   4.443   1.727  15.671 -0.0097  0.1237  0.8434
  690MPD2    C110201   4.539   1.661  15.755  0.3478  0.1344 -0.2988
  690MPD2    C210202   4.675   1.670  15.721 -0.3283  0.6883  0.1695
  690MPD2    C310203   4.711   1.734  15.606  0.2124  0.4842 -0.1027
  690MPD2    C410204   4.608   1.795  15.524  0.5705  0.2132 -0.1566
  690MPD2    C510205   4.479   1.793  15.559  0.0437 -0.5878 -0.5450
  690MPD2     H10206   0.029   1.618  15.776 -0.6432 -2.6553 -2.5490
  690MPD2    H110207   4.629   1.848  15.432 -0.0566  0.2202 -0.2912
  690MPD2    H210208   4.337   1.734  15.694  0.0034  0.5181  0.7754
  690MPD2    H310209   4.404   1.853  15.509 -0.0309 -3.0660 -3.4443
  690MPD2     N10210   0.124   1.743  15.563 -0.1061  0.0263  0.4731
  690MPD2    H510211   0.131   1.763  15.464  0.6396 -1.4886  0.2149
  690MPD2    N110212   4.506   1.602  15.886  0.0512  0.5330 -0.0506
  690MPD2    H710213   4.582   1.552  15.933 -1.9671  0.1416  2.7714
  691TMC3    C110214   4.367   1.498  16.048 -0.8746 -0.4415 -0.1037
  691TMC3    C210215   4.241   1.485  16.102 -0.1592 -0.3880 -0.4290
  691TMC3    C310216   4.209   1.366  16.165 -0.1848 -0.1253 -0.2467
  691TMC3    C410217   4.450   1.390  16.033 -0.3522  0.5929  0.5101
  691TMC3    C510218   4.412   1.272  16.094 -0.0757  0.7104 -0.7002
  691TMC3    C610219   4.293   1.256  16.154 -0.2033  0.0465  0.6487
  691TMC3     C10220   4.380   1.602  15.949  1.1604 -0.2165 -0.1051
  691TMC3     O10221   4.278   1.662  15.929  0.1284 -0.4925 -0.4499
  691TMC3     H10222   4.192   1.579  16.120 -2.2714 -1.7578  0.9690
  691TMC3    H110223   4.546   1.395  15.983 -0.1022  2.9995  1.2320
  691TMC3    H210224   4.267   1.157  16.191 -0.8486  0.3564  1.0420
  691TMC3    C710225   4.500   1.156  16.063  0.7294 -0.6932  0.4828
  691TMC3    C810226   4.076   1.326  16.207  0.7728 -0.2948  0.0389
  691TMC3    O110227   4.617   1.176  16.034 -0.3291 -0.7437  1.1002
  691TMC3    O210228   4.070   1.215  16.265  0.0723 -0.0546 -0.2607
  692TMC3    C110229   1.678   2.713  16.161  0.1850  0.4924  0.3602
  692TMC3    C210230   1.800   2.754  16.221 -0.0998  0.4060  0.7969
  692TMC3    C310231   1.913   2.675  16.201 -0.2049 -0.6124  0.4998
  692TMC3    C410232   1.678   2.603  16.081 -0.1168 -0.6653 -0.0085
  692TMC3    C510233   1.793   2.542  16.053  0.2575  0.2465  0.6073
  692TMC3    C610234   1.919   2.584  16.098  0.2536  0.0202  0.0378
  692TMC3     C10235   1.560   2.775  16.208  0.0887  0.6627  0.1505
  692TMC3     O10236   1.449   2.722  16.196 -0.5350  0.2341  0.3373
  692TMC3     H10237   1.802   2.824  16.304 -3.1375  1.4040  0.0320
  692TMC3    H110238   1.585   2.571  16.035 -0.3459 -0.1228  0.0793
  692TMC3    H210239   2.006   2.522  16.082 -1.0043 -1.6659 -0.3271
  692TMC3    C710240   1.771   2.406  16.039 -0.1374 -0.5771 -0.3265
  692TMC3    C810241   1.957   2.604  16.325  0.1321 -0.1645  0.0580
  692TMC3    O110242   1.684   2.379  15.955  0.1742  0.5439  0.2514
  692TMC3    O210243   1.997   2.490  16.302  0.0543 -0.3510  0.6237
  693MPD2     C10244   0.981   1.077  11.206 -0.8076 -0.6441 -0.2539
  693MPD2    C110245   0.929   0.984  11.127  0.4176 -0.0071  0.1493
  693MPD2    C210246   1.001   0.931  11.014 -0.1342  0.9116  0.5946
  693MPD2    C310247   1.132   0.974  10.988 -0.1669  0.4522  0.0980
  693MPD2    C410248   1.173   1.074  11.068 -0.1926  0.5673  0.2957
  693MPD2    C510249   1.105   1.119  11.176  0.3065  0.4691 -0.0637
  693MPD2     H10250   0.957   0.855  10.949 -0.8004  1.1380  0.7864
  693MPD2    H110251   1.268   1.123  11.050 -1.1748  1.9709 -1.0369
  693MPD2    H210252   0.936   1.116  11.296  1.6087  0.3333  0.5375
  693MPD2    H310253   1.138   1.207  11.230 -0.3033  2.0756 -2.3125
  693MPD2     N10254   1.219   0.930  10.887  0.1210 -0.4290 -0.6297
  693MPD2    H510255   1.307   0.979  10.872 -0.0367 -0.3825 -1.4079
  693MPD2    N110256   0.804   0.940  11.170  0.7315 -0.2043  0.2218
  693MPD2    H710257   0.771   0.963  11.264 -1.2696 -1.1090 -0.2508
  694TMC3    C110258   0.596   0.839  11.167 -0.4663  0.0951 -0.6186
  694TMC3    C210259   0.494   0.775  11.100 -0.0510 -0.1815  0.1482
  694TMC3    C310260   0.412   0.688  11.171  0.3495  0.6704 -0.6645
  694TMC3    C410261   0.620   0.805  11.295 -0.0466 -0.0691 -0.3784
  694TMC3    C510262   0.541   0.711  11.360 -0.1343  0.4592  0.0163
  694TMC3    C610263   0.425   0.663  11.303 -0.4196 -0.2042  0.1974
  694TMC3     C10264   0.710   0.884  11.093  0.3690 -0.1850 -0.0159
  694TMC3     O10265   0.702   0.896  10.973  0.4078  0.5471 -0.2342
  694TMC3     H10266   0.473   0.812  11.000 -0.6191 -0.5797  0.1172
  694TMC3    H110267   0.695   0.861  11.350  1.3072 -0.0218 -2.2567
  694TMC3    H210268   0.359   0.589  11.347  1.3129 -1.0285  1.4128
  694TMC3    C710269   0.581   0.661  11.491  0.4121  0.3030  0.3018
  694TMC3    C810270   0.298   0.632  11.104  0.2251  0.0975 -0.0032
  694TMC3    O110271   0.642   0.741  11.559  0.2495  0.8882  0.3098
  694TMC3    O210272   0.261   0.523  11.141  0.6587  0.1773  0.2484
  695MPD2     C10273   1.902   2.257  13.852 -0.3488  0.0888 -0.0201
  695MPD2    C110274   1.915   2.351  13.949  0.2780 -0.8848 -0.1277
  695MPD2    C210275   1.813   2.441  13.977 -0.3405  0.1885  0.6171
  695MPD2    C310276   1.689   2.430  13.909 -0.6174  0.0234  0.1304
  695MPD2    C410277   1.679   2.334  13.816 -0.2394 -0.8012  0.2115
  695MPD2    C510278   1.780   2.245  13.792 -0.7581 -0.0459 -1.4984
  695MPD2     H10279   1.832   2.525  14.043 -1.3225 -0.9030  2.3007
  695MPD2    H110280   1.591   2.329  13.754  0.4725 -0.7487 -0.7981
  695MPD2    H210281   1.981   2.189  13.825 -0.6047 -0.5246  0.8055
  695MPD2    H310282   1.765   2.168  13.716  0.0151 -0.8450 -0.8324
  695MPD2     N10283   1.591   2.528  13.949  0.1529  0.0929  0.3961
  695MPD2    H510284   1.617   2.591  14.024  2.1935  0.7080 -0.8320
  695MPD2    N110285   2.028   2.356  14.022 -0.4224  0.2492  0.3554
  695MPD2    H710286   2.023   2.435  14.086 -1.2448 -0.2205  0.8610
  696TMC3    C110287   1.398   2.654  13.967 -0.1868  0.0886  0.3894
  696TMC3    C210288   1.419   2.651  14.105 -0.0483  0.2450  0.3919
  696TMC3    C310289   1.347   2.738  14.182  0.0786  0.6006  0.3488
  696TMC3    C410290   1.335   2.760  13.903  0.0513  0.1250  0.5707
  696TMC3    C510291   1.259   2.838  13.983  0.3125  0.3641  0.0845
  696TMC3    C610292   1.260   2.829  14.124 -0.8077 -0.0368  0.2121
  696TMC3     C10293   1.471   2.553  13.891 -0.1884 -0.0475  0.1794
  696TMC3     O10294   1.417   2.497  13.795 -0.5787  0.4728 -0.6049
  696TMC3     H10295   1.482   2.577  14.153  0.6087  1.4953  1.4475
  696TMC3    H110296   1.318   2.742  13.797  1.2357  1.7480  0.1051
  696TMC3    H210297   1.199   2.898  14.181 -1.2894 -0.1552 -0.1531
  696TMC3    C710298   1.244   2.972  13.918 -0.2955  0.3194  0.9716
  696TMC3    C810299   1.409   2.781  14.303  0.6616  0.3894  0.4769
  696TMC3    O110300   1.245   2.972  13.794  0.4045  0.4011 -0.0292
  696TMC3    O210301   1.380   2.894  14.343 -0.4304 -0.0903 -0.0619
  697MPD2     C10302   1.180   4.278  16.423  0.0929 -1.0600  0.5491
  697MPD2    C110303   1.207   4.235  16.295  0.1273  0.0250  0.2631
  697MPD2    C210304   1.229   4.336  16.199 -0.0027  0.3241 -0.5321
  697MPD2    C310305   1.229   4.469  16.233 -0.0939 -0.1019  0.2381
  697MPD2    C410306   1.188   4.508  16.358 -0.5068  0.0842 -0.4410
  697MPD2    C510307   1.173   4.413  16.453  0.6480 -0.0729  0.5539
  697MPD2     H10308   1.251   4.303  16.098  1.2546 -0.7365  0.0980
  697MPD2    H110309   1.180   4.611  16.393 -1.2167 -0.1288  0.0187
  697MPD2    H210310   1.166   4.202  16.500  0.3246 -1.2732  0.3801
  697MPD2    H310311   1.143   4.440  16.554 -2.3448 -3.0202  0.4755
  697MPD2     N10312   1.266   4.556  16.130 -0.7424  0.7267  0.4962
  697MPD2    H510313   1.286   4.511  16.041 -1.1756 -2.1798  1.8871
  697MPD2    N110314   1.234   4.105  16.254 -0.6931 -0.1272  0.0989
  697MPD2    H710315   1.242   4.093  16.153 -1.1835 -1.7729  0.2525
  698TMC3    C110316   1.345   0.036  16.036 -0.7574 -0.4381 -0.2739
  698TMC3    C210317   1.441   0.135  16.069  0.3906 -0.0375 -0.1009
  698TMC3    C310318   1.483   0.229  15.975 -0.4445  0.2616  0.9466
  698TMC3    C410319   1.287   0.032  15.914  0.1566 -0.3041 -0.2558
  698TMC3    C510320   1.318   0.136  15.827 -0.2717 -0.1643  0.1455
  698TMC3    C610321   1.409   0.240  15.859 -0.6601 -0.0356 -0.2532
  698TMC3     C10322   1.286   4.695  16.147 -0.0409 -0.7315  0.2686
  698TMC3     O10323   1.285   0.029  16.253  0.5389  0.1104 -0.0179
  698TMC3     H10324   1.497   0.136  16.161  0.9796 -0.6115 -0.4504
  698TMC3    H110325   1.212   4.681  15.891  0.7321 -1.0860  0.4064
  698TMC3    H210326   1.420   0.328  15.797 -0.8831  0.1835  0.0158
  698TMC3    C710327   1.271   0.117  15.690  0.2919  0.5917  0.4696
  698TMC3    C810328   1.557   0.349  16.022 -0.2130  0.5039  0.4537
  698TMC3    O110329   1.171   0.052  15.671  0.2587 -0.0085 -0.2496
  698TMC3    O210330   1.564   0.358  16.141 -1.1948 -0.4678 -0.1997
  699TMC3    C110331   1.585   2.534  13.176  0.2783  0.6795 -0.6908
  699TMC3    C210332   1.566   2.408  13.230  1.0427  0.6161  0.1010
  699TMC3    C310333   1.517   2.403  13.358 -0.5294  0.8390 -0.5494
  699TMC3    C410334   1.554   2.652  13.248 -0.2565 -0.2832 -0.6345
  699TMC3    C510335   1.494   2.639  13.369 -0.4806 -0.4347 -0.9419
  699TMC3    C610336   1.476   2.516  13.429  0.2680 -0.4191 -0.4689
  699TMC3     C10337   1.632   2.550  13.040 -0.3701 -0.7574 -0.4949
  699TMC3     O10338   1.608   2.658  12.984  0.1077  0.1899 -0.5916
  699TMC3     H10339   1.585   2.311  13.186 -1.1191  0.6459 -0.9199
  699TMC3    H110340   1.571   2.748  13.201 -0.3521 -0.0854 -0.2596
  699TMC3    H210341   1.459   2.521  13.536 -0.1231 -0.2808 -0.5393
  699TMC3    C710342   1.397   2.731  13.410 -0.0549  0.0361  0.4771
  699TMC3    C810343   1.499   2.272  13.419 -0.8292  0.4373  0.1144
  699TMC3    O110344   1.317   2.676  13.488  0.0473 -0.5259  0.1225
  699TMC3    O210345   1.531   2.171  13.359  0.2281 -0.1868 -0.1521
  700TMC3    C110346   0.286   4.701   0.086  0.2949 -0.6637 -0.0674
  700TMC3    C210347   0.354   4.587   0.052 -0.1658  0.6271  0.4368
  700TMC3    C310348   0.435   4.534   0.155 -0.6756 -0.3621  0.6881
  700TMC3    C410349   0.309   0.044   0.205  0.1556 -0.2927 -0.3799
  700TMC3    C510350   0.397   4.711   0.290 -0.1690  0.1526 -0.2159
  700TMC3    C610351   0.464   4.595   0.267  0.0975 -0.3770 -1.0323
  700TMC3     C10352   0.236   0.059  17.668 -0.6756 -0.4102 -0.1506
  700TMC3     O10353   0.156   4.721  17.597 -0.1068 -0.2776 -0.0016
  700TMC3     H10354   0.345   4.538  17.653 -0.6453  1.2734  0.1449
  700TMC3    H110355   0.269   0.143   0.226  1.2009  0.0753 -0.0901
  700TMC3    H210356   0.543   4.551   0.327  0.7433  0.9491 -0.9114
  700TMC3    C710357   0.440   0.066   0.402  0.5104  0.1952 -0.9408
  700TMC3    C810358   0.540   4.454   0.110  0.0422 -0.7863  0.0475
  700TMC3    O110359   0.560   0.071   0.416 -0.6768  0.2567  0.3912
  700TMC3    O210360   0.656   4.469   0.149  0.1382 -0.0884 -0.0494
  701TMC3    C110361   0.641   3.346  15.858  0.1127  1.0961 -0.7672
  701TMC3    C210362   0.615   3.391  15.730  0.7439  0.2894 -0.3528
  701TMC3    C310363   0.708   3.481  15.684 -0.6160  0.0494  0.2330
  701TMC3    C410364   0.733   3.404  15.946 -0.0478  0.1140  0.3766
  701TMC3    C510365   0.811   3.506  15.896 -0.0148  0.7923  0.6396
  701TMC3    C610366   0.803   3.536  15.762 -0.8062 -0.0175  0.5039
  701TMC3     C10367   0.563   3.240  15.914 -0.4362  0.5201 -0.5288
  701TMC3     O10368   0.561   3.237  16.036  0.9155 -0.2751 -0.3428
  701TMC3     H10369   0.522   3.364  15.681 -0.6499 -0.7252  2.8307
  701TMC3    H110370   0.732   3.362  16.046 -4.9301 -1.8048 -0.4803
  701TMC3    H210371   0.851   3.631  15.741 -0.4555 -0.2604  0.1947
  701TMC3    C710372   0.867   3.599  15.988  0.0825 -0.0906  0.4933
  701TMC3    C810373   0.697   3.545  15.553 -0.2498  0.7772 -0.2658
  701TMC3    O110374   0.955   3.672  15.937 -0.2262  0.3548  0.4043
  701TMC3    O210375   0.765   3.644  15.529 -0.4003 -0.4091 -0.3406
  702MPD2     C10376   0.427   1.447  10.880 -0.1705  0.2081  0.2022
  702MPD2    C110377   0.295   1.479  10.910 -0.0007 -1.2183 -0.3754
  702MPD2    C210378   0.214   1.552  10.824  0.2950  0.1584 -0.0327
  702MPD2    C310379   0.281   1.593  10.709 -0.1293 -0.2598  0.3459
  702MPD2    C410380   0.406   1.555  10.673 -0.8645  0.3066  0.1543
  702MPD2    C510381   0.476   1.471  10.759 -0.1913 -0.4269 -0.2212
  702MPD2     H10382   0.117   1.588  10.854 -0.2412 -1.9227  0.7397
  702MPD2    H110383   0.454   1.591  10.583 -0.4581  0.3591  0.3921
  702MPD2    H210384   0.493   1.395  10.948  0.0040 -0.4845 -0.4875
  702MPD2    H310385   0.579   1.445  10.739 -0.2607 -1.2989  0.5165
  702MPD2     N10386   0.226   1.699  10.632 -0.1846 -0.2060 -0.2278
  702MPD2    H510387   0.294   1.756  10.584  0.7094 -1.9026 -0.9464
  702MPD2    N110388   0.235   1.453  11.040 -0.2425 -0.5871 -0.3955
  702MPD2    H710389   0.134   1.459  11.043 -0.2443  0.5036 -3.4343
  703TMC3    C110390   0.053   1.866  10.619 -0.4377 -0.5736  0.0323
  703TMC3    C210391   4.698   1.909  10.721 -0.1678  0.3873 -0.8048
  703TMC3    C310392   4.709   2.033  10.765 -0.1764 -0.6060 -0.0887
  703TMC3    C410393   0.142   1.948  10.558  0.3553  0.0770  0.3982
  703TMC3    C510394   0.157   2.073  10.608  0.4518  0.2454  0.3538
  703TMC3    C610395   0.079   2.116  10.707  0.4916 -0.3353 -0.2596
  703TMC3     C10396   0.088   1.735  10.629  0.5784  0.6411  0.2316
  703TMC3     O10397   4.723   1.658  10.640 -0.6883  0.3056 -0.2868
  703TMC3     H10398   4.635   1.841  10.778  0.4299 -0.0610 -0.6849
  703TMC3    H110399   0.204   1.915  10.476 -1.5790  1.6078 -1.6816
  703TMC3    H210400   0.070   2.221  10.733  1.3937 -0.1543 -0.6731
  703TMC3    C710401   0.286   2.137  10.603  0.5638  0.1245  0.1931
  703TMC3    C810402   0.027   2.024  10.898  0.2022  0.8811 -0.4069
  703TMC3    O110403   0.357   2.126  10.501  0.2398 -0.4376 -0.7828
  703TMC3    O210404   0.152   2.017  10.919 -0.6703 -0.2061  0.7412
  704TMC3    C110405   2.513   4.258  12.265  0.8031  0.3393  0.2107
  704TMC3    C210406   2.610   4.320  12.195  1.0639  0.2178 -0.6475
  704TMC3    C310407   2.723   4.359  12.260 -0.3778  0.0366 -0.6658
  704TMC3    C410408   2.512   4.271  12.401 -0.1956  0.3130 -0.1665
  704TMC3    C510409   2.624   4.316  12.465 -0.1670  0.2836 -0.0412
  704TMC3    C610410   2.736   4.352  12.398  0.0121 -0.4992  1.0857
  704TMC3     C10411   2.490   4.114  12.251  0.2074 -0.3210  0.6413
  704TMC3     O10412   2.500   4.045  12.352  0.4073  0.0475 -0.4604
  704TMC3     H10413   2.617   4.308  12.087 -0.2550  1.4371 -0.8730
  704TMC3    H110414   2.425   4.237  12.456 -0.5944  2.9703  0.8080
  704TMC3    H210415   2.828   4.375  12.450 -0.3997 -1.2840  2.1598
  704TMC3    C710416   2.651   4.243  12.585  0.6649  0.6967 -0.0176
  704TMC3    C810417   2.846   4.315  12.194 -0.3999  0.0013  0.4486
  704TMC3    O110418   2.770   4.203  12.593  0.2553  0.1795 -0.6645
  704TMC3    O210419   2.834   4.240  12.100 -0.4020  0.4041 -0.2020
  705MPD2     C10420   2.067   2.337  17.188 -0.9821  0.1595 -0.3301
  705MPD2    C110421   2.030   2.450  17.123  0.5151 -0.8303 -0.1026
  705MPD2    C210422   1.912   2.521  17.165  0.3929  0.0417  0.4177
  705MPD2    C310423   1.864   2.487  17.284 -0.0401 -0.7178 -0.2886
  705MPD2    C410424   1.924   2.393  17.371 -0.4875 -0.5746 -0.2385
  705MPD2    C510425   2.015   2.309  17.312  0.3537 -0.0458 -0.0120
  705MPD2     H10426   1.885   2.609  17.108 -0.1767 -1.9372 -2.3304
  705MPD2    H110427   1.880   2.375  17.468  1.7726  1.5273  1.1782
  705MPD2    H210428   2.154   2.280  17.158  0.5841  1.3105  2.1070
  705MPD2    H310429   2.056   2.223  17.364  0.0317 -0.9489 -1.2508
  705MPD2     N10430   1.749   2.549  17.344 -0.1482 -0.6277 -0.4149
  705MPD2    H510431   1.705   2.499  17.420  0.6338 -1.0536 -0.2508
  705MPD2    N110432   2.084   2.489  16.997  0.2029 -0.2146 -0.0280
  705MPD2    H710433   2.057   2.578  16.956  0.4115  0.4341  1.2324
  706TMC3    C110434   2.263   2.392  16.570 -0.5323  0.0835 -0.1279
  706TMC3    C210435   2.268   2.517  16.527  0.0807  0.5171  0.2508
  706TMC3    C310436   2.225   2.612  16.612  0.0799  0.4963 -0.4353
  706TMC3    C410437   2.221   2.358  16.691 -0.4598  0.6562 -0.9566
  706TMC3    C510438   2.178   2.456  16.780 -0.0777 -0.5463  0.0332
  706TMC3    C610439   2.183   2.583  16.743 -0.2229 -0.3594 -0.0434
  706TMC3     C10440   2.358   2.297  16.502 -0.3413 -0.1701  0.9674
  706TMC3     O10441   2.377   2.200  16.571  0.3963  0.1117  0.2013
  706TMC3     H10442   2.317   2.555  16.438  0.0541  0.5488  0.2495
  706TMC3    H110443   2.228   2.258  16.731  2.2597  0.7948 -1.0297
  706TMC3    H210444   2.158   2.664  16.811  2.8683 -0.3388  1.0520
  706TMC3    C710445   2.155   2.407  16.917  0.1522 -0.3996 -0.2012
  706TMC3    C810446   2.239   2.743  16.563 -0.2546 -0.0514 -1.2475
  706TMC3    O110447   2.203   2.299  16.945 -0.0565  0.0182 -0.2044
  706TMC3    O210448   2.209   2.761  16.447 -0.7263 -0.1888  0.0730
  707TMC3    C110449   3.282   0.080   0.972 -0.9444  0.4712 -0.2564
  707TMC3    C210450   3.302   0.037   1.097  0.3533 -0.2784 -0.6793
  707TMC3    C310451   3.207   0.069   1.190 -0.1352 -0.2133  0.0736
  707TMC3    C410452   3.169   0.155   0.932 -0.0098 -0.0853  0.7708
  707TMC3    C510453   3.079   0.189   1.029  0.0556  0.6305 -0.6239
  707TMC3    C610454   3.094   0.147   1.154  0.0570 -0.1004  0.2279
  707TMC3     C10455   3.407   0.084   0.901  0.3510  1.0023 -0.1100
  707TMC3     O10456   3.506   0.069   0.971  0.4508 -0.0219  0.5276
  707TMC3     H10457   3.381   4.686   1.101 -2.0056 -2.7261  0.6518
  707TMC3    H110458   3.157   0.200   0.834 -1.0603 -0.3302  0.7857
  707TMC3    H210459   3.037   0.194   1.233 -0.3921  1.4622 -1.0349
  707TMC3    C710460   2.984   0.287   0.993  0.0769  0.7343  0.2062
  707TMC3    C810461   3.250   0.064   1.328  1.1367  0.3154 -0.4061
  707TMC3    O110462   2.936   0.283   0.878 -0.0861 -0.0557 -0.0756
  707TMC3    O210463   3.169   0.100   1.412 -0.1937  0.0607  0.7076
  708MPD2     C10464   0.371   0.906  14.409 -0.2504  0.0455 -0.1792
  708MPD2    C110465   0.255   0.956  14.460  0.4459  0.3294 -0.6530
  708MPD2    C210466   0.188   0.873  14.544  0.3734 -0.2612  0.1736
  708MPD2    C310467   0.221   0.736  14.545 -0.8816  0.6171  0.1705
  708MPD2    C410468   0.337   0.693  14.495  0.5495  0.4908  0.1374
  708MPD2    C510469   0.411   0.778  14.425 -0.2955 -0.1342  0.0206
  708MPD2     H10470   0.093   0.895  14.590  0.0851  0.3331 -0.7040
  708MPD2    H110471   0.380   0.596  14.518  1.0963  0.7504  0.2039
  708MPD2    H210472   0.444   0.964  14.355  1.8874 -1.5419  1.0241
  708MPD2    H310473   0.507   0.745  14.386 -0.0070 -0.0924  0.6912
  708MPD2     N10474   0.144   0.640  14.623 -0.0297 -0.0007  0.1633
  708MPD2    H510475   0.180   0.546  14.634 -0.5755 -0.3235 -0.8131
  708MPD2    N110476   0.216   1.089  14.428  0.3621 -0.2043 -0.3407
  708MPD2    H710477   0.269   1.139  14.359 -1.7719  0.8496 -1.2177
  709TMC3    C110478   0.079   1.279  14.435  0.6658 -0.4629 -0.2173
  709TMC3    C210479   0.057   1.297  14.301 -0.9185  0.5782 -0.0864
  709TMC3    C310480   4.683   1.382  14.259  0.9337  0.1511 -0.2145
  709TMC3    C410481   4.719   1.337  14.527  0.1157 -0.6942 -0.4204
  709TMC3    C510482   4.611   1.410  14.475 -0.1962  0.9550 -0.0014
  709TMC3    C610483   4.589   1.432  14.342  0.3774 -0.3285  0.0705
  709TMC3     C10484   0.107   1.149  14.490 -0.8953  0.7679 -0.0962
  709TMC3     O10485   0.039   1.117  14.587 -0.1578  0.1496 -0.2443
  709TMC3     H10486   0.114   1.238  14.230 -1.4349  1.2666 -1.0547
  709TMC3    H110487   0.002   1.328  14.635 -1.3271  1.4950 -0.1676
  709TMC3    H210488   4.502   1.488  14.309  0.9643 -1.5739 -3.6497
  709TMC3    C710489   4.488   1.364  14.549  0.8011  0.3790 -0.3065
  709TMC3    C810490   4.694   1.463  14.141 -0.0124  0.1819  0.2406
  709TMC3    O110491   4.384   1.429  14.555 -1.0253  0.0122  0.2598
  709TMC3    O210492   4.610   1.542  14.108  0.7448  1.2619 -0.3962
  710TMC3    C110493   1.037   2.057   1.167 -0.8346 -0.1854 -0.0668
  710TMC3    C210494   1.092   2.025   1.050 -0.8605  0.2240  0.4111
  710TMC3    C310495   1.222   1.984   1.047  0.5018  0.5869  0.1287
  710TMC3    C410496   1.087   2.002   1.279 -0.5737  0.1491 -0.1730
  710TMC3    C510497   1.208   1.948   1.274  0.3497 -0.2047 -0.0454
  710TMC3    C610498   1.284   1.957   1.163  0.5242  0.4789 -0.2972
  710TMC3     C10499   0.912   2.132   1.167 -0.1254 -0.1141  1.0992
  710TMC3     O10500   0.858   2.151   1.059 -0.2284 -0.6621  0.2024
  710TMC3     H10501   1.039   2.055   0.960 -0.0280  0.1725 -0.0961
  710TMC3    H110502   1.038   2.015   1.374 -1.2796 -1.4004 -0.3374
  710TMC3    H210503   1.387   1.924   1.155 -0.7342 -3.5743  0.2590
  710TMC3    C710504   1.249   1.881   1.401  0.3546 -0.2254  0.2291
  710TMC3    C810505   1.301   1.985   0.925 -0.2323  0.5595 -0.0551
  710TMC3    O110506   1.179   1.900   1.500  0.0031 -0.2811 -0.2682
  710TMC3    O210507   1.421   2.018   0.936  0.4030 -0.4068  0.3674
  711TMC3    C110508   1.287   3.483  15.279 -0.0085 -0.0166  0.0240
  711TMC3    C210509   1.319   3.512  15.408 -0.0180 -0.0863  0.0362
  711TMC3    C310510   1.445   3.493  15.449 -0.4185 -0.0904 -0.3484
  711TMC3    C410511   1.384   3.441  15.193 -0.1488 -0.7251 -0.7601
  711TMC3    C510512   1.503   3.402  15.248  0.0091 -0.4839 -0.1036
  711TMC3    C610513   1.537   3.443  15.365  0.1493  0.2459 -0.1727
  711TMC3     C10514   1.169   3.402  15.274 -0.5215  0.4906 -0.0032
  711TMC3     O10515   1.156   3.348  15.169 -0.6309  0.1421 -0.3584
  711TMC3     H10516   1.254   3.568  15.474  0.7232  0.2904  0.4440
  711TMC3    H110517   1.352   3.401  15.097  0.4198 -0.8568 -0.8930
  711TMC3    H210518   1.634   3.413  15.404  0.5621 -2.7600 -3.4557
  711TMC3    C710519   1.524   3.260  15.227 -0.1869 -0.3685 -0.0494
  711TMC3    C810520   1.449   3.471  15.586 -0.0533 -0.6746  0.2127
  711TMC3    O110521   1.624   3.218  15.286 -0.2146 -0.2754  0.2472
  711TMC3    O210522   1.344   3.441  15.635  0.0123  0.2699  0.0845
  712MPD2     C10523   3.256   4.696  14.078  0.3389 -0.1725  0.4251
  712MPD2    C110524   3.195   4.684  13.951  0.3696 -0.4278 -0.1533
  712MPD2    C210525   3.238   0.052  13.856  0.1490  0.0891 -0.6235
  712MPD2    C310526   3.345   0.143  13.888  0.9006 -0.6507 -0.3585
  712MPD2    C410527   3.400   0.147  14.011  0.0259  0.1802  0.9380
  712MPD2    C510528   3.362   0.055  14.105 -0.2577  1.0401 -0.0047
  712MPD2     H10529   3.200   0.035  13.756  0.2049 -0.0943 -0.6132
  712MPD2    H110530   3.482   0.210  14.043  0.4293 -0.0641  0.3916
  712MPD2    H210531   3.226   4.631  14.160 -1.0783  0.4245  0.3897
  712MPD2    H310532   3.407   0.051  14.203 -0.4834  1.3480  0.1115
  712MPD2     N10533   3.383   0.239  13.795 -0.2090  0.5091  0.5331
  712MPD2    H510534   3.440   0.320  13.818  1.4109 -0.0583 -1.5231
  712MPD2    N110535   3.107   4.582  13.913 -0.2742 -0.2497  0.2841
  712MPD2    H710536   3.072   4.570  13.819  0.0546 -2.2163  0.4181
  713TMC3    C110537   3.381   0.359  13.590  0.1814 -0.4023 -0.6581
  713TMC3    C210538   3.498   0.425  13.621  0.1530  0.2707 -0.0706
  713TMC3    C310539   3.531   0.535  13.541 -0.3448 -0.0086  0.4335
  713TMC3    C410540   3.286   0.401  13.497 -0.3073  0.6109 -0.9911
  713TMC3    C510541   3.317   0.517  13.431  0.5520  0.7514 -0.5024
  713TMC3    C610542   3.441   0.579  13.452 -0.3205 -0.0694  0.6192
  713TMC3     C10543   3.346   0.244  13.662 -0.2667  0.1124 -0.6395
  713TMC3     O10544   3.276   0.170  13.594  0.2392 -0.2035 -0.6456
  713TMC3     H10545   3.569   0.392  13.696  0.0074  1.9533  0.7912
  713TMC3    H110546   3.197   0.345  13.474 -0.7513  0.5310  0.9264
  713TMC3    H210547   3.452   0.670  13.394  0.0209 -0.3865  0.1898
  713TMC3    C710548   3.241   0.550  13.312 -0.2265 -0.8322 -0.0401
  713TMC3    C810549   3.623   0.635  13.588  0.3526 -0.4145  0.0672
  713TMC3    O110550   3.308   0.591  13.219  0.5721  0.3742  0.6242
  713TMC3    O210551   3.652   0.721  13.504 -0.2740 -0.1700  0.6409
  714MPD2     C10552   4.568   3.301   1.931  0.4344  0.3990 -0.5268
  714MPD2    C110553   4.607   3.187   1.859  0.4701 -0.3650 -0.0816
  714MPD2    C210554   4.603   3.195   1.715 -0.0194 -0.2046  0.3664
  714MPD2    C310555   4.543   3.306   1.656 -0.4331  0.1892  0.1777
  714MPD2    C410556   4.491   3.408   1.730 -0.4489  1.3199  0.0740
  714MPD2    C510557   4.505   3.404   1.866 -0.0405 -0.2269  0.6154
  714MPD2     H10558   4.651   3.118   1.655 -0.0267 -0.5524  0.8073
  714MPD2    H110559   4.437   3.491   1.686  0.8320  0.5713 -2.9464
  714MPD2    H210560   4.591   3.312   2.036  0.2152 -0.3886 -0.3998
  714MPD2    H310561   4.463   3.490   1.918  0.5456 -0.1484  0.9610
  714MPD2     N10562   4.539   3.304   1.513  0.6698 -0.1746  0.5121
  714MPD2    H510563   4.544   3.214   1.465 -0.3809 -0.5082  1.0178
  714MPD2    N110564   4.683   3.082   1.927  0.1350 -0.2934  0.1232
  714MPD2    H710565   4.691   3.086   2.028  2.1207 -0.3943 -0.0172
  715TMC3    C110566   0.098   2.887   1.963 -0.1301 -0.1836  1.0000
  715TMC3    C210567   0.140   2.766   1.907  0.2532 -0.1124 -0.3160
  715TMC3    C310568   0.211   2.682   1.989 -0.1535  0.1784 -0.1140
  715TMC3    C410569   0.136   2.929   2.084 -0.5521 -0.5915 -0.5435
  715TMC3    C510570   0.216   2.836   2.159  0.4737 -0.3389 -0.3422
  715TMC3    C610571   0.256   2.720   2.112  0.1356  0.5587 -0.2272
  715TMC3     C10572   0.031   2.976   1.871  0.5365  0.6486 -0.5832
  715TMC3     O10573   0.040   2.943   1.754  0.2304  0.0134  0.0231
  715TMC3     H10574   0.102   2.731   1.811 -0.0087  0.0440 -0.2693
  715TMC3    H110575   0.127   3.035   2.105 -0.2117 -1.3194  3.3895
  715TMC3    H210576   0.307   2.664   2.190  0.3603  0.5773 -0.3618
  715TMC3    C710577   0.233   2.865   2.301 -0.3246  0.4205 -0.1704
  715TMC3    C810578   0.239   2.554   1.938  0.3291  0.2471 -0.2670
  715TMC3    O110579   0.323   2.806   2.362  0.1985  0.2005 -0.8581
  715TMC3    O210580   0.214   2.527   1.820  0.1297 -0.0417 -0.3144
  716MPD2     C10581   0.172   1.218  10.597  0.8631  0.1438 -0.5515
  716MPD2    C110582   0.136   1.153  10.480 -0.9134  0.1555 -0.7789
  716MPD2    C210583   0.186   1.022  10.456 -0.2359  0.1668 -0.4346
  716MPD2    C310584   0.270   0.967  10.548 -0.2294 -0.5268  0.9959
  716MPD2    C410585   0.305   1.033  10.664 -0.5829  0.1947  0.0308
  716MPD2    C510586   0.259   1.162  10.687 -0.2240 -0.0579 -0.8369
  716MPD2     H10587   0.156   0.965  10.369  0.1887 -1.7568  0.6990
  716MPD2    H110588   0.364   0.999  10.748  0.2776  1.0839 -0.2200
  716MPD2    H210589   0.130   1.314  10.627  0.3221  0.3727 -2.0656
  716MPD2    H310590   0.282   1.217  10.778  2.3462 -1.5339 -0.5955
  716MPD2     N10591   0.306   0.834  10.526  0.8561  0.0300 -0.6571
  716MPD2    H510592   0.270   0.791  10.441 -3.9161  1.3624  0.6784
  716MPD2    N110593   0.049   1.220  10.386 -0.3852 -0.0764  0.2384
  716MPD2    H710594   0.021   1.315  10.407 -0.4335 -0.1241  0.3945
  717TMC3    C110595   0.362   0.615  10.572  0.5102  0.0874  0.2372
  717TMC3    C210596   0.342   0.577  10.438 -0.0880 -0.7275 -0.9472
  717TMC3    C310597   0.302   0.446  10.414 -0.2277 -0.2417 -0.2472
  717TMC3    C410598   0.351   0.521  10.672 -0.2421  0.0166  0.6041
  717TMC3    C510599   0.333   0.389  10.642 -0.3698  0.2513 -0.3960
  717TMC3    C610600   0.314   0.350  10.511 -0.7721  0.8570  0.1996
  717TMC3     C10601   0.375   0.754  10.613 -0.0164 -0.0962 -0.9248
  717TMC3     O10602   0.416   0.778  10.725  0.2410  0.2906  0.0732
  717TMC3     H10603   0.367   0.651  10.363  1.2490  0.7445  0.9367
  717TMC3    H110604   0.368   0.553  10.774 -0.6499  1.9145  0.0841
  717TMC3    H210605   0.289   0.246  10.496 -2.2229  1.3696 -1.0712
  717TMC3    C710606   0.373   0.290  10.741 -0.5800 -0.4387  0.4294
  717TMC3    C810607   0.234   0.426  10.285  0.2095  0.2667 -0.0266
  717TMC3    O110608   0.363   0.320  10.860  0.4043 -0.1318  0.4491
  717TMC3    O210609   0.212   0.527  10.219 -0.2152  0.7539  0.6089
  718MPD2     C10610   4.652   0.347  13.898 -0.7962  0.3468 -0.9873
  718MPD2    C110611   0.014   0.284  13.807 -0.0844  0.1827  0.3228
  718MPD2    C210612   4.705   0.154  13.771  0.3001 -0.1830  0.4486
  718MPD2    C310613   4.596   0.092  13.819 -0.0809  0.6020  0.1230
  718MPD2    C410614   4.515   0.161  13.907 -0.2587 -0.0821 -0.3288
  718MPD2    C510615   4.541   0.291  13.945 -0.6172 -0.8697  0.9011
  718MPD2     H10616   0.034   0.105  13.690 -1.4798  0.0228 -0.8229
  718MPD2    H110617   4.430   0.106  13.946  2.5157 -1.0529  4.3424
  718MPD2    H210618   4.679   0.450  13.921 -0.2342  0.1038 -0.5683
  718MPD2    H310619   4.483   0.344  14.019 -3.0242 -0.7966 -1.0827
  718MPD2     N10620   4.546   4.691  13.771 -0.3544 -0.5455 -0.1395
  718MPD2    H510621   4.447   4.676  13.788 -0.6106 -0.1545 -1.3344
  718MPD2    N110622   0.126   0.362  13.759  0.3747  0.3119 -0.1220
  718MPD2    H710623   0.131   0.456  13.796  2.5124  0.4199 -0.6879
  719TMC3    C110624   0.327   0.392  13.634  0.2080 -0.3216  0.5665
  719TMC3    C210625   0.443   0.325  13.605 -0.4556  0.1575  0.2693
  719TMC3    C310626   0.513   0.347  13.494 -0.1356  0.2066 -0.2950
  719TMC3    C410627   0.283   0.486  13.545  0.2319 -0.5635  0.1513
  719TMC3    C510628   0.365   0.516  13.436  0.2538  0.2000  0.5288
  719TMC3    C610629   0.495   0.459  13.419  0.0707  0.1052  0.5589
  719TMC3     C10630   0.228   0.303  13.687 -0.0688  0.2227  0.5567
  719TMC3     O10631   0.246   0.185  13.657 -0.5055 -0.2831 -0.3102
  719TMC3     H10632   0.470   0.239  13.665 -2.2542 -0.4615  0.2090
  719TMC3    H110633   0.186   0.531  13.563 -0.7107 -1.8544 -1.7500
  719TMC3    H210634   0.555   0.475  13.331  0.1362  0.1691  0.6154
  719TMC3    C710635   0.290   0.520  13.313 -0.4038  0.4501  0.1420
  719TMC3    C810636   0.512   0.226  13.405  0.1732 -1.0446 -0.2218
  719TMC3    O110637   0.344   0.580  13.220  0.4833 -0.0888  0.5014
  719TMC3    O210638   0.586   0.209  13.306  0.2413  0.1043  0.1895
  720MPD2     C10639   2.423   1.561  14.220  0.2085 -0.1646 -0.1042
  720MPD2    C110640   2.502   1.641  14.138 -0.1451  0.0662  0.1843
  720MPD2    C210641   2.643   1.637  14.140 -1.0601  0.5297  0.2849
  720MPD2    C310642   2.697   1.556  14.236  0.9135  0.9693  0.2686
  720MPD2    C410643   2.613   1.477  14.312  0.1158  0.2904 -0.4085
  720MPD2    C510644   2.479   1.472  14.302 -0.3541 -0.7440 -0.5701
  720MPD2     H10645   2.699   1.707  14.079  1.8502 -1.6634  0.4114
  720MPD2    H110646   2.646   1.412  14.392 -0.3061  0.6159  0.0360
  720MPD2    H210647   2.315   1.557  14.218  0.1993 -1.0479  3.3603
  720MPD2    H310648   2.416   1.396  14.347  0.9512 -1.3477  0.2199
  720MPD2     N10649   2.840   1.555  14.260 -0.0264 -0.3769  0.1425
  720MPD2    H510650   2.894   1.614  14.197 -1.8268  2.0378  0.8172
  720MPD2    N110651   2.444   1.725  14.044  0.4131 -0.4298 -0.0111
  720MPD2    H710652   2.511   1.767  13.981  1.0219 -0.6978  0.4558
  721TMC3    C110653   3.046   1.518  14.373 -0.5141 -0.2732 -0.9754
  721TMC3    C210654   3.099   1.488  14.489  0.5369 -0.8027  0.2249
  721TMC3    C310655   3.228   1.532  14.509  0.7845  0.0715  0.0493
  721TMC3    C410656   3.112   1.593  14.277 -0.1624  0.9666 -0.2426
  721TMC3    C510657   3.238   1.638  14.306  0.2202 -0.0229 -0.4109
  721TMC3    C610658   3.297   1.611  14.425 -0.2045 -0.2292  0.2959
  721TMC3     C10659   2.900   1.489  14.365  0.4457 -0.4914 -0.2725
  721TMC3     O10660   2.855   1.426  14.460  0.2738  0.2338 -0.1308
  721TMC3     H10661   3.043   1.432  14.564  0.0614  0.5908  0.9148
  721TMC3    H110662   3.073   1.612  14.178 -2.3024 -1.2346  0.1645
  721TMC3    H210663   3.391   1.657  14.451 -1.2089  2.4046 -0.6829
  721TMC3    C710664   3.316   1.699  14.198  1.1512  0.1589 -0.1201
  721TMC3    C810665   3.310   1.479  14.622  0.2920 -0.0036 -0.1243
  721TMC3    O110666   3.263   1.748  14.100 -0.2510  0.1552  0.2323
  721TMC3    O210667   3.431   1.513  14.626  0.2661  0.5515  0.1885
  722MPD2     C10668   2.098   0.046  13.462 -0.5403  0.3747  0.0514
  722MPD2    C110669   2.047   0.160  13.409 -0.7073 -0.5822 -0.0346
  722MPD2    C210670   1.922   0.188  13.447  0.8370  0.5096  0.2841
  722MPD2    C310671   1.841   0.116  13.531 -0.4730  0.7664 -0.0308
  722MPD2    C410672   1.895   4.719  13.582  0.1201 -0.7478 -0.5454
  722MPD2    C510673   2.027   4.691  13.550  0.8111 -0.2157 -0.3143
  722MPD2     H10674   1.876   0.277  13.406 -0.5818 -0.7108 -0.7462
  722MPD2    H110675   1.843   4.648  13.646  1.6448  0.1876  1.7243
  722MPD2    H210676   2.196   0.010  13.431 -0.8074  0.0673 -0.4378
  722MPD2    H310677   2.077   4.603  13.588  0.7272  0.2802  0.9351
  722MPD2     N10678   1.712   0.156  13.554 -0.5706  0.8556  0.5826
  722MPD2    H510679   1.694   0.243  13.505  0.6861  1.2282  0.7725
  722MPD2    N110680   2.105   0.250  13.313 -0.4107  0.2281  0.5193
  722MPD2    H710681   2.049   0.328  13.279 -1.3873 -0.4840  0.4983
  723TMC3    C110682   1.491   0.169  13.655 -0.1400  0.1217  0.1886
  723TMC3    C210683   1.377   0.097  13.669 -0.2040  0.0698  0.2905
  723TMC3    C310684   1.256   0.157  13.677 -0.0570  1.0516  0.0065
  723TMC3    C410685   1.491   0.304  13.658  0.1072 -0.1529  0.1356
  723TMC3    C510686   1.368   0.359  13.675  0.2255 -0.5470  0.3664
  723TMC3    C610687   1.248   0.294  13.672 -0.2887  0.2087 -0.8546
  723TMC3     C10688   1.614   0.089  13.629  1.4069  0.4554 -0.5274
  723TMC3     O10689   1.618   4.698  13.667 -0.0733 -0.1109  0.3509
  723TMC3     H10690   1.381   4.714  13.648 -1.2202 -0.5785  3.4122
  723TMC3    H110691   1.582   0.361  13.648  0.5894 -0.6421  1.6307
  723TMC3    H210692   1.153   0.345  13.687 -0.0890 -0.2446  1.8954
  723TMC3    C710693   1.356   0.495  13.640  0.1102  0.2121 -0.4536
  723TMC3    C810694   1.134   0.086  13.684 -0.7219 -0.0485  0.5245
  723TMC3    O110695   1.420   0.578  13.704 -0.3302  0.0539  0.0347
  723TMC3    O210696   1.041   0.133  13.743  0.3782  0.2339 -0.3279
  724TMC3    C110697   1.439   3.246  10.227 -0.3159  0.9094 -0.3173
  724TMC3    C210698   1.543   3.233  10.317  0.0896  0.0844  0.3042
  724TMC3    C310699   1.675   3.249  10.270 -0.0466  0.3613 -0.4539
  724TMC3    C410700   1.469   3.289  10.099  0.7049  0.3176 -0.1483
  724TMC3    C510701   1.597   3.312  10.059  0.2851 -0.2187  0.0377
  724TMC3    C610702   1.702   3.290  10.144  0.1210 -0.1286  0.1190
  724TMC3     C10703   1.306   3.219  10.274  0.2399 -0.2066 -0.1648
  724TMC3     O10704   1.292   3.190  10.391  0.0106 -0.3085 -0.0622
  724TMC3     H10705   1.519   3.225  10.423  2.0095  0.6218  0.7817
  724TMC3    H110706   1.391   3.329  10.036 -0.9243 -3.0681 -0.3022
  724TMC3    H210707   1.804   3.288  10.110 -0.5515  1.9000 -1.9948
  724TMC3    C710708   1.623   3.330   9.913 -0.2521  0.2309  0.2783
  724TMC3    C810709   1.773   3.256  10.377  0.3068  0.3237 -0.2591
  724TMC3    O110710   1.536   3.289   9.841  0.0091  0.2399  0.1438
  724TMC3    O210711   1.756   3.188  10.475  0.4330  0.6882  0.4000
  725TMC3    C110712   3.031   2.025  13.192  0.0047 -0.0419  0.7545
  725TMC3    C210713   2.975   2.035  13.066  0.2904  1.0069 -0.3846
  725TMC3    C310714   2.921   1.918  13.015 -0.4562 -0.7594  0.1775
  725TMC3    C410715   3.047   1.902  13.255  0.0641 -0.4615  0.0165
  725TMC3    C510716   3.009   1.791  13.193 -0.7680 -0.3338  0.1884
  725TMC3    C610717   2.934   1.802  13.076 -0.0163 -1.1213  0.1212
  725TMC3     C10718   3.112   2.133  13.236 -0.7912  1.1446  0.1956
  725TMC3     O10719   3.158   2.204  13.148  0.1511  0.5366  0.0233
  725TMC3     H10720   2.958   2.135  13.027 -1.2153  0.7225 -0.4644
  725TMC3    H110721   3.095   1.902  13.352 -0.6044  1.1275  0.3406
  725TMC3    H210722   2.897   1.709  13.034  2.5817 -1.9458 -0.3367
  725TMC3    C710723   3.108   1.687  13.180  0.1601  0.4490  0.1671
  725TMC3    C810724   2.874   1.907  12.879  0.0035 -0.2199  0.7928
  725TMC3    O110725   3.116   1.618  13.075  0.3318  0.4307 -0.3344
  725TMC3    O210726   2.801   1.813  12.850 -0.4476 -0.2941  0.2223
  726MPD2     C10727   1.270   3.763  10.080  0.5788  0.1248  0.3140
  726MPD2    C110728   1.153   3.807  10.019 -0.5187  0.4990  0.2079
  726MPD2    C210729   1.037   3.745  10.045 -0.2430  0.2655 -0.1737
  726MPD2    C310730   1.028   3.641  10.130  0.1335  0.6558 -0.0853
  726MPD2    C410731   1.140   3.594  10.192  0.1033 -0.3575 -0.3597
  726MPD2    C510732   1.263   3.655  10.167  0.3600  0.0726 -0.0915
  726MPD2     H10733   0.951   3.788   9.995 -0.3711  0.0722 -0.1169
  726MPD2    H110734   1.135   3.511  10.261  1.6510 -1.0674 -1.0888
  726MPD2    H210735   1.365   3.812  10.061  0.2314  0.7673  0.2426
  726MPD2    H310736   1.354   3.614  10.209 -0.0116 -0.9103 -0.2371
  726MPD2     N10737   0.905   3.595  10.161 -0.1510  0.2174 -0.1713
  726MPD2    H510738   0.901   3.544  10.249  0.3292 -0.8894 -0.7944
  726MPD2    N110739   1.151   3.922   9.935 -0.0366 -0.3783 -0.8388
  726MPD2    H710740   1.075   3.934   9.869 -1.4615  0.0991  0.8960
  727TMC3    C110741   1.200   4.145   9.888  0.0157 -0.0449  0.0342
  727TMC3    C210742   1.283   4.253   9.907  0.5650  0.2668  0.3463
  727TMC3    C310743   1.247   4.377   9.888  0.5667  0.9456 -0.2408
  727TMC3    C410744   1.067   4.176   9.857 -1.0670  0.1649  0.1876
  727TMC3    C510745   1.036   4.312   9.828 -0.2250  0.0019  0.3037
  727TMC3    C610746   1.129   4.414   9.841 -0.7352  0.1059  0.4333
  727TMC3     C10747   1.245   4.024   9.945 -0.2269 -0.2662 -0.7678
  727TMC3     O10748   1.339   4.039  10.022 -0.0392  0.2852  0.3024
  727TMC3     H10749   1.386   4.234   9.934 -0.1590 -2.0562  1.5009
  727TMC3    H110750   0.986   4.107   9.834  1.1800 -1.5555 -2.4862
  727TMC3    H210751   1.095   4.516   9.824 -2.7197 -0.7029 -0.5534
  727TMC3    C710752   0.896   4.340   9.815 -0.3885  0.0433 -0.6428
  727TMC3    C810753   1.352   4.473   9.919 -0.1087 -0.7423 -0.5658
  727TMC3    O110754   0.828   4.248   9.859 -0.3470  0.4060  0.6326
  727TMC3    O210755   1.461   4.433   9.960 -0.3274  0.3459 -0.8049
  728TMC3    C110756   0.361   1.720  15.571  0.8340 -0.4229  0.6021
  728TMC3    C210757   0.478   1.682  15.642 -0.1924  0.1899 -0.6623
  728TMC3    C310758   0.605   1.702  15.587 -0.7387 -0.4635 -0.7666
  728TMC3    C410759   0.362   1.771  15.445  0.4252 -0.1552  0.3876
  728TMC3    C510760   0.491   1.786  15.392  0.1410 -0.0705 -0.4059
  728TMC3    C610761   0.608   1.745  15.457  0.7230  0.3224  0.0525
  728TMC3     C10762   0.235   1.724  15.645  0.6809 -0.8465  0.8800
  728TMC3     O10763   0.234   1.705  15.772  0.4642  0.1188  0.6123
  728TMC3     H10764   0.462   1.645  15.743  0.4931  0.3675 -0.4936
  728TMC3    H110765   0.276   1.805  15.389  1.6226 -0.5332 -1.7057
  728TMC3    H210766   0.696   1.740  15.394  0.7297 -0.5531  0.1368
  728TMC3    C710767   0.492   1.824  15.258 -0.0742  0.8322 -0.0301
  728TMC3    C810768   0.711   1.625  15.648 -0.0457  0.3466  0.2985
  728TMC3    O110769   0.391   1.805  15.187 -0.0953 -0.2366  0.1751
  728TMC3    O210770   0.672   1.537  15.723 -0.4678 -0.0242 -0.5593
  729MPD2     C10771   2.623   3.005  17.047  0.2986  0.8768  0.1499
  729MPD2    C110772   2.748   2.948  17.041 -0.5265  0.4828 -0.4453
  729MPD2    C210773   2.810   2.904  17.159  0.4844 -0.2103 -0.4227
  729MPD2    C310774   2.747   2.934  17.278  0.2726  0.7625 -0.3068
  729MPD2    C410775   2.619   2.988  17.276  0.3075 -0.3204 -0.1381
  729MPD2    C510776   2.553   3.015  17.163  0.3931 -0.0811 -0.5140
  729MPD2     H10777   2.902   2.848  17.148  2.2969  2.9964 -1.5213
  729MPD2    H110778   2.571   3.008  17.371  1.5909  0.3924  0.3618
  729MPD2    H210779   2.571   3.026  16.955 -0.4382 -0.2391  0.3106
  729MPD2    H310780   2.456   3.063  17.160  0.0343 -0.6263  2.1695
  729MPD2     N10781   2.802   2.914  17.408 -0.7405 -0.2770  0.7111
  729MPD2    H510782   2.754   2.960  17.485 -1.4284  0.2774 -0.0547
  729MPD2    N110783   2.802   2.925  16.913 -0.4287 -0.3169  0.1536
  729MPD2    H710784   2.751   2.972  16.839 -0.2877 -0.3940  0.0072
  730TMC3    C110785   2.965   2.854  17.573 -0.0626  0.1241  0.2525
  730TMC3    C210786   3.097   2.815  17.573 -0.5790 -0.0776  0.5226
  730TMC3    C310787   3.187   2.904  17.620  0.0214  0.0839  0.4354
  730TMC3    C410788   2.927   2.969  17.641 -0.0726 -0.3137  0.1260
  730TMC3    C510789   3.026   3.054  17.690 -0.5213  0.8668 -0.3562
  730TMC3    C610790   3.156   3.020  17.679 -0.2055  0.3814  0.4338
  730TMC3     C10791   2.911   2.834  17.435  0.8674  0.6900  0.2533
  730TMC3     O10792   2.993   2.803  17.351  0.2658  0.0927  0.1746
  730TMC3     H10793   3.126   2.728  17.516  1.0350  1.1358 -0.4766
  730TMC3    H110794   2.821   2.989  17.645 -0.5906 -3.3411  2.0472
  730TMC3    H210795   3.233   3.095  17.691  0.8840 -0.3909 -1.8080
  730TMC3    C710796   2.994   3.194  17.690 -0.8597  0.6304 -0.1628
  730TMC3    C810797   3.294   2.918  17.524  0.0286 -0.0040 -0.4896
  730TMC3    O110798   3.083   3.271  17.644 -0.0497  0.8944  0.1482
  730TMC3    O210799   3.394   2.974  17.569  0.3778  0.4200 -0.4293
  731MPD2     C10800   2.681   1.511  12.263 -0.2773  0.7082 -0.7899
  731MPD2    C110801   2.671   1.376  12.269 -0.5141  0.6418  0.1955
  731MPD2    C210802   2.621   1.322  12.389  0.1955 -1.3968  0.0314
  731MPD2    C310803   2.584   1.401  12.496 -0.3520  0.6633  0.3325
  731MPD2    C410804   2.605   1.541  12.491 -0.2100  0.0251 -0.1459
  731MPD2    C510805   2.643   1.598  12.366  0.0233 -0.4444 -0.3994
  731MPD2     H10806   2.618   1.215  12.402 -0.5540 -1.5489 -1.3808
  731MPD2    H110807   2.582   1.610  12.571  0.0371  3.0352 -2.6655
  731MPD2    H210808   2.724   1.557  12.174 -0.8410  0.0229 -1.4171
  731MPD2    H310809   2.659   1.705  12.361  0.7713 -0.5228  0.2764
  731MPD2     N10810   2.533   1.335  12.612  0.4753  0.3364 -0.2787
  731MPD2    H510811   2.527   1.234  12.611 -0.1523  0.3663  0.0690
  731MPD2    N110812   2.732   1.291  12.172  0.3995  0.4109 -0.1243
  731MPD2    H710813   2.733   1.191  12.188  1.3275  0.7120  1.7244
  732TMC3    C110814   2.874   1.211  12.008 -0.8433  0.4809 -0.2933
  732TMC3    C210815   2.789   1.114  11.969  0.5822  0.5643 -1.0334
  732TMC3    C310816   2.845   1.023  11.881 -0.4730 -0.2394 -0.3636
  732TMC3    C410817   3.005   1.209  11.992  0.6620  0.8497 -0.3205
  732TMC3    C510818   3.058   1.100  11.925 -0.7403 -0.2517 -0.2867
  732TMC3    C610819   2.979   1.008  11.868 -0.0085  0.1721  0.1872
  732TMC3     C10820   2.816   1.331  12.072 -0.1960  0.5885  0.0244
  732TMC3     O10821   2.861   1.444  12.039 -0.3253 -0.1396 -0.4692
  732TMC3     H10822   2.682   1.127  11.974  0.3800 -2.5796  3.2930
  732TMC3    H110823   3.069   1.293  12.016  0.5072  1.0731 -0.6872
  732TMC3    H210824   3.014   0.921  11.812 -0.2696 -0.6947  1.3633
  732TMC3    C710825   3.197   1.063  11.952  0.1559 -0.1508  0.5174
  732TMC3    C810826   2.772   0.902  11.868  0.0501  0.0760 -0.2117
  732TMC3    O110827   3.242   0.982  11.873 -0.0572 -0.6712  0.8798
  732TMC3    O210828   2.778   0.858  11.755  0.0751  0.3747  0.6700
  733TMC3    C110829   4.366   4.503  13.472 -0.0370  0.2192 -0.2398
  733TMC3    C210830   4.406   4.517  13.604  0.0003 -0.6885  0.1039
  733TMC3    C310831   4.543   4.489  13.638  0.5585  1.0238  0.5214
  733TMC3    C410832   4.452   4.455  13.381 -0.4863  0.4547 -0.6228
  733TMC3    C510833   4.583   4.415  13.419  0.1157 -0.3929  0.0822
  733TMC3    C610834   4.618   4.422  13.551 -0.0213 -0.8598  0.2831
  733TMC3     C10835   4.224   4.505  13.436  0.1943  0.1077  0.2386
  733TMC3     O10836   4.207   4.538  13.319 -0.4084 -0.4719  0.0978
  733TMC3     H10837   4.345   4.583  13.665  0.2478 -0.2379 -0.1365
  733TMC3    H110838   4.427   4.447  13.276  2.1194 -2.3158 -1.0501
  733TMC3    H210839   4.718   4.395  13.584  1.6626  2.8070 -1.6973
  733TMC3    C710840   4.683   4.470  13.330 -1.0838 -0.1987 -0.1118
  733TMC3    C810841   4.615   4.599  13.697  0.4185  0.3432 -0.7697
  733TMC3    O110842   4.665   4.450  13.215 -0.0261  0.0335 -0.1522
  733TMC3    O210843   0.013   4.594  13.693 -0.1007  1.0179  0.5138
  734MPD2     C10844   1.075   2.172  12.682  0.1723 -1.0148  0.6971
  734MPD2    C110845   1.068   2.079  12.583 -0.4503 -0.8827 -0.7679
  734MPD2    C210846   1.102   2.124  12.458 -0.0547  0.6291  0.4647
  734MPD2    C310847   1.124   2.251  12.426  0.3819 -0.4993 -0.2000
  734MPD2    C410848   1.113   2.346  12.518 -0.3632 -0.5259  0.5601
  734MPD2    C510849   1.095   2.302  12.648 -0.8812  0.7155  0.4017
  734MPD2     H10850   1.090   2.056  12.375  0.5608 -0.7484  1.5029
  734MPD2    H110851   1.110   2.451  12.489 -0.3179 -0.6597  0.0730
  734MPD2    H210852   1.053   2.151  12.786 -0.2695  1.9366  1.1896
  734MPD2    H310853   1.073   2.374  12.725  1.7371  1.6666  0.2480
  734MPD2     N10854   1.140   2.269  12.286 -0.3556  0.2796 -0.5555
  734MPD2    H510855   1.129   2.184  12.231  1.9966 -2.3334  3.0489
  734MPD2    N110856   1.029   1.942  12.613 -0.2679  0.1131  0.2727
  734MPD2    H710857   1.048   1.921  12.711  0.9129  4.0526  0.9010
  735TMC3    C110858   0.971   1.727  12.576 -0.2904  0.1343 -0.2470
  735TMC3    C210859   0.884   1.656  12.499 -0.6294 -0.1645  0.1085
  735TMC3    C310860   0.924   1.533  12.441  0.3266 -0.3004  0.2251
  735TMC3    C410861   1.094   1.680  12.609 -0.0403  0.3876  0.4445
  735TMC3    C510862   1.125   1.553  12.564 -0.1583  0.3970 -0.2794
  735TMC3    C610863   1.040   1.477  12.489  0.5878 -0.3674  0.4299
  735TMC3     C10864   0.974   1.860  12.524 -0.9192 -0.0753  0.1340
  735TMC3     O10865   0.929   1.890  12.415  0.4538  0.5143 -0.2599
  735TMC3     H10866   0.785   1.691  12.471 -0.1917 -0.2906 -1.6049
  735TMC3    H110867   1.164   1.727  12.677  2.8396  0.9564 -2.9391
  735TMC3    H210868   1.080   1.382  12.456  1.7750  0.4773 -0.5788
  735TMC3    C710869   1.261   1.537  12.536  0.5252  0.4569  0.1913
  735TMC3    C810870   0.934   1.534  12.298  0.5873 -0.6738  0.1846
  735TMC3    O110871   1.322   1.637  12.497  0.1484 -0.6823  0.1446
  735TMC3    O210872   0.946   1.423  12.246  0.2294  0.7649  0.2453
  736MPD2     C10873   1.450   1.227  12.507 -0.6108 -0.0019  0.4619
  736MPD2    C110874   1.408   1.348  12.464 -0.4197 -0.0602  0.4370
  736MPD2    C210875   1.468   1.413  12.353 -0.0235 -0.2677  0.7759
  736MPD2    C310876   1.586   1.361  12.307  0.5353 -0.0761  0.0366
  736MPD2    C410877   1.637   1.252  12.368 -0.1059  0.4605 -0.4232
  736MPD2    C510878   1.568   1.182  12.465  0.6688 -0.3348  0.3787
  736MPD2     H10879   1.424   1.492  12.293 -1.6171 -3.2285 -1.9561
  736MPD2    H110880   1.734   1.208  12.349  0.0588 -0.0313  1.5297
  736MPD2    H210881   1.393   1.179  12.585 -0.0187 -2.7516 -0.8118
  736MPD2    H310882   1.607   1.089  12.504  2.3385 -0.4032 -1.4443
  736MPD2     N10883   1.672   1.421  12.207  0.4984  0.3543 -0.1273
  736MPD2    H510884   1.747   1.361  12.176 -1.1212 -0.7134 -1.9689
  736MPD2    N110885   1.297   1.403  12.536  0.1222 -0.2952 -0.0122
  736MPD2    H710886   1.240   1.342  12.593  0.5197 -0.4277  0.2492
  737TMC3    C110887   1.734   1.555  12.024 -0.7487 -0.3959 -0.7943
  737TMC3    C210888   1.757   1.682  11.969 -0.3215  0.0260  0.3448
  737TMC3    C310889   1.859   1.694  11.879 -0.4466  0.1819 -1.3808
  737TMC3    C410890   1.808   1.443  11.986  0.2913  0.1568 -0.0358
  737TMC3    C510891   1.905   1.464  11.892  0.2151  0.8379  0.0442
  737TMC3    C610892   1.928   1.586  11.832  0.1169  0.4549  0.1302
  737TMC3     C10893   1.664   1.543  12.148 -0.6194 -0.0968  0.0285
  737TMC3     O10894   1.591   1.633  12.186  0.5770 -0.5874 -0.7470
  737TMC3     H10895   1.713   1.770  12.014 -0.8296 -0.9465  1.7571
  737TMC3    H110896   1.790   1.347  12.033 -2.1960  0.3618 -0.6157
  737TMC3    H210897   1.997   1.596  11.749 -0.5113 -1.6398 -0.6416
  737TMC3    C710898   1.947   1.338  11.830  0.6402  0.4309  0.9194
  737TMC3    C810899   1.906   1.829  11.840  0.7572  0.0786 -0.0402
  737TMC3    O110900   1.878   1.237  11.857  0.0326 -0.0490 -0.3535
  737TMC3    O210901   2.025   1.840  11.817 -0.0888  0.2006  0.3033
  738MPD2     C10902   1.643   0.627  16.068 -0.0839 -0.1509 -0.7312
  738MPD2    C110903   1.662   0.560  15.954  0.0427  0.1360  0.5497
  738MPD2    C210904   1.726   0.627  15.857 -0.4057  0.4354  0.4504
  738MPD2    C310905   1.774   0.758  15.869  0.7754 -0.2286  0.2427
  738MPD2    C410906   1.749   0.822  15.989 -0.5969  0.4835  0.1798
  738MPD2    C510907   1.689   0.753  16.089 -0.2541  0.2033  0.0027
  738MPD2     H10908   1.735   0.576  15.762 -0.6970 -1.9232  1.6825
  738MPD2    H110909   1.786   0.921  16.014  0.6219 -0.0247  0.4073
  738MPD2    H210910   1.590   0.578  16.149  0.5899  0.8204  0.2953
  738MPD2    H310911   1.666   0.814  16.176  0.2892 -1.2210  1.1541
  738MPD2     N10912   1.818   0.828  15.757  0.0786 -0.1108 -0.0101
  738MPD2    H510913   1.803   0.928  15.760 -0.9012 -0.3330  2.6184
  738MPD2    N110914   1.617   0.425  15.927 -0.2494 -0.0008  0.0970
  738MPD2    H710915   1.631   0.386  15.834  0.1401  0.7041 -0.1442
  739TMC3    C110916   1.868   0.879  15.537  0.1186  0.3252 -0.1152
  739TMC3    C210917   1.867   0.837  15.410 -0.0187 -0.4546  0.1732
  739TMC3    C310918   1.863   0.936  15.315 -0.1678  0.0230  0.6162
  739TMC3    C410919   1.870   1.008  15.580  0.2049  0.9115  0.0645
  739TMC3    C510920   1.870   1.099  15.483 -0.3884  0.5066  1.1183
  739TMC3    C610921   1.859   1.067  15.350 -0.5178  0.9397  0.5501
  739TMC3     C10922   1.862   0.779  15.637 -0.3178 -0.2034 -0.1096
  739TMC3     O10923   1.886   0.666  15.607  0.0450  0.1517  0.4501
  739TMC3     H10924   1.854   0.733  15.383  2.4681 -0.6302 -0.3665
  739TMC3    H110925   1.878   1.050  15.680 -0.2968 -0.2539  0.5962
  739TMC3    H210926   1.853   1.135  15.266 -0.1129  1.2599  0.7830
  739TMC3    C710927   1.873   1.244  15.522  0.3568  0.7262 -0.0957
  739TMC3    C810928   1.884   0.889  15.173 -0.5688  0.2596 -1.0242
  739TMC3    O110929   1.871   1.325  15.427  0.2689  0.5747 -0.2592
  739TMC3    O210930   1.831   0.952  15.084 -0.6730 -0.4068  0.4676
  740TMC3    C110931   2.457   1.877  14.467  1.0208  0.3306  0.0085
  740TMC3    C210932   2.477   1.794  14.569 -0.2299  0.3144 -0.5658
  740TMC3    C310933   2.607   1.744  14.587 -0.1901 -0.3528  0.5673
  740TMC3    C410934   2.563   1.921  14.385  0.9553  0.1289  0.2444
  740TMC3    C510935   2.689   1.862  14.413 -0.0419 -0.3397 -0.2118
  740TMC3    C610936   2.717   1.783  14.513  1.1484 -0.8450 -0.7529
  740TMC3     C10937   2.337   1.969  14.474 -0.0558 -0.0235  0.0978
  740TMC3     O10938   2.313   2.056  14.390 -0.7302 -0.1608  0.0466
  740TMC3     H10939   2.402   1.762  14.641  3.1797 -1.0949  2.3282
  740TMC3    H110940   2.543   1.991  14.305 -2.0473  1.1484  1.8732
  740TMC3    H210941   2.815   1.739  14.532 -0.1977 -3.7050 -0.4101
  740TMC3    C710942   2.805   1.879  14.314 -0.4008 -0.0751 -0.2301
  740TMC3    C810943   2.617   1.617  14.668  0.3167  0.0809  0.0766
  740TMC3    O110944   2.920   1.845  14.343 -0.1120 -1.3182 -0.3450
  740TMC3    O210945   2.720   1.601  14.734 -0.5074 -0.3285  0.1257
  741TMC3    C110946   1.868   1.295  14.629  0.4716  0.6762 -0.2081
  741TMC3    C210947   1.807   1.176  14.626 -0.0345  0.1043  0.5776
  741TMC3    C310948   1.773   1.112  14.740 -0.0718  0.1276 -0.0995
  741TMC3    C410949   1.892   1.358  14.743  0.0633  0.0358 -0.0320
  741TMC3    C510950   1.854   1.300  14.856  0.5587 -0.0180 -0.5964
  741TMC3    C610951   1.800   1.170  14.858  0.1330 -0.4114 -1.1679
  741TMC3     C10952   1.889   1.377  14.516  0.1492  0.0057 -0.4372
  741TMC3     O10953   1.967   1.467  14.534 -0.0372 -0.5322  0.1654
  741TMC3     H10954   1.791   1.122  14.533  2.2021  0.9500 -0.2946
  741TMC3    H110955   1.928   1.461  14.744  0.5335 -0.1262 -0.5835
  741TMC3    H210956   1.754   1.130  14.948  1.0633 -0.0252 -0.5096
  741TMC3    C710957   1.973   1.308  14.939  0.1276  0.2686  0.3681
  741TMC3    C810958   1.675   1.008  14.730 -0.0525 -0.3840 -0.2684
  741TMC3    O110959   2.024   1.418  14.950 -0.1397  0.2062 -0.4988
  741TMC3    O210960   1.617   0.991  14.624  0.2735 -0.3762 -0.3686
  742TMC3    C110961   1.952   4.397  15.983  0.2506  0.3159 -0.0677
  742TMC3    C210962   1.867   4.351  15.887  0.6775  0.3471  0.4406
  742TMC3    C310963   1.904   4.376  15.754 -0.3848 -0.6282 -0.2991
  742TMC3    C410964   2.066   4.467  15.952  0.5944 -0.4366  0.7901
  742TMC3    C510965   2.101   4.470  15.823  0.7193 -0.2874 -0.4740
  742TMC3    C610966   2.023   4.419  15.721 -0.0186 -0.2462  0.7218
  742TMC3     C10967   1.942   4.357  16.123  0.0253 -0.2131 -0.1763
  742TMC3     O10968   1.883   4.256  16.145 -0.0923  0.3843 -0.2512
  742TMC3     H10969   1.783   4.294  15.924  1.4020 -1.3549 -0.5539
  742TMC3    H110970   2.133   4.509  16.025  2.1928  1.6100 -1.8351
  742TMC3    H210971   2.038   4.432  15.615 -0.9026  0.6403  0.7050
  742TMC3    C710972   2.223   4.545  15.792  0.2173  0.1682 -0.1728
  742TMC3    C810973   1.798   4.382  15.656 -0.0388  0.7415 -0.0100
  742TMC3    O110974   2.254   4.635  15.868 -0.0770  0.4940  0.9972
  742TMC3    O210975   1.823   4.453  15.559 -0.6729  0.1095 -0.5205
  743MPD2     C10976   4.186   4.206   1.822  0.5197 -0.2589 -1.2033
  743MPD2    C110977   4.257   4.323   1.808 -0.4086  0.8399  0.2776
  743MPD2    C210978   4.371   4.328   1.884  0.0618  0.0236  0.4041
  743MPD2    C310979   4.422   4.229   1.966  0.3699  0.0007  0.2422
  743MPD2    C410980   4.341   4.116   1.980  0.1510 -0.1381  0.3452
  743MPD2    C510981   4.225   4.108   1.915  0.0652 -0.0041  0.0688
  743MPD2     H10982   4.412   4.428   1.884 -1.9793  0.8491  0.4930
  743MPD2    H110983   4.368   4.026   2.033 -0.2121 -0.7818 -0.5577
  743MPD2    H210984   4.103   4.181   1.758  0.6946 -0.4967 -1.3396
  743MPD2    H310985   4.166   4.017   1.919  0.6016 -0.3707 -0.3951
  743MPD2     N10986   4.549   4.243   2.033  0.2492 -0.7415  0.1073
  743MPD2    H510987   4.614   4.319   2.025  0.5009 -0.7403  2.0789
  743MPD2    N110988   4.212   4.418   1.713 -0.2125  0.1120 -0.3196
  743MPD2    H710989   4.134   4.391   1.655 -0.0742  0.9541 -0.8986
  744TMC3    C110990   4.225   4.616   1.579 -0.0385  0.0071  0.1104
  744TMC3    C210991   4.084   4.626   1.569  0.0183  0.4818 -0.0573
  744TMC3    C310992   4.041   4.690   1.460  0.4185 -0.2770 -0.0484
  744TMC3    C410993   4.313   4.689   1.507  0.5602  0.1052  0.4289
  744TMC3    C510994   4.260   0.037   1.406 -0.1445  0.0271 -0.0344
  744TMC3    C610995   4.123   0.038   1.374 -0.7647 -0.0351  0.5754
  744TMC3     C10996   4.290   4.524   1.678  0.8759  0.0303  0.0807
  744TMC3     O10997   4.405   4.539   1.699 -0.5511  0.1115  0.3315
  744TMC3     H10998   4.016   4.559   1.620  0.3796 -0.9590 -1.4544
  744TMC3    H110999   4.420   4.681   1.517  0.6299 -0.4646 -0.8369
  744TMC3    H211000   4.067   0.108   1.313 -0.0551 -0.5122 -0.6412
  744TMC3    C711001   4.335   0.138   1.337 -0.0604  0.3913 -0.2190
  744TMC3    C811002   3.904   4.695   1.434  0.5595 -0.2522 -0.1470
  744TMC3    O111003   4.282   0.177   1.234  0.7250 -0.2366  0.2969
  744TMC3    O211004   3.880   4.698   1.313  0.0416  0.3911  0.4015
  745TMC3    C111005   2.957   4.402  13.934  0.1903  0.2763  0.8560
  745TMC3    C211006   2.867   4.360  14.027  0.5626 -0.0254 -0.3434
  745TMC3    C311007   2.735   4.344  13.984  0.0430 -0.0646  0.9770
  745TMC3    C411008   2.909   4.442  13.810 -0.3066 -0.0170  0.0448
  745TMC3    C511009   2.781   4.425  13.774 -0.5296 -0.0836  0.3711
  745TMC3    C611010   2.685   4.380  13.857  0.8927 -0.2311  0.2131
  745TMC3     C11011   3.054   4.488  13.996  0.3603  0.4614  0.0704
  745TMC3     O11012   3.054   4.476  14.114  0.4519  0.5245 -0.6538
  745TMC3     H11013   2.908   4.313  14.115 -0.6445  2.1267  1.3686
  745TMC3    H111014   2.978   4.478  13.734  0.3446 -0.5197  0.3960
  745TMC3    H211015   2.582   4.366  13.825  0.4772  2.8229  0.1610
  745TMC3    C711016   2.755   4.452  13.631 -0.1037  0.2189 -0.0788
  745TMC3    C811017   2.631   4.313  14.082  0.4657 -1.0225  0.5879
  745TMC3    O111018   2.645   4.486  13.594  0.0409  0.0186  0.1193
  745TMC3    O211019   2.525   4.270  14.040  0.1074 -0.0599  0.0553
  746TMC3    C111020   0.175   1.662  11.417  0.7379 -0.0223 -0.5814
  746TMC3    C211021   0.252   1.596  11.332 -0.2219  0.5731 -0.5162
  746TMC3    C311022   0.203   1.492  11.261  0.2254  0.3492  0.6196
  746TMC3    C411023   0.051   1.624  11.451  0.0976 -0.3164 -0.2504
  746TMC3    C511024   0.011   1.505  11.385  0.2339 -0.0927 -0.1288
  746TMC3    C611025   0.080   1.444  11.286  0.0509  0.3075 -0.3294
  746TMC3     C11026   0.224   1.793  11.456 -0.0902 -0.2147  0.1080
  746TMC3     O11027   0.171   1.850  11.548  0.3364 -0.8221 -0.2951
  746TMC3     H11028   0.353   1.633  11.318  0.2214  0.3818  2.1255
  746TMC3    H111029   4.717   1.688  11.517 -1.7547  0.5866 -2.7140
  746TMC3    H211030   0.050   1.358  11.227  0.8244 -0.7123  0.7770
  746TMC3    C711031   4.593   1.455  11.391 -0.8361  0.7108 -0.3251
  746TMC3    C811032   0.294   1.445  11.162  0.0712 -0.1300 -0.4315
  746TMC3    O111033   4.558   1.389  11.292  0.0563  0.1876  0.1223
  746TMC3    O211034   0.416   1.455  11.183  0.4270 -0.0500 -0.1702
  747TMC3    C111035   2.768   1.299  11.144 -0.4535  0.3615 -0.6880
  747TMC3    C211036   2.654   1.230  11.187 -0.6124  0.1698  0.0469
  747TMC3    C311037   2.588   1.279  11.299 -0.2599  0.4872  0.2621
  747TMC3    C411038   2.822   1.405  11.217 -0.7436 -0.3489 -0.4948
  747TMC3    C511039   2.756   1.445  11.326  0.4372  0.3918  0.3584
  747TMC3    C611040   2.644   1.385  11.373  0.1982 -0.1171 -0.5068
  747TMC3     C11041   2.850   1.248  11.037 -0.0325  0.2849  0.5763
  747TMC3     O11042   2.971   1.264  11.048 -0.5936 -0.3427 -0.7424
  747TMC3     H11043   2.607   1.143  11.144  2.2431 -1.0151 -0.6561
  747TMC3    H111044   2.902   1.458  11.166 -0.2831 -2.4187 -1.9141
  747TMC3    H211045   2.597   1.417  11.466 -2.0801 -0.5578 -1.5143
  747TMC3    C711046   2.814   1.541  11.416  0.2361 -0.4277  0.3387
  747TMC3    C811047   2.482   1.197  11.362 -0.1444 -0.8586  0.1718
  747TMC3    O111048   2.740   1.604  11.490 -0.2750  0.1794  0.0106
  747TMC3    O211049   2.457   1.092  11.302 -0.1100  0.0855 -0.6264
  748MPD2     C11050   3.947   2.288   0.762  0.1025 -0.2025  0.1153
  748MPD2    C111051   3.991   2.207   0.861  0.4451  0.9413  0.8587
  748MPD2    C211052   4.089   2.260   0.940  0.1226 -1.0469  0.0331
  748MPD2    C311053   4.151   2.382   0.909  0.3724 -0.1130  0.2370
  748MPD2    C411054   4.111   2.446   0.794 -0.1391  0.2816 -0.2253
  748MPD2    C511055   4.004   2.406   0.719  0.1486 -0.0800  0.1522
  748MPD2     H11056   4.123   2.208   1.030  0.1907 -0.2304  0.4763
  748MPD2    H111057   4.154   2.540   0.762  0.8192 -0.4662 -1.1134
  748MPD2    H211058   3.867   2.242   0.705  1.6818  0.5184 -2.6806
  748MPD2    H311059   3.974   2.466   0.634 -2.2978 -0.3701  0.8293
  748MPD2     N11060   4.268   2.419   0.986  0.2497 -0.0474  0.3478
  748MPD2    H511061   4.286   2.360   1.066  0.1959 -1.3096 -0.5683
  748MPD2    N111062   3.918   2.091   0.894  0.4425 -0.5207 -0.2298
  748MPD2    H711063   3.845   2.057   0.833  1.1324 -0.2167 -1.2196
  749TMC3    C111064   4.434   2.550   1.082 -0.5327  0.9606 -0.0385
  749TMC3    C211065   4.412   2.492   1.201 -0.0171 -0.1300  0.7509
  749TMC3    C311066   4.476   2.537   1.309 -0.2789  0.4804 -0.2073
  749TMC3    C411067   4.519   2.651   1.063 -0.2541 -0.2814 -0.1075
  749TMC3    C511068   4.581   2.699   1.173  0.4151  0.2058  0.5198
  749TMC3    C611069   4.569   2.633   1.296  0.3752  0.7068  0.2051
  749TMC3     C11070   4.357   2.520   0.959 -0.0030 -0.1195 -0.1779
  749TMC3     O11071   4.348   2.607   0.870  0.4272  0.4501  0.0411
  749TMC3     H11072   4.338   2.412   1.206  0.5679 -0.5818  2.3589
  749TMC3    H111073   4.522   2.703   0.967  0.6811 -1.0226 -0.4779
  749TMC3    H211074   4.617   2.674   1.384 -0.7702 -0.1348  1.2147
  749TMC3    C711075   4.696   2.784   1.162  0.0142 -0.4135  0.3734
  749TMC3    C811076   4.480   2.459   1.430  0.8368  0.0986  0.4826
  749TMC3    O111077   0.046   2.789   1.257  0.2038 -0.2352  0.0350
  749TMC3    O211078   4.539   2.509   1.524  0.3440 -0.8696 -0.1190
  750MPD2     C11079   0.318   3.595  11.210  0.4993  0.1336 -0.1513
  750MPD2    C111080   0.266   3.566  11.328  0.0245  0.1408 -0.2731
  750MPD2    C211081   0.141   3.501  11.342  0.1215  0.4778  0.0741
  750MPD2    C311082   0.077   3.455  11.227  0.1364 -0.5892  0.0605
  750MPD2    C411083   0.143   3.475  11.105 -0.9983  0.5044  0.3236
  750MPD2    C511084   0.256   3.551  11.102 -0.1429  0.0871  0.1764
  750MPD2     H11085   0.103   3.483  11.442 -0.7248 -0.5723 -0.4239
  750MPD2    H111086   0.115   3.423  11.013  0.4293  1.3810 -0.6014
  750MPD2    H211087   0.407   3.656  11.203  0.7233 -0.1808 -0.0444
  750MPD2    H311088   0.311   3.564  11.009  1.6643  1.5521  1.4552
  750MPD2     N11089   4.690   3.362  11.233 -0.3919 -0.0411  0.1804
  750MPD2    H511090   4.663   3.308  11.151 -0.9695 -1.8657  1.5916
  750MPD2    N111091   0.330   3.622  11.445 -0.6867  0.3965 -0.0419
  750MPD2    H711092   0.412   3.678  11.425  0.1719 -0.0449  2.2126
  751TMC3    C111093   4.564   3.204  11.350 -0.2281  0.7169  0.3338
  751TMC3    C211094   4.527   3.163  11.471  0.2115 -0.0883  0.1091
  751TMC3    C311095   4.532   3.023  11.501 -0.7540  0.8076  0.3303
  751TMC3    C411096   4.605   3.112  11.254 -0.1279  0.7983 -0.7018
  751TMC3    C511097   4.618   2.981  11.287  0.6219  0.7860 -0.4778
  751TMC3    C611098   4.587   2.931  11.416 -0.1370  0.5331  0.4596
  751TMC3     C11099   4.613   3.337  11.340 -0.7008  0.0972  0.5751
  751TMC3     O11100   4.587   3.423  11.425  0.2704 -0.0871 -0.4787
  751TMC3     H11101   4.505   3.233  11.551 -3.6996 -0.2624 -0.8429
  751TMC3    H111102   4.636   3.135  11.153  0.7271  0.3210 -0.5497
  751TMC3    H211103   4.590   2.828  11.451  0.7461  0.4375  0.1052
  751TMC3    C711104   4.687   2.891  11.195  0.2059  0.4629  0.2995
  751TMC3    C811105   4.476   2.960  11.620 -0.0295  0.2978  0.2128
  751TMC3    O111106   0.014   2.947  11.100  0.1542 -0.2397 -0.1799
  751TMC3    O211107   4.524   2.855  11.665  0.0725  0.2790  0.4840
  752TMC3    C111108   3.796   2.607  17.146  0.1578 -0.0989  0.3206
  752TMC3    C211109   3.687   2.624  17.227  0.1190  0.3868  0.5098
  752TMC3    C311110   3.687   2.555  17.344  0.3382  0.2261  0.3244
  752TMC3    C411111   3.885   2.505  17.163  0.2467  0.3707 -0.0311
  752TMC3    C511112   3.885   2.443  17.285 -0.5395  0.6518  0.5007
  752TMC3    C611113   3.778   2.456  17.377  0.0191  0.3819  0.1250
  752TMC3     C11114   3.792   2.670  17.012  0.4716  0.1843 -0.0261
  752TMC3     O11115   3.896   2.681  16.948  0.4222 -0.4496  0.2535
  752TMC3     H11116   3.624   2.710  17.206  0.3986  0.3417 -0.5352
  752TMC3    H111117   3.972   2.497  17.098  0.1340 -2.4554  0.1429
  752TMC3    H211118   3.761   2.392  17.462 -0.3795  1.4587  0.8549
  752TMC3    C711119   4.000   2.362  17.318 -0.0338 -0.1229 -0.0108
  752TMC3    C811120   3.579   2.596  17.436 -0.6067  0.2873  0.0525
  752TMC3    O111121   4.080   2.334  17.226 -0.1732  0.2825  0.0143
  752TMC3    O211122   3.490   2.670  17.392 -0.0690 -0.0268  0.0811
  753TMC3    C111123   0.832   4.252  14.002 -0.0329 -0.6045  0.4169
  753TMC3    C211124   0.795   4.213  14.129 -0.5366  0.3017  0.0755
  753TMC3    C311125   0.723   4.103  14.157  0.6320 -0.4698 -0.3923
  753TMC3    C411126   0.801   4.175  13.900  0.5092 -0.4473  0.0325
  753TMC3    C511127   0.713   4.067  13.928 -0.5840  0.5020  0.6532
  753TMC3    C611128   0.674   4.026  14.055 -0.1398 -0.0380 -0.0017
  753TMC3     C11129   0.955   4.323  13.995  0.7026  0.3600  1.0675
  753TMC3     O11130   0.962   4.408  14.087 -0.4965  0.3079  0.3405
  753TMC3     H11131   0.849   4.265  14.207  1.1118  0.4902 -1.1965
  753TMC3    H111132   0.825   4.209  13.800 -1.6878  2.5134  0.5259
  753TMC3    H211133   0.623   3.935  14.083 -1.5314 -0.0755 -2.7080
  753TMC3    C711134   0.688   3.976  13.815 -0.6188 -0.2563 -0.6591
  753TMC3    C811135   0.748   4.040  14.284 -0.7753  0.8419  0.2430
  753TMC3    O111136   0.724   4.008  13.706  0.1263  0.2220 -0.2739
  753TMC3    O211137   0.763   3.917  14.287 -0.4044  0.2464 -0.0841
  754MPD2     C11138   4.313   2.907  12.882  0.6337  0.3044 -0.0193
  754MPD2    C111139   4.284   2.790  12.956 -0.3582 -0.2695  0.0397
  754MPD2    C211140   4.155   2.748  12.971  0.1875  0.0604  0.4013
  754MPD2    C311141   4.050   2.818  12.923 -0.0908  0.4522  0.0950
  754MPD2    C411142   4.072   2.938  12.862 -0.1625  0.4589 -0.0283
  754MPD2    C511143   4.203   2.976  12.835 -1.1115 -0.1177  0.3018
  754MPD2     H11144   4.141   2.654  13.023 -2.5133  0.4912  0.4743
  754MPD2    H111145   3.994   3.008  12.833 -2.2222 -0.3053  3.5922
  754MPD2    H211146   4.414   2.926  12.848  0.1600  0.9490 -1.0811
  754MPD2    H311147   4.221   3.076  12.797  3.5779 -0.5004  1.4357
  754MPD2     N11148   3.910   2.793  12.939 -0.2046 -1.0077  0.1553
  754MPD2    H511149   3.839   2.860  12.913 -2.5685 -3.4712  0.2680
  754MPD2    N111150   4.382   2.720  13.035  0.5181 -0.1437 -0.3682
  754MPD2    H711151   4.352   2.643  13.093  0.4801  0.8669  0.9451
  755MPD2     C11152   3.566   3.476  13.254 -0.0920  0.1935  0.4626
  755MPD2    C111153   3.536   3.384  13.352 -0.3361 -0.0802 -0.1467
  755MPD2    C211154   3.538   3.255  13.323  0.0552  0.0125 -0.7418
  755MPD2    C311155   3.599   3.206  13.203  0.0173  0.1200 -0.9520
  755MPD2    C411156   3.645   3.299  13.113  0.3511 -0.3986  0.1248
  755MPD2    C511157   3.631   3.433  13.137 -1.6443  0.1710  0.4215
  755MPD2     H11158   3.501   3.185  13.398  1.5692  0.4196  0.3810
  755MPD2    H111159   3.701   3.265  13.027 -0.3817 -1.0181 -0.1115
  755MPD2    H211160   3.566   3.584  13.264  0.2331  0.3361 -1.0932
  755MPD2    H311161   3.669   3.511  13.071  1.7490 -0.9967  1.0159
  755MPD2     N11162   3.624   3.068  13.179 -0.2190  0.2710 -0.1242
  755MPD2    H511163   3.663   3.049  13.087  0.4155 -0.4016  0.2785
  755MPD2    N111164   3.482   3.417  13.475 -0.0279  0.6965 -0.0102
  755MPD2    H711165   3.452   3.345  13.541  0.1587  1.2069  0.6354
  756MPD2     C11166   0.170   3.309   9.267 -0.1557 -0.4934  0.0454
  756MPD2    C111167   0.128   3.241   9.381  0.5327 -0.4799 -0.8521
  756MPD2    C211168   0.062   3.121   9.368 -0.7167 -0.3605 -0.0123
  756MPD2    C311169   0.056   3.055   9.242  0.3005 -0.5262  0.4043
  756MPD2    C411170   0.096   3.122   9.125 -0.1611  0.0742  0.0784
  756MPD2    C511171   0.157   3.249   9.144 -0.1562 -0.1410 -0.5337
  756MPD2     H11172   0.018   3.062   9.447  0.2908  0.7413  1.3751
  756MPD2    H111173   0.092   3.092   9.021  0.3757 -1.1255  0.4083
  756MPD2    H211174   0.211   3.409   9.273  0.2013 -0.6737  0.6622
  756MPD2    H311175   0.193   3.303   9.058 -1.8226 -0.7973 -1.6412
  756MPD2     N11176   4.711   2.931   9.247  0.7225 -0.1980  0.2753
  756MPD2    H511177   4.692   2.898   9.341 -0.2307 -0.6372 -0.0695
  756MPD2    N111178   0.125   3.293   9.515 -0.1516 -0.2886 -0.2304
  756MPD2    H711179   0.077   3.240   9.586 -2.0865 -1.0234 -2.0963
  757MPD2     C11180   3.880   2.388   8.882 -0.1220  0.2570 -0.5890
  757MPD2    C111181   3.878   2.421   9.015  0.0403 -0.6534 -0.1791
  757MPD2    C211182   3.994   2.437   9.082 -0.1956 -0.2414 -0.1297
  757MPD2    C311183   4.119   2.440   9.017  0.2098  0.1931 -0.0771
  757MPD2    C411184   4.121   2.398   8.882  0.7426 -1.0311 -0.2255
  757MPD2    C511185   4.001   2.379   8.818  0.1796 -0.9614  0.2057
  757MPD2     H11186   3.992   2.463   9.187  0.6260  0.3051 -0.2535
  757MPD2    H111187   4.212   2.382   8.825  0.5189 -2.4855 -0.1630
  757MPD2    H211188   3.787   2.380   8.826  0.4981  0.2134 -1.6189
  757MPD2    H311189   4.004   2.357   8.712  0.1767 -1.2137  0.2586
  757MPD2     N11190   4.239   2.468   9.089 -0.1986  0.0965 -0.6162
  757MPD2    H511191   4.219   2.502   9.183  0.0315 -0.2864 -0.4320
  757MPD2    N111192   3.748   2.439   9.060  0.2852  0.6888 -0.1257
  757MPD2    H711193   3.681   2.406   8.992 -1.9570  1.8612  1.5113
  758MPD2     C11194   4.209   2.093  16.082  0.3253 -0.2073  0.3085
  758MPD2    C111195   4.271   1.986  16.142 -0.4848 -0.8626 -0.1405
  758MPD2    C211196   4.230   1.952  16.270  0.2018  0.6376  0.3382
  758MPD2    C311197   4.112   2.009  16.319  0.3472 -0.4497  0.1820
  758MPD2    C411198   4.040   2.094  16.240  0.4255  0.5947  0.8622
  758MPD2    C511199   4.090   2.148  16.122  0.0241 -0.2995  0.1820
  758MPD2     H11200   4.297   1.893  16.332  1.3899  0.6431 -0.9311
  758MPD2    H111201   3.956   2.149  16.281 -1.6275 -1.5831 -0.4060
  758MPD2    H211202   4.245   2.125  15.985 -2.2272  1.4007 -0.1008
  758MPD2    H311203   4.041   2.225  16.064  1.7150 -0.9967 -2.1762
  758MPD2     N11204   4.061   1.992  16.455  0.8776  0.1730 -0.1774
  758MPD2    H511205   3.977   2.045  16.478  0.2864 -0.9199  0.2048
  758MPD2    N111206   4.403   1.948  16.106 -0.3307  0.5972  0.7093
  758MPD2    H711207   4.454   2.005  16.039  1.4134 -0.4067  1.1737
  759MPD2     C11208   3.335   1.256  10.602  0.6731 -0.4860 -0.3893
  759MPD2    C111209   3.341   1.182  10.486  0.1565  0.4408  0.9789
  759MPD2    C211210   3.391   1.237  10.370 -0.0561  0.3504 -0.4505
  759MPD2    C311211   3.458   1.358  10.374 -0.7034 -0.4021 -0.4166
  759MPD2    C411212   3.450   1.427  10.486 -0.0931 -0.4498 -0.2222
  759MPD2    C511213   3.376   1.387  10.592  0.7212  0.5187  0.1523
  759MPD2     H11214   3.405   1.175  10.282  0.8436 -0.1945  0.0826
  759MPD2    H111215   3.497   1.524  10.497 -0.9163  0.0223 -0.8952
  759MPD2    H211216   3.287   1.221  10.693  0.1954  0.6425 -0.1982
  759MPD2    H311217   3.365   1.460  10.671 -0.7009 -1.4716  1.7754
  759MPD2     N11218   3.526   1.405  10.257  0.2034 -0.1528 -0.6574
  759MPD2    H511219   3.546   1.333  10.189 -2.1349  0.8117 -2.3763
  759MPD2    N111220   3.295   1.047  10.476 -0.1444 -0.0972  0.6869
  759MPD2    H711221   3.291   1.005  10.384 -1.6774  0.1302  0.6455
  760MPD2     C11222   3.144   2.946  12.577 -0.3042 -0.4023  0.1525
  760MPD2    C111223   3.168   2.957  12.444 -0.0235 -0.0308  0.2948
  760MPD2    C211224   3.219   2.848  12.381  0.5260  0.5221  0.2563
  760MPD2    C311225   3.234   2.725  12.449 -0.1802  0.2372 -0.6413
  760MPD2    C411226   3.211   2.718  12.585  0.1108  0.9607 -0.5396
  760MPD2    C511227   3.173   2.835  12.648  0.0132  0.0367 -0.1279
  760MPD2     H11228   3.240   2.852  12.275  2.6491 -2.5307  0.5400
  760MPD2    H111229   3.213   2.625  12.641 -0.5053  1.0210 -0.4100
  760MPD2    H211230   3.111   3.028  12.640  0.8968  0.6594 -0.6240
  760MPD2    H311231   3.152   2.841  12.754  1.7463  0.7805  0.1687
  760MPD2     N11232   3.275   2.605  12.385  0.4594  0.4651  0.8679
  760MPD2    H511233   3.264   2.519  12.438 -2.0565 -0.2702 -0.8554
  760MPD2    N111234   3.155   3.079  12.364 -0.4543  0.6405 -0.5637
  760MPD2    H711235   3.184   3.074  12.267  1.4923  1.4114 -0.0348
  761MPD2     C11236   4.021   2.821  11.795 -0.0324  0.6618  0.1136
  761MPD2    C111237   4.111   2.751  11.718 -0.7487 -0.5035  0.0453
  761MPD2    C211238   4.225   2.816  11.673 -0.5270  0.2979  0.0046
  761MPD2    C311239   4.247   2.951  11.708  0.4115 -0.2711 -0.1315
  761MPD2    C411240   4.138   3.022  11.769 -0.2754 -1.1708  0.3098
  761MPD2    C511241   4.024   2.956  11.821  0.1333  0.2158 -0.2242
  761MPD2     H11242   4.306   2.767  11.620 -1.1391 -1.4229  0.6511
  761MPD2    H111243   4.142   3.129  11.788  0.5247 -0.9624 -1.0664
  761MPD2    H211244   3.938   2.757  11.825  0.7951 -0.6616 -0.4236
  761MPD2    H311245   3.951   3.016  11.874  0.0341 -0.3943  0.3315
  761MPD2     N11246   4.359   3.019  11.648  0.4573 -0.6678  0.5564
  761MPD2    H511247   4.351   3.119  11.635 -1.4411 -0.9072 -0.0805
  761MPD2    N111248   4.087   2.620  11.686 -0.0364 -0.4048 -0.3571
  761MPD2    H711249   4.019   2.576  11.746 -2.1260  1.9254 -0.9937
  762MPD2     C11250   4.699   2.169  11.381 -0.2644 -0.2304  0.6942
  762MPD2    C111251   4.570   2.147  11.334 -0.3378  1.0649 -0.0250
  762MPD2    C211252   4.561   2.106  11.204 -0.6845 -0.0679 -1.2769
  762MPD2    C311253   4.671   2.076  11.123  1.0398 -0.2262 -0.5447
  762MPD2    C411254   0.071   2.106  11.172 -0.1804 -0.4697  0.3490
  762MPD2    C511255   0.085   2.161  11.296 -0.5928 -0.0994  0.2091
  762MPD2     H11256   4.461   2.091  11.166 -1.1347  0.6893 -0.3732
  762MPD2    H111257   0.166   2.090  11.123  0.7062  0.8940  1.6230
  762MPD2    H211258   4.706   2.194  11.486 -0.1559  1.7001  0.2146
  762MPD2    H311259   0.181   2.183  11.341  0.7517 -1.1833 -2.1360
  762MPD2     N11260   4.649   2.053  10.986 -0.2896  0.5223 -0.2346
  762MPD2    H511261   4.553   2.049  10.954 -0.5092  1.9266  0.2624
  762MPD2    N111262   4.464   2.161  11.425 -0.6629 -0.5705 -0.1006
  762MPD2    H711263   4.484   2.194  11.519  0.3928 -1.7727  0.0997
  763MPD2     C11264   1.123   2.495  16.528 -0.4097 -0.1109  0.6349
  763MPD2    C111265   1.221   2.556  16.457  0.3816  0.6787 -0.5465
  763MPD2    C211266   1.286   2.674  16.505 -0.3864 -0.1350 -0.0666
  763MPD2    C311267   1.265   2.717  16.640  0.2806 -0.6923  0.2584
  763MPD2    C411268   1.160   2.661  16.707 -0.7120  0.1479 -0.0959
  763MPD2    C511269   1.098   2.549  16.654 -0.1622 -0.2717 -0.1217
  763MPD2     H11270   1.362   2.728  16.449 -2.1424  1.0718 -1.2877
  763MPD2    H111271   1.130   2.678  16.809 -0.6675  0.5019 -0.1400
  763MPD2    H211272   1.078   2.402  16.494  0.4452  0.2752 -1.5801
  763MPD2    H311273   1.032   2.483  16.709 -1.1361 -0.3921 -1.4403
  763MPD2     N11274   1.354   2.808  16.707 -0.1476  0.1344  0.3590
  763MPD2    H511275   1.452   2.817  16.684  0.0252  0.2927  1.1481
  763MPD2    N111276   1.258   2.517  16.326  0.1860  0.0791 -0.1738
  763MPD2    H711277   1.327   2.573  16.277  1.2331 -0.1410  1.0414
  764MPD2     C11278   0.127   3.993  17.237 -0.8286 -0.0360 -0.4197
  764MPD2    C111279   0.012   3.929  17.220 -0.1479 -0.2219  0.2103
  764MPD2    C211280   4.683   3.857  17.324  0.2130 -0.4131 -0.0778
  764MPD2    C311281   0.024   3.863  17.451  0.5262  0.4976  0.6082
  764MPD2    C411282   0.140   3.928  17.468  1.1689  0.3675 -0.4102
  764MPD2    C511283   0.189   3.993  17.359 -0.0263  0.6983 -0.5616
  764MPD2     H11284   4.599   3.793  17.300 -0.7687  1.3149 -1.2569
  764MPD2    H111285   0.197   3.923  17.559 -1.3562  1.3036  1.2237
  764MPD2    H211286   0.181   4.046  17.160 -1.9024  1.2900 -0.2500
  764MPD2    H311287   0.282   4.049  17.363  0.6584 -0.4507 -0.0329
  764MPD2     N11288   4.682   3.782  17.554 -0.6133 -0.1370 -0.0375
  764MPD2    H511289   4.596   3.736  17.524 -1.7674  0.2520  2.7258
  764MPD2    N111290   4.667   3.906  17.103 -0.3650 -0.6905 -0.2453
  764MPD2    H711291   4.593   3.837  17.115  0.4344 -1.9149 -2.4117
  765MPD2     C11292   3.576   1.429  16.180 -0.0423  0.6500 -0.5971
  765MPD2    C111293   3.643   1.546  16.141  0.7498  0.1340  0.3323
  765MPD2    C211294   3.779   1.533  16.134  0.1673 -0.8244 -0.5144
  765MPD2    C311295   3.843   1.418  16.171  0.1862  0.1339  0.0699
  765MPD2    C411296   3.773   1.305  16.221  0.3342 -0.5699  0.6888
  765MPD2    C511297   3.642   1.314  16.225 -0.2382 -0.1829  0.4266
  765MPD2     H11298   3.834   1.618  16.096 -0.9591  0.6619  1.1991
  765MPD2    H111299   3.821   1.212  16.249 -0.4821 -1.5235 -1.0468
  765MPD2    H211300   3.467   1.430  16.179 -0.0599  0.0876  0.6813
  765MPD2    H311301   3.593   1.225  16.261  2.4923 -2.5305 -1.5908
  765MPD2     N11302   3.979   1.421  16.168 -0.1657  0.2685 -0.2231
  765MPD2    H511303   4.008   1.515  16.143 -1.0821 -0.3908 -3.6922
  765MPD2    N111304   3.571   1.667  16.114 -0.0996 -0.1819 -0.7653
  765MPD2    H711305   3.470   1.660  16.117 -0.0314 -0.2749  1.2030
  766MPD2     C11306   3.223   1.747  15.545 -0.6136  0.2647 -0.8817
  766MPD2    C111307   3.333   1.835  15.564  0.6844 -0.0759 -0.6438
  766MPD2    C211308   3.407   1.865  15.456  0.4626  0.1730  0.1176
  766MPD2    C311309   3.379   1.819  15.325 -0.6622  0.5638 -0.8030
  766MPD2    C411310   3.262   1.750  15.306  0.3986  0.2359 -0.4316
  766MPD2    C511311   3.185   1.714  15.421 -0.2768  0.4025 -0.2984
  766MPD2     H11312   3.489   1.931  15.483  2.3152 -1.2464 -1.9720
  766MPD2    H111313   3.240   1.713  15.207 -0.5590 -0.6075  0.0989
  766MPD2    H211314   3.164   1.729  15.634  1.6286  1.4772  0.8413
  766MPD2    H311315   3.100   1.647  15.413  0.3582 -0.8546  3.6440
  766MPD2     N11316   3.465   1.854  15.212 -0.4767  0.0581 -0.0641
  766MPD2    H511317   3.412   1.863  15.126  0.1415 -1.5286 -0.6271
  766MPD2    N111318   3.367   1.893  15.691  0.1301  0.7292  0.4028
  766MPD2    H711319   3.446   1.956  15.696 -0.8319  2.0347 -0.7727
  767MPD2     C11320   3.027   2.030  15.234 -0.3516 -0.2008 -0.1798
  767MPD2    C111321   3.137   2.098  15.190 -1.0232  0.5395 -0.8067
  767MPD2    C211322   3.182   2.080  15.061 -0.0081  0.2801 -0.0597
  767MPD2    C311323   3.117   2.005  14.967  0.8878  0.6166  0.8673
  767MPD2    C411324   2.996   1.952  15.011 -0.0163 -0.2206  0.0295
  767MPD2    C511325   2.958   1.957  15.142  0.1882  0.4133 -0.2711
  767MPD2     H11326   3.271   2.136  15.034  1.1651 -0.8520  1.4704
  767MPD2    H111327   2.933   1.902  14.938 -0.8911  1.7149 -0.5516
  767MPD2    H211328   2.996   2.033  15.338  1.6411 -0.3751  0.4194
  767MPD2    H311329   2.864   1.912  15.174  0.6786 -0.9636 -0.7559
  767MPD2     N11330   3.167   2.012  14.837  0.3284  0.4086  0.8797
  767MPD2    H511331   3.258   2.055  14.826  0.1810  0.2086 -1.0821
  767MPD2    N111332   3.196   2.181  15.286  0.0701 -0.2317  0.1928
  767MPD2    H711333   3.176   2.172  15.385 -0.3633 -1.9888 -0.0481
  768MPD2     C11334   4.208   0.584  11.142 -0.1028  0.3263  0.1471
  768MPD2    C111335   4.244   0.705  11.209 -0.6758 -0.5817 -1.2440
  768MPD2    C211336   4.365   0.720  11.277  0.1115  0.5591 -0.2898
  768MPD2    C311337   4.450   0.610  11.297 -0.0883  0.6902 -0.1552
  768MPD2    C411338   4.411   0.489  11.242 -0.0128 -0.6971  0.3323
  768MPD2    C511339   4.289   0.479  11.171 -0.0639 -0.3495 -0.6215
  768MPD2     H11340   4.370   0.814  11.330  1.3660  0.0402  0.5337
  768MPD2    H111341   4.480   0.406  11.258 -0.2596 -1.2198 -1.3496
  768MPD2    H211342   4.116   0.564  11.089  0.0506 -0.3230  0.1220
  768MPD2    H311343   4.254   0.383  11.135 -2.5202  0.4985 -0.4793
  768MPD2     N11344   4.567   0.611  11.370 -0.7627  0.7317 -0.1126
  768MPD2    H511345   4.605   0.519  11.392 -0.5671  1.1706  1.3908
  768MPD2    N111346   4.163   0.825  11.205  0.5409 -0.5794 -0.1221
  768MPD2    H711347   4.203   0.915  11.229  1.2233 -0.5154 -1.5112
  769MPD2     C11348   0.377   3.691  15.181  0.9319 -0.0548  0.5779
  769MPD2    C111349   0.332   3.566  15.221 -1.0118  0.2746 -1.6072
  769MPD2    C211350   0.412   3.500  15.314 -0.1118  0.2909  0.4458
  769MPD2    C311351   0.516   3.562  15.376 -0.1514 -0.1363 -0.2348
  769MPD2    C411352   0.550   3.699  15.354 -0.3570 -0.1457 -0.0600
  769MPD2    C511353   0.482   3.754  15.248  0.3646  0.5111  0.3833
  769MPD2     H11354   0.384   3.400  15.345  0.6405  0.3680  1.3997
  769MPD2    H111355   0.617   3.758  15.415 -0.6944  1.2402 -1.0104
  769MPD2    H211356   0.314   3.753  15.117 -0.8093 -2.6060 -0.1503
  769MPD2    H311357   0.494   3.861  15.236  0.5757  0.6723  2.0564
  769MPD2     N11358   0.584   3.496  15.478 -0.1692  0.7599  0.8227
  769MPD2    H511359   0.557   3.400  15.497  0.3062  0.6726  1.0546
  769MPD2    N111360   0.202   3.517  15.178 -0.2314 -0.1559 -0.2209
  769MPD2    H711361   0.139   3.585  15.136 -0.5743  0.9778  2.1116
  770MPD2     C11362   4.312   2.785  15.485  0.1201 -0.1520  0.2049
  770MPD2    C111363   4.388   2.754  15.374 -0.7521  0.6252 -0.1712
  770MPD2    C211364   4.437   2.859  15.297 -0.8132  0.2513  0.3944
  770MPD2    C311365   4.406   2.986  15.331 -0.0839  0.0950  0.1085
  770MPD2    C411366   4.330   3.014  15.439 -0.0655 -0.2165  0.7603
  770MPD2    C511367   4.284   2.916  15.513 -0.5124 -0.3983  0.1939
  770MPD2     H11368   4.488   2.845  15.202  0.1968 -2.4731  1.3453
  770MPD2    H111369   4.309   3.116  15.467 -0.9544 -0.0400 -0.5462
  770MPD2    H211370   4.268   2.704  15.543 -1.5309 -0.0262 -0.8718
  770MPD2    H311371   4.230   2.959  15.597  1.3856 -0.1476  1.2848
  770MPD2     N11372   4.457   3.089  15.255 -0.0209 -0.6206 -0.5801
  770MPD2    H511373   4.505   3.063  15.169 -1.2325 -1.7385 -0.9218
  770MPD2    N111374   4.419   2.621  15.350  1.0505 -0.1605  0.5479
  770MPD2    H711375   4.371   2.553  15.409 -0.1352  0.9051  0.8265
  771MPD2     C11376   0.632   1.650  14.090 -0.6937 -0.6511  0.5649
  771MPD2    C111377   0.728   1.724  14.039 -0.6848 -0.0934 -0.0208
  771MPD2    C211378   0.841   1.657  13.999 -0.5427  0.0106 -0.0480
  771MPD2    C311379   0.845   1.520  13.980 -0.5350  0.0077  0.0902
  771MPD2    C411380   0.744   1.445  14.033  0.1036  0.0479  0.6210
  771MPD2    C511381   0.640   1.508  14.094 -0.1855 -0.8973  0.3381
  771MPD2     H11382   0.917   1.716  13.951  1.6630 -2.2562  0.6659
  771MPD2    H111383   0.746   1.338  14.045 -1.0293  0.0110  0.5008
  771MPD2    H211384   0.541   1.696  14.129 -0.4991 -2.2250  2.8885
  771MPD2    H311385   0.561   1.446  14.134 -1.8001  1.8849  1.4839
  771MPD2     N11386   0.955   1.470  13.906  0.0664  0.0340 -0.6344
  771MPD2    H511387   1.020   1.541  13.874 -2.0762  2.3625  0.1967
  771MPD2    N111388   0.723   1.865  14.021  0.3382 -0.0397  0.0683
  771MPD2    H711389   0.812   1.907  13.996  0.2644 -0.7200 -1.3240
  772MPD2     C11390   0.467   2.614  13.765  0.0696  0.2141 -0.1371
  772MPD2    C111391   0.418   2.482  13.784 -0.2547  0.2580  0.0398
  772MPD2    C211392   0.278   2.463  13.781 -1.0155  0.6786  0.3994
  772MPD2    C311393   0.190   2.562  13.750 -0.2594  0.3571  0.3540
  772MPD2    C411394   0.241   2.691  13.735 -0.0344 -0.6446  0.1888
  772MPD2    C511395   0.376   2.712  13.737 -0.4991 -0.5302  0.4585
  772MPD2     H11396   0.234   2.365  13.797 -0.9374  0.7103  0.8267
  772MPD2    H111397   0.172   2.774  13.726  1.2476  0.4446  0.2493
  772MPD2    H211398   0.569   2.644  13.786 -0.1833  1.9465 -1.4632
  772MPD2    H311399   0.414   2.812  13.719 -0.2304 -0.5044  1.1470
  772MPD2     N11400   0.051   2.544  13.735  0.0330  0.1750 -0.2638
  772MPD2    H511401   4.715   2.616  13.697  1.2401  1.2448 -0.1525
  772MPD2    N111402   0.507   2.380  13.813 -0.2409 -0.3272 -0.5953
  772MPD2    H711403   0.471   2.286  13.828  1.2791 -1.0434 -1.4312
  773MPD2     C11404   0.066   2.615   0.834 -0.5719 -1.3093  0.2280
  773MPD2    C111405   0.042   2.517   0.745 -0.1530  0.3712 -0.2183
  773MPD2    C211406   0.098   2.387   0.758 -0.2366 -0.7763 -0.0455
  773MPD2    C311407   0.191   2.367   0.858  0.1240 -0.2442  0.5016
  773MPD2    C411408   0.225   2.473   0.939 -0.1354 -0.5827 -1.1157
  773MPD2    C511409   0.163   2.593   0.925 -0.2111  0.3188  0.0216
  773MPD2     H11410   0.074   2.304   0.693  0.1920 -0.6895 -0.3121
  773MPD2    H111411   0.275   2.462   1.034  0.3405  0.2864 -1.2620
  773MPD2    H211412   0.014   2.709   0.827  2.0332  0.1510  0.6538
  773MPD2    H311413   0.186   2.669   0.999 -0.5670  0.5892 -0.1419
  773MPD2     N11414   0.252   2.241   0.870 -0.0559 -0.2517 -0.0218
  773MPD2    H511415   0.225   2.166   0.808 -1.5744  0.9592 -0.8262
  773MPD2    N111416   4.670   2.537   0.636  0.5052  0.1626 -0.0108
  773MPD2    H711417   4.645   2.457   0.578 -0.3116  0.8454 -0.6059
  774MPD2     C11418   4.217   2.042  13.456 -0.4269 -0.9624  0.0794
  774MPD2    C111419   4.149   2.161  13.451  0.2071 -0.1549 -0.0313
  774MPD2    C211420   4.223   2.274  13.420  0.5611  0.9296  0.5185
  774MPD2    C311421   4.357   2.259  13.387 -0.4559  0.9682 -0.2664
  774MPD2    C411422   4.425   2.135  13.393 -0.1498  0.5432  0.5728
  774MPD2    C511423   4.350   2.026  13.429 -0.8708  0.2388 -0.3022
  774MPD2     H11424   4.186   2.376  13.407 -1.1558  0.5462  2.4777
  774MPD2    H111425   4.528   2.119  13.366 -0.5876  1.0669 -1.4019
  774MPD2    H211426   4.160   1.951  13.470 -2.4459  0.3550  0.3885
  774MPD2    H311427   4.399   1.930  13.432 -0.3838  0.4745 -0.7133
  774MPD2     N11428   4.423   2.375  13.345  1.1110 -0.0888  0.1086
  774MPD2    H511429   4.365   2.455  13.324 -0.7070 -1.0716  1.3273
  774MPD2    N111430   4.006   2.147  13.478 -0.4616  0.1292  0.0355
  774MPD2    H711431   3.973   2.054  13.500 -1.4673  0.0620 -1.7691
  775MPD2     C11432   0.884   3.125  16.067 -0.1865 -0.4230  1.5936
  775MPD2    C111433   0.883   3.194  16.184  0.3444  0.3705  0.1092
  775MPD2    C211434   0.980   3.295  16.207 -0.2681  0.6595  0.4589
  775MPD2    C311435   1.065   3.340  16.105  0.4625  0.0297  0.0997
  775MPD2    C411436   1.066   3.261  15.989  0.3230  0.2366 -0.2988
  775MPD2    C511437   0.984   3.157  15.976  0.3872  0.9001  0.2058
  775MPD2     H11438   0.980   3.356  16.297  1.4509  0.4027  0.6161
  775MPD2    H111439   1.125   3.294  15.905 -0.4250  0.0045 -0.9120
  775MPD2    H211440   0.805   3.053  16.049 -0.5593  0.6479 -1.1041
  775MPD2    H311441   0.976   3.104  15.881  2.4644 -1.1816  1.1910
  775MPD2     N11442   1.158   3.447  16.116  0.2874 -0.5667  0.5778
  775MPD2    H511443   1.185   3.489  16.027 -1.2992 -1.6521 -0.4271
  775MPD2    N111444   0.773   3.161  16.273 -0.2024 -0.6459  0.3666
  775MPD2    H711445   0.712   3.092  16.230 -2.1689  1.2946  0.0367
  776MPD2     C11446   0.094   4.212  11.504 -0.4395  0.3299  0.4910
  776MPD2    C111447   0.207   4.189  11.581 -0.0219  0.0711  0.3757
  776MPD2    C211448   0.314   4.282  11.575  0.5546 -0.8804 -0.0508
  776MPD2    C311449   0.286   4.404  11.516 -0.5779  0.1370 -0.7437
  776MPD2    C411450   0.165   4.441  11.471  0.0731 -0.5079 -0.5925
  776MPD2    C511451   0.073   4.340  11.457 -0.2502  0.1899 -0.4182
  776MPD2     H11452   0.410   4.252  11.615  0.1737  1.7195  2.7809
  776MPD2    H111453   0.149   4.535  11.420  0.8833  0.8754  1.7271
  776MPD2    H211454   0.021   4.135  11.484 -1.1227  1.7638 -2.6051
  776MPD2    H311455   4.707   4.370  11.404 -2.3731 -1.2683  2.2923
  776MPD2     N11456   0.377   4.504  11.506  0.0320  0.2211 -0.4197
  776MPD2    H511457   0.356   4.592  11.459 -1.5522  0.0749  0.0179
  776MPD2    N111458   0.223   4.067  11.648  0.3031  0.3598 -0.0546
  776MPD2    H711459   0.155   3.994  11.631  1.2325 -1.1009  2.4899
  777MPD2     C11460   4.686   1.464   0.843  0.5253 -0.4959 -0.0413
  777MPD2    C111461   4.645   1.393   0.955  0.0787  0.1635  0.6359
  777MPD2    C211462   4.593   1.268   0.940 -0.0317  0.5599 -0.3294
  777MPD2    C311463   4.595   1.207   0.822 -0.5447 -0.8444  0.0814
  777MPD2    C411464   4.646   1.276   0.713 -0.5009  0.4266 -0.5622
  777MPD2    C511465   4.690   1.402   0.718  0.1858  0.2209  0.7377
  777MPD2     H11466   4.574   1.205   1.027 -0.4651 -1.2335 -1.7268
  777MPD2    H111467   4.645   1.230   0.615 -0.0119  1.2287 -0.9340
  777MPD2    H211468   0.006   1.563   0.849  1.1344 -0.8484  1.1590
  777MPD2    H311469   0.017   1.449   0.634 -1.2738 -0.8139 -0.7219
  777MPD2     N11470   4.550   1.072   0.810  0.2358  0.0519 -0.1742
  777MPD2    H511471   4.512   1.027   0.893  1.5618 -0.2517  0.2735
  777MPD2    N111472   4.669   1.453   1.085  0.5403 -1.0915 -0.6637
  777MPD2    H711473   4.707   1.547   1.088 -1.5542 -0.2155 -2.2053
  778MPD2     C11474   1.304   1.321  15.596 -0.1739 -0.3431 -0.3536
  778MPD2    C111475   1.222   1.260  15.503  0.3550  0.0632  0.2067
  778MPD2    C211476   1.185   1.332  15.388  0.5139 -0.1640 -0.2373
  778MPD2    C311477   1.243   1.456  15.361  0.2931  0.1774  0.0214
  778MPD2    C411478   1.348   1.507  15.451 -0.4838  0.4673  0.4223
  778MPD2    C511479   1.371   1.441  15.567 -0.5640  0.5574 -0.3168
  778MPD2     H11480   1.105   1.294  15.325 -1.6310 -0.8878  2.8991
  778MPD2    H111481   1.399   1.600  15.427  0.4374  0.1192  1.0469
  778MPD2    H211482   1.310   1.282  15.697 -1.5112 -0.4865 -0.3261
  778MPD2    H311483   1.439   1.484  15.639 -1.3990  1.1382  0.1286
  778MPD2     N11484   1.199   1.522  15.244  0.0587  0.1683 -0.1275
  778MPD2    H511485   1.125   1.482  15.188  0.1411  0.9223 -0.7759
  778MPD2    N111486   1.175   1.130  15.510 -0.0574  1.0262  0.0575
  778MPD2    H711487   1.136   1.094  15.423 -1.4323 -1.4119  1.6706
  779MPD2     C11488   0.544   0.256  14.760 -0.6238 -0.3175  0.0507
  779MPD2    C111489   0.658   0.281  14.831  0.1030  0.1216 -0.1334
  779MPD2    C211490   0.732   0.393  14.803 -0.1810 -0.2016  0.0690
  779MPD2    C311491   0.705   0.477  14.701 -0.1716 -0.0412  0.0647
  779MPD2    C411492   0.591   0.449  14.632 -0.1387 -0.1729  0.2048
  779MPD2    C511493   0.514   0.342  14.660  0.4853  0.8200  0.6697
  779MPD2     H11494   0.826   0.399  14.857 -0.4130 -1.1950  0.5791
  779MPD2    H111495   0.559   0.513  14.551  0.2337  0.7144  0.7544
  779MPD2    H211496   0.480   0.169  14.763 -0.4686 -0.4773 -1.5917
  779MPD2    H311497   0.420   0.331  14.606  0.4539  1.0181  0.6840
  779MPD2     N11498   0.786   0.580  14.672 -0.2318  0.5882  0.4965
  779MPD2    H511499   0.856   0.602  14.741  1.7673 -0.6809 -1.1463
  779MPD2    N111500   0.708   0.192  14.928  0.2390 -0.2862 -0.1289
  779MPD2    H711501   0.800   0.212  14.966 -0.1055  1.7162 -0.3657
  780MPD2     C11502   0.797   0.018   1.698  0.2328  0.3941 -0.1119
  780MPD2    C111503   0.689   4.673   1.638  0.6596 -0.3824  0.3059
  780MPD2    C211504   0.654   4.696   1.504 -0.2578 -0.2585 -0.1597
  780MPD2    C311505   0.706   0.084   1.436 -0.3064  0.8650  0.4984
  780MPD2    C411506   0.799   0.156   1.502  0.2138 -0.4065  0.2912
  780MPD2    C511507   0.848   0.122   1.626 -0.7459  0.9755 -0.0467
  780MPD2     H11508   0.587   4.631   1.449  1.4280 -0.1754 -2.3295
  780MPD2    H111509   0.844   0.248   1.465 -1.1886  0.0430 -0.3082
  780MPD2    H211510   0.828   4.720   1.799 -2.5495 -2.4796  0.1476
  780MPD2    H311511   0.931   0.173   1.675 -0.0300 -2.1678  2.0371
  780MPD2     N11512   0.665   0.112   1.301  0.2291  0.2151  0.6144
  780MPD2    H511513   0.612   0.046   1.246  1.1582 -1.1763  1.3792
  780MPD2    N111514   0.630   4.571   1.712 -0.1642 -0.3812  0.6418
  780MPD2    H711515   0.670   4.545   1.802  0.9925  0.2423  0.3028
  781MPD2     C11516   2.472   1.777  12.110  0.1777 -0.4422 -0.3787
  781MPD2    C111517   2.522   1.869  12.196 -0.3304 -0.8463 -0.4102
  781MPD2    C211518   2.627   1.950  12.163  0.6968 -0.1285  0.2422
  781MPD2    C311519   2.683   1.932  12.039  0.0502 -0.4358 -0.1866
  781MPD2    C411520   2.646   1.826  11.957 -0.2395 -0.0959  0.3973
  781MPD2    C511521   2.536   1.753  11.992 -0.7578  0.2820  0.0999
  781MPD2     H11522   2.671   2.017  12.236 -2.1537  0.1583  1.7185
  781MPD2    H111523   2.688   1.807  11.859 -0.8799  0.0901  0.0879
  781MPD2    H211524   2.379   1.726  12.129  0.0872 -0.1782 -0.1031
  781MPD2    H311525   2.490   1.687  11.919 -0.7445 -1.2980  1.5018
  781MPD2     N11526   2.788   2.006  11.983  0.0792 -0.7764  0.4172
  781MPD2    H511527   2.822   1.974  11.893  1.2743 -2.4193  1.4541
  781MPD2    N111528   2.459   1.886  12.326  0.0663  0.3633  0.3931
  781MPD2    H711529   2.509   1.951  12.386 -1.0183  1.8848 -0.3649
  782MPD2     C11530   0.223   2.849  10.063  0.3883 -0.4008  0.2680
  782MPD2    C111531   0.293   2.853  10.186 -0.1731  0.3655  0.2574
  782MPD2    C211532   0.350   2.975  10.225  0.1921 -0.1633 -0.0608
  782MPD2    C311533   0.330   3.089  10.150 -0.1268 -0.7720 -0.2116
  782MPD2    C411534   0.254   3.087  10.034 -0.5760 -0.1299  0.6219
  782MPD2    C511535   0.197   2.974   9.999  0.1752 -0.1669  0.3693
  782MPD2     H11536   0.420   2.978  10.308  0.5949  0.0100 -0.4074
  782MPD2    H111537   0.243   3.173   9.969  2.1642  0.8699  1.5100
  782MPD2    H211538   0.171   2.760  10.031  2.9101 -1.0102 -2.1154
  782MPD2    H311539   0.153   2.970   9.900 -0.2023  0.4678  0.5105
  782MPD2     N11540   0.396   3.213  10.192 -0.3082  0.3562  0.2432
  782MPD2    H511541   0.445   3.203  10.280 -0.0834  1.9726  0.2853
  782MPD2    N111542   0.305   2.744  10.278  0.3744 -0.4735 -0.3946
  782MPD2    H711543   0.331   2.772  10.372 -1.1175  0.2882 -0.2135
  783MPD2     C11544   4.672   2.524  11.173 -0.1009  0.3513 -0.4801
  783MPD2    C111545   4.714   2.646  11.141 -0.4027  0.0325  0.0937
  783MPD2    C211546   0.069   2.668  11.031  0.2744  0.3326 -1.1117
  783MPD2    C311547   0.102   2.570  10.945 -0.4645  0.6217 -0.3492
  783MPD2    C411548   0.060   2.447  10.981  0.0526  0.7533  0.0447
  783MPD2    C511549   4.705   2.422  11.091 -0.3370 -0.6597  0.8088
  783MPD2     H11550   0.096   2.767  10.996 -1.2682  0.8747 -0.7546
  783MPD2    H111551   0.060   2.364  10.912  0.7874 -0.1633  1.1420
  783MPD2    H211552   4.602   2.522  11.257  0.3910 -0.2940 -0.0794
  783MPD2    H311553   4.662   2.325  11.111 -1.4814 -0.1966  0.5785
  783MPD2     N11554   0.164   2.602  10.820  0.0748 -0.2352 -0.2443
  783MPD2    H511555   0.205   2.693  10.806  0.2239 -0.0891  1.1763
  783MPD2    N111556   4.662   2.752  11.214 -0.4817 -0.8359  0.2502
  783MPD2    H711557   4.607   2.725  11.294 -1.1696  0.5470  0.2465
  784MPD2     C11558   2.750   2.729   1.880  0.6604  0.5897 -0.1756
  784MPD2    C111559   2.792   2.843   1.819  0.0976 -0.7205 -0.2353
  784MPD2    C211560   2.700   2.936   1.764 -0.1011 -0.0269  0.1618
  784MPD2    C311561   2.563   2.902   1.765  0.0395 -0.3825 -0.0726
  784MPD2    C411562   2.526   2.787   1.826 -0.6165  0.2106 -1.2656
  784MPD2    C511563   2.615   2.698   1.875 -0.9686  0.6517 -0.7317
  784MPD2     H11564   2.752   3.012   1.707 -1.6653  0.1642 -1.0131
  784MPD2    H111565   2.423   2.755   1.838  0.4638 -2.4625  0.9050
  784MPD2    H211566   2.813   2.656   1.931 -1.4673 -0.5320  0.8459
  784MPD2    H311567   2.581   2.605   1.918 -1.8662  1.2528 -0.1302
  784MPD2     N11568   2.472   2.995   1.715 -0.4117  0.5479  0.3519
  784MPD2    H511569   2.518   3.070   1.664 -1.0629  1.4566  1.0987
  784MPD2    N111570   2.925   2.888   1.830 -0.5208  0.4690 -0.0071
  784MPD2    H711571   2.946   2.982   1.797  1.2044 -0.6043 -1.9650
  785MPD2     C11572   2.637   1.478  10.621  0.6409 -0.5035  0.1728
  785MPD2    C111573   2.702   1.527  10.728 -0.2346  0.2771 -0.2511
  785MPD2    C211574   2.642   1.627  10.801  0.9651  0.3181 -0.0743
  785MPD2    C311575   2.514   1.670  10.767 -0.5048  0.1300  1.0737
  785MPD2    C411576   2.443   1.604  10.666  1.0995 -0.6234 -0.0079
  785MPD2    C511577   2.510   1.515  10.586  0.6895 -0.8915 -0.6763
  785MPD2     H11578   2.685   1.683  10.883  1.1954 -0.4543  0.3321
  785MPD2    H111579   2.340   1.627  10.645  0.5372 -0.4307  2.9458
  785MPD2    H211580   2.688   1.408  10.556 -0.2131 -1.4560  0.5260
  785MPD2    H311581   2.455   1.469  10.505  0.9300 -1.6374 -0.4131
  785MPD2     N11582   2.469   1.790  10.837 -0.1940  0.6715 -0.2714
  785MPD2    H511583   2.532   1.820  10.911 -1.3293 -0.0451  0.9897
  785MPD2    N111584   2.845   1.511  10.729 -0.1324  0.4898 -0.0655
  785MPD2    H711585   2.890   1.464  10.651 -2.6717 -1.5432 -0.3300
  786MPD2     C11586   1.407   4.191  15.382 -0.4035  1.0342  0.2535
  786MPD2    C111587   1.527   4.240  15.342  0.1812  0.0362  0.5149
  786MPD2    C211588   1.618   4.285  15.438 -0.4671 -0.0266 -0.3988
  786MPD2    C311589   1.594   4.275  15.574  0.1379  0.1993 -0.0994
  786MPD2    C411590   1.475   4.220  15.613  0.4446 -0.3271 -0.1251
  786MPD2    C511591   1.381   4.189  15.522  0.1593  0.2271  0.4956
  786MPD2     H11592   1.712   4.321  15.397  0.0978 -0.7854  0.2479
  786MPD2    H111593   1.441   4.204  15.715  1.5317  0.1899  0.3205
  786MPD2    H211594   1.324   4.159  15.319  0.1139  0.2196 -0.0125
  786MPD2    H311595   1.291   4.147  15.564 -0.2265  0.8811  0.3200
  786MPD2     N11596   1.690   4.306  15.673  0.4686  0.5792  0.0211
  786MPD2    H511597   1.663   4.278  15.767  1.2770  0.3202  0.1809
  786MPD2    N111598   1.569   4.238  15.205 -0.7457  0.1287 -0.0927
  786MPD2    H711599   1.657   4.282  15.179 -0.2265 -0.7972  0.0908
  787MPD2     C11600   1.973   3.777  15.263  0.0359 -0.5715 -0.4091
  787MPD2    C111601   1.944   3.777  15.125 -0.6547 -0.7816  0.5662
  787MPD2    C211602   1.992   3.672  15.042 -0.0007 -0.0543 -0.5913
  787MPD2    C311603   2.062   3.566  15.096 -0.5317  0.0857  0.5631
  787MPD2    C411604   2.095   3.571  15.232 -0.8544 -0.1656 -0.4463
  787MPD2    C511605   2.052   3.673  15.307 -0.2524 -0.2406 -0.3115
  787MPD2     H11606   1.970   3.674  14.936 -0.4849  1.1663 -0.4649
  787MPD2    H111607   2.157   3.491  15.269 -0.6079 -0.7996 -2.2220
  787MPD2    H211608   1.961   3.857  15.336  0.7829 -1.6490  0.8867
  787MPD2    H311609   2.079   3.678  15.412  1.0358 -1.6674 -0.5779
  787MPD2     N11610   2.092   3.465  15.000 -0.6149 -0.1144 -0.4087
  787MPD2    H511611   2.059   3.471  14.905  0.5033  0.7926 -0.7452
  787MPD2    N111612   1.866   3.885  15.072  0.1889  0.0925  0.3492
  787MPD2    H711613   1.824   3.941  15.146  1.9701 -0.4521  1.7706
  788MPD2     C11614   3.242   1.190   1.168 -0.7125  0.1200 -0.3612
  788MPD2    C111615   3.183   1.166   1.050  0.0403 -0.8571 -0.4888
  788MPD2    C211616   3.176   1.273   0.960  0.0079  0.9837  0.1593
  788MPD2    C311617   3.248   1.393   0.976  0.2706  0.7025  0.1086
  788MPD2    C411618   3.327   1.402   1.087 -0.4932 -0.1629 -0.3401
  788MPD2    C511619   3.310   1.314   1.190  0.4683  0.3542 -0.3510
  788MPD2     H11620   3.111   1.251   0.877  1.4083 -1.0337 -0.3883
  788MPD2    H111621   3.401   1.481   1.092 -0.4800 -0.2771  1.4042
  788MPD2    H211622   3.234   1.124   1.254  1.0750  2.7440  1.8072
  788MPD2    H311623   3.359   1.324   1.286  1.1721 -1.2108 -0.5517
  788MPD2     N11624   3.257   1.497   0.878 -0.1217 -0.2999  0.3204
  788MPD2    H511625   3.332   1.562   0.897 -0.9385  0.7915 -0.2335
  788MPD2    N111626   3.113   1.044   1.026  0.4236 -0.5678  0.2639
  788MPD2    H711627   3.060   1.032   0.940  0.3664 -0.1204  0.2346
  789MPD2     C11628   3.819   1.683  16.881 -0.4824  0.4804  0.5984
  789MPD2    C111629   3.724   1.675  16.993 -0.6529  0.4110 -0.3645
  789MPD2    C211630   3.613   1.755  16.993 -0.2717  0.2743 -0.0052
  789MPD2    C311631   3.595   1.852  16.896  0.4406  0.2342 -0.0406
  789MPD2    C411632   3.685   1.853  16.789  0.9767 -0.2430 -0.3288
  789MPD2    C511633   3.779   1.760  16.778  0.3832  0.2504 -0.7675
  789MPD2     H11634   3.542   1.747  17.074 -1.2184  1.4241 -0.7379
  789MPD2    H111635   3.680   1.920  16.704  1.0700 -1.1761 -1.0729
  789MPD2    H211636   3.900   1.614  16.864 -0.4971  0.5942  0.0774
  789MPD2    H311637   3.838   1.749  16.687  0.0380 -2.0370 -0.7052
  789MPD2     N11638   3.497   1.947  16.886 -0.6660 -0.1770 -0.8138
  789MPD2    H511639   3.494   2.011  16.807  1.8063 -1.4293 -1.9309
  789MPD2    N111640   3.737   1.576  17.093 -0.1171 -0.5523  0.5900
  789MPD2    H711641   3.657   1.564  17.154 -2.1245  2.2665 -1.5323
  790MPD2     C11642   0.218   3.994  14.244 -0.1276  0.4780  0.0495
  790MPD2    C111643   0.295   3.888  14.195  0.7372 -0.3931  0.0895
  790MPD2    C211644   0.315   3.875  14.059 -0.0398 -0.3211 -0.7220
  790MPD2    C311645   0.261   3.970  13.967  0.7055 -0.5077 -0.2005
  790MPD2    C411646   0.196   4.084  14.021  0.6345  0.2587  0.3838
  790MPD2    C511647   0.171   4.092  14.155 -0.2728 -0.0458 -0.1716
  790MPD2     H11648   0.357   3.782  14.022 -2.3377 -0.9396 -1.8004
  790MPD2    H111649   0.143   4.156  13.960 -0.3072  0.6630  1.6794
  790MPD2    H211650   0.210   4.012  14.351 -0.9936 -3.3211  0.6235
  790MPD2    H311651   0.113   4.176  14.191 -0.6705  0.1773 -1.3351
  790MPD2     N11652   0.275   3.947  13.826 -0.2511 -0.4336  0.0585
  790MPD2    H511653   0.290   3.848  13.806 -1.4111 -0.3044 -1.5274
  790MPD2    N111654   0.359   3.802  14.286 -0.3980 -0.5022  0.5214
  790MPD2    H711655   0.330   3.813  14.382  0.6648 -2.3016  1.0541
  791MPD2     C11656   4.346   4.084  13.433  0.4511  0.3261  0.8499
  791MPD2    C111657   4.412   3.979  13.384 -0.3762 -0.0362 -0.6414
  791MPD2    C211658   4.356   3.923  13.269 -0.0376  0.3126 -0.4100
  791MPD2    C311659   4.235   3.963  13.219  0.4320 -0.2786 -0.6713
  791MPD2    C411660   4.170   4.070  13.281 -0.0869  0.4772 -0.1915
  791MPD2    C511661   4.228   4.126  13.389  0.3337  0.1482  0.0935
  791MPD2     H11662   4.418   3.851  13.216 -0.3547 -0.2683  0.0116
  791MPD2    H111663   4.075   4.112  13.252 -0.8421 -1.2840 -0.2586
  791MPD2    H211664   4.383   4.128  13.524 -0.4197 -0.5668  1.6389
  791MPD2    H311665   4.168   4.200  13.440  0.3730 -0.9186  1.6662
  791MPD2     N11666   4.179   3.902  13.107 -0.1770 -0.4077  0.4539
  791MPD2    H511667   4.210   3.810  13.076 -1.8267 -0.5279 -0.8278
  791MPD2    N111668   4.531   3.942  13.447 -0.3408  0.1568  0.2738
  791MPD2    H711669   4.563   3.994  13.528  1.3169  1.3470 -1.1330
  792MPD2     C11670   0.418   3.843  10.871 -0.4973 -0.7975  0.0291
  792MPD2    C111671   0.318   3.882  10.961  0.0503  0.2113 -0.6442
  792MPD2    C211672   0.197   3.837  10.934 -0.3744  0.6992  0.6762
  792MPD2    C311673   0.161   3.746  10.840  0.4612 -0.8522  0.2949
  792MPD2    C411674   0.260   3.707  10.753  0.3006  0.3867  0.3675
  792MPD2    C511675   0.390   3.752  10.774  0.0537  0.0861 -0.0266
  792MPD2     H11676   0.115   3.880  10.991 -2.6739 -1.0982 -1.2807
  792MPD2    H111677   0.243   3.629  10.680 -1.9200  1.6110 -0.4274
  792MPD2    H211678   0.519   3.878  10.887 -0.1321 -0.4603 -3.0197
  792MPD2    H311679   0.469   3.718  10.709 -0.9457 -0.1851 -1.0968
  792MPD2     N11680   0.030   3.693  10.834 -0.3261 -0.0075 -0.3484
  792MPD2    H511681   0.012   3.626  10.760 -4.4326 -0.8461  1.4452
  792MPD2    N111682   0.352   3.989  11.048 -0.0398 -0.4547  0.0669
  792MPD2    H711683   0.440   4.035  11.029  0.3178 -0.6209  1.2931
  793MPD2     C11684   4.539   3.207  10.213  0.3611 -0.7512  0.1804
  793MPD2    C111685   4.571   3.340  10.210 -0.6003  0.7046 -0.6649
  793MPD2    C211686   4.532   3.423  10.319  0.2718 -0.3684 -0.5553
  793MPD2    C311687   4.457   3.378  10.429 -0.2293 -0.3625  0.3867
  793MPD2    C411688   4.423   3.242  10.427  0.7503 -0.5621  0.3579
  793MPD2    C511689   4.469   3.165  10.323 -0.6068  0.0719 -0.1994
  793MPD2     H11690   4.553   3.530  10.320  2.3623 -0.7677 -0.3886
  793MPD2    H111691   4.372   3.193  10.509  0.4254 -1.5420 -0.4383
  793MPD2    H211692   4.589   3.130  10.156  0.3791 -0.5440 -0.0823
  793MPD2    H311693   4.451   3.059  10.339 -0.0754 -0.1281 -0.9330
  793MPD2     N11694   4.433   3.468  10.537  0.2453 -0.4007  0.4546
  793MPD2    H511695   4.479   3.558  10.530  0.1635 -0.2499  1.7365
  793MPD2    N111696   4.650   3.394  10.106 -0.0846 -0.4442  0.7999
  793MPD2    H711697   4.670   3.493  10.116  2.6093 -1.1096  1.9218
  794MPD2     C11698   4.452   3.014  17.689 -0.2416 -0.2751  0.1805
  794MPD2    C111699   4.384   2.898  17.681 -0.1803  0.1328 -0.6229
  794MPD2    C211700   4.350   2.854  17.552  0.5451 -0.4180 -0.4463
  794MPD2    C311701   4.364   2.930  17.442 -0.1685 -0.9464  0.4993
  794MPD2    C411702   4.438   3.048  17.460  0.1936 -0.3933  0.0571
  794MPD2    C511703   4.474   3.089  17.585  0.5197 -0.0211 -0.3581
  794MPD2     H11704   4.302   2.757  17.554  1.8491 -1.0768 -1.0344
  794MPD2    H111705   4.451   3.117  17.378 -1.5448  1.0840  1.0000
  794MPD2    H211706   4.501   3.046   0.084 -3.3109  0.3146  1.6423
  794MPD2    H311707   4.525   3.184  17.594  1.6859 -0.5470 -1.3550
  794MPD2     N11708   4.323   2.884  17.315 -0.1557 -0.0674  0.3393
  794MPD2    H511709   4.339   2.945  17.235  0.3437 -2.0170 -1.0342
  794MPD2    N111710   4.370   2.805   0.092 -0.5433  0.0997 -0.3370
  794MPD2    H711711   4.328   2.716   0.066  0.8891 -0.5879 -0.3071
  795MPD2     C11712   2.824   0.665  13.059  0.8254 -0.0618 -0.1895
  795MPD2    C111713   2.793   0.561  13.148  0.0401  0.6812  0.2158
  795MPD2    C211714   2.888   0.506  13.229 -0.0804  0.0942 -0.2107
  795MPD2    C311715   3.009   0.569  13.233 -0.1339 -0.0866 -0.1861
  795MPD2    C411716   3.033   0.676  13.153  0.0840 -0.8891 -0.3518
  795MPD2    C511717   2.940   0.726  13.074  1.0491  0.4016  0.0134
  795MPD2     H11718   2.859   0.424  13.293  1.5241 -0.0519  0.3277
  795MPD2    H111719   3.126   0.732  13.152 -0.3318 -0.1687  1.0497
  795MPD2    H211720   2.749   0.706  12.993 -2.3519 -1.1887  2.7461
  795MPD2    H311721   2.961   0.809  13.007  1.0465  1.0741  0.8410
  795MPD2     N11722   3.106   0.517  13.330  0.0995  0.5741 -0.1571
  795MPD2    H511723   3.068   0.485  13.418  0.7073 -0.5937 -0.3241
  795MPD2    N111724   2.666   0.493  13.142 -0.3005  0.0688  0.0262
  795MPD2    H711725   2.651   0.431  13.221  1.0422  0.0193  0.2540
  796MPD2     C11726   1.821   1.927  16.187 -0.2152  0.4504 -0.0911
  796MPD2    C111727   1.873   2.004  16.287  0.1722  0.5170  0.3173
  796MPD2    C211728   1.873   2.141  16.273 -0.3420  0.0874 -0.5427
  796MPD2    C311729   1.823   2.196  16.153  0.4352  0.0169  0.3202
  796MPD2    C411730   1.770   2.115  16.055 -0.5497  0.3982  0.5759
  796MPD2    C511731   1.780   1.976  16.069  0.3585 -0.4590 -0.5608
  796MPD2     H11732   1.898   2.204  16.357 -3.4451  0.2551  0.2632
  796MPD2    H111733   1.737   2.150  15.958 -1.7711  0.7319  1.1041
  796MPD2    H211734   1.807   1.820  16.200  1.5912  0.0847 -1.1314
  796MPD2    H311735   1.720   1.922  15.997 -0.4366 -0.1860 -0.1008
  796MPD2     N11736   1.836   2.333  16.134 -0.3746  0.1866 -0.0824
  796MPD2    H511737   1.888   2.383  16.205  0.1071 -0.5868  0.1065
  796MPD2    N111738   1.917   1.936  16.409  0.7209  0.5937 -0.0257
  796MPD2    H711739   1.908   1.835  16.412 -2.7617  0.9249  0.5518
  797MPD2     C11740   2.693   1.041  17.508 -0.1416  0.3303 -0.2538
  797MPD2    C111741   2.785   1.108  17.587 -0.2347 -1.0036 -0.5098
  797MPD2    C211742   2.790   1.245  17.593  0.0572  0.0427  0.2734
  797MPD2    C311743   2.705   1.315  17.506 -0.2374 -0.2471 -0.2207
  797MPD2    C411744   2.608   1.251  17.433 -0.1919  0.4872  0.3782
  797MPD2    C511745   2.600   1.110  17.430 -0.3746  0.0338 -0.1297
  797MPD2     H11746   2.870   1.285  17.654 -1.1229  1.3976  0.9494
  797MPD2    H111747   2.549   1.308  17.362 -0.7829 -1.0126 -0.3404
  797MPD2    H211748   2.682   0.934  17.506 -0.9864  0.4139 -0.0927
  797MPD2    H311749   2.533   1.056  17.364 -1.2264 -0.6681  1.3209
  797MPD2     N11750   2.717   1.456  17.480 -0.3767 -0.1486 -0.1624
  797MPD2    H511751   2.661   1.493  17.403 -2.2152 -1.2500  0.6533
  797MPD2    N111752   2.896   1.045  17.649 -0.0764 -0.8552  0.5337
  797MPD2    H711753   2.967   1.108  17.685  0.0191 -1.0545  0.6983
  798MPD2     C11754   3.401   1.592  17.554  0.7176 -0.2397 -0.0276
  798MPD2    C111755   3.270   1.553  17.580  1.1077 -0.8585 -0.2471
  798MPD2    C211756   3.235   1.421  17.609 -0.5434  0.4673  0.1277
  798MPD2    C311757   3.337   1.327  17.627  0.4969  0.5853  1.1277
  798MPD2    C411758   3.464   1.367  17.593 -0.0283  0.2249  0.0067
  798MPD2    C511759   3.498   1.492  17.557 -0.7026  0.4845  0.0385
  798MPD2     H11760   3.132   1.392  17.624 -0.3678  0.0353  0.4890
  798MPD2    H111761   3.553   1.306  17.587 -0.3074 -0.0808 -0.9991
  798MPD2    H211762   3.436   1.694  17.541  1.7037 -0.2760  2.3489
  798MPD2    H311763   3.604   1.513  17.541 -0.1954 -1.0433  1.4179
  798MPD2     N11764   3.296   1.206  17.672 -0.2235 -0.4411 -0.2459
  798MPD2    H511765   3.199   1.206   0.009 -0.1872 -1.8497 -0.1276
  798MPD2    N111766   3.155   1.640  17.573 -0.2120 -0.3889 -0.2225
  798MPD2    H711767   3.070   1.606  17.617 -0.0719  1.5255  1.5364
  799MPD2     C11768   1.767   3.332  15.036 -0.1729  0.0372 -0.5110
  799MPD2    C111769   1.692   3.263  14.945  0.3644  1.2980 -1.0613
  799MPD2    C211770   1.619   3.338  14.852 -0.0613 -0.2555 -0.0802
  799MPD2    C311771   1.611   3.478  14.852 -0.1315  0.1504 -0.5409
  799MPD2    C411772   1.679   3.542  14.953 -0.3792 -0.2779  0.0770
  799MPD2    C511773   1.754   3.470  15.040  0.3996  0.4769 -0.1939
  799MPD2     H11774   1.571   3.281  14.772  1.6552 -1.1503 -0.4653
  799MPD2    H111775   1.679   3.650  14.965  2.0788 -0.3671  0.8142
  799MPD2    H211776   1.817   3.281  15.117  1.6398 -0.4711 -1.9452
  799MPD2    H311777   1.793   3.519  15.129 -0.4706 -0.7046  0.8341
  799MPD2     N11778   1.569   3.556  14.745 -0.7439  0.8286 -0.1490
  799MPD2    H511779   1.576   3.656  14.762 -0.3211  1.0127 -1.3925
  799MPD2    N111780   1.685   3.124  14.947 -0.2036  1.1518  0.3413
  799MPD2    H711781   1.608   3.085  14.893 -0.1025  1.7496 -0.2370
  800MPD2     C11782   2.451   4.412  14.561 -0.6765 -0.4365  0.1701
  800MPD2    C111783   2.585   4.442  14.558 -0.0424 -0.4232 -0.0188
  800MPD2    C211784   2.647   4.432  14.440 -0.0466  0.1828 -0.6035
  800MPD2    C311785   2.592   4.383  14.321 -0.3417 -0.4743  0.4557
  800MPD2    C411786   2.454   4.350  14.330 -0.5436 -0.4493  0.0466
  800MPD2    C511787   2.392   4.360  14.455  0.6305 -0.3488 -0.7127
  800MPD2     H11788   2.752   4.460  14.435  0.0357 -0.3149 -1.9586
  800MPD2    H111789   2.400   4.305  14.247  0.5099 -1.8614  0.1286
  800MPD2    H211790   2.393   4.416  14.653  1.5517 -1.3282  1.6204
  800MPD2    H311791   2.290   4.326  14.468  0.1749  2.1479  2.3473
  800MPD2     N11792   2.668   4.368  14.201  0.4977 -0.1525 -0.1197
  800MPD2    H511793   2.764   4.403  14.200 -0.3042  2.0798  0.8593
  800MPD2    N111794   2.647   4.488  14.675  0.1415 -0.1089 -0.2875
  800MPD2    H711795   2.590   4.512  14.756  0.5858 -0.2652  0.0777
  801MPD2     C11796   2.444   0.242  15.198  0.3202 -0.3528  0.1752
  801MPD2    C111797   2.427   0.148  15.098  0.2505  0.3500  0.1207
  801MPD2    C211798   2.296   0.104  15.065  0.2848 -0.3265  0.1081
  801MPD2    C311799   2.185   0.169  15.124 -0.1443 -0.0060  0.3335
  801MPD2    C411800   2.209   0.254  15.228 -0.4968 -0.3768 -0.6911
  801MPD2    C511801   2.335   0.294  15.264 -0.9658  0.1832 -0.0992
  801MPD2     H11802   2.291   0.030  14.986 -0.0701 -0.0575 -0.1199
  801MPD2    H111803   2.128   0.285  15.293 -0.6226 -0.1794 -0.9449
  801MPD2    H211804   2.535   0.272  15.248  0.2972  2.6732 -1.5581
  801MPD2    H311805   2.353   0.357  15.350  1.2929 -0.6527  0.0437
  801MPD2     N11806   2.048   0.133  15.095 -0.5328  0.0917  0.3314
  801MPD2    H511807   1.976   0.187  15.141  0.3320 -0.4963  2.3904
  801MPD2    N111808   2.536   0.073  15.032 -0.6324 -1.2653  0.3718
  801MPD2    H711809   2.517   4.711  14.981 -2.2066  0.9475 -2.7892
  802MPD2     C11810   1.231   1.277   0.601  1.2053 -0.0151 -0.6945
  802MPD2    C111811   1.156   1.198   0.680  0.3056  0.1368  0.3108
  802MPD2    C211812   1.214   1.076   0.720  1.0314 -0.1131 -0.0495
  802MPD2    C311813   1.337   1.038   0.671  0.3054 -0.5330 -0.4411
  802MPD2    C411814   1.401   1.123   0.584 -1.1417  0.2793  0.1706
  802MPD2    C511815   1.349   1.244   0.544  0.9614  0.7607 -0.5637
  802MPD2     H11816   1.156   1.013   0.786 -2.1933  1.7495 -1.0642
  802MPD2    H111817   1.498   1.092   0.547 -1.7714 -0.6576 -0.6983
  802MPD2    H211818   1.190   1.370   0.563 -2.6962 -2.0766 -1.4997
  802MPD2    H311819   1.404   1.307   0.474  3.1945  1.0875  1.4910
  802MPD2     N11820   1.378   0.906   0.691 -0.0670 -0.5632  0.1321
  802MPD2    H511821   1.319   0.847   0.748 -0.9520 -0.1071 -0.3068
  802MPD2    N111822   1.024   1.235   0.722 -0.6056  0.0790 -0.6189
  802MPD2    H711823   0.976   1.162   0.773 -1.8966  1.6688  0.4335
  803MPD2     C11824   2.957   3.537  11.914  0.0254 -0.3141  0.0057
  803MPD2    C111825   3.036   3.633  11.986 -0.0647  0.0900 -0.2820
  803MPD2    C211826   3.007   3.641  12.118  0.4742  0.6693 -0.3139
  803MPD2    C311827   2.907   3.572  12.184 -0.0561  0.2772 -1.0730
  803MPD2    C411828   2.825   3.491  12.108  0.1356 -0.9766 -0.1596
  803MPD2    C511829   2.859   3.471  11.981  0.3164 -0.0320 -1.2799
  803MPD2     H11830   3.079   3.707  12.166  1.4629  0.4027 -1.4234
  803MPD2    H111831   2.736   3.445  12.149 -1.0672  3.7557  2.5467
  803MPD2    H211832   2.983   3.510  11.813 -1.3500 -0.9392 -0.1738
  803MPD2    H311833   2.795   3.406  11.923  1.6657 -1.2107 -1.4411
  803MPD2     N11834   2.883   3.578  12.327  0.7738 -0.4849  0.0029
  803MPD2    H511835   2.795   3.535  12.355  1.2390 -0.5410  1.3527
  803MPD2    N111836   3.150   3.707  11.948 -0.3897  1.1581  0.5392
  803MPD2    H711837   3.200   3.771  12.009  2.2962 -0.0388 -0.3766
  804MPD2     C11838   2.056   4.646  17.308 -0.7669  0.6794  0.0141
  804MPD2    C111839   2.079   4.626  17.440 -0.1872  0.1441  0.6731
  804MPD2    C211840   2.145   0.004  17.503  0.4724  0.4877  0.4362
  804MPD2    C311841   2.193   0.123  17.442 -0.7292 -0.4735  0.0925
  804MPD2    C411842   2.168   0.135  17.308  0.2895  1.2148  0.4742
  804MPD2    C511843   2.102   0.035  17.245  0.6215 -0.2185  0.0544
  804MPD2     H11844   2.176   4.709  17.606  0.1375 -1.7485  0.1413
  804MPD2    H111845   2.215   0.213  17.250 -2.2141  1.2070 -1.5521
  804MPD2    H211846   2.002   4.581  17.241 -0.0019  0.2963 -0.2286
  804MPD2    H311847   2.086   0.040  17.138 -0.9468 -2.2992  0.2043
  804MPD2     N11848   2.289   0.197  17.520 -0.0738  0.8434 -0.1820
  804MPD2    H511849   2.292   0.179  17.620 -0.1618  2.1983  0.0635
  804MPD2    N111850   2.048   4.506  17.508 -0.2620 -0.0444 -0.4411
  804MPD2    H711851   2.073   4.503  17.607  1.0764 -0.9800 -0.8078
  805MPD2     C11852   1.510   3.399  15.867 -0.4530  0.4966  0.4403
  805MPD2    C111853   1.604   3.449  15.774 -0.2399 -0.5672 -0.4362
  805MPD2    C211854   1.731   3.461  15.815  0.4982 -0.4107  0.0396
  805MPD2    C311855   1.776   3.420  15.938 -0.0287 -0.1147  0.5879
  805MPD2    C411856   1.680   3.389  16.029  0.6659 -0.0043  0.7932
  805MPD2    C511857   1.546   3.383  15.996 -0.4360  0.2686  0.4166
  805MPD2     H11858   1.812   3.498  15.753  1.2284  0.8820  1.7606
  805MPD2    H111859   1.706   3.380  16.134 -1.7316  0.8609  1.4692
  805MPD2    H211860   1.409   3.368  15.840 -0.4519  0.6876  0.2252
  805MPD2    H311861   1.465   3.356  16.063  0.7418 -1.0678  1.3077
  805MPD2     N11862   1.915   3.431  15.967 -0.5397  0.0265  0.2344
  805MPD2    H511863   1.976   3.461  15.892 -0.5120  1.8808  0.9910
  805MPD2    N111864   1.574   3.469  15.638  0.3863 -0.1375  0.1133
  805MPD2    H711865   1.648   3.502  15.576  2.1232 -1.7979  1.3097
  806MPD2     C11866   1.565   2.484   0.701  0.4573 -0.4003 -0.3848
  806MPD2    C111867   1.673   2.416   0.740  0.3706 -0.4895 -0.3030
  806MPD2    C211868   1.797   2.432   0.679  0.1188  0.5685 -0.5158
  806MPD2    C311869   1.809   2.510   0.571  0.0996 -0.1243  0.0791
  806MPD2    C411870   1.696   2.572   0.528  0.3750 -0.4579 -0.3244
  806MPD2    C511871   1.576   2.554   0.584 -0.6947  0.3793  0.5770
  806MPD2     H11872   1.884   2.389   0.727  0.7743  0.6077 -1.6699
  806MPD2    H111873   1.692   2.629   0.436  0.7069 -1.9057 -1.2155
  806MPD2    H211874   1.464   2.466   0.736  0.2134  0.1673 -0.7941
  806MPD2    H311875   1.491   2.605   0.541 -0.2787 -0.3390 -1.0770
  806MPD2     N11876   1.942   2.526   0.516 -0.2120  0.4575 -0.4554
  806MPD2    H511877   2.020   2.483   0.564 -0.7558  0.6326  0.5854
  806MPD2    N111878   1.654   2.331   0.846  0.0046 -0.1498  0.2972
  806MPD2    H711879   1.558   2.325   0.878  0.3069 -1.1964  1.0026
  807MPD2     C11880   1.219   2.290   1.449 -0.0510 -0.2103 -0.9944
  807MPD2    C111881   1.340   2.246   1.495  0.2225 -0.5356  0.0300
  807MPD2    C211882   1.352   2.230   1.634 -0.3574  0.5353  0.2377
  807MPD2    C311883   1.245   2.247   1.719  0.6552 -0.3283  0.8198
  807MPD2    C411884   1.128   2.312   1.669  0.2749 -0.1044 -0.5204
  807MPD2    C511885   1.118   2.332   1.535  0.0621  0.1047  0.2289
  807MPD2     H11886   1.446   2.191   1.669 -0.1929  0.8366  0.1360
  807MPD2    H111887   1.051   2.348   1.736 -0.1533  0.7151 -1.4318
  807MPD2    H211888   1.205   2.315   1.345  2.4132 -1.7056 -1.6951
  807MPD2    H311889   1.029   2.382   1.498  0.4923  0.8017  0.1323
  807MPD2     N11890   1.261   2.217   1.857 -0.0076 -0.4584  0.0042
  807MPD2    H511891   1.355   2.203   1.891  0.2176 -1.5719 -1.0968
  807MPD2    N111892   1.451   2.209   1.413  0.7214 -0.4477 -0.5546
  807MPD2    H711893   1.531   2.175   1.464  0.3512 -0.6285 -0.0928
  808MPD2     C11894   2.433   4.152   9.839  0.3888 -0.6115 -0.4182
  808MPD2    C111895   2.476   4.225   9.950  0.4336  0.2838  0.4887
  808MPD2    C211896   2.535   4.352   9.932  0.3413  0.3416 -0.7505
  808MPD2    C311897   2.560   4.397   9.807  0.2053  0.4403 -0.3437
  808MPD2    C411898   2.536   4.314   9.704  0.7263 -0.3021 -0.3466
  808MPD2    C511899   2.455   4.200   9.717  0.3716  0.2702  0.4010
  808MPD2     H11900   2.561   4.416  10.015  0.1917 -1.3240  0.5700
  808MPD2    H111901   2.561   4.344   9.602 -0.2617 -2.4441 -1.2141
  808MPD2    H211902   2.378   4.059   9.847 -1.2817  0.3271 -0.9292
  808MPD2    H311903   2.429   4.145   9.627  0.0002  0.1539  0.5771
  808MPD2     N11904   2.627   4.514   9.780  0.3188 -0.1768  0.3793
  808MPD2    H511905   2.658   4.527   9.685 -0.6828 -2.4048 -0.2638
  808MPD2    N111906   2.453   4.174  10.080 -0.2294 -0.4351  0.1337
  808MPD2    H711907   2.499   4.224  10.155  0.8193 -0.3018 -0.6123
  809MPD2     C11908   3.552   4.677   9.613  0.3584 -0.5477 -0.1580
  809MPD2    C111909   3.473   4.608   9.702  0.3440  0.0644 -0.2203
  809MPD2    C211910   3.347   4.648   9.718  0.5133  0.1362  0.0576
  809MPD2    C311911   3.296   0.023   9.636 -0.1858 -0.4819  0.4919
  809MPD2    C411912   3.371   0.087   9.543 -0.2003 -0.1065  0.4363
  809MPD2    C511913   3.505   0.060   9.533 -0.1904 -0.2492 -0.5254
  809MPD2     H11914   3.289   4.598   9.795  0.2818 -2.4077 -1.7785
  809MPD2    H111915   3.327   0.159   9.475  1.0827  0.3580  0.0994
  809MPD2    H211916   3.658   4.662   9.597  0.2073 -1.2719 -0.4491
  809MPD2    H311917   3.564   0.120   9.464 -0.5530 -0.9561 -1.4428
  809MPD2     N11918   3.158   0.062   9.651  0.1219  0.3764  0.4286
  809MPD2    H511919   3.125   0.143   9.600  0.8947  0.7706  0.5566
  809MPD2    N111920   3.519   4.501   9.782 -0.0917  0.1919 -0.3341
  809MPD2    H711921   3.462   4.461   9.855  1.6551 -0.7891  0.4808
  810MPD2     C11922   1.906   4.100  10.779 -0.3723  0.1681  0.1259
  810MPD2    C111923   1.889   4.114  10.640 -0.1244  0.0680  0.8077
  810MPD2    C211924   1.908   4.242  10.583 -0.2177 -0.1241  0.1486
  810MPD2    C311925   1.949   4.350  10.664  0.3898  0.0490 -0.3396
  810MPD2    C411926   1.968   4.330  10.801 -0.4011  0.4165  0.2596
  810MPD2    C511927   1.940   4.206  10.857 -0.4165  0.1844 -0.5838
  810MPD2     H11928   1.889   4.257  10.477  0.8115 -0.0669 -0.0216
  810MPD2    H111929   2.005   4.405  10.870  1.9854 -0.9058  0.4430
  810MPD2    H211930   1.896   4.000  10.818  0.1204  1.1263  2.6759
  810MPD2    H311931   1.965   4.191  10.961  1.1833  2.6549 -0.5879
  810MPD2     N11932   1.952   4.483  10.611 -0.5107  0.1576  0.8112
  810MPD2    H511933   1.976   4.555  10.679 -1.3603 -0.5413  1.8465
  810MPD2    N111934   1.868   3.988  10.573 -0.2602 -0.1831 -0.0260
  810MPD2    H711935   1.859   3.904  10.630  0.8565  0.8214  1.6168
  811MPD2     C11936   1.510   3.777   9.838  0.0870  0.8468 -0.1218
  811MPD2    C111937   1.600   3.856   9.901  0.3106 -0.1567 -0.2214
  811MPD2    C211938   1.614   3.989   9.860  0.3381  0.9779 -0.4527
  811MPD2    C311939   1.557   4.038   9.751 -1.0352 -0.3594 -0.1329
  811MPD2    C411940   1.469   3.956   9.687  0.2053 -0.5585  0.0787
  811MPD2    C511941   1.447   3.825   9.726 -0.1904  0.2365  0.0675
  811MPD2     H11942   1.688   4.047   9.915 -0.2035  0.1700  1.1454
  811MPD2    H111943   1.421   3.988   9.595 -0.1021 -2.3704 -0.3871
  811MPD2    H211944   1.483   3.674   9.859  1.6061  0.8920  2.0330
  811MPD2    H311945   1.389   3.757   9.666 -2.5285  0.0065  2.5893
  811MPD2     N11946   1.583   4.177   9.723  0.3248  0.6657 -0.2634
  811MPD2    H511947   1.631   4.218   9.803 -1.5538  1.7744  0.2836
  811MPD2    N111948   1.654   3.828  10.032 -0.1195 -0.7050  0.3991
  811MPD2    H711949   1.712   3.902  10.070 -0.1155 -1.0296  1.0236
  812MPD2     C11950   1.273   3.927  12.495 -0.2803 -0.2540  0.3396
  812MPD2    C111951   1.140   3.918  12.523 -0.1217 -0.0787  0.8997
  812MPD2    C211952   1.096   3.820  12.612  0.2401 -0.1546 -0.8620
  812MPD2    C311953   1.190   3.733  12.668  0.0664 -0.1347  0.3006
  812MPD2    C411954   1.323   3.730  12.631 -0.3498 -0.0434 -0.2794
  812MPD2    C511955   1.360   3.831  12.547 -0.5653  0.0624 -0.8462
  812MPD2     H11956   0.993   3.805  12.643  0.8033  1.9340  1.9806
  812MPD2    H111957   1.398   3.659  12.665 -0.3279  0.8830  1.6117
  812MPD2    H211958   1.313   3.998  12.424  0.8180  1.0759  2.2991
  812MPD2    H311959   1.464   3.817  12.520  0.1165 -0.6248  2.1235
  812MPD2     N11960   1.142   3.647  12.767 -0.1800  0.2754  0.1344
  812MPD2    H511961   1.042   3.643  12.787  0.1180 -1.5175  1.2406
  812MPD2    N111962   1.059   4.024  12.469  1.0623 -0.7077 -0.2232
  812MPD2    H711963   1.109   4.094  12.415  0.3150 -0.3377 -0.4288
  813MPD2     C11964   0.745   1.014  13.524  0.6208  0.3117 -0.4869
  813MPD2    C111965   0.725   1.148  13.516  0.3048 -0.7179 -0.6787
  813MPD2    C211966   0.594   1.191  13.531  0.6936  0.1518  0.3537
  813MPD2    C311967   0.496   1.108  13.586  0.2993  0.4352 -0.3651
  813MPD2    C411968   0.518   0.974  13.598  0.4670 -0.0755  0.0609
  813MPD2    C511969   0.646   0.930  13.562 -0.1817  0.0279 -0.0094
  813MPD2     H11970   0.565   1.293  13.511 -2.7073 -1.2037 -1.7863
  813MPD2    H111971   0.455   0.901  13.647 -0.0374 -1.4837 -2.6805
  813MPD2    H211972   0.846   0.977  13.513  0.1188 -1.4448  0.7674
  813MPD2    H311973   0.674   0.826  13.573 -4.0103 -0.7306  2.8893
  813MPD2     N11974   0.370   1.168  13.608  0.2801  0.0128 -0.0479
  813MPD2    H511975   0.366   1.267  13.587 -0.5493  0.4840  2.2640
  813MPD2    N111976   0.835   1.229  13.469  0.3635 -0.6652  0.3005
  813MPD2    H711977   0.920   1.178  13.445  1.3276  1.2774 -0.4603
  814MPD2     C11978   0.757   2.670  12.827 -0.1388  0.7023 -0.3879
  814MPD2    C111979   0.828   2.661  12.701  0.3815 -0.6114  0.0814
  814MPD2    C211980   0.899   2.772  12.665  0.7748 -0.2551 -0.4046
  814MPD2    C311981   0.893   2.891  12.738 -0.1928 -0.7004 -0.0637
  814MPD2    C411982   0.802   2.904  12.840 -0.2576 -0.1097  0.1794
  814MPD2    C511983   0.740   2.790  12.889 -0.2579 -0.0685 -0.0723
  814MPD2     H11984   0.950   2.767  12.570  3.3009  1.3994  0.8515
  814MPD2    H111985   0.785   2.992  12.902  0.6091  0.0944  0.1214
  814MPD2    H211986   0.690   2.599  12.871 -0.8161  2.3006  1.1392
  814MPD2    H311987   0.680   2.796  12.980 -2.2702 -0.6078 -1.3591
  814MPD2     N11988   0.956   3.012  12.687 -0.2828 -0.8824 -0.3251
  814MPD2    H511989   0.919   3.102  12.715  0.7215 -0.2067 -1.1403
  814MPD2    N111990   0.823   2.547  12.615 -0.0334  0.0951 -0.0326
  814MPD2    H711991   0.851   2.554  12.518 -1.2360  0.8024 -0.3262
  815MPD2     C11992   1.095   0.504  12.396 -0.1594  0.9491  0.1973
  815MPD2    C111993   1.007   0.520  12.286  0.1067 -0.0158 -0.0843
  815MPD2    C211994   0.870   0.530  12.313 -0.0790  0.0133  0.4329
  815MPD2    C311995   0.821   0.513  12.443  0.1634 -0.0503 -0.2092
  815MPD2    C411996   0.911   0.513  12.553 -0.2278 -0.4735 -0.1934
  815MPD2    C511997   1.045   0.511  12.523  0.2507 -0.2591 -0.0604
  815MPD2     H11998   0.799   0.522  12.232 -0.7158 -0.3595  1.0278
  815MPD2    H111999   0.877   0.509  12.656 -0.8807  4.2601 -0.2365
  815MPD2    H212000   1.201   0.518  12.385  0.1349 -0.0276  1.7247
  815MPD2    H312001   1.106   0.530  12.610 -1.2595  2.4754  0.3927
  815MPD2     N12002   0.684   0.496  12.457 -0.1714  0.0966 -0.7731
  815MPD2    H512003   0.632   0.521  12.374 -1.4660 -0.1152 -0.0102
  815MPD2    N112004   1.052   0.506  12.154 -0.1699  0.1332  0.0439
  815MPD2    H712005   1.150   0.480  12.150  0.5569  2.9040 -0.4778
  816MPD2     C12006   0.544   4.108   0.006  0.9557  0.5060  0.1556
  816MPD2    C112007   0.591   4.234   0.010 -0.4517 -0.8378  0.3873
  816MPD2    C212008   0.722   4.258  17.671 -0.0054 -0.1923 -0.0820
  816MPD2    C312009   0.803   4.152  17.635  0.5347  0.4360  0.1001
  816MPD2    C412010   0.752   4.024  17.638  0.1250  0.2494 -0.5477
  816MPD2    C512011   0.622   4.001  17.673 -0.5134  1.1351  0.1469
  816MPD2     H12012   0.763   4.358  17.659  0.5721 -0.3298  0.7318
  816MPD2    H112013   0.807   3.934  17.614 -1.7144 -1.1429  0.4196
  816MPD2    H212014   0.438   4.091   0.021  0.9721  1.3435  1.1610
  816MPD2    H312015   0.583   3.900  17.682  0.6369  0.6732  0.0203
  816MPD2     N12016   0.927   4.179  17.573 -0.5618  0.2108 -0.0711
  816MPD2    H512017   0.949   4.274  17.546 -2.0378  1.0961  1.8025
  816MPD2    N112018   0.498   4.335   0.047 -0.7714  0.3292  0.3030
  816MPD2    H712019   0.400   4.310   0.031 -0.4342 -0.8179  0.0485
  817MPD2     C12020   0.332   1.593  10.224 -0.2338  0.8055  0.6437
  817MPD2    C112021   0.328   1.527  10.102 -0.3289  0.1127  0.6279
  817MPD2    C212022   0.306   1.597   9.988  0.1659  0.0113  0.2952
  817MPD2    C312023   0.300   1.738   9.990 -0.2309  0.3978 -0.2748
  817MPD2    C412024   0.307   1.797  10.112 -0.6047  0.0979 -0.5499
  817MPD2    C512025   0.321   1.726  10.227 -0.2202 -0.6113  0.3136
  817MPD2     H12026   0.301   1.540   9.897  0.0229  0.6062 -0.0719
  817MPD2    H112027   0.287   1.903  10.122  0.2688  0.1128  0.9010
  817MPD2    H212028   0.360   1.539  10.314  0.9021  1.3657  0.6251
  817MPD2    H312029   0.324   1.778  10.322 -0.1597  0.6748 -0.3921
  817MPD2     N12030   0.288   1.815   9.874 -0.1388 -0.1018 -0.4849
  817MPD2    H512031   0.284   1.758   9.790  0.3170 -0.7696 -0.0607
  817MPD2    N112032   0.350   1.388  10.090 -0.9984 -0.1580  0.1494
  817MPD2    H712033   0.362   1.347   9.998  1.1700 -1.2054  0.8819
  818MPD2     C12034   4.468   1.139  10.832  0.1100  0.5710 -0.4038
  818MPD2    C112035   4.358   1.186  10.769  0.2783  0.0932  0.0531
  818MPD2    C212036   4.248   1.110  10.739 -0.0445 -0.5584 -0.0226
  818MPD2    C312037   4.249   0.981  10.784  1.0316  0.2043  0.6526
  818MPD2    C412038   4.359   0.924  10.838  0.3434 -0.7421 -0.4975
  818MPD2    C512039   4.459   1.010  10.871 -0.5103 -0.1147  0.0688
  818MPD2     H12040   4.165   1.157  10.687 -2.1458 -2.0422  1.9829
  818MPD2    H112041   4.378   0.821  10.865  0.0897 -0.9124 -0.9824
  818MPD2    H212042   4.557   1.199  10.847  1.1552 -0.9932 -0.4217
  818MPD2    H312043   4.535   0.964  10.932  1.0341  0.4981 -1.3971
  818MPD2     N12044   4.136   0.897  10.774  0.1661  0.3624  0.0774
  818MPD2    H512045   4.140   0.805  10.817 -1.5474 -0.3369 -1.2758
  818MPD2    N112046   4.345   1.317  10.718 -0.5619 -0.1213 -0.3269
  818MPD2    H712047   4.250   1.345  10.696 -0.5291  0.2406 -0.0060
  819MPD2     C12048   2.052   2.834  15.963  0.0412  0.2848  0.2213
  819MPD2    C112049   2.104   2.747  15.869  0.5705 -0.4475 -0.0111
  819MPD2    C212050   2.222   2.677  15.899 -0.3101  0.1301 -0.0251
  819MPD2    C312051   2.297   2.712  16.005  0.3415 -0.1010  0.0144
  819MPD2    C412052   2.244   2.798  16.099 -0.1576 -0.0760 -0.0161
  819MPD2    C512053   2.123   2.856  16.075 -0.6925 -0.4114  0.7478
  819MPD2     H12054   2.278   2.615  15.830 -1.5648  1.3563 -2.1805
  819MPD2    H112055   2.301   2.833  16.185 -0.7950 -1.6493  1.0564
  819MPD2    H212056   1.953   2.877  15.950 -0.1703 -0.2366  0.0697
  819MPD2    H312057   2.087   2.924  16.151  0.5576 -0.7932  1.6697
  819MPD2     N12058   2.423   2.642  16.030  0.3951 -0.1999 -0.5028
  819MPD2    H512059   2.445   2.573  15.959 -0.5025  0.1137 -1.0947
  819MPD2    N112060   2.023   2.730  15.754 -0.0039  0.0741 -0.3296
  819MPD2    H712061   1.939   2.785  15.743 -0.1753 -0.3439 -1.0888
  820MPD2     C12062   1.292   2.993  15.141  0.2088  0.0931  0.9973
  820MPD2    C112063   1.404   3.054  15.201  0.0449  0.2648  0.0786
  820MPD2    C212064   1.489   2.966  15.272  0.4196  0.7590  0.0516
  820MPD2    C312065   1.463   2.834  15.284 -1.3392  0.6794  0.0382
  820MPD2    C412066   1.350   2.785  15.237 -0.0028 -0.0641 -0.2358
  820MPD2    C512067   1.268   2.862  15.157 -0.9285 -0.4720 -0.5466
  820MPD2     H12068   1.582   3.003  15.314 -0.4421  1.4196  1.3637
  820MPD2    H112069   1.321   2.682  15.256  0.0487 -0.1234 -0.4648
  820MPD2    H212070   1.214   3.053  15.096  1.2865  0.7289 -0.0232
  820MPD2    H312071   1.172   2.819  15.128 -0.2792 -0.8403 -2.1613
  820MPD2     N12072   1.556   2.748  15.347 -0.1311  0.0692  0.1675
  820MPD2    H512073   1.550   2.649  15.324 -2.1793  0.5769 -1.5612
  820MPD2    N112074   1.421   3.189  15.178 -0.6064 -0.5947  0.2715
  820MPD2    H712075   1.351   3.248  15.135  0.0836  0.2358  0.3000
  821MPD2     C12076   2.752   4.486  13.342  0.2770  0.2832  0.4918
  821MPD2    C112077   2.871   4.449  13.409 -0.3233  0.3107 -0.6102
  821MPD2    C212078   2.996   4.444  13.345 -0.0110  0.8788 -0.0228
  821MPD2    C312079   3.014   4.488  13.214 -0.1188 -0.5244 -0.6893
  821MPD2    C412080   2.900   4.534  13.150 -0.4754  0.2624 -0.0348
  821MPD2    C512081   2.778   4.535  13.214 -0.2112 -0.0217 -0.9691
  821MPD2     H12082   3.083   4.412  13.400 -1.0955 -0.1461  1.1043
  821MPD2    H112083   2.898   4.585  13.055 -0.4325  2.0637  0.9312
  821MPD2    H212084   2.650   4.500  13.374 -0.1841 -0.0405 -0.8293
  821MPD2    H312085   2.692   4.558  13.152 -0.2078  1.5007 -0.4041
  821MPD2     N12086   3.135   4.500  13.142 -0.4730  0.6212  0.0107
  821MPD2    H512087   3.127   4.524  13.044  0.5373 -1.3138 -0.5366
  821MPD2    N112088   2.859   4.424  13.550 -0.4100  0.2691  0.1345
  821MPD2    H712089   2.942   4.388  13.596 -0.1214  0.7439 -0.0161
  822MPD2     C12090   2.947   4.351  15.986  0.0937 -0.2072  0.0248
  822MPD2    C112091   2.945   4.259  16.091 -0.2738  0.2951  0.4483
  822MPD2    C212092   2.859   4.279  16.202  0.2457 -0.1860 -0.0983
  822MPD2    C312093   2.771   4.390  16.205 -0.1156 -0.0967 -0.6299
  822MPD2    C412094   2.773   4.477  16.094 -0.3905  0.0760 -0.3027
  822MPD2    C512095   2.857   4.455  15.989  0.2740 -0.0302 -0.1114
  822MPD2     H12096   2.864   4.215  16.289  1.2720 -0.5508 -0.4289
  822MPD2    H112097   2.705   4.561  16.080 -0.3694  0.1781  0.1965
  822MPD2    H212098   3.003   4.343  15.894  1.4167  0.7797  0.7415
  822MPD2    H312099   2.865   4.527  15.909  1.6863  1.9802  1.8264
  822MPD2     N12100   2.693   4.410  16.325 -0.2562  0.1026 -0.2234
  822MPD2    H512101   2.702   4.344  16.401 -2.1269  0.9973  0.7656
  822MPD2    N112102   3.039   4.160  16.106  0.6792 -0.2337  0.4993
  822MPD2    H712103   3.014   4.096  16.181 -2.0815  0.9505  0.5615
  823MPD2     C12104   2.278   4.423  17.094  1.0055  0.1649  0.6868
  823MPD2    C112105   2.340   4.369  16.987 -0.2083  1.0341 -0.5012
  823MPD2    C212106   2.410   4.251  17.008 -0.8803 -0.1913 -0.5993
  823MPD2    C312107   2.427   4.198  17.138  0.3569  0.4151 -0.4110
  823MPD2    C412108   2.374   4.267  17.245 -0.3444  0.2072  0.4015
  823MPD2    C512109   2.288   4.372  17.220 -0.1970 -0.3052 -0.3939
  823MPD2     H12110   2.430   4.199  16.915  3.2602 -0.5571  0.4903
  823MPD2    H112111   2.381   4.234  17.348  0.0881 -1.9577 -0.3120
  823MPD2    H212112   2.210   4.507  17.084  0.5907 -0.3485 -0.7462
  823MPD2    H312113   2.236   4.420  17.301  0.3326  0.2353 -0.3760
  823MPD2     N12114   2.514   4.087  17.166  0.1661 -0.4909 -0.1773
  823MPD2    H512115   2.502   4.036  17.252  0.9193  0.6111  0.5848
  823MPD2    N112116   2.327   4.429  16.861 -0.1238 -0.2913 -0.0887
  823MPD2    H712117   2.286   4.521  16.862  1.1683  0.3145 -2.1504
  824MPD2     C12118   3.204   3.388  15.911  0.5992 -0.5898  0.5344
  824MPD2    C112119   3.330   3.443  15.941 -0.2130  0.3320  0.3446
  824MPD2    C212120   3.449   3.372  15.920  0.2774  0.3427  0.3037
  824MPD2    C312121   3.446   3.245  15.866 -0.7122 -0.4861 -0.2471
  824MPD2    C412122   3.317   3.191  15.835  0.1547 -0.2387  0.3720
  824MPD2    C512123   3.197   3.262  15.866  0.3125 -0.6077 -0.1771
  824MPD2     H12124   3.543   3.422  15.941  0.1106  1.0506 -0.6392
  824MPD2    H112125   3.299   3.094  15.789 -1.9711  0.8048 -0.9945
  824MPD2    H212126   3.114   3.448  15.913  0.9814  0.0326 -0.9281
  824MPD2    H312127   3.106   3.207  15.845 -0.6104  0.4410  1.0757
  824MPD2     N12128   3.571   3.178  15.844 -0.2347 -0.1767  0.3188
  824MPD2    H512129   3.657   3.229  15.858  0.1144 -0.2844 -1.3722
  824MPD2    N112130   3.349   3.575  15.993 -0.2171  0.4757 -0.0232
  824MPD2    H712131   3.437   3.601  16.037 -0.3964 -2.4801  2.0587
  825MPD2     C12132   4.063   3.159  15.170  0.0289 -0.3375 -0.5303
  825MPD2    C112133   4.039   3.215  15.294 -0.3401 -0.2930 -0.1569
  825MPD2    C212134   4.073   3.350  15.317 -0.6765 -0.2253 -0.2824
  825MPD2    C312135   4.135   3.422  15.212 -0.0950  0.4968 -0.5545
  825MPD2    C412136   4.149   3.364  15.092  0.0404 -0.4026 -0.7782
  825MPD2    C512137   4.119   3.235  15.073  0.5035 -0.0230  0.2491
  825MPD2     H12138   4.050   3.412  15.403  1.4582  0.6847 -0.3793
  825MPD2    H112139   4.186   3.421  15.007  1.3952  0.4606  0.3789
  825MPD2    H212140   4.049   3.052  15.159  1.6077 -0.6498  0.4411
  825MPD2    H312141   4.133   3.200  14.972 -0.6866  2.7578 -0.8875
  825MPD2     N12142   4.156   3.564  15.222  0.2790  0.0706  0.1525
  825MPD2    H512143   4.198   3.597  15.137 -0.9399 -1.5883 -1.1104
  825MPD2    N112144   3.977   3.140  15.391  0.0305 -0.7422 -0.1215
  825MPD2    H712145   3.969   3.041  15.370  0.0494 -0.2516 -2.4110
  826MPD2     C12146   3.883   3.567  13.949 -0.4139  0.1967  0.4263
  826MPD2    C112147   3.820   3.617  13.835 -0.1635 -0.0163  0.0827
  826MPD2    C212148   3.716   3.714  13.837 -0.1605 -0.1674 -0.2446
  826MPD2    C312149   3.666   3.751  13.962 -0.8180  0.0957 -0.9725
  826MPD2    C412150   3.719   3.683  14.076 -0.3854 -0.8121 -0.7373
  826MPD2    C512151   3.832   3.606  14.070  0.0610  0.5207 -0.2454
  826MPD2     H12152   3.671   3.750  13.745  1.1115  0.6424 -0.5534
  826MPD2    H112153   3.683   3.701  14.177 -0.3127 -1.4331 -0.6013
  826MPD2    H212154   3.973   3.507  13.955  0.8713  1.8540 -2.0290
  826MPD2    H312155   3.878   3.581  14.165 -1.0681  1.8858  0.6570
  826MPD2     N12156   3.556   3.837  13.985 -0.2004  0.2238 -0.6022
  826MPD2    H512157   3.535   3.856  14.083  2.7091  0.3067  0.0122
  826MPD2    N112158   3.875   3.563  13.721  0.1773  0.1656  0.0991
  826MPD2    H712159   3.952   3.498  13.723 -0.0292 -0.0753  0.3453
  827MPD2     C12160   4.000   0.444  10.487  0.3661 -0.0060  0.6753
  827MPD2    C112161   4.063   0.324  10.508 -0.3975 -0.2808 -0.8938
  827MPD2    C212162   4.035   0.235  10.411 -0.1313 -0.2543 -0.1766
  827MPD2    C312163   3.969   0.264  10.294  0.7960 -0.1991 -0.1132
  827MPD2    C412164   3.911   0.388  10.280 -0.0118  0.3593 -0.1196
  827MPD2    C512165   3.929   0.474  10.377 -0.3068  0.1558  0.2924
  827MPD2     H12166   4.084   0.138  10.410 -2.8686 -1.6821  1.7193
  827MPD2    H112167   3.863   0.423  10.189 -0.0431  0.8121  0.0702
  827MPD2    H212168   4.012   0.526  10.557  1.1276 -0.5956  1.2422
  827MPD2    H312169   3.881   0.570  10.357  0.7657  0.5048 -0.5764
  827MPD2     N12170   3.961   0.165  10.199 -0.5801 -0.4102  0.0326
  827MPD2    H512171   4.001   0.075  10.224  0.2816 -0.1218 -0.3210
  827MPD2    N112172   4.148   0.305  10.616 -0.9267  0.2397 -0.5903
  827MPD2    H712173   4.159   0.382  10.682 -1.4806  1.6845 -2.1931
  828MPD2     C12174   2.993   0.159  12.182 -0.0130  0.7368 -0.9470
  828MPD2    C112175   2.950   0.048  12.100  0.3242  0.1564  0.5043
  828MPD2    C212176   3.042   0.001  12.006  0.4603  0.1285  0.4160
  828MPD2    C312177   3.167   0.069  11.981 -0.0145  1.4575 -0.4508
  828MPD2    C412178   3.198   0.169  12.066 -0.2839 -0.2217 -0.0930
  828MPD2    C512179   3.119   0.201  12.168  0.0464  0.1843  0.3970
  828MPD2     H12180   3.027   4.634  11.948  0.1101  0.4399  0.0202
  828MPD2    H112181   3.285   0.233  12.067 -1.1438  0.9662 -2.3915
  828MPD2    H212182   2.922   0.206  12.249  1.7311  0.9940  0.7184
  828MPD2    H312183   3.159   0.272  12.240  0.0514  2.1923 -1.5671
  828MPD2     N12184   3.262   0.017  11.901 -0.7669 -0.1332  0.0927
  828MPD2    H512185   3.351   0.066  11.913 -1.0580  0.1381  1.1689
  828MPD2    N112186   2.824   4.707  12.115 -0.8339 -0.3563 -0.2672
  828MPD2    H712187   2.807   4.627  12.055 -0.2890 -0.5966 -0.0973
  829MPD2     C12188   2.168   0.032  11.463  0.8977  0.2898  0.6344
  829MPD2    C112189   2.091   0.084  11.561 -0.4485 -0.0890 -0.3233
  829MPD2    C212190   2.144   0.054  11.689 -0.5744  0.2091  0.1266
  829MPD2    C312191   2.250   4.690  11.724 -0.1997  0.1169  0.0141
  829MPD2    C412192   2.300   4.620  11.615  0.3777  0.3468 -0.9251
  829MPD2    C512193   2.263   4.657  11.495 -0.7049  0.2410 -0.6949
  829MPD2     H12194   2.094   0.110  11.768  1.7982  1.8046  0.5084
  829MPD2    H112195   2.379   4.548  11.630  0.3505  0.5788  0.2951
  829MPD2    H212196   2.149   0.050  11.357  0.0354 -2.4334  0.3060
  829MPD2    H312197   2.308   4.608  11.409  0.4976  1.7075 -0.9067
  829MPD2     N12198   2.296   4.662  11.864 -0.3423 -0.1644  0.4018
  829MPD2    H512199   2.247   4.705  11.943 -1.9671  0.9250 -1.1882
  829MPD2    N112200   1.986   0.169  11.528  1.0701 -0.1925 -0.3107
  829MPD2    H712201   1.957   0.179  11.431 -0.9907  0.4692  0.3771
  830MPD2     C12202   3.267   2.531  15.897 -0.9560 -0.1002  0.0146
  830MPD2    C112203   3.151   2.587  15.851 -0.3962  0.2723 -0.6251
  830MPD2    C212204   3.151   2.690  15.763  0.4785  0.7112 -0.2000
  830MPD2    C312205   3.262   2.731  15.700  0.0042 -1.1219 -0.0868
  830MPD2    C412206   3.379   2.672  15.742  0.3166  0.4639 -0.6370
  830MPD2    C512207   3.379   2.578  15.843  0.1752 -0.2709  0.2769
  830MPD2     H12208   3.059   2.741  15.738 -0.3679 -0.5951  0.2716
  830MPD2    H112209   3.474   2.691  15.693  0.4171 -2.5773 -1.6163
  830MPD2    H212210   3.269   2.445  15.964  0.6569  0.9720  1.3417
  830MPD2    H312211   3.477   2.539  15.870  0.3285  0.3559  0.6102
  830MPD2     N12212   3.263   2.830  15.601 -0.9419  0.0245  0.2005
  830MPD2    H512213   3.348   2.866  15.558 -1.3678  1.0645  0.2107
  830MPD2    N112214   3.032   2.536  15.905 -0.4431  0.0756  0.1180
  830MPD2    H712215   3.046   2.475  15.985  2.3418  1.1868  0.4725
  831MPD2     C12216   2.865   4.544  16.729 -0.5414 -0.3493  0.1325
  831MPD2    C112217   2.887   4.466  16.616 -0.9100  0.1836 -0.0772
  831MPD2    C212218   2.820   4.346  16.592 -0.2496 -0.2424  0.0577
  831MPD2    C312219   2.732   4.299  16.688 -0.1579 -0.4672  0.0296
  831MPD2    C412220   2.718   4.372  16.805 -0.7239 -0.2177 -0.3925
  831MPD2    C512221   2.780   4.495  16.820  0.3162  0.9911  0.0097
  831MPD2     H12222   2.841   4.282  16.507 -2.8971 -0.2279 -0.6030
  831MPD2    H112223   2.654   4.333  16.884  1.0453 -2.7606 -0.2030
  831MPD2    H212224   2.910   4.642  16.734  1.6887 -1.4158  0.9531
  831MPD2    H312225   2.758   4.547  16.913  2.3798 -1.8311  2.0720
  831MPD2     N12226   2.661   4.177  16.671  0.7246  0.4884 -0.7138
  831MPD2    H512227   2.611   4.145  16.753  0.2140 -1.9514 -1.9771
  831MPD2    N112228   2.991   4.508  16.528  0.2814 -0.1602  0.4328
  831MPD2    H712229   3.025   4.603  16.530 -0.6689  0.2336 -2.2086
  832MPD2     C12230   1.349   0.629   0.130 -0.2594  0.3892  0.2584
  832MPD2    C112231   1.308   0.755   0.115 -0.4924  0.3577  0.2925
  832MPD2    C212232   1.203   0.778   0.030 -0.3210 -0.2336 -0.2945
  832MPD2    C312233   1.147   0.675  17.659 -0.1029 -0.4673  0.3221
  832MPD2    C412234   1.180   0.544   0.001  0.7817  0.2123  0.8238
  832MPD2    C512235   1.279   0.516   0.096 -0.1953  0.4019  0.4878
  832MPD2     H12236   1.177   0.880   0.001 -0.3942  0.6481  2.8475
  832MPD2    H112237   1.121   0.462  17.660  2.0774 -1.3384  2.1706
  832MPD2    H212238   1.426   0.604   0.202  1.5384 -1.3288 -2.2768
  832MPD2    H312239   1.299   0.421   0.143  0.7523  0.8186  0.9134
  832MPD2     N12240   1.040   0.680  17.563  0.2174  0.3268 -0.0881
  832MPD2    H512241   0.986   0.597  17.545 -0.0693  1.0809 -2.6130
  832MPD2    N112242   1.384   0.858   0.167  0.1262  0.5155 -0.3267
  832MPD2    H712243   1.458   0.823   0.226 -0.5238  1.1264  0.8447
  833MPD2     C12244   3.161   2.738  13.221  0.3168  0.3322  0.5877
  833MPD2    C112245   3.243   2.806  13.136 -0.3049  0.1955 -0.4419
  833MPD2    C212246   3.327   2.736  13.052 -1.1399 -0.3322 -0.0386
  833MPD2    C312247   3.335   2.594  13.049 -0.2277 -0.2162  0.4576
  833MPD2    C412248   3.238   2.530  13.123  0.1645 -0.0111  0.0893
  833MPD2    C512249   3.155   2.601  13.204  0.0851  0.6925  0.8377
  833MPD2     H12250   3.395   2.792  12.988  0.9529 -1.4113  1.2093
  833MPD2    H112251   3.229   2.423  13.132  2.1683 -0.0319  1.6888
  833MPD2    H212252   3.087   2.785  13.286  0.4098 -0.1853  1.0654
  833MPD2    H312253   3.083   2.545  13.262 -0.3500  0.5067  0.1191
  833MPD2     N12254   3.415   2.515  12.952 -0.3660  0.0235  0.6777
  833MPD2    H512255   3.409   2.413  12.958 -1.8538  0.0535 -0.0789
  833MPD2    N112256   3.225   2.947  13.128  0.0867 -0.1687 -0.1410
  833MPD2    H712257   3.156   2.998  13.183  1.4272 -0.6117  1.9421
  834MPD2     C12258   3.504   1.750  12.255 -0.2910  0.3762 -0.1887
  834MPD2    C112259   3.600   1.841  12.217 -0.6760  0.0091  0.1000
  834MPD2    C212260   3.616   1.959  12.282 -0.0356 -0.2234  0.2084
  834MPD2    C312261   3.537   2.002  12.390  0.5147 -0.5371 -0.0027
  834MPD2    C412262   3.431   1.915  12.423 -0.2958  0.1599  0.3297
  834MPD2    C512263   3.418   1.795  12.358  0.2197  1.0829  0.2967
  834MPD2     H12264   3.697   2.028  12.262 -0.3868  0.1664  0.1293
  834MPD2    H112265   3.365   1.932  12.508 -1.7954 -2.1890 -0.3443
  834MPD2    H212266   3.494   1.653  12.209  1.7286  0.5714 -1.0567
  834MPD2    H312267   3.346   1.726  12.401 -2.5253  3.8329  0.0821
  834MPD2     N12268   3.556   2.132  12.445  1.0323 -0.0236 -0.3149
  834MPD2    H512269   3.625   2.187  12.396  0.4889  0.8721 -0.0828
  834MPD2    N112270   3.679   1.801  12.107  0.2534  0.5498  0.3954
  834MPD2    H712271   3.652   1.710  12.070 -0.0137  2.0946 -3.1534
  835MPD2     C12272   4.223   4.497  11.834 -0.6311 -0.5631  0.3832
  835MPD2    C112273   4.191   4.629  11.803  0.0947 -0.2142 -0.0003
  835MPD2    C212274   4.224   0.002  11.898 -0.2291  0.0924  0.1224
  835MPD2    C312275   4.280   4.694  12.016 -0.4611 -0.5888  0.3494
  835MPD2    C412276   4.314   4.559  12.050 -0.1948  0.3644 -0.5222
  835MPD2    C512277   4.282   4.458  11.953  0.0255  0.0194 -0.8014
  835MPD2     H12278   4.208   0.104  11.864 -0.8602  0.2377  0.8212
  835MPD2    H112279   4.373   4.530  12.135 -0.0470  2.6941  0.1835
  835MPD2    H212280   4.216   4.416  11.763 -1.7054  1.9671 -2.3962
  835MPD2    H312281   4.317   4.356  11.958  0.9194  0.2912 -1.3911
  835MPD2     N12282   4.303   0.060  12.122 -0.3167  0.8855  0.0494
  835MPD2    H512283   4.321   0.010  12.209  1.5489 -0.7361 -1.2767
  835MPD2    N112284   4.149   4.666  11.670  0.2358 -0.7204 -0.9004
  835MPD2    H712285   4.139   0.042  11.653  1.0797 -0.0937  2.2544
  836MPD2     C12286   4.195   0.697  12.752 -0.1806  0.7295  0.4408
  836MPD2    C112287   4.153   0.679  12.628  0.5503  0.2266  0.7438
  836MPD2    C212288   4.019   0.711  12.591 -0.4006  0.2603  0.1877
  836MPD2    C312289   3.933   0.766  12.683 -0.1082 -0.4544 -0.3971
  836MPD2    C412290   3.974   0.763  12.813 -0.5638  0.0026  0.1336
  836MPD2    C512291   4.102   0.727  12.853 -0.3212  0.1082 -0.0788
  836MPD2     H12292   3.977   0.690  12.493 -1.1869 -1.4137  0.8819
  836MPD2    H112293   3.919   0.804  12.897 -0.0915 -1.0857  0.9788
  836MPD2    H212294   4.299   0.679  12.777 -0.5068 -0.0827  1.2086
  836MPD2    H312295   4.134   0.745  12.955  0.8859  3.7797 -1.0816
  836MPD2     N12296   3.802   0.813  12.654  0.1327  0.2389 -0.2927
  836MPD2    H512297   3.734   0.836  12.725  2.1871 -2.3402  2.4753
  836MPD2    N112298   4.248   0.611  12.547  0.2438  0.7854 -0.2662
  836MPD2    H712299   4.340   0.594  12.584 -0.5552  0.5245  1.6135
  837MPD2     C12300   2.036   4.698   9.997 -0.7228  0.2184 -0.0873
  837MPD2    C112301   1.974   0.030   9.884  0.2193 -0.3449  0.7417
  837MPD2    C212302   1.986   0.168   9.867 -0.4676  0.1367  0.3377
  837MPD2    C312303   2.037   0.247   9.972  0.2530 -0.0067 -0.1149
  837MPD2    C412304   2.098   0.189  10.076 -0.1893  0.9367 -0.4790
  837MPD2    C512305   2.103   0.053  10.084  0.1082  0.3138  0.9867
  837MPD2     H12306   1.929   0.198   9.780 -0.5933 -0.5966  0.1643
  837MPD2    H112307   2.132   0.246  10.162  0.1532 -2.2068  1.4544
  837MPD2    H212308   2.030   4.592  10.019  1.9779 -0.1524 -1.0378
  837MPD2    H312309   2.148   4.723  10.166 -0.6147  0.1184  1.2607
  837MPD2     N12310   2.011   0.382   9.957  0.0138 -0.3936 -0.7826
  837MPD2    H512311   1.954   0.412   9.878 -2.3959 -4.3274 -0.5396
  837MPD2    N112312   1.901   4.681   9.792  0.7516  0.0943  0.0462
  837MPD2    H712313   1.877   0.008   9.708  0.7708 -1.8086 -1.1097
  838MPD2     C12314   0.232   2.776  11.379 -0.1294 -0.6778 -0.2752
  838MPD2    C112315   0.212   2.895  11.444  0.1718  0.0774 -0.4888
  838MPD2    C212316   0.180   2.881  11.575 -0.3130 -0.4983  0.1493
  838MPD2    C312317   0.151   2.756  11.633  0.2526 -0.0855  0.1521
  838MPD2    C412318   0.169   2.635  11.566 -0.0059 -0.1687 -0.2775
  838MPD2    C512319   0.210   2.650  11.438  0.8588 -0.0206  0.1957
  838MPD2     H12320   0.164   2.972  11.633 -0.5941 -0.2209 -0.3659
  838MPD2    H112321   0.156   2.537  11.610  0.3208 -0.4699 -0.8474
  838MPD2    H212322   0.260   2.777  11.274  0.8444 -2.3817 -0.0374
  838MPD2    H312323   0.201   2.568  11.367 -0.0051 -0.6331  1.0184
  838MPD2     N12324   0.112   2.765  11.769 -0.3110  1.0312  0.1167
  838MPD2    H512325   0.097   2.855  11.814 -0.1531  0.9062  0.4235
  838MPD2    N112326   0.236   3.020  11.393  0.1857 -0.1068  0.2438
  838MPD2    H712327   0.241   3.088  11.468 -1.1453  2.1894 -1.7508
  839MPD2     C12328   0.506   3.037  11.968  0.6894 -0.2273  1.0301
  839MPD2    C112329   0.490   2.948  11.855 -0.1562 -0.6188 -0.0302
  839MPD2    C212330   0.495   3.011  11.729  0.0107  0.6169 -0.4139
  839MPD2    C312331   0.523   3.145  11.710  0.3724 -0.9089 -0.0379
  839MPD2    C412332   0.546   3.225  11.816  0.0256  0.5188 -0.4600
  839MPD2    C512333   0.527   3.171  11.942 -0.9948  0.2398  0.2041
  839MPD2     H12334   0.485   2.939  11.649  0.1486 -0.1362  0.2503
  839MPD2    H112335   0.561   3.332  11.812  0.0208  0.5387  0.1509
  839MPD2    H212336   0.494   2.999  12.069 -0.1995  2.2153  1.8306
  839MPD2    H312337   0.533   3.243  12.023 -3.4713  0.2493  0.3534
  839MPD2     N12338   0.519   3.182  11.575 -0.5429 -1.0646  0.2805
  839MPD2    H512339   0.490   3.109  11.512  3.5595 -1.0317 -1.6534
  839MPD2    N112340   0.475   2.807  11.859  0.7655  0.0491 -0.2707
  839MPD2    H712341   0.457   2.756  11.772 -0.1219 -3.5113  2.0043
  840MPD2     C12342   4.621   0.709  10.781 -0.3057 -0.7725  0.5065
  840MPD2    C112343   4.643   0.598  10.863  0.8476  0.2043  0.5884
  840MPD2    C212344   0.032   0.601  10.948  0.6082  0.2471 -0.5786
  840MPD2    C312345   0.123   0.712  10.943  0.3437  0.1556 -0.2804
  840MPD2    C412346   0.098   0.810  10.851 -0.5586  0.8725  0.1662
  840MPD2    C512347   4.713   0.811  10.770 -0.1660  0.0250 -0.2092
  840MPD2     H12348   0.049   0.518  11.015  1.1398 -0.1317 -1.1835
  840MPD2    H112349   0.173   0.885  10.829 -0.5809  0.7798 -0.2240
  840MPD2    H212350   4.534   0.713  10.716 -0.9848 -0.0086  1.4677
  840MPD2    H312351   4.696   0.885  10.692 -1.1684 -0.6607 -0.6470
  840MPD2     N12352   0.247   0.722  11.018 -0.0049 -0.1102  0.6302
  840MPD2    H512353   0.296   0.810  11.009 -0.6505  0.2381  0.5623
  840MPD2    N112354   4.541   0.496  10.868  0.5659 -0.1714  0.1075
  840MPD2    H712355   4.467   0.511  10.800  0.7425 -0.2698 -0.1063
  841MPD2     C12356   4.534   4.435  15.268  0.1840 -0.2117 -0.5092
  841MPD2    C112357   4.631   4.411  15.177 -0.0743 -0.6095  0.1404
  841MPD2    C212358   4.705   4.519  15.142  0.5471 -0.2409 -0.3111
  841MPD2    C312359   4.696   4.642  15.208  0.4844 -0.4717  0.6927
  841MPD2    C412360   4.608   4.657  15.319 -0.6235 -0.2002  0.0634
  841MPD2    C512361   4.526   4.549  15.345 -0.7852 -0.3085 -0.5779
  841MPD2     H12362   0.051   4.513  15.060 -0.0836 -1.3476 -0.7634
  841MPD2    H112363   4.608   0.019  15.386  0.8883  1.0652 -1.5776
  841MPD2    H212364   4.469   4.351  15.290  0.2676 -0.1559 -0.0520
  841MPD2    H312365   4.459   4.546  15.430 -0.9425  0.7832 -0.6658
  841MPD2     N12366   0.049   0.030  15.160  0.5051  0.2320 -0.3056
  841MPD2    H512367   0.097   0.001  15.075  1.2897  1.8033 -0.3901
  841MPD2    N112368   4.660   4.292  15.111  0.2203 -0.8313  0.2463
  841MPD2    H712369   0.013   4.292  15.045 -0.3540 -1.6965 -0.4203
  842MPD2     C12370   0.882   1.368  17.362  1.2119 -0.5290  0.5008
  842MPD2    C112371   0.792   1.262  17.383 -0.5877 -0.1317  0.7256
  842MPD2    C212372   0.817   1.168  17.482  0.1270 -0.2687 -0.1487
  842MPD2    C312373   0.929   1.189  17.567 -0.1101 -0.0010 -0.1193
  842MPD2    C412374   1.013   1.291  17.543  0.2168  0.1846 -0.4265
  842MPD2    C512375   0.984   1.384  17.450  0.0122 -0.0257  0.1216
  842MPD2     H12376   0.738   1.096  17.496  0.3030 -0.5088 -0.3984
  842MPD2    H112377   1.099   1.319  17.603  0.2688  1.9689 -1.3475
  842MPD2    H212378   0.884   1.439  17.280  1.2691 -1.8262 -0.6152
  842MPD2    H312379   1.058   1.463  17.441  0.5339 -0.3884  1.2747
  842MPD2     N12380   0.957   1.119  17.683 -0.5656 -0.0414  0.4272
  842MPD2    H512381   1.056   1.123   0.008 -0.6753  0.0247  0.9151
  842MPD2    N112382   0.680   1.255  17.289 -0.3490 -0.2004 -0.0069
  842MPD2    H712383   0.668   1.339  17.233  0.2590 -0.6780 -0.8516
  843MPD2     C12384   1.808   1.698   0.500  0.0145 -0.0980  0.3296
  843MPD2    C112385   1.851   1.567   0.516  0.0461  0.4223 -0.4060
  843MPD2    C212386   1.957   1.513   0.443  0.2683 -0.2670  0.4186
  843MPD2    C312387   2.012   1.596   0.346  0.3447  0.5157  0.2151
  843MPD2    C412388   1.968   1.733   0.339  0.2699  0.0940  0.2632
  843MPD2    C512389   1.876   1.786   0.415  0.2496 -0.0733 -0.1421
  843MPD2     H12390   1.979   1.409   0.465 -0.7075 -0.8806 -1.5000
  843MPD2    H112391   2.017   1.790   0.262 -0.0991  1.4484  1.0264
  843MPD2    H212392   1.722   1.738   0.553  0.6965  0.8834  0.6851
  843MPD2    H312393   1.851   1.891   0.405 -0.0756 -0.2542 -1.1778
  843MPD2     N12394   2.117   1.553   0.260 -0.7585  0.0381  0.0133
  843MPD2    H512395   2.142   1.630   0.198 -0.6810  0.9994  1.2312
  843MPD2    N112396   1.778   1.485   0.609  0.3169  0.4508  0.1184
  843MPD2    H712397   1.701   1.530   0.657 -0.8962  1.0245 -2.4040
  844MPD2     C12398   0.947   0.469  16.895  0.1313 -0.2093 -0.8912
  844MPD2    C112399   1.050   0.378  16.911  0.6578  0.5460  0.1676
  844MPD2    C212400   1.141   0.397  17.012 -0.2543 -0.8925  0.0829
  844MPD2    C312401   1.131   0.511  17.089 -0.2227 -0.1156  0.2518
  844MPD2    C412402   1.019   0.598  17.075  0.0907  0.3113  0.7749
  844MPD2    C512403   0.925   0.568  16.987  0.1387 -0.1048  0.2620
  844MPD2     H12404   1.225   0.329  17.021  0.0402 -0.6380 -0.7913
  844MPD2    H112405   0.999   0.685  17.137 -0.9164  3.0000 -3.3369
  844MPD2    H212406   0.864   0.454  16.826 -1.1759  0.1410  0.5858
  844MPD2    H312407   0.833   0.624  16.977  1.3530  1.8048 -0.0081
  844MPD2     N12408   1.223   0.534  17.191  0.7128  0.2403  0.5815
  844MPD2    H512409   1.298   0.468  17.206  0.6012  0.8325  3.9464
  844MPD2    N112410   1.069   0.273  16.820  0.5660  0.1855 -0.2199
  844MPD2    H712411   1.140   0.202  16.834  0.1225 -0.4046 -0.9564
  845MPD2     C12412   1.690   1.358  17.505 -0.7063  0.3558 -0.4737
  845MPD2    C112413   1.562   1.338  17.547 -0.4366  0.1727 -0.3192
  845MPD2    C212414   1.511   1.209  17.557  0.2328 -0.2328 -0.3224
  845MPD2    C312415   1.587   1.100  17.512  0.7786 -0.3109 -0.7393
  845MPD2    C412416   1.714   1.121  17.473  0.6504 -0.3815 -0.5101
  845MPD2    C512417   1.759   1.251  17.465 -0.0937 -0.6523  0.5050
  845MPD2     H12418   1.414   1.187  17.599 -0.1648  1.6042 -0.3133
  845MPD2    H112419   1.773   1.039  17.432  0.5881 -0.1674 -1.0258
  845MPD2    H212420   1.733   1.457  17.519 -2.7529  1.0214  1.0182
  845MPD2    H312421   1.862   1.268  17.433 -0.2750  0.6669  0.6212
  845MPD2     N12422   1.533   0.971  17.503  0.0875  0.1954 -0.1439
  845MPD2    H512423   1.432   0.962  17.510 -0.1307  1.8261 -1.2742
  845MPD2    N112424   1.493   1.453  17.592  0.0913  0.9470  0.9112
  845MPD2    H712425   1.546   1.540  17.583 -0.7951  1.0485 -3.4411
  846MPD2     C12426   2.949   1.963  13.826  0.1192 -0.3547  0.5050
  846MPD2    C112427   2.832   2.034  13.848  0.6493 -1.0217 -0.3459
  846MPD2    C212428   2.767   2.027  13.973  1.2242 -0.2727  0.3553
  846MPD2    C312429   2.830   1.953  14.076  0.6307 -0.1261  1.0759
  846MPD2    C412430   2.941   1.877  14.045  0.3953 -0.0159  0.4203
  846MPD2    C512431   2.997   1.877  13.925 -0.4548  0.1580 -0.7689
  846MPD2     H12432   2.684   2.092  13.994 -0.0819 -2.0089  0.6049
  846MPD2    H112433   2.981   1.812  14.121  2.4665  0.1096 -0.5615
  846MPD2    H212434   2.995   1.961  13.727 -2.5966  0.2161 -0.7723
  846MPD2    H312435   3.091   1.823  13.918  0.2970  1.4340 -0.5784
  846MPD2     N12436   2.763   1.946  14.200  0.3459 -0.0605  0.1278
  846MPD2    H512437   2.679   2.001  14.214  0.8943  0.9019 -0.3032
  846MPD2    N112438   2.779   2.114  13.744  0.1789 -0.2173  0.0828
  846MPD2    H712439   2.711   2.184  13.773  1.4028  1.1125 -0.2746
  847MPD2     C12440   2.954   3.279  14.139 -0.0306 -0.3557  0.7970
  847MPD2    C112441   3.012   3.252  14.260 -0.3828 -0.1897 -0.3908
  847MPD2    C212442   3.047   3.120  14.294 -0.0338  0.8718 -0.7141
  847MPD2    C312443   3.013   3.016  14.206  0.2622  0.3739  0.0690
  847MPD2    C412444   2.922   3.047  14.107 -0.3807  0.1120  0.0337
  847MPD2    C512445   2.897   3.178  14.069 -0.2996 -0.0399 -0.5746
  847MPD2     H12446   3.112   3.107  14.380 -1.2998  0.4395  0.1861
  847MPD2    H112447   2.900   2.967  14.038 -0.5653  0.2184 -0.0299
  847MPD2    H212448   2.930   3.381  14.111 -0.0214 -1.4198 -3.0296
  847MPD2    H312449   2.833   3.200  13.984 -1.8450  1.7949  1.0432
  847MPD2     N12450   3.068   2.889  14.237  0.5082 -0.1579 -0.3078
  847MPD2    H512451   3.149   2.885  14.298  1.6701  3.2539 -1.5830
  847MPD2    N112452   3.070   3.350  14.338 -0.5570  0.6813  0.2874
  847MPD2    H712453   3.128   3.320  14.416 -1.9395 -0.8897  0.7264
  848MPD2     C12454   0.684   0.997  16.856 -0.8241  0.3002 -0.1359
  848MPD2    C112455   0.770   1.044  16.955 -0.5472  0.0024  0.0958
  848MPD2    C212456   0.853   1.150  16.926 -0.4060  0.2354 -0.1323
  848MPD2    C312457   0.844   1.220  16.800 -0.2822  0.1432  0.4153
  848MPD2    C412458   0.744   1.173  16.712  0.0464  0.2833 -0.5422
  848MPD2    C512459   0.663   1.065  16.739  0.4592 -0.4889  0.2585
  848MPD2     H12460   0.923   1.194  16.996  0.5303 -1.5549  0.0513
  848MPD2    H112461   0.730   1.215  16.613 -1.6796 -0.1720 -0.4800
  848MPD2    H212462   0.621   0.911  16.868 -0.2995  0.0984  1.1414
  848MPD2    H312463   0.582   1.029  16.676 -2.2795  3.0872  1.7042
  848MPD2     N12464   0.908   1.339  16.759 -0.4758  0.4923 -0.5428
  848MPD2    H512465   0.876   1.375  16.670 -1.1521 -0.0214 -0.5116
  848MPD2    N112466   0.781   0.976  17.079 -0.8940 -0.1233 -0.2765
  848MPD2    H712467   0.841   1.022  17.147 -0.6278  2.1294 -2.0377
  849MPD2     C12468   4.294   1.187  14.704  0.1892  0.4192 -0.2181
  849MPD2    C112469   4.413   1.144  14.648  0.4787 -0.2358 -0.5739
  849MPD2    C212470   4.462   1.015  14.679  0.2546  0.7028 -0.3779
  849MPD2    C312471   4.377   0.930  14.748 -0.6155  0.5151 -0.6782
  849MPD2    C412472   4.263   0.974  14.800 -0.1295 -0.8364 -1.5523
  849MPD2    C512473   4.219   1.098  14.774 -0.5478  0.2848 -0.5484
  849MPD2     H12474   4.561   0.983  14.651 -0.8087 -0.5431 -2.6698
  849MPD2    H112475   4.203   0.906  14.860 -0.6542  2.3483  1.5114
  849MPD2    H212476   4.249   1.283  14.683 -1.3138 -0.7355 -2.1911
  849MPD2    H312477   4.119   1.130  14.802  0.3114  2.3191  0.2177
  849MPD2     N12478   4.419   0.803  14.769 -0.0176 -0.0121  0.0386
  849MPD2    H512479   4.505   0.779  14.722  0.3340  0.4206  0.4648
  849MPD2    N112480   4.505   1.228  14.585 -0.0027  0.6348 -0.6458
  849MPD2    H712481   4.596   1.186  14.572 -1.1213 -1.8593 -0.3900
  850MPD2     C12482   2.873   3.619  15.065  0.7979 -0.5595  0.5081
  850MPD2    C112483   2.874   3.750  15.110  0.5047  0.0773  0.9567
  850MPD2    C212484   2.994   3.811  15.140 -0.7273 -0.5235  0.0547
  850MPD2    C312485   3.110   3.737  15.134  0.5276  0.3522 -0.1704
  850MPD2    C412486   3.115   3.613  15.065  0.3185  0.7778 -0.2625
  850MPD2    C512487   2.991   3.554  15.036 -0.0145  0.1127 -0.0317
  850MPD2     H12488   2.986   3.912  15.180  1.3681 -0.5908  0.6483
  850MPD2    H112489   3.208   3.562  15.043 -1.0545 -1.1545 -1.6360
  850MPD2    H212490   2.776   3.571  15.055  0.3098  0.4530  0.4164
  850MPD2    H312491   2.989   3.449  15.010  1.8423  0.0192  0.1955
  850MPD2     N12492   3.238   3.785  15.175 -0.1792  0.2101  0.2931
  850MPD2    H512493   3.311   3.714  15.171 -1.2521 -0.8793  0.0987
  850MPD2    N112494   2.754   3.813  15.129 -0.4845 -0.0026  0.6033
  850MPD2    H712495   2.685   3.775  15.064  0.2639  0.6922 -0.5864
  851MPD2     C12496   3.316   3.757  15.676  0.3756  0.1526  0.0739
  851MPD2    C112497   3.203   3.712  15.608 -0.6138 -0.0338 -0.1454
  851MPD2    C212498   3.199   3.587  15.540  0.0500 -0.1229  0.3261
  851MPD2    C312499   3.307   3.503  15.551  0.1888 -0.4465  0.1142
  851MPD2    C412500   3.419   3.544  15.621 -0.2801  0.1139 -0.3070
  851MPD2    C512501   3.423   3.669  15.682 -0.5657  0.9827  0.5644
  851MPD2     H12502   3.109   3.559  15.487  0.8669 -0.1929 -1.0107
  851MPD2    H112503   3.509   3.483  15.629 -1.4864 -1.6125  0.0076
  851MPD2    H212504   3.309   3.857  15.717 -2.1535 -0.2083  0.5508
  851MPD2    H312505   3.520   3.705  15.716  0.6077 -1.0215 -0.6625
  851MPD2     N12506   3.292   3.373  15.490 -0.2718 -0.0355  0.4693
  851MPD2    H512507   3.200   3.349  15.453 -0.1451 -0.7900  0.6358
  851MPD2    N112508   3.090   3.789  15.608 -0.4370 -0.0406  0.9772
  851MPD2    H712509   3.099   3.888  15.627 -0.2923 -0.4829  3.2034
  852MPD2     C12510   2.342   2.402  10.381 -0.0755  0.1203  1.5338
  852MPD2    C112511   2.372   2.271  10.411  0.2165 -0.0040 -0.2477
  852MPD2    C212512   2.387   2.187  10.309 -0.1439 -0.6092  0.0723
  852MPD2    C312513   2.380   2.228  10.176 -0.6337  0.1385 -0.9057
  852MPD2    C412514   2.347   2.363  10.147  0.3201 -0.2048  0.5448
  852MPD2    C512515   2.325   2.455  10.249  0.3183  0.5214  0.3407
  852MPD2     H12516   2.412   2.083  10.326 -1.0017 -0.8849 -0.3314
  852MPD2    H112517   2.350   2.394  10.043 -0.1819 -1.1492  0.2487
  852MPD2    H212518   2.327   2.467  10.467 -2.0542  0.6212  0.8107
  852MPD2    H312519   2.318   2.561  10.228  0.7302  0.5892  0.5295
  852MPD2     N12520   2.434   2.139  10.083 -0.8679 -0.4876 -0.0257
  852MPD2    H512521   2.465   2.050  10.119  0.0724  0.2415  0.9775
  852MPD2    N112522   2.390   2.224  10.543 -0.4157  0.2191 -0.3384
  852MPD2    H712523   2.417   2.127  10.556  1.8175  0.9150  0.2797
  853MPD2     C12524   0.536   1.687  12.820 -0.2807 -0.2793 -0.1074
  853MPD2    C112525   0.421   1.747  12.788  0.3490  0.9965 -0.0445
  853MPD2    C212526   0.359   1.713  12.666  0.3247  0.0299 -0.5286
  853MPD2    C312527   0.400   1.599  12.598  0.1364 -0.2526 -0.0654
  853MPD2    C412528   0.522   1.543  12.621  0.5274 -0.1032  0.7811
  853MPD2    C512529   0.585   1.584  12.733  0.5435  0.0508  0.4223
  853MPD2     H12530   0.265   1.760  12.640  0.7708  0.9272 -0.5090
  853MPD2    H112531   0.565   1.471  12.552  0.7340 -0.2291  1.0436
  853MPD2    H212532   0.587   1.722  12.909 -1.2517  0.1427  0.2787
  853MPD2    H312533   0.683   1.542  12.751 -0.1253 -0.9454  1.7230
  853MPD2     N12534   0.328   1.557  12.482 -0.0401  0.1357  0.0550
  853MPD2    H512535   0.372   1.491  12.420 -0.4614  0.0343 -0.1360
  853MPD2    N112536   0.367   1.851  12.873 -0.1491 -0.1219 -0.0095
  853MPD2    H712537   0.414   1.874  12.959 -0.2139 -1.8473  0.4883
  854MPD2     C12538   1.341   1.404  13.079 -0.0003  0.1287  0.6006
  854MPD2    C112539   1.454   1.464  13.022 -0.3364 -0.3538 -1.0521
  854MPD2    C212540   1.581   1.446  13.075 -0.3904 -1.2282  0.6278
  854MPD2    C312541   1.584   1.369  13.192 -0.4098 -0.0938  0.0619
  854MPD2    C412542   1.474   1.314  13.252 -0.2878  0.2929  0.0488
  854MPD2    C512543   1.357   1.324  13.190  0.1943  0.7989 -1.5091
  854MPD2     H12544   1.666   1.498  13.032  0.9608 -3.1933  0.9051
  854MPD2    H112545   1.468   1.262  13.348 -1.5938  1.1672  0.4412
  854MPD2    H212546   1.249   1.424  13.026  0.7787  1.5125 -0.2367
  854MPD2    H312547   1.261   1.290  13.228  1.9089 -0.1739  1.9278
  854MPD2     N12548   1.702   1.340  13.268  0.3835  0.5985 -0.3202
  854MPD2    H512549   1.685   1.282  13.350  0.5387  2.9732  1.3855
  854MPD2    N112550   1.424   1.556  12.926 -0.2031  0.4415  0.4097
  854MPD2    H712551   1.325   1.575  12.911 -0.3455  1.5346  2.6814
  855MPD2     C12552   2.138   1.165  14.177  0.2888  0.1944 -0.1948
  855MPD2    C112553   2.011   1.145  14.120 -0.1801  0.4004 -0.2733
  855MPD2    C212554   1.985   1.194  13.992  0.2311 -0.6313  0.0568
  855MPD2    C312555   2.085   1.247  13.914 -0.9069  0.2157  0.2694
  855MPD2    C412556   2.207   1.273  13.976 -0.4214 -0.0213 -0.0799
  855MPD2    C512557   2.233   1.226  14.099 -0.9915  0.3582  0.0246
  855MPD2     H12558   1.886   1.168  13.954  0.6460  2.2914 -3.0467
  855MPD2    H112559   2.290   1.322  13.925 -0.6196  0.6585  0.2469
  855MPD2    H212560   2.158   1.137  14.280 -0.0258 -2.3022 -0.7914
  855MPD2    H312561   2.330   1.247  14.143 -0.5773  0.5631 -0.9857
  855MPD2     N12562   2.079   1.273  13.776  0.0298  0.4003  0.2796
  855MPD2    H512563   2.168   1.288  13.730 -0.1424  0.4785 -0.0237
  855MPD2    N112564   1.909   1.066  14.180 -0.0545 -0.4030  0.2355
  855MPD2    H712565   1.814   1.070  14.145  0.0069  2.6825  0.4505
  856MPD2     C12566   3.738   2.295  14.130 -0.6249 -0.3530  0.4675
  856MPD2    C112567   3.812   2.404  14.133 -0.0936 -0.3039  0.0160
  856MPD2    C212568   3.756   2.526  14.112  0.6533  0.4581  0.9483
  856MPD2    C312569   3.614   2.539  14.094  0.0890 -0.0245 -0.0090
  856MPD2    C412570   3.540   2.426  14.098  0.8154  0.3791 -0.1366
  856MPD2    C512571   3.604   2.306  14.117  0.4955 -0.2787 -0.3768
  856MPD2     H12572   3.824   2.608  14.091 -0.3478  0.2921 -3.0590
  856MPD2    H112573   3.432   2.429  14.086  0.8462 -2.9585 -1.2339
  856MPD2    H212574   3.785   2.200  14.153  0.6083  0.1948  0.2348
  856MPD2    H312575   3.544   2.215  14.113  0.0791 -0.0215 -0.0523
  856MPD2     N12576   3.543   2.664  14.070  0.3132 -0.1352  0.0834
  856MPD2    H512577   3.443   2.657  14.057  0.2152 -0.5383  1.1013
  856MPD2    N112578   3.955   2.411  14.155  0.1002 -0.2122 -0.1560
  856MPD2    H712579   3.996   2.500  14.130 -0.1146 -0.1872 -0.4243
  857MPD2     C12580   0.869   4.381  13.552  0.2820  0.2061 -0.4309
  857MPD2    C112581   0.969   4.405  13.458  0.2343 -0.6122  0.6811
  857MPD2    C212582   1.042   4.520  13.463  0.6687 -0.2359  0.2426
  857MPD2    C312583   1.041   4.596  13.579 -0.2402 -0.5779  0.2491
  857MPD2    C412584   0.942   4.571  13.674 -0.3883 -0.0611  0.5999
  857MPD2    C512585   0.862   4.463  13.664  0.3957  0.0625 -0.3608
  857MPD2     H12586   1.112   4.544  13.383  2.3124  0.4347  1.8838
  857MPD2    H112587   0.931   4.638  13.758  0.2128  0.9864 -0.1404
  857MPD2    H212588   0.816   4.287  13.546  1.7535 -0.6258 -0.3614
  857MPD2    H312589   0.792   4.432  13.741  2.9496 -0.3413  1.8047
  857MPD2     N12590   1.133   4.706  13.591 -0.0195 -0.1186 -0.2342
  857MPD2    H512591   1.202   4.722  13.519  2.2305 -0.6685  1.7891
  857MPD2    N112592   0.987   4.313  13.349  1.0246  0.4564  0.3252
  857MPD2    H712593   0.930   4.229  13.352  1.3489  0.2892  1.7626
  858MPD2     C12594   1.484   3.525  16.986 -1.0104 -0.4783 -0.1796
  858MPD2    C112595   1.515   3.420  17.073  0.3693  0.1646  0.5159
  858MPD2    C212596   1.525   3.456  17.206  0.2404  0.0835 -0.0366
  858MPD2    C312597   1.531   3.590  17.248  0.1301  0.4382 -0.4066
  858MPD2    C412598   1.515   3.687  17.153  0.0509  0.5248  0.1100
  858MPD2    C512599   1.486   3.655  17.022  0.6231 -0.0736 -0.1484
  858MPD2     H12600   1.548   3.377  17.277  0.3250  0.1407 -0.0004
  858MPD2    H112601   1.499   3.789  17.187  2.6568  1.2280 -0.8308
  858MPD2    H212602   1.457   3.490  16.887 -0.1039 -1.0879 -0.2157
  858MPD2    H312603   1.458   3.735  16.954 -0.5213 -0.0078  0.4027
  858MPD2     N12604   1.555   3.638  17.379 -0.1069  0.0469  0.6152
  858MPD2    H512605   1.559   3.739  17.387 -0.2331  0.0348  0.8102
  858MPD2    N112606   1.514   3.289  17.026  0.1734  0.1532  0.0038
  858MPD2    H712607   1.472   3.262  16.938 -1.4587  1.4439  0.3717
  859MPD2     C12608   4.709   0.390  15.653  0.4697  0.4132  0.4949
  859MPD2    C112609   0.104   0.422  15.587  0.2394 -0.4632 -0.3885
  859MPD2    C212610   0.183   0.317  15.546  0.8338 -0.0553 -0.0699
  859MPD2    C312611   0.157   0.183  15.580 -0.9443 -0.2150 -0.3137
  859MPD2    C412612   0.034   0.158  15.641  0.2502  0.0296  0.1773
  859MPD2    C512613   4.675   0.259  15.682 -0.6665  0.1620 -0.4361
  859MPD2     H12614   0.272   0.342  15.489  0.4864  0.7381 -0.2597
  859MPD2    H112615   4.720   0.058  15.663  1.0316 -0.6267 -1.4535
  859MPD2    H212616   4.633   0.458  15.689 -1.3918 -1.6060  0.3904
  859MPD2    H312617   4.582   0.240  15.736 -0.0456 -1.0015  0.2186
  859MPD2     N12618   0.229   0.068  15.532  0.1081  0.0047  0.0262
  859MPD2    H512619   0.187   4.701  15.546 -2.5405  1.1580 -0.5080
  859MPD2    N112620   0.145   0.557  15.562 -0.1473 -0.9006  0.4488
  859MPD2    H712621   0.239   0.567  15.525 -0.4461 -1.8782 -0.5756
  860MPD2     C12622   2.543   0.712  11.872 -0.2841 -0.2936 -0.2414
  860MPD2    C112623   2.586   0.780  11.985  0.3268  0.2657  0.6740
  860MPD2    C212624   2.508   0.764  12.098 -0.1339  0.1402  0.0098
  860MPD2    C312625   2.387   0.694  12.099  0.7825  0.3271 -0.1823
  860MPD2    C412626   2.345   0.624  11.987  0.0617  0.3678  0.0187
  860MPD2    C512627   2.428   0.635  11.879  0.7028 -0.2189 -0.6052
  860MPD2     H12628   2.533   0.817  12.189 -0.9318 -0.7030  0.7238
  860MPD2    H112629   2.256   0.563  11.978  0.3979  0.0970 -1.4516
  860MPD2    H212630   2.600   0.724  11.780 -0.4830 -0.8691 -0.4409
  860MPD2    H312631   2.391   0.588  11.789 -0.1172 -1.2993  0.3045
  860MPD2     N12632   2.313   0.699  12.216  0.3533  0.0791  0.2910
  860MPD2    H512633   2.366   0.721  12.300  0.1895 -1.0213  0.6897
  860MPD2    N112634   2.696   0.876  11.978  0.2948 -0.1266  0.1179
  860MPD2    H712635   2.711   0.930  12.063  2.4650 -1.5984  0.6651
  861MPD2     C12636   1.647   4.373  11.088  0.3684 -0.2682  0.1719
  861MPD2    C112637   1.532   4.376  11.166 -0.1185 -0.0231 -0.6831
  861MPD2    C212638   1.403   4.413  11.117 -0.0393  0.6909 -0.1271
  861MPD2    C312639   1.388   4.444  10.985  0.5408  0.3620  0.1353
  861MPD2    C412640   1.504   4.438  10.907 -0.3472  0.4143  0.0071
  861MPD2    C512641   1.629   4.396  10.959 -0.0714 -0.3578  0.1662
  861MPD2     H12642   1.324   4.392  11.187 -0.2267  0.0907 -0.5193
  861MPD2    H112643   1.500   4.458  10.800 -4.1604 -0.0876  0.0561
  861MPD2    H212644   1.750   4.355  11.118  0.5932  3.2331  1.4301
  861MPD2    H312645   1.714   4.415  10.895 -0.3201  0.1268 -0.0216
  861MPD2     N12646   1.260   4.467  10.922 -1.1035  0.3136 -0.2673
  861MPD2    H512647   1.267   4.494  10.825  1.1748  0.1193 -0.1628
  861MPD2    N112648   1.544   4.345  11.306 -0.3668  0.4911  0.2100
  861MPD2    H712649   1.461   4.353  11.364 -0.2772 -0.6383  0.4980
  862MPD2     C12650   0.853   4.713  10.358 -0.3272 -0.5635 -0.1203
  862MPD2    C112651   0.914   4.614  10.436 -0.4734 -0.1815 -0.5584
  862MPD2    C212652   0.941   4.488  10.379 -0.7277  0.0373  0.0784
  862MPD2    C312653   0.902   4.460  10.248 -0.0842 -0.2451 -0.1317
  862MPD2    C412654   0.832   4.558  10.173  0.1991  0.2912  0.3070
  862MPD2    C512655   0.816   4.686  10.228  0.6377  0.9833 -0.4746
  862MPD2     H12656   0.989   4.418  10.446  0.1269 -0.3354 -0.9165
  862MPD2    H112657   0.800   4.547  10.071  0.8577 -1.0389  0.2493
  862MPD2    H212658   0.836   0.083  10.410 -2.9364 -1.8725  1.3636
  862MPD2    H312659   0.754   0.030  10.170  0.6132  2.9277  1.8117
  862MPD2     N12660   0.925   4.340  10.193  0.9150  0.7774 -0.4423
  862MPD2    H512661   0.872   4.311  10.112  3.2390 -2.8379 -0.6607
  862MPD2    N112662   0.952   4.634  10.575 -0.0998  0.1146 -0.4011
  862MPD2    H712663   0.979   4.546  10.618  0.5098  0.5493  0.1088
  863MPD2     C12664   4.648   1.910  16.930 -0.8859  0.5334  0.2380
  863MPD2    C112665   4.544   1.980  16.983 -0.1072 -0.1691 -0.2312
  863MPD2    C212666   4.575   2.036  17.104  0.0923 -0.2894 -0.1083
  863MPD2    C312667   4.697   2.043  17.168  0.0165 -0.3053 -0.1521
  863MPD2    C412668   0.072   1.980  17.103  0.6285  0.7842 -0.1353
  863MPD2    C512669   0.046   1.917  16.983 -0.5473 -0.0189 -0.3627
  863MPD2     H12670   4.500   2.093  17.157 -0.4456 -0.0945 -1.0829
  863MPD2    H112671   0.172   1.976  17.144 -0.5240  2.5507  2.7954
  863MPD2    H212672   4.634   1.857  16.837 -0.0472  1.7750 -0.6069
  863MPD2    H312673   0.120   1.847  16.946 -0.8720  1.1277 -3.1947
  863MPD2     N12674   4.722   2.091  17.299 -0.0599  0.5514  0.1001
  863MPD2    H512675   0.091   2.115  17.333 -0.2115  0.0047  0.9074
  863MPD2    N112676   4.422   2.000  16.918  0.1249  0.3744  0.2862
  863MPD2    H712677   4.413   1.965  16.823 -0.8423 -0.7109  0.7707
  864MPD2     C12678   0.185   3.266   0.120 -0.3642  0.2199  0.5363
  864MPD2    C112679   0.171   3.239  17.685  0.4843  0.9325  0.4118
  864MPD2    C212680   0.216   3.335  17.595  0.3183  0.6206 -0.3550
  864MPD2    C312681   0.279   3.447  17.634 -0.0241 -0.0115 -0.0632
  864MPD2    C412682   0.276   3.485   0.074 -0.3827 -0.2275  0.3141
  864MPD2    C512683   0.242   3.386   0.157  0.4036 -0.7914 -0.7846
  864MPD2     H12684   0.192   3.322  17.490  1.3637 -2.6681 -0.1829
  864MPD2    H112685   0.322   3.570   0.123 -1.0962  0.0564  0.4952
  864MPD2    H212686   0.154   3.199   0.200 -1.7267  2.1874  1.6489
  864MPD2    H312687   0.238   3.404   0.264  2.7024 -1.5511 -0.5681
  864MPD2     N12688   0.326   3.530  17.534 -0.5395  0.2859  0.0093
  864MPD2    H512689   0.300   3.509  17.439 -4.1738 -0.4186  1.1528
  864MPD2    N112690   0.105   3.120  17.643 -0.4256 -0.7072  0.1521
  864MPD2    H712691   0.088   3.057   0.024  0.3399  0.0129  0.9004
  865MPD2     C12692   0.395   3.756  16.585 -0.1654 -0.5277 -0.0731
  865MPD2    C112693   0.394   3.648  16.664  0.5942  0.9609  0.4488
  865MPD2    C212694   0.371   3.662  16.800 -0.2665  0.6765 -0.1135
  865MPD2    C312695   0.379   3.789  16.859 -0.8273  0.3682  0.3526
  865MPD2    C412696   0.389   3.902  16.774  0.1175 -0.0423  0.6375
  865MPD2    C512697   0.393   3.882  16.637 -0.0605 -0.3054  0.0359
  865MPD2     H12698   0.363   3.574  16.861  2.5825  0.5052 -0.0089
  865MPD2    H112699   0.396   4.004  16.808 -0.0494  0.0469  0.4008
  865MPD2    H212700   0.403   3.750  16.477 -1.0142 -0.8992 -0.1139
  865MPD2    H312701   0.410   3.968  16.573  3.0285 -1.6848 -1.0053
  865MPD2     N12702   0.391   3.813  16.997 -0.5345  0.0239 -0.2941
  865MPD2    H512703   0.411   3.906  17.033 -0.1458 -0.5616  0.9958
  865MPD2    N112704   0.419   3.524  16.602  0.5771  0.0565  0.2558
  865MPD2    H712705   0.428   3.529  16.501  2.5251  1.0255  0.4891
  866MPD2     C12706   1.950   4.442  11.556  0.2818  0.1446 -0.3584
  866MPD2    C112707   1.940   4.485  11.425  0.2426  0.7906  0.5792
  866MPD2    C212708   1.848   4.581  11.394 -0.0945  0.1830 -0.1822
  866MPD2    C312709   1.763   4.628  11.489 -0.5108  0.1789  0.2509
  866MPD2    C412710   1.780   4.591  11.615 -0.0531  0.4392 -0.0982
  866MPD2    C512711   1.882   4.512  11.651 -0.4878  0.2752  0.3798
  866MPD2     H12712   1.839   4.630  11.298 -0.9560  2.4327  1.0558
  866MPD2    H112713   1.713   4.630  11.691  0.8221 -0.7662  1.2715
  866MPD2    H212714   2.034   4.384  11.594 -0.1094 -0.0694  0.1784
  866MPD2    H312715   1.884   4.492  11.758  1.6030  2.6465  0.7803
  866MPD2     N12716   1.650   4.711  11.460  0.0238  0.2560 -0.0762
  866MPD2    H512717   1.585   0.010  11.535  0.1471  3.1313 -0.8662
  866MPD2    N112718   2.033   4.427  11.333 -0.1073 -0.4854 -0.3309
  866MPD2    H712719   2.083   4.348  11.372  0.1334  1.3051  2.9926
  867MPD2     C12720   4.185   3.193  16.555 -0.1327  0.6974  0.1430
  867MPD2    C112721   4.222   3.192  16.691  0.4137  0.4372  0.4300
  867MPD2    C212722   4.286   3.307  16.735 -0.6573 -0.2397 -0.1542
  867MPD2    C312723   4.297   3.424  16.650 -0.2287 -0.7404  1.3512
  867MPD2    C412724   4.257   3.418  16.520  0.9226 -0.3766 -0.3812
  867MPD2    C512725   4.189   3.304  16.477  0.4703 -0.1751 -0.2906
  867MPD2     H12726   4.320   3.321  16.837  0.0625  1.3364 -0.6194
  867MPD2    H112727   4.252   3.506  16.457  3.1452  0.0281  0.0030
  867MPD2    H212728   4.142   3.101  16.516  1.1704  0.0634  0.2046
  867MPD2    H312729   4.159   3.290  16.374  0.5635 -2.1791 -0.0470
  867MPD2     N12730   4.344   3.552  16.689  0.2811  0.0895 -0.1310
  867MPD2    H512731   4.331   3.620  16.615 -1.3473  2.0066  1.9358
  867MPD2    N112732   4.212   3.075  16.759  0.1763 -0.9156  0.6706
  867MPD2    H712733   4.166   2.996  16.715 -0.6137  0.2964 -0.7085
  868MPD2     C12734   1.259   3.038  13.270  0.0728 -0.0909  0.1089
  868MPD2    C112735   1.277   2.934  13.362 -0.1608  1.0728 -0.7388
  868MPD2    C212736   1.196   2.931  13.478 -0.2460  0.2954 -0.0428
  868MPD2    C312737   1.090   3.022  13.491  1.0373  0.0177  0.3354
  868MPD2    C412738   1.074   3.118  13.396 -0.1873 -0.2018  0.0700
  868MPD2    C512739   1.159   3.127  13.285  0.2943  0.7865 -0.3484
  868MPD2     H12740   1.211   2.866  13.563 -1.6663  1.2065  0.8994
  868MPD2    H112741   0.998   3.195  13.407  0.8486  0.7138  0.9226
  868MPD2    H212742   1.321   3.052  13.182 -1.9167 -1.5407 -1.5072
  868MPD2    H312743   1.131   3.199  13.209 -1.6916  0.5405  0.1683
  868MPD2     N12744   1.002   2.998  13.603 -0.3779 -0.2151 -0.4156
  868MPD2    H512745   1.028   2.913  13.652  0.2980  0.2742  0.0749
  868MPD2    N112746   1.388   2.847  13.342 -0.2883 -0.0589 -0.4933
  868MPD2    H712747   1.446   2.869  13.262  0.5930  1.1046  0.4753
  869MPD2     C12748   2.674   0.537   1.869 -0.4035 -0.3825  0.7464
  869MPD2    C112749   2.702   0.665   1.903  0.4825  0.0651  0.6508
  869MPD2    C212750   2.613   0.766   1.871 -0.0603 -0.7297  0.2473
  869MPD2    C312751   2.492   0.733   1.817 -0.4356 -0.0229 -0.3183
  869MPD2    C412752   2.454   0.603   1.794 -0.2396  0.0393  0.5236
  869MPD2    C512753   2.553   0.505   1.813  0.2887  0.8289 -0.0981
  869MPD2     H12754   2.647   0.869   1.869  0.9897 -1.1120 -1.9318
  869MPD2    H112755   2.352   0.572   1.776 -0.1361  1.6754 -2.7875
  869MPD2    H212756   2.749   0.461   1.882 -0.3810 -0.5267 -0.2307
  869MPD2    H312757   2.534   0.401   1.787  0.5080  0.2376  2.0531
  869MPD2     N12758   2.383   0.825   1.790 -0.2101 -0.6670 -0.1866
  869MPD2    H512759   2.303   0.786   1.741 -0.9234  3.2296 -2.0675
  869MPD2    N112760   2.827   0.691   1.964  0.4660 -0.1633  0.6829
  869MPD2    H712761   2.879   0.604   1.968  1.4994  0.2191 -3.9568
  870MPD2     C12762   2.014   4.519   2.398 -0.5645  0.6131 -0.3410
  870MPD2    C112763   2.125   4.513   2.319 -0.7475  0.8630 -0.5579
  870MPD2    C212764   2.129   4.584   2.201 -0.2725  0.8189  0.0649
  870MPD2    C312765   2.017   4.648   2.157 -0.0339  0.2638  0.2166
  870MPD2    C412766   1.907   4.654   2.242 -0.8367  0.2702  0.0767
  870MPD2    C512767   1.901   4.592   2.365 -0.0852  0.8206 -1.3695
  870MPD2     H12768   2.209   4.558   2.132  0.8687  0.9678  1.3337
  870MPD2    H112769   1.812   4.696   2.212 -0.5756  0.5332 -0.3793
  870MPD2    H212770   2.010   4.460   2.490  1.6953  0.3913 -0.3783
  870MPD2    H312771   1.811   4.589   2.426  0.9173 -2.5200 -0.0626
  870MPD2     N12772   2.023   4.712   2.030 -0.3501 -0.2177  0.1046
  870MPD2    H512773   2.097   4.691   1.964 -0.0185 -0.3109  0.5142
  870MPD2    N112774   2.237   4.445   2.367 -0.0411 -0.0396 -0.1176
  870MPD2    H712775   2.220   4.387   2.448 -0.0356 -0.8780 -0.7077
  871MPD2     C12776   2.981   3.715  16.655  0.9454 -0.2069  0.2894
  871MPD2    C112777   2.949   3.648  16.769 -0.2516 -0.0072  0.3751
  871MPD2    C212778   2.951   3.507  16.759  0.2601 -0.3967 -0.3096
  871MPD2    C312779   2.973   3.434  16.643  0.3572 -0.6479  0.2932
  871MPD2    C412780   2.997   3.511  16.526  0.5354 -0.1060  0.0278
  871MPD2    C512781   3.008   3.652  16.535  0.3695  0.2107 -0.1531
  871MPD2     H12782   2.930   3.451  16.849 -1.0351  0.8767  0.1857
  871MPD2    H112783   3.017   3.461  16.433  0.8919 -1.5848  0.8984
  871MPD2    H212784   2.969   3.822  16.650  0.0375 -0.3293 -0.2533
  871MPD2    H312785   3.027   3.715  16.449 -0.5693 -0.4943 -0.8741
  871MPD2     N12786   2.975   3.289  16.651  0.0369  0.3160  0.3150
  871MPD2    H512787   2.943   3.257  16.742  1.6226 -0.3888  0.6307
  871MPD2    N112788   2.903   3.718  16.881 -0.1562 -0.4739  0.1807
  871MPD2    H712789   2.893   3.818  16.866 -2.2581 -0.9250 -1.3603
  872MPD2     C12790   3.778   1.907  14.117 -0.4825 -0.3484 -0.3954
  872MPD2    C112791   3.666   1.915  14.043  0.3507  0.0300  0.1893
  872MPD2    C212792   3.557   1.840  14.079  0.1640 -0.3710  0.2470
  872MPD2    C312793   3.562   1.758  14.190  0.0038  0.6104  0.1307
  872MPD2    C412794   3.681   1.747  14.269  0.5396  0.3541 -0.0934
  872MPD2    C512795   3.790   1.821  14.225 -0.0896 -0.9134 -0.2530
  872MPD2     H12796   3.469   1.846  14.016 -0.8011 -0.7813  1.5651
  872MPD2    H112797   3.684   1.697  14.365  1.3617  1.4212  0.4321
  872MPD2    H212798   3.867   1.961  14.087 -0.5752 -1.0791 -1.9922
  872MPD2    H312799   3.878   1.819  14.288 -0.4745 -3.3579  0.1808
  872MPD2     N12800   3.444   1.703  14.243  0.1267 -0.1953  0.5466
  872MPD2    H512801   3.463   1.659  14.332 -1.3311  0.7896  1.3435
  872MPD2    N112802   3.654   1.984  13.925 -0.2711 -0.1878  0.1706
  872MPD2    H712803   3.565   1.998  13.880  1.4661  0.1974 -3.1120
  873MPD2     C12804   0.629   1.032   1.323 -0.3422  0.1065 -0.1001
  873MPD2    C112805   0.609   1.030   1.459  0.0981  0.0164 -0.0029
  873MPD2    C212806   0.617   0.899   1.516 -0.2233 -0.3368 -1.1178
  873MPD2    C312807   0.631   0.784   1.430  0.3264 -0.6880 -0.9781
  873MPD2    C412808   0.654   0.799   1.289  0.1635 -0.5631  0.5685
  873MPD2    C512809   0.655   0.931   1.239 -0.3551  0.4125  0.5342
  873MPD2     H12810   0.598   0.886   1.622 -0.4457 -1.3421 -1.2791
  873MPD2    H112811   0.676   0.719   1.218  2.0155 -1.9307  2.6954
  873MPD2    H212812   0.630   1.129   1.274 -2.5406  0.0381 -0.2725
  873MPD2    H312813   0.675   0.952   1.134 -0.8978 -0.9608  0.1554
  873MPD2     N12814   0.625   0.652   1.478  1.1344  0.5713  0.1232
  873MPD2    H512815   0.642   0.582   1.406 -1.0550  0.1465  0.0095
  873MPD2    N112816   0.588   1.148   1.537 -0.0411 -0.1266  0.2362
  873MPD2    H712817   0.574   1.237   1.490 -0.6013 -0.7408 -0.7580
  874MPD2     C12818   0.444   1.431  16.485  0.6288 -0.1727  0.3546
  874MPD2    C112819   0.502   1.452  16.610  0.1428 -0.4921  0.1357
  874MPD2    C212820   0.614   1.539  16.615  0.1292  0.2708 -0.6757
  874MPD2    C312821   0.686   1.577  16.506 -0.1323  0.2175 -0.7161
  874MPD2    C412822   0.639   1.532  16.383 -0.1129  0.4217  0.3901
  874MPD2    C512823   0.511   1.470  16.371 -0.0916  0.5359 -0.5510
  874MPD2     H12824   0.654   1.576  16.709  1.9211  0.5601 -1.5583
  874MPD2    H112825   0.688   1.557  16.289 -0.6568  1.0923  0.2883
  874MPD2    H212826   0.351   1.376  16.479  0.1513  0.7349 -0.4261
  874MPD2    H312827   0.472   1.441  16.274  2.3916 -1.2634 -0.9928
  874MPD2     N12828   0.815   1.629  16.535 -0.3834  0.6068  0.0552
  874MPD2    H512829   0.847   1.653  16.628  0.6635  0.2870 -0.2127
  874MPD2    N112830   0.446   1.392  16.727  0.3837 -0.5019 -0.2263
  874MPD2    H712831   0.353   1.354  16.712  0.2610 -0.2537 -0.1047
  875MPD2     C12832   1.325   0.171  15.180 -0.5957  0.1902 -0.3162
  875MPD2    C112833   1.222   0.114  15.254 -0.4060 -0.1287 -0.4587
  875MPD2    C212834   1.227   0.124  15.390 -0.1124  0.3256  0.5502
  875MPD2    C312835   1.333   0.186  15.454 -0.0399 -0.2998 -0.1601
  875MPD2    C412836   1.428   0.242  15.377 -0.0083 -0.5548  0.7138
  875MPD2    C512837   1.419   0.248  15.239 -0.8101  0.0773  0.3184
  875MPD2     H12838   1.141   0.087  15.445 -1.1293 -0.4230 -1.5731
  875MPD2    H112839   1.525   0.266  15.420  0.1164 -0.0377  0.1344
  875MPD2    H212840   1.335   0.165  15.072  1.2991 -0.4857 -0.0984
  875MPD2    H312841   1.499   0.275  15.172 -1.6672 -0.2892 -0.8655
  875MPD2     N12842   1.347   0.182  15.593 -0.0577  0.1376 -0.0536
  875MPD2    H512843   1.432   0.221  15.632 -0.4667 -0.0063  0.9932
  875MPD2    N112844   1.114   0.042  15.198 -0.3489  0.0271  0.4490
  875MPD2    H712845   1.051   4.713  15.258  1.5881 -0.9236  1.6256
  876MPD2     C12846   0.231   1.047  16.488 -0.5295 -0.1031 -0.3180
  876MPD2    C112847   0.347   1.008  16.428 -0.5298 -0.4462 -0.1331
  876MPD2    C212848   0.409   0.897  16.487  0.4019  0.0838 -0.5174
  876MPD2    C312849   0.380   0.849  16.608 -0.5927 -0.1802  0.3611
  876MPD2    C412850   0.268   0.906  16.669  0.3681 -0.4198 -0.4031
  876MPD2    C512851   0.197   1.005  16.611 -0.4700 -0.2300  0.1256
  876MPD2     H12852   0.487   0.848  16.430 -0.6111 -2.4644  0.3000
  876MPD2    H112853   0.237   0.867  16.765  2.1799 -1.7355 -0.3512
  876MPD2    H212854   0.177   1.128  16.440 -0.4891  1.0652  1.6042
  876MPD2    H312855   0.109   1.041  16.663  0.7209 -1.1533  2.8172
  876MPD2     N12856   0.458   0.736  16.658 -0.6953 -0.5952  0.1825
  876MPD2    H512857   0.542   0.704  16.612 -0.2899  0.3176  0.2887
  876MPD2    N112858   0.389   1.063  16.306  0.3026  0.9111  0.0417
  876MPD2    H712859   0.341   1.140  16.261  0.3664  0.8497 -0.1314
  877MPD2     C12860   0.205   1.387  15.625 -0.7946 -0.7806  0.1322
  877MPD2    C112861   0.338   1.367  15.620  0.1919  0.6232 -0.1289
  877MPD2    C212862   0.410   1.398  15.500 -0.2472 -0.3172  1.1025
  877MPD2    C312863   0.335   1.434  15.389  0.6521 -0.5371 -0.5378
  877MPD2    C412864   0.200   1.431  15.390 -0.6120  0.1172  0.2798
  877MPD2    C512865   0.142   1.425  15.510  0.8827 -0.3195 -0.4728
  877MPD2     H12866   0.519   1.396  15.499 -0.2193  1.0564  1.3694
  877MPD2    H112867   0.129   1.448  15.310 -0.6464  0.7781  0.4529
  877MPD2    H212868   0.145   1.392  15.716  1.0476 -1.3650  1.3811
  877MPD2    H312869   0.035   1.439  15.510  1.0533  1.0370 -1.8024
  877MPD2     N12870   0.396   1.458  15.261  0.1491  0.1779 -0.6269
  877MPD2    H512871   0.336   1.453  15.179  1.6587 -1.2234 -1.6579
  877MPD2    N112872   0.410   1.335  15.736 -0.2613 -0.2359 -0.3653
  877MPD2    H712873   0.509   1.322  15.718 -0.1487  1.2805 -0.8393
  878MPD2     C12874   0.252   1.760  13.842 -0.9215  0.8259 -0.3742
  878MPD2    C112875   0.311   1.634  13.841 -0.2931 -0.9299  0.0680
  878MPD2    C212876   0.257   1.531  13.920  0.6849 -1.1568 -0.1967
  878MPD2    C312877   0.144   1.565  13.995 -0.5041  0.8279  0.5057
  878MPD2    C412878   0.085   1.691  13.999  0.1791  0.1170  0.4438
  878MPD2    C512879   0.143   1.788  13.923  0.9935  0.2144 -0.3418
  878MPD2     H12880   0.312   1.437  13.922 -0.4280 -1.7910  0.2249
  878MPD2    H112881   0.007   1.717  14.070 -2.0890  0.5854 -2.2105
  878MPD2    H212882   0.297   1.834  13.777 -0.4111  2.4754  1.8217
  878MPD2    H312883   0.099   1.886  13.934 -1.8225 -1.2255  1.2651
  878MPD2     N12884   0.093   1.460  14.077 -0.5872  0.3680  0.3136
  878MPD2    H512885   0.158   1.383  14.092 -0.4932  0.2432 -0.7349
  878MPD2    N112886   0.434   1.625  13.769  0.6155 -0.0519  0.2970
  878MPD2    H712887   0.446   1.708  13.710  1.4480 -0.6924 -0.4383
  879MPD2     C12888   0.610   2.474  17.258 -0.8136  0.4207 -0.3687
  879MPD2    C112889   0.658   2.368  17.328 -0.3713  0.3769  0.0822
  879MPD2    C212890   0.628   2.238  17.287  0.1167  0.7106  0.3675
  879MPD2    C312891   0.542   2.220  17.179 -0.1152 -0.5897  0.6408
  879MPD2    C412892   0.482   2.327  17.116 -0.1740 -0.5409  0.1863
  879MPD2    C512893   0.519   2.452  17.158  0.3532  0.8425  0.2532
  879MPD2     H12894   0.673   2.158  17.345 -0.3543  0.1139 -0.0976
  879MPD2    H112895   0.409   2.308  17.038  0.3623  0.3047 -0.5394
  879MPD2    H212896   0.636   2.575  17.287 -1.5662 -0.0419  1.9344
  879MPD2    H312897   0.482   2.539  17.105  0.3212  1.5558  1.4602
  879MPD2     N12898   0.502   2.097  17.125  0.1391  0.1607  0.3199
  879MPD2    H512899   0.456   2.096  17.034  1.4353  2.4454 -0.3504
  879MPD2    N112900   0.743   2.388  17.438  0.3465  0.7326 -0.4866
  879MPD2    H712901   0.747   2.485  17.466 -1.7318  0.7293 -0.1690
  880MPD2     C12902   2.566   3.680   1.035 -0.7442  0.9247 -0.0042
  880MPD2    C112903   2.479   3.746   1.111  0.4340 -0.3379  0.4724
  880MPD2    C212904   2.434   3.683   1.225 -0.3025  0.1629  1.2482
  880MPD2    C312905   2.475   3.558   1.266 -0.5070  0.0555  0.6071
  880MPD2    C412906   2.572   3.495   1.188 -0.6273 -0.4585 -0.0458
  880MPD2    C512907   2.614   3.560   1.074 -0.6074  0.8714  0.9279
  880MPD2     H12908   2.359   3.734   1.285 -1.9048  1.3495 -1.7206
  880MPD2    H112909   2.622   3.400   1.202  0.2456 -0.1093 -0.7675
  880MPD2    H212910   2.575   3.709   0.931  2.0960  1.4385  0.3852
  880MPD2    H312911   2.668   3.501   1.001  0.6657  0.9661  1.7946
  880MPD2     N12912   2.421   3.492   1.380 -0.5125 -0.1290 -0.5760
  880MPD2    H512913   2.370   3.547   1.449  2.3541  1.3354  0.4118
  880MPD2    N112914   2.436   3.870   1.064 -0.0352 -0.2410  0.0840
  880MPD2    H712915   2.465   3.894   0.970 -0.6183  0.2343  0.0214
  881MPD2     C12916   2.057   3.834   0.352  0.2972 -0.1036 -0.1789
  881MPD2    C112917   2.070   3.971   0.344  0.0605  0.1971  0.5624
  881MPD2    C212918   2.113   4.036   0.453 -0.0964  0.3761  0.3830
  881MPD2    C312919   2.126   3.972   0.577 -0.3326  0.5857 -0.0695
  881MPD2    C412920   2.099   3.838   0.581 -0.1562 -0.7986 -0.0584
  881MPD2    C512921   2.074   3.772   0.470 -0.0717  0.0093 -0.0547
  881MPD2     H12922   2.141   4.140   0.441  1.5803 -0.2202 -0.9697
  881MPD2    H112923   2.110   3.790   0.678 -1.7161 -0.2582  0.3916
  881MPD2    H212924   2.060   3.774   0.261 -0.1488  0.3074 -0.4681
  881MPD2    H312925   2.084   3.664   0.479  2.7107  0.0948 -2.1951
  881MPD2     N12926   2.167   4.031   0.699 -0.2213  0.3233 -0.0297
  881MPD2    H512927   2.162   3.973   0.782  0.7494 -1.6798 -1.3831
  881MPD2    N112928   2.088   4.019   0.211  0.4331 -0.0599  0.2889
  881MPD2    H712929   2.049   3.959   0.139  0.0453  0.4796  0.0525
  882MPD2     C12930   0.362   1.503  14.425 -0.3879 -0.1409  0.4254
  882MPD2    C112931   0.327   1.548  14.556  0.4605  0.2262  0.5624
  882MPD2    C212932   0.221   1.643  14.565 -0.3588  0.8150  0.2239
  882MPD2    C312933   0.166   1.699  14.447  0.6501  0.6058  0.8067
  882MPD2    C412934   0.210   1.665  14.322 -0.9785  0.4046 -0.2555
  882MPD2    C512935   0.309   1.568  14.314 -0.3325 -0.5901 -0.0629
  882MPD2     H12936   0.183   1.669  14.664  1.2170  3.2103  0.2153
  882MPD2    H112937   0.184   1.716  14.230 -1.2392 -0.5617 -0.7276
  882MPD2    H212938   0.437   1.427  14.405  1.8758  2.6264 -1.7189
  882MPD2    H312939   0.338   1.546  14.212 -2.9467  1.2874 -1.2391
  882MPD2     N12940   0.059   1.784  14.448  0.1026 -0.6693  0.2868
  882MPD2    H512941   0.012   1.802  14.359 -0.3905 -1.5183  0.3760
  882MPD2    N112942   0.404   1.494  14.665  0.6307 -0.0854  0.0954
  882MPD2    H712943   0.473   1.424  14.641  1.6066  0.6989  0.6295
  883MPD2     C12944   2.109   1.421  16.470 -0.1590 -0.6701 -0.0905
  883MPD2    C112945   2.207   1.507  16.407 -0.2138 -0.5110 -0.3497
  883MPD2    C212946   2.304   1.569  16.484  0.6497 -0.1535  0.0427
  883MPD2    C312947   2.319   1.532  16.613 -0.7216 -0.2936  0.5078
  883MPD2    C412948   2.234   1.445  16.674 -0.4585 -0.3933  0.2116
  883MPD2    C512949   2.125   1.398  16.608 -0.7502 -0.5642 -0.2165
  883MPD2     H12950   2.376   1.634  16.436  0.1950 -0.2275 -0.7322
  883MPD2    H112951   2.235   1.414  16.778 -0.9447  0.1272  0.3684
  883MPD2    H212952   2.034   1.371  16.409  0.1510  0.0876 -1.0843
  883MPD2    H312953   2.046   1.342  16.657  0.5772 -1.3292  1.0325
  883MPD2     N12954   2.443   1.579  16.665 -0.3026 -0.0575 -0.6756
  883MPD2    H512955   2.510   1.622  16.603  0.8869 -0.1154  0.5854
  883MPD2    N112956   2.213   1.526  16.264  0.1351  0.4818 -0.5690
  883MPD2    H712957   2.275   1.601  16.237  0.1891 -0.0209 -1.8778
  884MPD2     C12958   4.068   1.996  15.450 -0.3527 -0.2095 -0.3082
  884MPD2    C112959   4.083   2.128  15.410  0.2675  0.2749 -0.2135
  884MPD2    C212960   3.970   2.207  15.422 -0.1953 -0.1597  0.0175
  884MPD2    C312961   3.856   2.153  15.482 -0.7749  0.3122  0.6300
  884MPD2    C412962   3.851   2.023  15.533  0.0114 -0.4030 -0.1819
  884MPD2    C512963   3.957   1.940  15.499  0.0309  0.3917  0.3301
  884MPD2     H12964   3.970   2.310  15.387  1.8637 -0.1625  0.0005
  884MPD2    H112965   3.762   1.983  15.581 -0.9856  2.6607  0.5684
  884MPD2    H212966   4.153   1.928  15.452 -0.7398 -0.7546 -2.3317
  884MPD2    H312967   3.953   1.836  15.530  2.8724  0.0112 -0.5331
  884MPD2     N12968   3.744   2.241  15.493 -0.1743  0.4054 -0.2950
  884MPD2    H512969   3.754   2.321  15.432  0.1486 -1.0276 -2.1458
  884MPD2    N112970   4.195   2.181  15.344  0.1084  0.3772  0.1454
  884MPD2    H712971   4.185   2.280  15.325  2.7418  0.1755 -2.2243
  885MPD2     C12972   2.046   2.076   0.504 -0.3517 -0.3968  0.4903
  885MPD2    C112973   2.148   2.010   0.431  0.4027  0.4986 -1.0730
  885MPD2    C212974   2.192   2.069   0.316 -0.3156  0.1891 -0.1850
  885MPD2    C312975   2.135   2.188   0.268  0.7211  0.5611  0.1154
  885MPD2    C412976   2.017   2.231   0.321 -0.1612 -0.1226  0.5551
  885MPD2    C512977   1.980   2.180   0.438 -0.1727  0.6883  0.3352
  885MPD2     H12978   2.271   2.022   0.258  1.1200 -0.3278  2.1827
  885MPD2    H112979   1.953   2.309   0.280 -0.7376  0.0124  1.6984
  885MPD2    H212980   2.019   2.041   0.603 -1.1159 -1.4869 -0.1092
  885MPD2    H312981   1.891   2.222   0.484  0.1517  2.2698 -0.4548
  885MPD2     N12982   2.193   2.246   0.152  0.1715  0.1195  0.1642
  885MPD2    H512983   2.281   2.207   0.121  1.2639  1.5573  1.4349
  885MPD2    N112984   2.205   1.893   0.490 -0.0732 -0.7576  0.0394
  885MPD2    H712985   2.169   1.866   0.581 -0.1919 -0.1916  0.1568
  886MPD2     C12986   3.627   0.694  15.632 -0.5546  0.7629  0.1033
  886MPD2    C112987   3.760   0.725  15.641  0.8809 -0.3522 -0.3648
  886MPD2    C212988   3.800   0.846  15.587  0.1731  0.2913 -0.2177
  886MPD2    C312989   3.713   0.934  15.521 -0.4851 -0.4031 -0.0582
  886MPD2    C412990   3.584   0.898  15.517  0.1185 -0.8547 -0.2967
  886MPD2    C512991   3.538   0.779  15.576 -0.2972 -0.3793  0.1760
  886MPD2     H12992   3.907   0.860  15.576  0.3011 -1.1070 -0.8316
  886MPD2    H112993   3.518   0.943  15.444  0.4014 -0.0910 -0.0822
  886MPD2    H212994   3.578   0.605  15.669  0.1550  0.4240  0.2268
  886MPD2    H312995   3.437   0.747  15.555 -0.2443 -1.5018  1.6049
  886MPD2     N12996   3.768   1.043  15.448 -0.1190 -0.0723  0.2300
  886MPD2    H512997   3.862   1.072  15.471 -0.2563  0.7074 -0.2032
  886MPD2    N112998   3.859   0.629  15.694 -1.1249 -0.0290  0.1306
  886MPD2    H712999   3.955   0.664  15.693 -0.4448 -1.8074  1.3421
  887MPD2     C13000   4.523   0.667  15.887 -0.6172  0.2646  0.0822
  887MPD2    C113001   4.389   0.702  15.893  0.7473  0.1013 -0.2843
  887MPD2    C213002   4.355   0.834  15.937 -0.4115  0.2958  0.0299
  887MPD2    C313003   4.454   0.924  15.978 -0.0514 -0.2675  0.3986
  887MPD2    C413004   4.588   0.880  15.986 -0.1528  0.7343 -0.3680
  887MPD2    C513005   4.617   0.750  15.939 -0.5389 -0.2396  0.4223
  887MPD2     H13006   4.250   0.859  15.928 -0.1215  1.4810  0.0254
  887MPD2    H113007   4.673   0.934  16.026 -0.5582  2.2487 -1.5254
  887MPD2    H213008   4.565   0.579  15.839  0.9316  0.3307  1.3215
  887MPD2    H313009   4.721   0.720  15.939 -0.3592  0.3809  2.5793
  887MPD2     N13010   4.411   1.054  16.028  0.2623  0.4289  0.7389
  887MPD2    H513011   4.312   1.072  16.021 -0.2812 -2.6570  0.1687
  887MPD2    N113012   4.283   0.619  15.856 -0.2877 -0.3031 -0.1742
  887MPD2    H713013   4.189   0.656  15.848 -0.2115 -0.1856 -0.5303
  888MPD2     C13014   1.508   1.051  15.147  0.8333  0.5065  0.0194
  888MPD2    C113015   1.529   1.125  15.260  0.3253  0.1267 -0.6150
  888MPD2    C213016   1.563   1.258  15.255  0.5085 -0.4912  0.2621
  888MPD2    C313017   1.549   1.318  15.133 -0.5731 -0.9045  0.9008
  888MPD2    C413018   1.475   1.254  15.033 -0.3470 -0.2448 -0.0798
  888MPD2    C513019   1.464   1.120  15.038  0.4108  0.1793 -0.8165
  888MPD2     H13020   1.584   1.318  15.343  3.0883 -0.0631 -0.6647
  888MPD2    H113021   1.455   1.301  14.938 -2.3638 -0.8894  0.0188
  888MPD2    H213022   1.492   0.944  15.140 -2.4332  0.9877  0.1630
  888MPD2    H313023   1.425   1.073  14.949 -1.7381 -0.7438  0.5881
  888MPD2     N13024   1.574   1.458  15.130  0.8098  0.5834 -0.6113
  888MPD2    H513025   1.624   1.500  15.207 -2.1777  1.7453  0.6973
  888MPD2    N113026   1.527   1.069  15.387 -0.0030 -0.1410 -0.3639
  888MPD2    H713027   1.547   1.126  15.468  1.3779 -1.7243  0.4195
  889MPD2     C13028   1.193   0.630  13.343 -0.0050 -0.2960  0.4402
  889MPD2    C113029   1.259   0.635  13.462  0.1690  0.6162  0.2499
  889MPD2    C213030   1.244   0.751  13.538 -0.9103 -0.1543 -0.0677
  889MPD2    C313031   1.172   0.857  13.478 -0.3189  0.0555  0.0821
  889MPD2    C413032   1.101   0.838  13.359  0.6743 -0.7772  0.3961
  889MPD2    C513033   1.105   0.722  13.295 -0.6526  0.1407 -0.3641
  889MPD2     H13034   1.269   0.762  13.643 -2.2186  0.5154  0.1811
  889MPD2    H113035   1.049   0.922  13.313 -0.0868 -0.1826  2.3220
  889MPD2    H213036   1.180   0.535  13.294 -1.5853 -0.6823  1.6027
  889MPD2    H313037   1.056   0.713  13.199  0.4603  0.0833 -0.9315
  889MPD2     N13038   1.162   0.984  13.541  0.2192 -0.1509 -0.7318
  889MPD2    H513039   1.189   0.989  13.639 -2.0360 -1.4611 -0.0651
  889MPD2    N113040   1.282   0.511  13.526 -0.3824  0.0038  0.2528
  889MPD2    H713041   1.248   0.426  13.483  0.2734  0.8918 -2.0338
  890MPD2     C13042   0.582   2.154  14.881  1.1288 -0.2705  0.3401
  890MPD2    C113043   0.625   2.213  15.002 -0.0412  0.1211 -0.5137
  890MPD2    C213044   0.639   2.130  15.117  0.0468  0.1387  0.6329
  890MPD2    C313045   0.590   2.002  15.119  0.5491 -0.4448 -0.1052
  890MPD2    C413046   0.542   1.949  14.995  0.3396  0.2209  0.9019
  890MPD2    C513047   0.543   2.024  14.882 -0.2298 -0.4423  0.4165
  890MPD2     H13048   0.683   2.168  15.209 -1.1254  0.5603  1.0144
  890MPD2    H113049   0.505   1.848  14.980 -0.0827  0.4079  0.6897
  890MPD2    H213050   0.566   2.210  14.790  1.4342  0.0023  0.4565
  890MPD2    H313051   0.500   1.981  14.792 -0.6769 -1.0309  0.9124
  890MPD2     N13052   0.580   1.931  15.240 -0.4626  0.1578 -0.5574
  890MPD2    H513053   0.634   1.967  15.319  0.2246 -0.8302 -0.5764
  890MPD2    N113054   0.649   2.355  14.994  0.6772  0.0963  0.2426
  890MPD2    H713055   0.644   2.405  14.906 -1.8644  0.0068  0.3313
  891MPD2     C13056   3.345   0.571  16.939  0.2346 -0.0740 -0.8023
  891MPD2    C113057   3.243   0.524  17.020  0.1681 -0.2271 -0.3114
  891MPD2    C213058   3.277   0.427  17.113 -0.4005  0.4875 -0.5589
  891MPD2    C313059   3.404   0.383  17.144 -0.2073 -0.3836  0.7262
  891MPD2    C413060   3.495   0.425  17.051  0.0990 -0.4563  0.6702
  891MPD2    C513061   3.469   0.515  16.951 -0.7425 -0.0586 -0.2721
  891MPD2     H13062   3.206   0.403  17.192  1.2360 -2.6338 -0.0372
  891MPD2    H113063   3.594   0.385  17.036  0.5689  1.2988 -0.9848
  891MPD2    H213064   3.324   0.640  16.858  1.0670 -0.2556 -1.1707
  891MPD2    H313065   3.542   0.528  16.872 -0.8785 -0.5845 -0.4884
  891MPD2     N13066   3.422   0.284  17.248 -0.1020  0.4536  0.2659
  891MPD2    H513067   3.345   0.223  17.274 -1.1955  1.1398 -1.3368
  891MPD2    N113068   3.113   0.579  17.006 -0.1121 -0.0654  0.4934
  891MPD2    H713069   3.105   0.656  16.941 -0.7124 -2.0378 -1.7582
  892MPD2     C13070   4.132   2.375  15.024 -0.1325  0.3355  0.1363
  892MPD2    C113071   4.080   2.244  15.011  0.9626  0.2700  1.1457
  892MPD2    C213072   4.152   2.151  14.932  0.3843  0.3901 -0.1728
  892MPD2    C313073   4.279   2.197  14.884 -0.5480  0.2807  0.3178
  892MPD2    C413074   4.323   2.326  14.902 -0.0386 -0.3489  0.1259
  892MPD2    C513075   4.252   2.412  14.971  0.4301  0.3071  0.0145
  892MPD2     H13076   4.111   2.052  14.913  2.8018 -0.0463 -3.1487
  892MPD2    H113077   4.415   2.367  14.860 -0.1171 -0.4742 -0.1696
  892MPD2    H213078   4.088   2.454  15.083 -2.8469 -1.9050  1.1127
  892MPD2    H313079   4.283   2.516  14.976  0.8189  0.2539 -1.2860
  892MPD2     N13080   4.356   2.120  14.799 -0.2182 -0.0478  0.0219
  892MPD2    H513081   4.429   2.164  14.745 -1.2267 -0.8523 -2.0097
  892MPD2    N113082   3.955   2.202  15.068  0.3500  0.4840 -0.7694
  892MPD2    H713083   3.926   2.105  15.067  2.3278 -0.1262  0.5706
  893MPD2     C13084   2.544   4.280   2.888  0.1357  0.4070 -0.3814
  893MPD2    C113085   2.453   4.343   2.807  0.2102  0.1728  0.0212
  893MPD2    C213086   2.334   4.277   2.774 -0.4536  0.0112 -0.8502
  893MPD2    C313087   2.309   4.147   2.812 -0.1859  0.5073  0.1745
  893MPD2    C413088   2.402   4.083   2.889  0.8844  0.4643  0.3323
  893MPD2    C513089   2.516   4.152   2.929 -0.1993  0.3828  0.2059
  893MPD2     H13090   2.253   4.324   2.719  0.3270  2.1931 -0.1618
  893MPD2    H113091   2.380   3.984   2.927  2.1558 -0.7920 -2.2317
  893MPD2    H213092   2.637   4.332   2.909 -0.0638  0.5870  0.0637
  893MPD2    H313093   2.598   4.098   2.976 -1.5968 -1.0520  0.9597
  893MPD2     N13094   2.191   4.083   2.783 -0.1103  0.7240 -0.6372
  893MPD2    H513095   2.197   3.988   2.819 -1.1564  0.3616 -1.4164
  893MPD2    N113096   2.475   4.479   2.765 -0.0997 -0.3370  0.2010
  893MPD2    H713097   2.559   4.513   2.811  0.1017 -0.8151  0.1920
  894MPD2     C13098   4.125   2.660   1.263  0.3244 -0.5149 -1.2191
  894MPD2    C113099   4.205   2.689   1.366 -0.3979 -0.1305 -0.2295
  894MPD2    C213100   4.285   2.801   1.352 -0.6578 -0.6850  0.4143
  894MPD2    C313101   4.311   2.864   1.231 -0.0650  0.1056 -0.1421
  894MPD2    C413102   4.234   2.820   1.120 -0.0374 -0.2800  0.5275
  894MPD2    C513103   4.146   2.726   1.142 -0.8719  0.0820 -0.1908
  894MPD2     H13104   4.329   2.849   1.439  0.5391 -1.3317  0.1660
  894MPD2    H113105   4.247   2.870   1.025 -1.6440 -0.8192  0.0206
  894MPD2    H213106   4.047   2.585   1.264  0.3861 -0.5804 -1.4664
  894MPD2    H313107   4.080   2.701   1.060 -1.7938 -0.2708  0.6590
  894MPD2     N13108   4.381   2.994   1.232 -0.0064 -0.9145  0.5591
  894MPD2    H513109   4.388   3.044   1.320 -0.8151 -0.6614  0.4782
  894MPD2    N113110   4.202   2.625   1.496 -0.3619  0.4969 -0.0453
  894MPD2    H713111   4.253   2.673   1.570  2.2514 -3.7622  0.9183
  895MPD2     C13112   3.223   1.356  14.090  0.5469  0.1422  0.4412
  895MPD2    C113113   3.246   1.433  13.976  0.3830 -0.6022 -0.2744
  895MPD2    C213114   3.375   1.468  13.948 -0.3082 -0.1272  0.1307
  895MPD2    C313115   3.484   1.429  14.030 -0.4921 -0.5250  0.7575
  895MPD2    C413116   3.451   1.368  14.153 -0.7990  0.2257  0.1611
  895MPD2    C513117   3.324   1.328  14.182  1.0512 -0.3000 -0.2047
  895MPD2     H13118   3.395   1.479  13.842  0.8775  0.8764  0.4715
  895MPD2    H113119   3.531   1.332  14.216 -0.0851 -0.7984 -1.3436
  895MPD2    H213120   3.128   1.314  14.121  0.6007 -0.2014  0.1268
  895MPD2    H313121   3.310   1.265  14.269 -1.4020  1.3461  0.5727
  895MPD2     N13122   3.615   1.439  13.984 -0.7929  0.1981  0.4857
  895MPD2    H513123   3.680   1.382  14.036  0.6986  0.5548 -1.0072
  895MPD2    N113124   3.148   1.468  13.878  0.4206  0.0602 -0.0181
  895MPD2    H713125   3.186   1.495  13.788  2.2183  0.5863  0.8933
  896MPD2     C13126   1.553   3.261   2.465  0.1475 -0.2100 -0.0647
  896MPD2    C113127   1.538   3.272   2.330  0.0537  0.5066 -0.4256
  896MPD2    C213128   1.419   3.236   2.281 -0.5488 -0.3060  0.1155
  896MPD2    C313129   1.314   3.201   2.363 -0.2155 -0.2549  0.4595
  896MPD2    C413130   1.332   3.190   2.500  0.6426 -0.1046 -0.3261
  896MPD2    C513131   1.455   3.216   2.546 -0.1897  0.7918 -0.0507
  896MPD2     H13132   1.403   3.228   2.174  0.3605  1.4032 -0.1346
  896MPD2    H113133   1.255   3.159   2.570  0.6477  1.0426  0.1883
  896MPD2    H213134   1.651   3.284   2.506  0.6259 -1.0872 -0.6971
  896MPD2    H313135   1.467   3.207   2.653  1.2030  0.8956 -0.1892
  896MPD2     N13136   1.193   3.182   2.309 -0.8067  0.6851 -0.2137
  896MPD2    H513137   1.191   3.191   2.207 -0.4826 -0.6554 -0.3345
  896MPD2    N113138   1.644   3.322   2.245  0.5463  0.3596  0.0071
  896MPD2    H713139   1.721   3.374   2.284 -0.2440  2.5294 -1.3300
  897MPD2     C13140   2.039   1.129  10.373 -0.2442  0.0717  0.7814
  897MPD2    C113141   2.054   0.997  10.401  0.4553 -0.3742  0.6938
  897MPD2    C213142   1.935   0.923  10.431 -0.8993  0.0568 -0.3578
  897MPD2    C313143   1.810   0.987  10.441  0.1942  0.5773 -1.2828
  897MPD2    C413144   1.800   1.121  10.395 -0.0531  0.1351 -0.0046
  897MPD2    C513145   1.912   1.188  10.374  0.6246  0.1484 -0.1388
  897MPD2     H13146   1.948   0.820  10.463 -1.2507  0.6877  1.7793
  897MPD2    H113147   1.710   1.182  10.392 -1.0987 -1.5173 -2.5152
  897MPD2    H213148   2.124   1.194  10.359 -0.4846  0.1590 -0.2171
  897MPD2    H313149   1.907   1.289  10.335  0.6197 -0.9898 -3.0881
  897MPD2     N13150   1.700   0.911  10.497  0.3342 -0.3630  0.3081
  897MPD2    H513151   1.716   0.815  10.527 -0.5729 -0.9369 -1.0859
  897MPD2    N113152   2.181   0.935  10.388  0.2298  0.7014  0.2397
  897MPD2    H713153   2.256   1.002  10.380  2.0741 -1.2539  1.0774
  898MPD2     C13154   3.773   0.445   0.028  0.2014 -0.2759  0.0605
  898MPD2    C113155   3.866   0.495  17.625  0.2378  0.1971 -0.6387
  898MPD2    C213156   3.876   0.636  17.613  0.1660 -0.1296  0.3141
  898MPD2    C313157   3.806   0.721   0.001  0.0071 -0.1483 -0.2821
  898MPD2    C413158   3.722   0.664   0.092  0.2866 -0.2293 -0.4988
  898MPD2    C513159   3.712   0.530   0.107  0.3385  0.1051 -0.5418
  898MPD2     H13160   3.942   0.673  17.536 -1.3671  0.5635 -0.6600
  898MPD2    H113161   3.664   0.719   0.165 -0.2818  0.6520 -1.6265
  898MPD2    H213162   3.753   0.343   0.056 -2.8303  0.5302  0.7630
  898MPD2    H313163   3.651   0.487   0.186 -0.6515  1.0622 -0.7792
  898MPD2     N13164   3.814   0.861  17.693 -0.5403 -0.5572  0.3895
  898MPD2    H513165   3.873   0.896  17.618  0.4210 -0.2189  1.2986
  898MPD2    N113166   3.941   0.412  17.537  0.0514 -0.4816 -0.6297
  898MPD2    H713167   3.996   0.466  17.472 -0.5449 -0.7398 -1.3577
  899MPD2     C13168   4.617   1.600   0.110  0.2519 -0.3196 -0.4620
  899MPD2    C113169   4.640   1.717   0.171  0.3964  0.4647 -0.5668
  899MPD2    C213170   4.612   1.720   0.306  1.1060 -1.2287 -0.5114
  899MPD2    C313171   4.571   1.610   0.378  0.3897 -1.1277 -0.0319
  899MPD2    C413172   4.536   1.498   0.306  0.0495 -0.2273 -0.5028
  899MPD2    C513173   4.570   1.488   0.177 -0.8456  0.4177 -0.7337
  899MPD2     H13174   4.622   1.811   0.364  1.2646 -0.9997 -0.8963
  899MPD2    H113175   4.498   1.408   0.355 -3.3523  1.1695 -0.5639
  899MPD2    H213176   4.652   1.573   0.011  0.0416 -2.7097  0.1223
  899MPD2    H313177   4.558   1.391   0.129 -2.1069  0.3928 -0.3696
  899MPD2     N13178   4.541   1.610   0.516 -0.2896 -0.1454  0.5687
  899MPD2    H513179   4.479   1.537   0.549  0.1445 -0.4744  0.6570
  899MPD2    N113180   4.682   1.824   0.091  0.2423 -0.5690 -0.8321
  899MPD2    H713181   4.680   1.809  17.687  0.8846 -0.2934 -0.8876
  900MPD2     C13182   4.603   4.065  13.094 -0.4810 -0.0962 -0.0072
  900MPD2    C113183   4.612   3.955  13.018 -0.1233  0.2591  0.4049
  900MPD2    C213184   4.521   3.934  12.915  0.1506 -0.1056  0.2233
  900MPD2    C313185   4.429   4.029  12.878 -0.4293 -0.3485  0.0336
  900MPD2    C413186   4.421   4.143  12.959  0.6612 -0.6523  0.4409
  900MPD2    C513187   4.512   4.161  13.057 -0.0545 -0.1682 -0.2093
  900MPD2     H13188   4.517   3.843  12.856 -1.0877  0.8659 -1.1823
  900MPD2    H113189   4.339   4.214  12.950  2.5523  1.6288  1.5138
  900MPD2    H213190   4.670   4.078  13.178 -0.9119  2.1788 -0.0124
  900MPD2    H313191   4.502   4.259  13.103  1.2790 -0.2585  0.2527
  900MPD2     N13192   4.345   4.002  12.768 -0.2179 -0.5498  0.0749
  900MPD2    H513193   4.355   3.910  12.726 -1.5133 -0.9322  0.5742
  900MPD2    N113194   4.716   3.857  13.042 -0.2631 -0.7630  0.3235
  900MPD2    H713195   0.052   3.877  13.122  1.1059 -1.2039 -0.5753
  901MPD2     C13196   0.248   2.919  13.435 -0.1075 -1.0334  0.2482
  901MPD2    C113197   0.275   2.907  13.296 -0.6871  0.3751  0.3039
  901MPD2    C213198   0.248   3.018  13.218  0.2221  0.1718  0.3250
  901MPD2    C313199   0.168   3.127  13.263 -0.8166  0.4530  0.3809
  901MPD2    C413200   0.123   3.128  13.394 -0.6478 -0.4078  0.4500
  901MPD2    C513201   0.178   3.030  13.480  0.1195 -0.6888  0.5241
  901MPD2     H13202   0.261   3.009  13.110 -1.9851  2.0289 -0.1147
  901MPD2    H113203   0.051   3.192  13.445 -1.8481 -1.7029  0.3688
  901MPD2    H213204   0.273   2.843  13.509 -1.1398 -2.4355 -0.8258
  901MPD2    H313205   0.143   3.022  13.582 -0.8884  0.9144  0.2955
  901MPD2     N13206   0.155   3.240  13.182  0.4101 -0.0394  0.7948
  901MPD2    H513207   0.191   3.236  13.087  0.2686  1.3769  0.6881
  901MPD2    N113208   0.344   2.789  13.252 -0.4481  0.0274  0.8792
  901MPD2    H713209   0.366   2.714  13.316 -0.5966  0.4509  1.4209
  902MPD2     C13210   3.425   1.677  13.373 -0.6705 -0.7314  0.1175
  902MPD2    C113211   3.335   1.628  13.282 -0.1774  0.1313  0.4293
  902MPD2    C213212   3.362   1.521  13.207 -0.1988 -0.2624 -0.4811
  902MPD2    C313213   3.493   1.484  13.205 -0.2152  0.5843 -0.8081
  902MPD2    C413214   3.583   1.532  13.289 -1.1665  0.2866  0.1755
  902MPD2    C513215   3.550   1.628  13.381 -0.4061  0.3330 -0.0135
  902MPD2     H13216   3.289   1.473  13.144 -2.8129  1.8990  0.9222
  902MPD2    H113217   3.689   1.510  13.282 -0.3997  4.0603  0.1717
  902MPD2    H213218   3.406   1.766  13.432 -0.2479  0.5422 -1.7009
  902MPD2    H313219   3.633   1.664  13.442  0.4827 -1.1144 -0.3603
  902MPD2     N13220   3.533   1.395  13.099  0.1500 -0.0945 -0.7538
  902MPD2    H513221   3.633   1.379  13.104 -0.2095 -1.9532  0.4499
  902MPD2    N113222   3.209   1.698  13.275  0.0304 -0.1367  0.5202
  902MPD2    H713223   3.205   1.777  13.338  0.3831 -0.5544  1.0697
  903MPD2     C13224   3.636   1.119  12.194 -0.2092  0.0213  0.2727
  903MPD2    C113225   3.535   1.165  12.284 -0.2142  0.1858  0.9447
  903MPD2    C213226   3.406   1.162  12.237 -0.3571 -0.2763 -0.3424
  903MPD2    C313227   3.378   1.111  12.111 -0.0110 -0.4188  0.5179
  903MPD2    C413228   3.484   1.084  12.025 -0.1828 -0.0015 -0.4234
  903MPD2    C513229   3.611   1.092  12.067  0.2075  0.0596 -0.3729
  903MPD2     H13230   3.323   1.192  12.300 -0.4543  1.1312 -1.1238
  903MPD2    H113231   3.459   1.058  11.923  0.8783 -0.4116 -0.5870
  903MPD2    H213232   3.738   1.112  12.229  0.0915  1.8012 -0.2493
  903MPD2    H313233   3.699   1.083  12.003  1.2127 -0.6819  1.1216
  903MPD2     N13234   3.243   1.109  12.073  0.3067 -0.3075  0.4527
  903MPD2    H513235   3.173   1.144  12.138 -0.8944 -1.9218  0.0372
  903MPD2    N113236   3.575   1.194  12.416 -0.0019 -0.4065 -0.1023
  903MPD2    H713237   3.675   1.199  12.434 -0.0848 -1.4620  0.6542
  904MPD2     C13238   3.395   0.950  13.841  0.5242 -0.9540  0.1055
  904MPD2    C113239   3.416   0.841  13.920 -0.1798 -1.0597 -0.2741
  904MPD2    C213240   3.514   0.846  14.017  0.5128 -0.6093  0.1078
  904MPD2    C313241   3.572   0.966  14.044  0.2192 -0.4971 -0.4959
  904MPD2    C413242   3.553   1.068  13.958  0.2977 -0.6445  0.1931
  904MPD2    C513243   3.463   1.061  13.854  0.2629  0.3033 -0.3456
  904MPD2     H13244   3.543   0.764  14.081 -1.1013  0.1589  1.8395
  904MPD2    H113245   3.599   1.165  13.972 -0.4118 -0.3943  0.8098
  904MPD2    H213246   3.329   0.959  13.755  0.8763  1.3905  0.0809
  904MPD2    H313247   3.452   1.140  13.781 -1.6054  0.2296 -0.1549
  904MPD2     N13248   3.670   0.968  14.147 -0.8496  0.5877  0.6823
  904MPD2    H513249   3.689   0.888  14.206 -0.4656  0.4217  0.3367
  904MPD2    N113250   3.355   0.714  13.901  0.2575 -0.0127  0.0138
  904MPD2    H713251   3.399   0.633  13.942 -1.2076 -0.0063  1.5877
  905MPD2     C13252   3.311   0.990  13.325 -0.2203  0.2297  0.0506
  905MPD2    C113253   3.291   1.057  13.441  0.1225  0.7417  0.2089
  905MPD2    C213254   3.391   1.137  13.480  0.2950 -0.2424 -0.7963
  905MPD2    C313255   3.512   1.148  13.414 -0.1630  0.7608 -0.0318
  905MPD2    C413256   3.535   1.079  13.297 -0.0165 -0.3343 -0.2697
  905MPD2    C513257   3.430   0.993  13.253  0.1409 -0.0747  0.5285
  905MPD2     H13258   3.378   1.187  13.575  0.8222 -2.6439  0.5224
  905MPD2    H113259   3.624   1.098  13.238  0.0819  1.2190  0.3735
  905MPD2    H213260   3.237   0.919  13.292 -2.1425  2.2713 -0.0379
  905MPD2    H313261   3.435   0.937  13.160 -2.2753 -0.0114  0.3561
  905MPD2     N13262   3.613   1.232  13.457 -0.2291 -0.0054  0.4493
  905MPD2    H513263   3.704   1.226  13.412  1.2151  1.2736  3.2148
  905MPD2    N113264   3.171   1.022  13.503 -0.2562  0.1496 -0.0921
  905MPD2    H713265   3.115   0.944  13.468 -1.7208  0.7408  0.9312
  906MPD2     C13266   0.584   0.528  11.755  0.8500 -0.2355 -0.0686
  906MPD2    C113267   0.526   0.473  11.640 -0.1014  0.3707 -0.5268
  906MPD2    C213268   0.448   0.363  11.652  1.1653 -0.7091  0.7391
  906MPD2    C313269   0.427   0.295  11.774  0.5630  0.2444  0.2597
  906MPD2    C413270   0.487   0.350  11.883  0.6505  0.1650 -0.2359
  906MPD2    C513271   0.563   0.461  11.874  0.4813 -0.1770 -0.9381
  906MPD2     H13272   0.406   0.312  11.566 -0.8702  2.2022  0.0229
  906MPD2    H113273   0.476   0.300  11.979 -2.7484 -1.1839 -1.3255
  906MPD2    H213274   0.644   0.619  11.755  0.8919 -0.2739 -2.6924
  906MPD2    H313275   0.618   0.503  11.958 -0.5507  0.6034 -0.6635
  906MPD2     N13276   0.348   0.181  11.787 -0.0628 -0.6258 -0.4695
  906MPD2    H513277   0.351   0.130  11.875  4.0443  1.2075  0.4392
  906MPD2    N113278   0.530   0.535  11.519  0.3864 -0.0765  0.2444
  906MPD2    H713279   0.508   0.467  11.446  0.5811 -0.1278  0.2340
  907MPD2     C13280   4.415   4.250  15.608  0.3245  0.2555 -0.4885
  907MPD2    C113281   4.401   4.112  15.625  0.2449  0.8127  0.2651
  907MPD2    C213282   4.474   4.050  15.721  0.1928  0.4081 -0.0916
  907MPD2    C313283   4.562   4.118  15.801 -0.8902  0.1955 -0.7810
  907MPD2    C413284   4.584   4.254  15.784 -0.2619  0.3698  0.0627
  907MPD2    C513285   4.508   4.322  15.687  0.1088  0.4366  0.0337
  907MPD2     H13286   4.465   3.944  15.737 -0.2788  1.0569  3.9032
  907MPD2    H113287   4.641   4.316  15.853 -2.0908  1.9206  0.1730
  907MPD2    H213288   4.357   4.310  15.539  2.1603  2.0742 -0.4168
  907MPD2    H313289   4.524   4.429  15.682  1.8017  0.1648 -0.2090
  907MPD2     N13290   4.638   4.045  15.896 -0.2315 -0.0287 -0.0652
  907MPD2    H513291   4.615   3.948  15.910  1.5297 -0.1340  2.0534
  907MPD2    N113292   4.306   4.044  15.550  0.4628  0.3828  0.1815
  907MPD2    H713293   4.308   3.944  15.562 -1.6152  0.3801  0.4256
  908MPD2     C13294   2.467   0.238   9.715 -0.2408 -0.6078  0.0862
  908MPD2    C113295   2.395   0.201   9.830  0.3437 -1.2274  0.7663
  908MPD2    C213296   2.403   0.273   9.947 -0.4956 -0.6651  0.3144
  908MPD2    C313297   2.468   0.397   9.945  0.6108 -0.3792 -0.0441
  908MPD2    C413298   2.534   0.439   9.828  0.1952  0.2059  0.1078
  908MPD2    C513299   2.537   0.360   9.716  0.0421 -0.0670 -0.0804
  908MPD2     H13300   2.350   0.238  10.035  0.8836  0.0908  1.4490
  908MPD2    H113301   2.575   0.538   9.817  1.0155  0.0937  2.0450
  908MPD2    H213302   2.475   0.171   9.630 -2.1943 -2.7780  1.6108
  908MPD2    H313303   2.576   0.389   9.619 -0.5203  0.8061 -0.0532
  908MPD2     N13304   2.462   0.482  10.062  0.7193  0.0091  0.3012
  908MPD2    H513305   2.412   0.451  10.145  1.5187 -0.0814  0.7491
  908MPD2    N113306   2.328   0.077   9.839  0.7218 -0.6046  0.1821
  908MPD2    H713307   2.272   0.065   9.922  1.3839 -3.9874  0.1135
  909MPD2     C13308   2.289   3.272  12.029 -0.0264  0.9030  0.2497
  909MPD2    C113309   2.258   3.384  11.968 -0.7465  0.0628  0.0948
  909MPD2    C213310   2.227   3.496  12.046  0.5612 -0.1258  0.7494
  909MPD2    C313311   2.227   3.486  12.184  0.2509 -0.4701  0.6995
  909MPD2    C413312   2.264   3.371  12.240 -0.2125 -0.5952 -0.3655
  909MPD2    C513313   2.290   3.263  12.163  0.5331  0.6415 -0.8428
  909MPD2     H13314   2.202   3.590  11.997 -0.0501  0.1491  1.5652
  909MPD2    H113315   2.293   3.357  12.344 -1.5632 -0.1504  0.0682
  909MPD2    H213316   2.306   3.180  11.975 -2.2602  0.7434 -0.1806
  909MPD2    H313317   2.337   3.175  12.206 -0.3499  0.1990 -0.7966
  909MPD2     N13318   2.205   3.606  12.257  0.2463  0.4258  0.0554
  909MPD2    H513319   2.174   3.684  12.200 -0.1489  2.0859  2.5379
  909MPD2    N113320   2.257   3.407  11.830 -0.1800  0.5728 -0.6643
  909MPD2    H713321   2.221   3.496  11.798 -1.8373  0.1892  0.1202
  910MPD2     C13322   4.384   0.080  15.605  0.3820  0.0342  0.1012
  910MPD2    C113323   4.266   0.025  15.647 -0.2772  0.8075 -0.2307
  910MPD2    C213324   4.145   0.082  15.615 -0.0134 -0.3913 -0.8600
  910MPD2    C313325   4.136   0.194  15.528 -0.4441 -0.4667  0.0172
  910MPD2    C413326   4.257   0.244  15.487 -0.3533 -0.0445  0.0002
  910MPD2    C513327   4.380   0.190  15.522 -0.7685 -0.2709  0.2113
  910MPD2     H13328   4.059   0.034  15.661 -0.7261  2.1844  0.4987
  910MPD2    H113329   4.263   0.329  15.419  0.4531 -1.1949 -1.3514
  910MPD2    H213330   4.485   0.057  15.636  0.4728 -1.1613 -1.0766
  910MPD2    H313331   4.470   0.248  15.503  0.4429 -2.1978  0.0425
  910MPD2     N13332   4.021   0.257  15.483  0.4812 -0.6181  0.0120
  910MPD2    H513333   4.026   0.345  15.432 -1.6012 -1.2485 -1.3059
  910MPD2    N113334   4.258   4.646  15.751 -0.1703  0.0622 -0.2405
  910MPD2    H713335   4.165   4.609  15.772  0.2379 -1.0999 -0.4627
  911MPD2     C13336   1.453   0.450  16.761  0.3905  0.3236 -0.6516
  911MPD2    C113337   1.445   0.546  16.860 -0.4805  0.0180 -0.7689
  911MPD2    C213338   1.341   0.640  16.858  0.4277 -0.0167  0.4479
  911MPD2    C313339   1.248   0.633  16.753 -0.2868 -0.6584 -0.0694
  911MPD2    C413340   1.260   0.532  16.659 -0.3371  0.1800  0.2994
  911MPD2    C513341   1.362   0.442  16.660  0.3295  0.1989 -0.3627
  911MPD2     H13342   1.339   0.710  16.940  0.0767  0.9465 -0.3870
  911MPD2    H113343   1.183   0.523  16.584 -2.7424  2.6665  2.4599
  911MPD2    H213344   1.533   0.378  16.767 -0.5184 -0.8870 -3.2093
  911MPD2    H313345   1.368   0.367  16.582  0.9929 -1.0120  0.8667
  911MPD2     N13346   1.143   0.733  16.736 -0.0974  0.0486  0.5074
  911MPD2    H513347   1.069   0.720  16.667  0.1748  2.6865 -0.2479
  911MPD2    N113348   1.549   0.539  16.949  0.0698 -0.0706 -0.0453
  911MPD2    H713349   1.600   0.451  16.952 -2.8400 -1.8510 -2.0873
  912MPD2     C13350   0.630   0.636  16.252 -0.4801 -0.1179  0.2688
  912MPD2    C113351   0.725   0.647  16.349  0.1516 -0.4730 -0.2699
  912MPD2    C213352   0.797   0.539  16.397  0.3669 -0.1057 -0.2381
  912MPD2    C313353   0.801   0.422  16.325 -0.3334  0.1147 -0.2564
  912MPD2    C413354   0.707   0.412  16.219  0.7648 -0.0262  0.0332
  912MPD2    C513355   0.624   0.515  16.183 -0.2567 -0.0990  0.3421
  912MPD2     H13356   0.873   0.559  16.472  0.4138  2.2140 -0.9040
  912MPD2    H113357   0.700   0.321  16.160  0.0647  0.8084 -1.1679
  912MPD2    H213358   0.567   0.718  16.221 -1.2720 -0.7764  0.1434
  912MPD2    H313359   0.559   0.502  16.097  2.7087  0.5829 -2.0051
  912MPD2     N13360   0.886   0.317  16.365 -0.4862 -0.3623  0.1566
  912MPD2    H513361   0.920   0.320  16.460  0.6891 -0.1360 -0.2748
  912MPD2    N113362   0.754   0.770  16.413  0.4325  0.2615  0.2451
  912MPD2    H713363   0.705   0.844  16.364 -2.2685 -0.6379  1.5715
  913MPD2     C13364   2.013   2.285  10.864  0.3324  0.0128  0.7716
  913MPD2    C113365   1.922   2.216  10.946  0.4969  0.3348  0.9102
  913MPD2    C213366   1.792   2.206  10.898  0.4274  1.2740  0.9160
  913MPD2    C313367   1.764   2.244  10.770 -0.8634 -0.7044  0.9182
  913MPD2    C413368   1.863   2.290  10.688 -0.8134  0.6093 -0.3481
  913MPD2    C513369   1.985   2.316  10.738 -0.4367  0.4926  0.0778
  913MPD2     H13370   1.715   2.173  10.967  0.0597  2.0512  0.8814
  913MPD2    H113371   1.837   2.318  10.587 -2.2937 -3.1411 -1.0233
  913MPD2    H213372   2.117   2.289  10.896  0.3033  0.3920  0.8149
  913MPD2    H313373   2.055   2.364  10.670 -0.7115  1.8398  0.7439
  913MPD2     N13374   1.639   2.243  10.713 -0.3726  0.3363  0.1800
  913MPD2    H513375   1.636   2.252  10.612 -1.0494  0.8616  0.2468
  913MPD2    N113376   1.964   2.168  11.069  0.2806 -0.5817  0.1332
  913MPD2    H713377   2.060   2.183  11.098 -0.0692 -0.4730  1.2374
  914MPD2     C13378   0.218   2.281  12.399  0.2559 -0.3601 -0.1804
  914MPD2    C113379   0.220   2.418  12.417  0.1467 -0.2216 -0.2655
  914MPD2    C213380   0.253   2.465  12.541 -0.2134 -0.2741 -0.8524
  914MPD2    C313381   0.300   2.377  12.637 -0.3633 -0.3727 -0.3079
  914MPD2    C413382   0.292   2.240  12.621  0.0235 -0.5272  0.2286
  914MPD2    C513383   0.255   2.193  12.498  0.0783 -0.0529 -0.6027
  914MPD2     H13384   0.237   2.568  12.567  0.2281 -1.0957  2.5810
  914MPD2    H113385   0.307   2.166  12.699 -0.4012 -1.9490 -1.0214
  914MPD2    H213386   0.187   2.230  12.309  0.9665 -0.2441 -0.4919
  914MPD2    H313387   0.248   2.086  12.482 -1.3286 -0.0313 -0.1550
  914MPD2     N13388   0.350   2.431  12.765 -0.7279 -0.1627  0.7687
  914MPD2    H513389   0.373   2.530  12.767  0.9671 -0.5595  1.2048
  914MPD2    N113390   0.174   2.500  12.309  0.1681  0.1545  0.8593
  914MPD2    H713391   0.120   2.462  12.232 -0.5029  0.7057  1.0568
  915MPD2     C13392   2.579   2.063  16.094  0.1125 -0.4383  0.1338
  915MPD2    C113393   2.522   2.177  16.050  0.4960 -0.0663  0.4403
  915MPD2    C213394   2.464   2.263  16.141 -0.0667 -0.0895  0.2558
  915MPD2    C313395   2.463   2.241  16.280  0.3441  0.0887  0.1443
  915MPD2    C413396   2.520   2.126  16.324 -0.2689 -0.4788  0.5683
  915MPD2    C513397   2.569   2.040  16.227  0.5663  0.4587 -0.3748
  915MPD2     H13398   2.400   2.340  16.100 -0.4306  0.8948  2.7074
  915MPD2    H113399   2.545   2.109  16.428 -0.1477 -0.7425  0.4955
  915MPD2    H213400   2.620   1.988  16.027 -2.6497  0.0504 -2.1600
  915MPD2    H313401   2.631   1.958  16.263  3.3051  1.6774 -2.3084
  915MPD2     N13402   2.389   2.320  16.372 -0.2191  0.5271 -0.0652
  915MPD2    H513403   2.343   2.396  16.323 -1.7206  1.2867  2.5301
  915MPD2    N113404   2.508   2.189  15.908 -0.1642 -0.1004 -0.4453
  915MPD2    H713405   2.542   2.109  15.856 -1.1551  0.2343 -1.6016
  916MPD2     C13406   0.396   0.258  16.338 -0.0369  0.6471 -0.4283
  916MPD2    C113407   0.502   0.216  16.410 -1.0947 -0.1722 -0.1464
  916MPD2    C213408   0.569   0.099  16.387 -0.5110 -1.1457  0.2033
  916MPD2    C313409   0.544   0.019  16.277 -0.4460  0.7237  0.0715
  916MPD2    C413410   0.445   0.064  16.190 -0.1509 -0.8815 -0.0753
  916MPD2    C513411   0.371   0.181  16.222 -0.4622 -0.8594  0.1846
  916MPD2     H13412   0.654   0.063  16.443 -0.6660 -1.4906  0.2137
  916MPD2    H113413   0.438   0.027  16.089  0.4412 -0.8124 -0.1404
  916MPD2    H213414   0.337   0.345  16.362  0.8194  0.5399  2.0813
  916MPD2    H313415   0.291   0.208  16.155  0.1130 -0.4474 -0.3319
  916MPD2     N13416   0.629   4.634  16.250 -0.0695 -0.8278 -0.2259
  916MPD2    H513417   0.672   4.599  16.336 -1.6625 -3.5504 -0.5547
  916MPD2    N113418   0.529   0.296  16.522 -0.0075  0.4958  0.3694
  916MPD2    H713419   0.465   0.371  16.543 -0.2205  0.2368  0.6448
  917MPD2     C13420   0.828   3.069  11.215  0.5798  0.3829 -0.1763
  917MPD2    C113421   0.889   3.135  11.323  0.8967  0.3690  0.1224
  917MPD2    C213422   0.984   3.229  11.293  0.0562 -0.1386 -0.0391
  917MPD2    C313423   1.043   3.250  11.167  0.2353  0.4437  0.0739
  917MPD2    C413424   0.983   3.177  11.068 -0.0787 -0.4752  0.4123
  917MPD2    C513425   0.883   3.088  11.094  0.1530 -0.0219 -0.3912
  917MPD2     H13426   1.027   3.285  11.375 -1.2956 -3.5982  3.0116
  917MPD2    H113427   1.011   3.199  10.966  0.6988  2.3005  1.2127
  917MPD2    H213428   0.745   3.002  11.232  1.0122 -0.1034 -0.0041
  917MPD2    H313429   0.838   3.038  11.008 -0.9834  1.0666 -0.4360
  917MPD2     N13430   1.153   3.331  11.136  0.3030  1.0259  0.2217
  917MPD2    H513431   1.180   3.352  11.041  1.1904 -0.9444  0.0354
  917MPD2    N113432   0.835   3.109  11.454 -0.3904  0.4795  0.2377
  917MPD2    H713433   0.767   3.033  11.456  0.6676 -0.4551  0.8379
  918MPD2     C13434   1.475   3.298  12.171  0.4780 -0.3714 -0.2868
  918MPD2    C113435   1.424   3.172  12.205  0.5512 -0.3253 -0.7273
  918MPD2    C213436   1.296   3.142  12.187 -0.2636 -0.5097 -0.3158
  918MPD2    C313437   1.209   3.229  12.120 -0.2223 -0.2150  0.1078
  918MPD2    C413438   1.257   3.360  12.106 -0.1410  0.0617 -0.5153
  918MPD2    C513439   1.383   3.395  12.139  0.5320 -0.4993  0.2691
  918MPD2     H13440   1.261   3.039  12.192  1.5615 -1.0858  0.3810
  918MPD2    H113441   1.209   3.450  12.071  0.5550  1.7568  2.8729
  918MPD2    H213442   1.579   3.322  12.185  0.2282  1.7660 -2.2279
  918MPD2    H313443   1.420   3.495  12.123  0.1911 -0.4007  0.1036
  918MPD2     N13444   1.080   3.186  12.074  0.3235  0.5729 -0.4227
  918MPD2    H513445   1.065   3.087  12.089 -1.0262  1.0264  1.1830
  918MPD2    N113446   1.505   3.067  12.264 -0.0123 -0.1510 -0.4615
  918MPD2    H713447   1.455   2.981  12.284 -0.5564  0.3021  0.1267
  919MPD2     C13448   1.922   2.107  11.754  0.0768 -0.2000 -0.7842
  919MPD2    C113449   1.803   2.045  11.760 -0.2870  0.9442  0.1209
  919MPD2    C213450   1.686   2.105  11.737  0.6145  0.2987 -0.3405
  919MPD2    C313451   1.690   2.225  11.669 -0.4264 -0.4180 -0.0173
  919MPD2    C413452   1.817   2.287  11.652  0.5611  1.0176  0.3620
  919MPD2    C513453   1.932   2.231  11.702 -0.4870  0.7244  0.5348
  919MPD2     H13454   1.596   2.047  11.749  0.6862  0.0047 -1.3011
  919MPD2    H113455   1.827   2.374  11.589  0.7002 -0.7109 -1.9884
  919MPD2    H213456   2.017   2.066  11.787 -0.9487 -0.9167  1.2758
  919MPD2    H313457   2.033   2.263  11.678 -1.0294  1.2655 -1.0026
  919MPD2     N13458   1.573   2.280  11.599  0.1958  0.3921 -0.6981
  919MPD2    H513459   1.594   2.345  11.524 -0.4650  2.7348  1.1458
  919MPD2    N113460   1.798   1.916  11.809  0.4812  0.7376  0.0059
  919MPD2    H713461   1.708   1.869  11.821  1.0964 -0.5037 -0.2088
  920MPD2     C13462   1.408   2.681  10.814  0.4623 -0.6511 -0.3356
  920MPD2    C113463   1.301   2.595  10.835 -0.6620  0.1356 -0.4595
  920MPD2    C213464   1.270   2.557  10.964 -0.0348 -0.5473 -0.3522
  920MPD2    C313465   1.355   2.590  11.072  0.5007  0.3827  0.6774
  920MPD2    C413466   1.456   2.687  11.052 -0.1243 -0.3977 -0.4173
  920MPD2    C513467   1.489   2.718  10.922  0.2887  0.1333 -0.4282
  920MPD2     H13468   1.183   2.493  10.971 -1.7053  1.3109 -4.2352
  920MPD2    H113469   1.525   2.724  11.127 -1.8685 -2.7359  2.3306
  920MPD2    H213470   1.435   2.730  10.721 -0.7552  0.9411  0.1457
  920MPD2    H313471   1.567   2.791  10.903  0.3412 -0.2298 -1.5980
  920MPD2     N13472   1.315   2.534  11.188 -0.0143  0.1627 -0.3846
  920MPD2    H513473   1.234   2.472  11.182 -0.5044  0.7832 -0.2614
  920MPD2    N113474   1.205   2.557  10.735  0.0184 -0.0225  0.6027
  920MPD2    H713475   1.117   2.519  10.768  0.2034 -1.5101 -0.6244
  921MPD2     C13476   2.452   0.690  17.505 -0.3836 -0.2580 -0.0141
  921MPD2    C113477   2.447   0.688  17.364 -0.4232  0.3003 -0.1903
  921MPD2    C213478   2.325   0.653  17.310 -0.1354 -0.1638  0.3280
  921MPD2    C313479   2.215   0.628  17.383  0.1933  0.0950 -0.5392
  921MPD2    C413480   2.221   0.628  17.525  0.1684  0.2539 -1.0886
  921MPD2    C513481   2.339   0.671  17.581  1.1971 -0.0899 -0.5156
  921MPD2     H13482   2.323   0.658  17.202  2.5987 -1.8476  0.1889
  921MPD2    H113483   2.131   0.604  17.580  0.6619  0.1264 -0.3328
  921MPD2    H213484   2.538   0.721  17.564  0.2303  1.3648 -1.7540
  921MPD2    H313485   2.339   0.691  17.687  0.4418 -0.2892 -0.4806
  921MPD2     N13486   2.094   0.594  17.308 -0.7857 -0.1444  0.1996
  921MPD2    H513487   2.102   0.616  17.210 -2.0134 -0.1690  0.0983
  921MPD2    N113488   2.568   0.709  17.285 -0.0466 -0.2586 -0.1406
  921MPD2    H713489   2.657   0.703  17.334 -0.4253 -1.8311  0.3652
  922MPD2     C13490   3.429   2.974  17.020  0.2574  0.2632 -0.4698
  922MPD2    C113491   3.510   2.978  17.134 -0.0890 -0.8325  0.0911
  922MPD2    C213492   3.454   2.963  17.262 -0.0031 -0.3535 -0.2694
  922MPD2    C313493   3.317   2.930  17.275 -1.0416  1.0946 -1.1507
  922MPD2    C413494   3.244   2.912  17.159 -0.6546 -0.5854 -0.0073
  922MPD2    C513495   3.297   2.933  17.033 -0.5352 -0.4673  0.5941
  922MPD2     H13496   3.510   2.966  17.355 -0.1633  0.0952 -0.1871
  922MPD2    H113497   3.138   2.889  17.166 -0.6290 -0.3093  1.3005
  922MPD2    H213498   3.470   2.996  16.923 -0.7418 -2.0283 -1.4036
  922MPD2    H313499   3.234   2.910  16.948  0.0362 -1.1249  0.3565
  922MPD2     N13500   3.250   2.906  17.394  0.0335  0.1597  0.2023
  922MPD2    H513501   3.153   2.876  17.382  0.9588 -3.7757  2.6383
  922MPD2    N113502   3.637   3.034  17.130  0.4631  0.6862 -0.4615
  922MPD2    H713503   3.676   3.074  17.215  2.0173 -1.5676 -0.0985
  923MPD2     C13504   4.671   0.164   9.961  0.3084  0.0912  0.0833
  923MPD2    C113505   4.653   0.292  10.017 -0.1492  0.0312 -0.8153
  923MPD2    C213506   0.024   0.338  10.109  0.6908  0.1096 -0.4123
  923MPD2    C313507   0.132   0.261  10.142  0.6068 -0.1860  0.0942
  923MPD2    C413508   0.141   0.134  10.088  0.1229 -0.4579 -0.2815
  923MPD2    C513509   0.055   0.086   9.993 -0.3402 -0.0217  0.6914
  923MPD2     H13510   0.012   0.429  10.167  0.4138  2.4131 -4.0909
  923MPD2    H113511   0.217   0.068  10.127 -0.3867 -0.3169  0.9907
  923MPD2    H213512   4.610   0.120   9.883  0.9657 -1.0054  0.1988
  923MPD2    H313513   0.067   4.706   9.963  0.8839  0.5919 -0.9263
  923MPD2     N13514   0.208   0.298  10.249 -0.3840 -0.2235 -0.4140
  923MPD2    H513515   0.266   0.220  10.280 -0.7798 -0.7325 -0.9706
  923MPD2    N113516   4.557   0.379   9.968 -0.0589 -0.0518 -0.4308
  923MPD2    H713517   4.501   0.340   9.893  0.3668 -1.7484  0.1451
  924MPD2     C13518   0.371   3.638  15.869 -0.2257  0.3535  0.4239
  924MPD2    C113519   0.301   3.641  15.988  0.4100 -0.6134  0.1357
  924MPD2    C213520   0.338   3.739  16.076 -0.2277 -0.1619  0.0185
  924MPD2    C313521   0.429   3.837  16.045  0.2278  0.1744  0.2560
  924MPD2    C413522   0.494   3.840  15.922  0.4096  0.2360 -0.0929
  924MPD2    C513523   0.457   3.739  15.833  0.0049 -0.3236 -0.2811
  924MPD2     H13524   0.299   3.736  16.177  1.0394 -1.1051  0.4871
  924MPD2    H113525   0.571   3.910  15.893  0.8937 -0.4552 -0.4735
  924MPD2    H213526   0.351   3.562  15.794 -1.9852  0.2251  1.0358
  924MPD2    H313527   0.515   3.734  15.741  2.0794 -1.0457  1.0533
  924MPD2     N13528   0.457   3.949  16.131  0.2603  0.5872  0.0780
  924MPD2    H513529   0.542   3.999  16.107  1.7123 -1.1356  1.5822
  924MPD2    N113530   0.205   3.547  16.014  0.6056 -0.8945 -0.8809
  924MPD2    H713531   0.180   3.482  15.941  1.3059 -2.2245  0.0754
  925MPD2     C13532   3.416   1.386  14.889  0.6197 -0.2451 -0.1005
  925MPD2    C113533   3.280   1.377  14.854  0.5109 -0.1357 -0.7033
  925MPD2    C213534   3.196   1.308  14.941 -0.1382 -0.6458  0.0448
  925MPD2    C313535   3.244   1.269  15.076  0.4690  0.3531  0.0983
  925MPD2    C413536   3.375   1.280  15.108 -0.5556  0.6362 -0.3619
  925MPD2    C513537   3.457   1.337  15.014 -0.2746  0.4890  0.0324
  925MPD2     H13538   3.095   1.287  14.907 -1.1021  1.1708  1.7643
  925MPD2    H113539   3.424   1.236  15.194 -1.0295  1.1371  0.1592
  925MPD2    H213540   3.493   1.425  14.823  0.2494  1.2933  0.3848
  925MPD2    H313541   3.563   1.343  15.035 -0.3709 -0.3111  0.7223
  925MPD2     N13542   3.162   1.207  15.168  0.2234  0.2598  0.4233
  925MPD2    H513543   3.202   1.172  15.254 -3.3017  0.8125  2.2559
  925MPD2    N113544   3.241   1.411  14.721 -0.3581  0.1731 -0.3843
  925MPD2    H713545   3.149   1.374  14.700 -0.4675 -1.2396  2.5623
  926MPD2     C13546   2.749   0.079  13.835  0.3263  0.2820 -0.5767
  926MPD2    C113547   2.654   0.056  13.734  0.0961  0.0730 -0.6035
  926MPD2    C213548   2.680   0.086  13.601 -0.1027  0.1060 -0.1989
  926MPD2    C313549   2.803   0.136  13.570  0.0481  0.4234  0.5254
  926MPD2    C413550   2.894   0.155  13.672  0.3807  0.4292  0.2110
  926MPD2    C513551   2.868   0.130  13.797 -0.4943  0.3750  0.1206
  926MPD2     H13552   2.606   0.070  13.523  0.0190  2.6768 -0.8163
  926MPD2    H113553   2.985   0.207  13.643 -0.2202  1.3994  0.0606
  926MPD2    H213554   2.731   0.051  13.938  0.8640  2.7492  0.1690
  926MPD2    H313555   2.944   0.146  13.872 -0.6690 -0.2547  0.4277
  926MPD2     N13556   2.846   0.157  13.443  0.0993 -0.5316 -0.7805
  926MPD2    H513557   2.946   0.175  13.441  0.2418 -1.3337 -0.7216
  926MPD2    N113558   2.525   0.008  13.765  0.3209 -0.0681  0.6654
  926MPD2    H713559   2.461   0.008  13.686  0.2983  0.4932  0.6901
  927MPD2     C13560   1.142   2.019   0.589 -0.6374  0.0050  0.2101
  927MPD2    C113561   1.246   2.016   0.680 -0.2606  0.8398  0.2967
  927MPD2    C213562   1.367   2.053   0.624 -0.1089 -0.6232 -0.8538
  927MPD2    C313563   1.381   2.116   0.497  0.0547 -0.1188 -0.0024
  927MPD2    C413564   1.272   2.121   0.416 -0.0368  0.7172  0.3813
  927MPD2    C513565   1.158   2.057   0.459  0.3790  0.5628  0.3227
  927MPD2     H13566   1.457   2.049   0.685 -1.5895 -0.4703  1.3225
  927MPD2    H113567   1.280   2.159   0.315  0.7532  1.2644  0.6528
  927MPD2    H213568   1.044   1.988   0.625 -1.1458 -0.5592 -1.6441
  927MPD2    H313569   1.071   2.055   0.395  0.0807  0.2638  0.7389
  927MPD2     N13570   1.509   2.159   0.455 -0.6703 -0.0812  0.4905
  927MPD2    H513571   1.587   2.119   0.504 -2.4027  0.1096  3.3995
  927MPD2    N113572   1.220   1.980   0.817  1.1839  0.8509 -0.0355
  927MPD2    H713573   1.124   1.958   0.839  0.9528  1.9316  0.0313
  928MPD2     C13574   4.651   0.316   1.403 -0.6470 -0.1657  0.0738
  928MPD2    C113575   4.540   0.276   1.326  0.1789 -0.5325  0.6939
  928MPD2    C213576   4.512   0.348   1.210  0.6281 -0.2864  0.1908
  928MPD2    C313577   4.600   0.446   1.166 -0.3626 -0.2663 -1.0047
  928MPD2    C413578   4.712   0.480   1.231  0.9465  0.4732  0.1544
  928MPD2    C513579   0.014   0.411   1.349 -0.0510  0.2206 -0.1661
  928MPD2     H13580   4.432   0.335   1.138  2.2720  0.9647 -1.8389
  928MPD2    H113581   0.063   0.549   1.195  0.7381  0.7221  0.1991
  928MPD2    H213582   4.669   0.271   1.500  1.2415 -0.2607 -0.3166
  928MPD2    H313583   0.106   0.436   1.401 -0.1545  1.2473 -0.4813
  928MPD2     N13584   4.567   0.508   1.045  0.0599 -0.6562 -0.1793
  928MPD2    H513585   4.487   0.466   0.998  0.8624 -1.6674 -0.6538
  928MPD2    N113586   4.459   0.173   1.384 -0.0013 -0.3054 -0.0360
  928MPD2    H713587   4.501   0.123   1.461 -2.7471  1.1689  2.4350
  929MPD2     C13588   3.367   0.776  10.071  0.6695 -0.4257 -0.8662
  929MPD2    C113589   3.402   0.658  10.126 -0.4592 -0.2111 -0.9337
  929MPD2    C213590   3.470   0.665  10.245 -0.2611  0.1745  0.4802
  929MPD2    C313591   3.524   0.777  10.297 -0.7489  0.3394  0.3268
  929MPD2    C413592   3.496   0.900  10.233  0.4108  0.5520  0.0899
  929MPD2    C513593   3.416   0.898  10.121  0.1039  0.0032  0.1049
  929MPD2     H13594   3.505   0.572  10.288  0.5169  0.3904  0.3340
  929MPD2    H113595   3.528   0.993  10.277 -1.7406  0.6018  1.5366
  929MPD2    H213596   3.294   0.790   9.993  0.7366  0.0994 -0.8311
  929MPD2    H313597   3.393   0.993  10.075 -1.3367 -0.2928  0.2266
  929MPD2     N13598   3.612   0.793  10.413 -0.2527  0.2058 -0.4189
  929MPD2    H513599   3.648   0.886  10.432 -1.4205  0.9267 -1.7120
  929MPD2    N113600   3.370   0.549  10.051 -0.0898  0.4416 -0.3216
  929MPD2    H713601   3.321   0.559   9.962  0.8787 -3.7125 -1.3340
  930MPD2     C13602   1.788   2.737  14.642 -0.0767  0.0627  0.0930
  930MPD2    C113603   1.720   2.847  14.601  0.1195 -0.5572 -0.6080
  930MPD2    C213604   1.608   2.834  14.521  0.3467  0.1870 -0.3574
  930MPD2    C313605   1.588   2.710  14.459  0.2128 -0.0730  0.5043
  930MPD2    C413606   1.652   2.599  14.496  0.1287  0.3462 -0.4254
  930MPD2    C513607   1.755   2.612  14.590  0.4539 -0.1046 -0.2827
  930MPD2     H13608   1.550   2.919  14.484  2.4814  2.0456  0.5715
  930MPD2    H113609   1.633   2.505  14.445 -1.7055 -0.5018  1.8224
  930MPD2    H213610   1.875   2.735  14.706  0.9148 -0.7479 -1.2768
  930MPD2    H313611   1.823   2.533  14.621  1.4680  1.1219  0.6292
  930MPD2     N13612   1.495   2.689  14.355 -0.9859  0.2472  0.1637
  930MPD2    H513613   1.476   2.593  14.328  0.0368 -0.1827  0.9976
  930MPD2    N113614   1.775   2.969  14.637 -0.1089 -0.3239 -0.0729
  930MPD2    H713615   1.859   2.961  14.693  1.4336  2.2679 -1.9997
  931MPD2     C13616   1.568   1.700   1.427  0.0433 -0.0562  0.3046
  931MPD2    C113617   1.465   1.781   1.473 -0.6207  0.3007 -0.0630
  931MPD2    C213618   1.445   1.806   1.614 -0.1803  0.1275  0.0806
  931MPD2    C313619   1.541   1.763   1.699  0.5147  1.0169  0.0356
  931MPD2    C413620   1.647   1.684   1.648 -0.3496 -0.0875 -0.3340
  931MPD2    C513621   1.657   1.651   1.516 -0.7165  0.5838  0.4385
  931MPD2     H13622   1.371   1.877   1.649 -0.3285 -1.2807  2.5788
  931MPD2    H113623   1.728   1.641   1.705  0.6433 -0.0221 -1.6908
  931MPD2    H213624   1.589   1.677   1.323 -1.4938  0.9402 -0.2202
  931MPD2    H313625   1.742   1.596   1.478 -0.5365 -0.4711  2.4221
  931MPD2     N13626   1.532   1.786   1.840  0.2602  0.0561  0.0148
  931MPD2    H513627   1.614   1.765   1.897  0.1675  0.5543  0.3345
  931MPD2    N113628   1.369   1.821   1.381 -0.3290 -0.2606 -0.0815
  931MPD2    H713629   1.377   1.785   1.286  1.4199  1.5483 -0.6235
  932MPD2     C13630   3.697   1.210  11.704 -0.0386 -0.2151  0.1578
  932MPD2    C113631   3.783   1.291  11.788  0.1947 -0.0470 -0.1665
  932MPD2    C213632   3.888   1.236  11.859  0.9695  0.1166 -0.2210
  932MPD2    C313633   3.921   1.107  11.844 -0.1466 -0.2476 -0.6553
  932MPD2    C413634   3.839   1.030  11.765 -0.3891 -0.4540  0.5725
  932MPD2    C513635   3.726   1.076  11.699  0.0968  0.6144  0.6254
  932MPD2     H13636   3.939   1.301  11.930 -0.4238 -0.2544  1.1209
  932MPD2    H113637   3.868   0.928  11.742 -1.1561 -0.4568 -0.3812
  932MPD2    H213638   3.615   1.260  11.654 -1.7998 -2.9680  0.3210
  932MPD2    H313639   3.670   1.011  11.633  1.6146  0.6131 -0.6551
  932MPD2     N13640   4.038   1.049  11.895  0.4596  0.4164  0.5602
  932MPD2    H513641   4.030   0.948  11.907 -2.3466  0.5932  0.3299
  932MPD2    N113642   3.790   1.430  11.791 -0.2683 -0.2668  0.1086
  932MPD2    H713643   3.863   1.468  11.850 -0.6317  0.3050  0.1878
  933MPD2     C13644   3.612   0.004   1.670 -0.1997 -0.3032  0.0203
  933MPD2    C113645   3.670   4.717   1.546 -0.1572 -0.3643  0.5661
  933MPD2    C213646   3.590   4.718   1.435 -0.4527  0.5256  0.2990
  933MPD2    C313647   3.455   0.017   1.450  0.3775 -0.1289 -0.1293
  933MPD2    C413648   3.403   0.039   1.571  0.4192 -0.7283 -0.1668
  933MPD2    C513649   3.480   0.024   1.684 -0.8437 -0.1186  0.1243
  933MPD2     H13650   3.632   4.710   1.336 -0.9972 -1.3961  0.2314
  933MPD2    H113651   3.302   0.075   1.583  0.3394 -1.5084  1.4286
  933MPD2    H213652   3.677   4.703   1.753 -0.6957  0.0802  0.5227
  933MPD2    H313653   3.443   0.036   1.785  0.8551  1.8855  0.4976
  933MPD2     N13654   3.382   0.029   1.334  0.1982  0.5144  0.0618
  933MPD2    H513655   3.430   0.023   1.245 -0.0332 -1.3153  0.0586
  933MPD2    N113656   3.817   4.713   1.543 -0.1468  0.2997  0.5228
  933MPD2    H713657   3.861   4.707   1.635 -0.1478  0.7816  0.5555
  934MPD2     C13658   0.145   3.103   2.748  0.0311 -0.4854 -0.0570
  934MPD2    C113659   0.237   3.017   2.708  0.8821  0.0435  0.2711
  934MPD2    C213660   0.245   2.976   2.576  0.0057 -0.8473 -0.6265
  934MPD2    C313661   0.157   3.022   2.485 -1.0358  0.2611 -0.6294
  934MPD2    C413662   0.060   3.115   2.523  0.2283  0.5239  0.0193
  934MPD2    C513663   0.052   3.149   2.659 -0.4962 -0.4015 -0.4900
  934MPD2     H13664   0.308   2.891   2.552 -0.5522 -1.0658 -1.3000
  934MPD2    H113665   4.715   3.163   2.455 -0.4944  2.3997  2.0840
  934MPD2    H213666   0.133   3.131   2.852 -0.2019  0.5470 -0.3590
  934MPD2    H313667   4.697   3.219   2.685 -0.5798 -1.1557  1.2765
  934MPD2     N13668   0.145   2.958   2.354 -0.3468  0.2271 -0.0840
  934MPD2    H513669   0.065   2.994   2.302 -1.2678 -1.8056 -0.0808
  934MPD2    N113670   0.327   2.954   2.798  0.5503  0.4958 -0.3283
  934MPD2    H713671   0.396   2.896   2.751  0.1067 -0.6697  0.4434
  935MPD2     C13672   0.452   2.092   1.976 -0.2745  0.4656 -0.0361
  935MPD2    C113673   0.426   2.171   1.862 -0.9722  0.2354 -0.4203
  935MPD2    C213674   0.384   2.300   1.887  0.6798 -0.0260 -0.2444
  935MPD2    C313675   0.334   2.338   2.012  0.3273  0.1298  0.3386
  935MPD2    C413676   0.348   2.251   2.116  0.3286  0.0775 -0.5727
  935MPD2    C513677   0.409   2.130   2.101  0.2145  0.0227  0.2551
  935MPD2     H13678   0.376   2.377   1.810 -0.1457 -0.9557 -1.1021
  935MPD2    H113679   0.323   2.287   2.216 -0.3266  0.4678 -0.8824
  935MPD2    H213680   0.493   1.992   1.963  0.0770  0.7768 -1.3570
  935MPD2    H313681   0.423   2.070   2.190  1.8754  1.6294  1.0673
  935MPD2     N13682   0.275   2.466   2.038 -0.4404  0.1160 -0.6794
  935MPD2    H513683   0.258   2.491   2.135  0.8811 -0.1491 -0.3708
  935MPD2    N113684   0.458   2.134   1.727  0.0296 -0.3187  0.1345
  935MPD2    H713685   0.432   2.197   1.652  1.9668 -1.3327 -1.3859
  936MPD2     C13686   0.196   4.586  13.216  0.6671 -0.4536  0.7494
  936MPD2    C113687   0.154   4.618  13.340 -0.2738 -0.5711 -0.1433
  936MPD2    C213688   0.231   4.712  13.405 -0.1850  0.1018 -0.0606
  936MPD2    C313689   0.346   0.050  13.356  0.1499  0.8947  0.4890
  936MPD2    C413690   0.388   0.020  13.230 -0.0417 -0.3617  0.2184
  936MPD2    C513691   0.303   4.653  13.163  0.0230  0.1909  0.2852
  936MPD2     H13692   0.206   0.008  13.509 -1.1490  0.9758 -0.4475
  936MPD2    H113693   0.480   0.049  13.181 -0.5949 -0.5892 -0.9483
  936MPD2    H213694   0.156   4.509  13.150 -1.0171  1.1634 -0.1278
  936MPD2    H313695   0.337   4.619  13.066 -0.8859  0.6995 -0.2074
  936MPD2     N13696   0.407   0.147  13.441 -0.7080 -0.2312  0.2134
  936MPD2    H513697   0.357   0.169  13.527  0.1294  2.8248 -0.0709
  936MPD2    N113698   0.038   4.556  13.399  0.1125 -0.0136 -0.3950
  936MPD2    H713699   0.028   4.555  13.500 -3.0993  0.1778 -0.7148
  937MPD2     C13700   2.086   1.121  11.680 -0.2448 -0.5066  0.6825
  937MPD2    C113701   2.146   1.243  11.710 -0.1821  0.5601 -0.6255
  937MPD2    C213702   2.253   1.283  11.631  0.4444 -0.2697  0.2495
  937MPD2    C313703   2.318   1.193  11.545 -0.1302 -0.3943  0.1634
  937MPD2    C413704   2.267   1.064  11.524 -0.1645 -0.8619  0.5769
  937MPD2    C513705   2.151   1.038  11.594  0.4636 -0.5848  0.6510
  937MPD2     H13706   2.290   1.385  11.632  1.5119 -0.6899  1.8232
  937MPD2    H113707   2.315   0.992  11.458 -0.9575  2.0014 -3.1142
  937MPD2    H213708   1.993   1.084  11.721  0.2388 -1.2865  1.0668
  937MPD2    H313709   2.102   0.944  11.571  1.5601 -0.7569 -0.9982
  937MPD2     N13710   2.425   1.253  11.469  0.2109 -0.5440 -0.0450
  937MPD2    H513711   2.430   1.354  11.480  0.7923 -1.0239  4.2499
  937MPD2    N113712   2.071   1.350  11.777 -0.1879  0.4937  0.4901
  937MPD2    H713713   2.126   1.432  11.798  0.5808 -0.0088  0.4373
  938MPD2     C13714   0.259   3.123   0.909 -0.3348  0.0196 -0.1051
  938MPD2    C113715   0.294   3.031   1.005 -0.0657  0.2752 -0.6096
  938MPD2    C213716   0.194   2.955   1.065 -0.2660  0.1139  1.0398
  938MPD2    C313717   0.072   2.952   1.011 -0.2394 -0.2717 -0.0576
  938MPD2    C413718   0.043   3.035   0.909 -0.1857  0.5520  0.2797
  938MPD2    C513719   0.131   3.129   0.863 -0.5702 -0.5166  0.5504
  938MPD2     H13720   0.220   2.888   1.146  1.8487  0.1893  0.4089
  938MPD2    H113721   4.670   3.035   0.858  1.1593  2.5269 -2.2613
  938MPD2    H213722   0.314   3.211   0.876 -3.3069  2.7544  2.1603
  938MPD2    H313723   0.116   3.214   0.798 -3.0648 -2.2176 -1.1145
  938MPD2     N13724   4.688   2.872   1.056 -0.1132 -0.5324 -0.5307
  938MPD2    H513725   4.596   2.884   1.015 -1.1382 -4.3321  0.6574
  938MPD2    N113726   0.432   3.010   1.039  0.1873 -0.0869  0.6017
  938MPD2    H713727   0.455   2.938   1.107 -0.6308  0.3429  1.3377
  939MPD2     C13728   1.540   3.191   1.612 -0.2577 -0.1199  0.7554
  939MPD2    C113729   1.471   3.247   1.505 -0.4395 -0.1383 -0.2314
  939MPD2    C213730   1.498   3.195   1.376  0.7579 -0.1356  0.4067
  939MPD2    C313731   1.616   3.125   1.352  0.0155  0.3705 -0.5809
  939MPD2    C413732   1.692   3.088   1.459 -0.2684 -0.0013 -0.4729
  939MPD2    C513733   1.651   3.119   1.582 -0.1976  1.1128 -0.6285
  939MPD2     H13734   1.448   3.234   1.288  0.5108 -0.0264  0.5959
  939MPD2    H113735   1.779   3.026   1.442  0.0791  0.4034 -0.1399
  939MPD2    H213736   1.504   3.202   1.714  1.5679 -0.6695  1.4592
  939MPD2    H313737   1.715   3.093   1.665 -0.6322  0.3875 -0.5190
  939MPD2     N13738   1.656   3.107   1.217  0.2687  0.4138  0.5377
  939MPD2    H513739   1.591   3.143   1.148  0.6506  2.4369  1.2446
  939MPD2    N113740   1.360   3.330   1.537  0.5449 -0.1608  0.6681
  939MPD2    H713741   1.327   3.336   1.633 -1.1874 -1.7667  0.1650
  940MPD2     C13742   0.416   0.088  14.036 -0.0038 -0.8885  0.0844
  940MPD2    C113743   0.335   0.013  13.953  0.4652  0.5920 -0.4174
  940MPD2    C213744   0.382   4.690  13.827  0.5758 -0.1116 -0.0795
  940MPD2    C313745   0.508   4.716  13.793 -0.4350 -0.7772 -0.7098
  940MPD2    C413746   0.589   0.070  13.872  0.8765 -0.1260  0.4375
  940MPD2    C513747   0.547   0.117  13.994  0.6511  0.9117  0.1050
  940MPD2     H13748   0.307   4.644  13.765  0.0926  0.7463 -0.1310
  940MPD2    H113749   0.689   0.101  13.843  0.7016 -0.9980 -1.1383
  940MPD2    H213750   0.385   0.137  14.128  0.6285 -0.2352 -0.0522
  940MPD2    H313751   0.620   0.180  14.044  0.0391  1.7200 -0.0090
  940MPD2     N13752   0.565   4.683  13.671  0.1093  0.1945  0.1321
  940MPD2    H513753   0.656   4.719  13.642  0.2696 -1.5033 -1.5233
  940MPD2    N113754   0.199   4.705  13.985  0.2838  0.2218 -0.1932
  940MPD2    H713755   0.148   4.662  13.909  0.9301 -1.2603  0.2132
  941MPD2     C13756   4.594   3.659   9.445  0.0217 -0.2421  0.3238
  941MPD2    C113757   4.559   3.597   9.566  0.0695  0.2916  0.2518
  941MPD2    C213758   4.522   3.466   9.562  1.0646  0.1066 -0.1999
  941MPD2    C313759   4.520   3.402   9.440 -0.7576  0.0691 -0.3975
  941MPD2    C413760   4.550   3.467   9.322 -0.3385 -0.4759  0.1585
  941MPD2    C513761   4.590   3.594   9.327  0.5016  0.7006 -0.3612
  941MPD2     H13762   4.486   3.414   9.650 -0.5438  0.1200 -0.8380
  941MPD2    H113763   4.542   3.414   9.228 -0.1207 -0.5939  0.2073
  941MPD2    H213764   4.630   3.760   9.428 -0.7141  0.1563  1.0928
  941MPD2    H313765   4.600   3.651   9.235  0.8076  1.0870 -0.0881
  941MPD2     N13766   4.475   3.273   9.422 -0.8331  0.3699 -0.0765
  941MPD2    H513767   4.467   3.244   9.326 -0.5961 -0.8992  0.2916
  941MPD2    N113768   4.559   3.659   9.692 -0.0516 -0.0711 -0.5066
  941MPD2    H713769   4.541   3.595   9.769 -1.5454 -1.0394 -1.6774
  942MPD2     C13770   3.360   1.570   9.743  0.0631  0.7829 -0.1372
  942MPD2    C113771   3.320   1.476   9.837 -0.3327  0.7932  0.6387
  942MPD2    C213772   3.409   1.373   9.873  0.1346 -1.1449  0.7453
  942MPD2    C313773   3.536   1.366   9.815 -0.5423 -0.5399  0.2743
  942MPD2    C413774   3.571   1.464   9.719 -0.2094  0.5078 -0.2109
  942MPD2    C513775   3.484   1.568   9.686 -0.3384  0.5374  0.2060
  942MPD2     H13776   3.374   1.294   9.938 -2.7967 -2.5243 -2.5133
  942MPD2    H113777   3.671   1.470   9.679 -0.4170 -1.1933 -1.0036
  942MPD2    H213778   3.293   1.649   9.710  0.3210  2.0792  2.4997
  942MPD2    H313779   3.509   1.644   9.612  0.0185  0.3867  0.1731
  942MPD2     N13780   3.623   1.263   9.841 -0.0471  0.4216 -0.8724
  942MPD2    H513781   3.708   1.256   9.785  0.0611  2.6677 -0.9981
  942MPD2    N113782   3.194   1.482   9.903  0.6868  0.6251 -0.3286
  942MPD2    H713783   3.176   1.410   9.972  2.4622  0.3584 -0.1210
  943MPD2     C13784   0.923   2.772   9.118 -0.2182  0.7196 -0.5049
  943MPD2    C113785   1.013   2.778   9.223  0.1578  0.0694  0.1196
  943MPD2    C213786   1.116   2.870   9.217  0.0727  0.3783  0.3449
  943MPD2    C313787   1.115   2.969   9.116  1.0130 -0.0495 -0.1752
  943MPD2    C413788   1.019   2.967   9.018 -0.1159  0.8244 -0.2964
  943MPD2    C513789   0.934   2.866   9.017 -0.0648 -0.6208 -0.1132
  943MPD2     H13790   1.190   2.864   9.297 -1.0860  0.0166  1.3958
  943MPD2    H113791   1.004   3.036   8.936  2.5296 -0.8685 -2.1878
  943MPD2    H213792   0.839   2.704   9.125  0.0667  0.4660  0.5028
  943MPD2    H313793   0.862   2.859   8.936  0.4276 -3.1899 -0.3133
  943MPD2     N13794   1.212   3.072   9.115  0.1351 -0.1202  0.8162
  943MPD2    H513795   1.198   3.140   9.042 -0.2588 -3.7426 -2.4995
  943MPD2    N113796   0.999   2.679   9.333  0.1726 -0.1945 -0.3135
  943MPD2    H713797   0.928   2.609   9.317 -1.2668  1.7642 -2.6689
  944MPD2     C13798   2.572   2.619  10.882  0.3310  0.4190  0.3074
  944MPD2    C113799   2.585   2.605  11.021 -0.2886 -0.1626  0.2695
  944MPD2    C213800   2.479   2.649  11.094 -0.5186 -0.3610 -0.0930
  944MPD2    C313801   2.369   2.716  11.045 -0.0912  0.0392 -0.4417
  944MPD2    C413802   2.367   2.740  10.907 -0.2540 -0.0056  0.7173
  944MPD2    C513803   2.465   2.691  10.830 -0.7030 -0.3178  0.1009
  944MPD2     H13804   2.486   2.612  11.195  0.1068 -1.0410 -0.3787
  944MPD2    H113805   2.282   2.789  10.860  1.2313  1.5459 -0.3625
  944MPD2    H213806   2.639   2.579  10.807  2.1381  0.3216  1.9496
  944MPD2    H313807   2.469   2.706  10.723 -1.2945 -0.1245  0.1074
  944MPD2     N13808   2.271   2.754  11.138  0.7741  0.2650  0.3035
  944MPD2    H513809   2.282   2.730  11.237 -3.8110 -0.9898  0.5159
  944MPD2    N113810   2.701   2.540  11.053 -0.0395 -0.1531 -0.2113
  944MPD2    H713811   2.773   2.533  10.982 -0.1105 -0.6723 -0.2263
    1TCq1    O113812   0.319   3.131  14.615 -0.2305  0.4018 -0.0617
    1TCq1    C113813   0.264   3.028  14.679  0.1190  0.6192  0.3202
    1TCq1    O213814   0.185   2.944  14.634 -0.2158 -0.2355 -0.3668
    1TCq1    C213815   0.254   3.075  14.815  0.1674 -0.4337  0.1155
    1TCq1    C313816   0.138   3.043  14.886  0.1280  0.2177 -0.0874
    1TCq1    C413817   0.142   3.044  15.026  0.0244 -0.3299 -0.1525
    1TCq1    C513818   0.261   3.073  15.084  0.0013 -0.2418 -0.1492
    1TCq1    C613819   0.373   3.108  15.014  0.0028 -1.5117 -0.4233
    1TCq1    C713820   0.370   3.116  14.874 -0.6482 -0.1554 -0.4658
    1TCq1    C813821   0.486   3.175  15.089  0.1033 -0.4538  1.2511
    1TCq1    O413822   0.512   3.137  15.200  0.9556  0.4816 -0.4051
    1TCq1    C913823   0.036   2.991  15.108  0.3680  0.2793 -0.2155
    1TCq1    O513824   0.049   2.988  15.236  0.3970 -0.1455  0.0825
    1TCq1    O613825   4.659   2.947  15.048 -0.0206 -0.2924  0.0890
    1TCq1    H113826   0.347   3.209  14.668  1.4424  0.4583 -1.0156
    1TCq1    H213827   0.045   3.031  14.832  0.5103  0.3782 -0.7877
    1TCq1    H313828   0.269   3.065  15.192 -0.6810  2.1647  0.0879
    1TCq1    H413829   0.461   3.145  14.823 -0.6586 -1.0427 -0.9813
    2MPD2     C13830   0.805   3.582  15.142 -0.0703  0.1248 -0.9700
    2MPD2    C113831   0.716   3.604  15.042  0.1415 -0.8361 -0.8818
    2MPD2    C213832   0.627   3.503  15.004 -0.7252 -0.0701 -0.1397
    2MPD2    C313833   0.630   3.375  15.061 -0.0352 -0.3257  0.2639
    2MPD2    C413834   0.711   3.361  15.175 -0.1083 -0.7085  0.1566
    2MPD2    C513835   0.791   3.466  15.213  0.2533  0.5308 -1.0118
    2MPD2     H13836   0.557   3.517  14.923  0.1251  0.3957 -0.8032
    2MPD2    H113837   0.721   3.261  15.216 -2.9798 -0.9016  0.3562
    2MPD2    H213838   0.861   3.661  15.192 -1.4872  0.4677  0.0666
    2MPD2    H313839   0.863   3.451  15.293 -0.1828  1.6532 -0.4081
    2MPD2     N13840   0.529   3.285  15.023 -0.3414  0.1943 -0.3627
    2MPD2    H513841   0.487   3.298  14.932 -0.9223  2.5720  0.2608
    2MPD2    N113842   0.714   3.734  14.988 -0.1001  0.7276 -0.1755
    2MPD2    H713843   0.779   3.796  15.035 -1.1168  0.5886  1.3875
    3TMC2    C113844   0.635   3.924  14.877  0.1206  0.1248  0.2372
    3TMC2    C213845   0.667   3.992  14.997 -0.3833 -0.7033 -0.1343
    3TMC2    C313846   0.644   4.125  14.994 -0.0676  0.0463  0.5537
    3TMC2    C413847   0.584   3.994  14.767  0.1314 -0.0657 -0.1927
    3TMC2    C513848   0.553   4.128  14.781  0.8194 -0.3268 -0.2624
    3TMC2    C613849   0.585   4.196  14.894  0.7266  0.3174  0.8091
    3TMC2     C13850   0.626   3.784  14.891  0.6702 -0.2251 -0.6435
    3TMC2     O13851   0.540   3.724  14.825 -0.1972  0.0964  0.0499
    3TMC2     H13852   0.690   3.954  15.096  1.9715 -0.6957 -0.6755
    3TMC2    H113853   0.555   3.930  14.685 -0.8144  2.0445 -1.5093
    3TMC2    H213854   0.563   4.302  14.901  5.3283  1.2450  1.3257
    3TMC2    C713855   0.450   4.186  14.694 -0.1657 -0.2288  0.4834
    3TMC2    C813856   0.700   4.196  15.103  0.5563  0.2511  0.0353
    3TMC2    O113857   0.351   4.111  14.689  0.2580  0.0875  0.5612
    3TMC2    O213858   0.657   4.311  15.111 -1.1912  0.7739  0.1977
    3TMC2    O513859   0.831   4.159  15.107 -0.1580 -0.5206 -0.0638
    3TMC2    H513860   0.844   4.065  15.084 -1.4147 -1.0286  1.3541
    4MPD2     C13861   4.542   0.681  14.058  0.0736  0.8546  0.2679
    4MPD2    C113862   4.663   0.703  13.997  0.2693  0.2284 -0.4189
    4MPD2    C213863   0.055   0.642  14.046 -0.8424  0.1924 -0.6394
    4MPD2    C313864   0.048   0.572  14.162 -0.5506  0.8040 -0.3453
    4MPD2    C413865   4.652   0.557  14.235 -0.0119 -0.3866  0.8191
    4MPD2    C513866   4.539   0.610  14.177  0.8720  0.7671  0.5164
    4MPD2     H13867   0.150   0.648  13.995  0.3411 -2.8326  1.2275
    4MPD2    H113868   4.632   0.511  14.332  1.1709 -0.2538  1.1231
    4MPD2    H213869   4.452   0.728  14.019  0.1761 -0.4351 -1.4967
    4MPD2    H313870   4.442   0.599  14.226  1.0661 -0.4262  0.6401
    4MPD2     N13871   0.168   0.494  14.201  0.5330  0.3080  0.3403
    4MPD2    H513872   0.250   0.499  14.142  1.1184 -0.0216  1.1272
    4MPD2    N113873   4.661   0.763  13.867  0.1329  0.1608 -0.4079
    4MPD2    H713874   4.571   0.800  13.838  0.6554  2.9065  1.4632
    5TCq2    C113875   0.182   0.421  14.311 -0.3456  0.2680 -0.7777
    5TCq2    O213876   0.098   0.384  14.396 -0.4562  0.1227 -0.2944
    5TCq2    C213877   0.312   0.370  14.318  0.5299 -0.5771  0.3580
    5TCq2    C313878   0.418   0.443  14.266  0.3639 -0.1400 -0.7775
    5TCq2    C413879   0.546   0.391  14.287  0.2612  0.0305  0.5939
    5TCq2    C513880   0.569   0.269  14.349  0.1899 -0.5207  0.0746
    5TCq2    C613881   0.457   0.199  14.391 -0.0550 -0.7301  0.2694
    5TCq2    C713882   0.329   0.249  14.373 -0.6017 -0.2614 -0.3294
    5TCq2    C813883   0.472   0.060  14.419  0.1982 -0.3563 -0.3619
    5TCq2    O413884   0.576   0.033  14.478 -0.1772 -0.6847  0.1461
    5TCq2    C913885   0.658   0.463  14.236  0.6472  0.3200  0.8320
    5TCq2    O513886   0.627   0.550  14.151  0.7936 -0.1525 -0.5633
    5TCq2    O613887   0.772   0.437  14.284  0.1957  0.3141 -0.7875
    5TCq2    H213888   0.411   0.543  14.224 -0.7252  0.6698  1.3254
    5TCq2    H313889   0.672   0.234  14.355  1.0094  1.5931 -1.7077
    5TCq2    H413890   0.243   0.204  14.421 -0.0994  1.0823  1.8486
    6MPD1     C13891   4.183   2.371  12.986  0.6435 -0.1422  0.9083
    6MPD1    C113892   4.318   2.345  12.956 -0.8648 -0.9957  1.0029
    6MPD1    C213893   4.373   2.222  13.004 -0.3030 -0.3129  0.4087
    6MPD1    C313894   4.295   2.122  13.065 -0.0002  1.1618  0.5559
    6MPD1    C413895   4.164   2.157  13.102  0.1065 -0.0357 -0.7023
    6MPD1    C513896   4.114   2.272  13.059  0.3876  0.1408 -0.0614
    6MPD1     H13897   4.479   2.205  12.986 -0.3561  0.1239 -0.3602
    6MPD1    H113898   4.103   2.110  13.179 -0.4388 -0.8234 -1.6094
    6MPD1    H213899   4.134   2.461  12.950  1.7222  0.3024  0.5498
    6MPD1    H313900   4.013   2.303  13.083  1.3157  2.8910  0.2974
    6MPD1     N13901   4.341   1.991  13.095  0.7391 -0.7710  0.3315
    6MPD1    H513902   4.276   1.933  13.147 -0.6364 -0.7076 -1.3474
    6MPD1    N113903   4.402   2.449  12.909  0.1577 -0.3768 -0.5741
    6MPD1    H613904   4.367   2.514  12.840 -0.3388 -0.1086 -0.0639
    6MPD1    H713905   4.493   2.422  12.870 -0.4889 -2.2351 -0.8079
    7MPD2     C13906   4.255   1.397  13.581  0.1609  0.2225  0.3095
    7MPD2    C113907   4.354   1.375  13.490  0.0395  0.5794 -0.0473
    7MPD2    C213908   4.395   1.249  13.472 -0.1954 -0.3852  0.1909
    7MPD2    C313909   4.350   1.141  13.551 -0.3030  0.2855  0.3410
    7MPD2    C413910   4.265   1.171  13.659 -0.3674 -0.4781  0.0562
    7MPD2    C513911   4.212   1.298  13.665 -0.9974  0.3387  0.0179
    7MPD2     H13912   4.462   1.230  13.390 -1.8410  1.2347 -1.5262
    7MPD2    H113913   4.233   1.098  13.733  1.4016 -0.2876  1.0234
    7MPD2    H213914   4.218   1.499  13.585  0.3765  0.4337 -3.0892
    7MPD2    H313915   4.130   1.313  13.734 -2.0243 -1.3035 -0.8355
    7MPD2     N13916   4.398   1.010  13.534  0.2997 -0.2442  0.2168
    7MPD2    H513917   4.365   0.951  13.609  0.0468 -0.0927  0.2213
    7MPD2    N113918   4.417   1.477  13.411 -0.1194  0.8225 -0.6378
    7MPD2    H713919   4.476   1.444  13.335  0.8948 -2.0478  1.3882
    8TMC3    C113920   4.552   0.842  13.462  0.1044  0.9849  0.6875
    8TMC3    C213921   4.580   0.821  13.598  0.4122  0.0808 -0.2729
    8TMC3    C313922   4.710   0.787  13.633  0.6203 -0.6207 -0.1564
    8TMC3    C413923   4.643   0.828  13.362  0.8904 -0.5908 -0.2092
    8TMC3    C513924   0.047   0.798  13.412  0.4426  0.0836  0.3498
    8TMC3    C613925   0.086   0.779  13.540 -0.1351 -0.3168 -0.5173
    8TMC3     C13926   4.487   0.970  13.435  0.1394  0.1586  0.0878
    8TMC3     O13927   4.530   1.026  13.338  0.5284 -0.4570 -0.8118
    8TMC3     H13928   4.499   0.821  13.670  1.0235  1.6631  0.4022
    8TMC3    H113929   4.615   0.828  13.257  1.3288 -0.2320 -0.3273
    8TMC3    H213930   0.192   0.771  13.562 -0.3621  0.0648  0.7015
    8TMC3    C713931   0.150   0.879  13.344  0.4442 -0.0205  0.7734
    8TMC3    C813932   0.022   0.728  13.765 -0.5577  0.2980  0.6801
    8TMC3    O113933   0.269   0.849  13.343  0.5969  0.0699  0.2400
    8TMC3    O213934   0.124   0.660  13.773 -0.5038  0.3018 -0.3665
    9TMC3    C113935   4.492   1.814  13.130  0.1828  0.5467 -0.3383
    9TMC3    C213936   4.614   1.767  13.104  0.2885 -0.3352  0.3586
    9TMC3    C313937   4.662   1.660  13.177 -0.0761 -0.6074  0.1805
    9TMC3    C413938   4.415   1.775  13.235 -0.1209 -0.1877 -0.6233
    9TMC3    C513939   4.473   1.673  13.310 -0.0701 -0.1667 -0.0528
    9TMC3    C613940   4.585   1.611  13.275 -0.2200 -0.1886 -0.3572
    9TMC3     C13941   4.454   1.931  13.051  0.1129 -0.2073 -0.6787
    9TMC3     O13942   4.537   1.980  12.971  0.5427  0.0464  0.3251
    9TMC3     H13943   4.665   1.792  13.011  1.8279  2.7791  2.0205
    9TMC3    H113944   4.316   1.817  13.251  0.3492  1.3432 -1.7024
    9TMC3    H213945   4.630   1.539  13.343 -0.0490 -0.2116 -0.4942
    9TMC3    C713946   4.402   1.616  13.422 -0.0369 -0.2266  0.1660
    9TMC3    C813947   0.047   1.577  13.123 -0.7416  0.2058  0.5957
    9TMC3    O113948   4.312   1.678  13.478 -0.5691  0.1907  0.2475
    9TMC3    O213949   0.151   1.627  13.077 -0.5748  0.2408  0.2630
   10MPD2     C13950   0.288   1.132  13.248 -0.0698 -0.0519 -0.1814
   10MPD2    C113951   0.150   1.114  13.251  0.4174 -0.0820  0.4882
   10MPD2    C213952   0.063   1.212  13.211  0.0308  0.0146  0.5099
   10MPD2    C313953   0.109   1.340  13.176 -0.2487 -0.1284 -0.4247
   10MPD2    C413954   0.244   1.351  13.178  0.2214  0.3901  0.5105
   10MPD2    C513955   0.330   1.254  13.219 -0.5267 -0.1749 -0.0410
   10MPD2     H13956   4.679   1.201  13.218 -0.0120  1.1941  1.6745
   10MPD2    H113957   0.296   1.444  13.156  1.2868 -0.7891 -1.8660
   10MPD2    H213958   0.366   1.063  13.277 -2.0535 -1.2801  2.3208
   10MPD2    H313959   0.438   1.269  13.220 -0.1444 -2.7711 -1.7240
   10MPD2     N13960   0.016   1.443  13.144 -0.6171  0.0913  0.1254
   10MPD2    H513961   4.641   1.421  13.151 -0.4331 -1.0771 -0.9087
   10MPD2    N113962   0.088   0.997  13.297 -0.5260 -0.3021  0.2935
   10MPD2    H713963   4.711   1.001  13.305 -0.5199  0.1528  0.1256
   11MPD2     C13964   0.290   4.316  14.478  0.4425  0.3450 -0.1110
   11MPD2    C113965   0.388   4.377  14.550  0.4797  0.1172 -0.3249
   11MPD2    C213966   0.418   4.508  14.519  0.1632  0.1008  0.2091
   11MPD2    C313967   0.343   4.576  14.421 -0.0445 -0.3225 -0.2578
   11MPD2    C413968   0.238   4.515  14.361  0.0717  0.0084 -0.4352
   11MPD2    C513969   0.206   4.381  14.388 -0.3591 -0.3307  0.6074
   11MPD2     H13970   0.507   4.548  14.568 -1.1244  2.9814  0.2281
   11MPD2    H113971   0.177   4.557  14.281 -2.5068 -0.6209  1.2105
   11MPD2    H213972   0.263   4.212  14.494  2.4546 -0.2655 -0.6396
   11MPD2    H313973   0.132   4.324  14.335 -0.2255  0.3505 -0.3071
   11MPD2     N13974   0.360   4.708  14.384 -0.1612 -0.4238 -0.2705
   11MPD2    H513975   0.294   0.030  14.321  0.7461  2.4578  0.8432
   11MPD2    N113976   0.473   4.311  14.640  0.2109  0.1576 -0.6094
   11MPD2    H713977   0.548   4.371  14.673 -0.0614  1.5678 -2.5940
    1MPD1     C13978   3.323   0.445  17.622 -0.9285  1.2686 -0.3163
    1MPD1    C113979   3.192   0.485  17.590 -0.5602  0.4841  0.4749
    1MPD1    C213980   3.177   0.588  17.496 -0.3544  0.0933 -0.8162
    1MPD1    C313981   3.284   0.636  17.426  0.3501  1.1448 -0.0733
    1MPD1    C413982   3.414   0.589  17.451  0.0648 -0.0136  0.2262
    1MPD1    C513983   3.430   0.492  17.548  0.0784  0.6295  0.4268
    1MPD1     H13984   3.075   0.608  17.466 -1.0642 -3.2720 -0.6630
    1MPD1    H113985   3.500   0.625  17.396 -0.7869  0.0948 -1.0130
    1MPD1    H213986   3.345   0.373   0.004  3.4289  2.1561 -0.7303
    1MPD1    H313987   3.533   0.461  17.560 -0.6104 -1.1282  1.8349
    1MPD1     N13988   3.275   0.737  17.326  0.4327 -0.2783  0.8306
    1MPD1    H513989   3.356   0.743  17.265 -0.0478 -0.3383  0.1880
    1MPD1    N113990   3.082   0.461  17.678 -0.3140 -0.1557  0.2764
    1MPD1    H613991   3.105   0.372   0.027 -1.1097 -0.5217 -0.0557
    1MPD1    H713992   2.995   0.444  17.630 -0.8695  2.8698  0.2538
    2MPD1     C13993   3.880   1.149  16.915  0.0550  0.0351  0.5780
    2MPD1    C113994   3.862   1.046  17.006  0.5224 -0.5335  0.0987
    2MPD1    C213995   3.730   1.014  17.020  0.3128 -0.7191  0.3763
    2MPD1    C313996   3.622   1.091  16.979 -0.5630  0.2398  0.2972
    2MPD1    C413997   3.650   1.208  16.913  0.4553  0.2000  0.3941
    2MPD1    C513998   3.778   1.231  16.875  0.7057 -0.0535 -0.1242
    2MPD1     H13999   3.693   0.925  17.070  0.9421 -1.5483 -0.6069
    2MPD1    H114000   3.582   1.285  16.879  2.4949  1.7421 -0.1911
    2MPD1    H214001   3.979   1.162  16.873 -0.2332 -2.7833 -0.9141
    2MPD1    H314002   3.805   1.307  16.802  0.5130 -0.2332 -0.3855
    2MPD1     N14003   3.489   1.042  17.010 -1.0184  0.1468  0.0028
    2MPD1    H514004   3.486   0.949  17.051  0.2254 -0.4375 -1.2325
    2MPD1    N114005   3.958   0.942  17.028  0.2551  0.0312 -0.3033
    2MPD1    H614006   4.056   0.967  17.037  0.0947  0.1588  1.1133
    2MPD1    H714007   3.937   0.890  17.113 -2.3058  1.5594  0.0004
    3TMC3    C114008   3.263   1.026  17.026  0.3526 -0.2253  0.0780
    3TMC3    C214009   3.146   1.060  16.960  0.1422 -0.6468  0.4000
    3TMC3    C314010   3.034   1.007  17.011  0.1329 -0.9563 -0.1904
    3TMC3    C414011   3.271   0.939  17.132 -0.6000 -0.0592 -0.3468
    3TMC3    C514012   3.154   0.879  17.169  0.1392 -0.2780  0.4189
    3TMC3    C614013   3.037   0.919  17.118 -0.4872  0.8105 -0.8735
    3TMC3     C14014   3.376   1.105  16.983 -0.1619  0.6975 -0.2677
    3TMC3     O14015   3.367   1.213  16.925 -0.2080  0.6843  0.1488
    3TMC3     H14016   3.149   1.131  16.877 -2.0324 -1.2616 -0.2022
    3TMC3    H114017   3.368   0.922  17.178  0.3763  1.4357 -1.8081
    3TMC3    H214018   2.941   0.884  17.152 -0.5109 -0.8202 -2.5961
    3TMC3    C714019   3.158   0.809  17.300  0.2937  0.6756  0.0297
    3TMC3    C814020   2.905   1.060  16.975  0.1880 -0.2474  0.6401
    3TMC3    O114021   3.051   0.797  17.359 -0.0297 -0.3770  0.0157
    3TMC3    O214022   2.805   1.042  17.044  0.4693 -0.2020  0.5608
    4MPD1     C14023   2.605   1.293  16.628 -0.3972 -0.7919  0.2198
    4MPD1    C114024   2.729   1.298  16.578  0.2810 -0.4801 -0.1508
    4MPD1    C214025   2.830   1.260  16.669  0.1752  0.0024 -0.6516
    4MPD1    C314026   2.805   1.177  16.781 -0.5336 -0.2072  0.1350
    4MPD1    C414027   2.675   1.161  16.811  0.0401  0.4226 -0.3761
    4MPD1    C514028   2.579   1.233  16.750  0.5602 -0.2474  0.4153
    4MPD1     H14029   2.934   1.284  16.651 -0.0201  1.8145  0.5091
    4MPD1    H114030   2.645   1.099  16.895 -1.0372  1.6375  0.1388
    4MPD1    H214031   2.516   1.322  16.573  0.9639  2.8576 -0.0364
    4MPD1    H314032   2.476   1.232  16.784  0.0343  0.9306 -1.0911
    4MPD1     N14033   2.915   1.125  16.853  0.2182 -0.0858 -0.6159
    4MPD1    H514034   3.007   1.133  16.811  1.2631 -1.2282  1.4434
    4MPD1    N114035   2.769   1.377  16.462 -0.1711  0.3783  0.2522
    4MPD1    H614036   2.859   1.337  16.437 -1.5803 -1.3249 -2.1252
    4MPD1    H714037   2.700   1.367  16.388  0.6543 -1.5363 -0.2450
    1TCq1    O114038   3.885   1.406  13.194  0.1280  0.2331  0.4247
    1TCq1    C114039   3.912   1.280  13.238 -0.4486 -0.3402  0.1665
    1TCq1    O214040   3.846   1.211  13.316  0.1246 -0.7580  0.6384
    1TCq1    C214041   4.029   1.235  13.170  0.3135  0.7210 -0.6405
    1TCq1    C314042   4.129   1.325  13.129 -0.0926  0.1817  0.1326
    1TCq1    C414043   4.263   1.287  13.112 -0.0595 -0.8353 -0.1970
    1TCq1    C514044   4.307   1.163  13.145 -0.0292 -0.4626 -0.1865
    1TCq1    C614045   4.207   1.074  13.176  0.6239 -0.5310 -0.0221
    1TCq1    C714046   4.072   1.102  13.193 -0.4404 -0.1919 -0.2158
    1TCq1    C814047   4.237   0.927  13.182  0.5668 -0.3264  0.4577
    1TCq1    O414048   4.170   0.851  13.253 -0.2084 -0.0745 -0.1176
    1TCq1    C914049   4.366   1.384  13.102  0.0243 -0.1557  0.4498
    1TCq1    O514050   4.478   1.348  13.149  0.2000 -0.3203  0.3943
    1TCq1    O614051   4.334   1.504  13.068 -0.3453 -0.1799  0.0930
    1TCq1    H114052   3.951   1.435  13.128 -0.2919 -1.9586 -0.9652
    1TCq1    H214053   4.132   1.431  13.149  3.4399  0.2599 -0.7329
    1TCq1    H314054   4.413   1.140  13.152 -0.3364 -2.3667 -1.8008
    1TCq1    H414055   4.004   1.028  13.233  2.3355 -2.4079  0.3773
    2MPD1     C14056   4.545   0.556  13.034 -0.9285 -0.2439 -0.0212
    2MPD1    C114057   4.598   0.670  12.990 -0.2994 -0.6129 -0.4693
    2MPD1    C214058   4.531   0.785  13.011 -0.5190 -0.1506  0.5342
    2MPD1    C314059   4.413   0.790  13.084  0.5531 -0.3064  1.0560
    2MPD1    C414060   4.365   0.672  13.140 -0.5034  1.0610  0.2703
    2MPD1    C514061   4.432   0.559  13.112 -0.2595 -0.6393  0.4203
    2MPD1     H14062   4.573   0.877  12.971 -4.1394  1.1990 -0.1672
    2MPD1    H114063   4.281   0.667  13.209  0.1865  0.0777  1.0487
    2MPD1    H214064   4.595   0.462  13.018  0.6231  1.0353 -2.8002
    2MPD1    H314065   4.384   0.466  13.140  0.6576 -0.7587  1.5996
    2MPD1     N14066   4.355   0.912  13.111 -0.0518 -0.0275 -0.2635
    2MPD1    H514067   4.399   0.996  13.074  0.0821 -0.0937 -0.2514
    2MPD1    N114068   4.704   0.668  12.899 -0.3997  0.6557  0.9167
    2MPD1    H614069   0.032   0.755  12.910  0.7768 -0.0417  0.8920
    2MPD1    H714070   0.045   0.594  12.926 -0.1944  0.7259  0.6175
    1TCq1    O114071   0.178   2.489   2.339 -0.3938  0.1340 -0.0900
    1TCq1    C114072   0.268   2.502   2.438  0.2489  0.1229  0.4407
    1TCq1    O214073   0.389   2.520   2.431  0.1706 -0.1430  0.1350
    1TCq1    C214074   0.191   2.562   2.545  0.1284 -0.2866  0.0085
    1TCq1    C314075   0.086   2.646   2.526 -0.0672 -0.1478 -0.2336
    1TCq1    C414076   0.033   2.693   2.636 -0.2099 -0.1329  0.0131
    1TCq1    C514077   0.056   2.645   2.759 -0.5422  0.3681  0.0413
    1TCq1    C614078   0.172   2.572   2.771 -0.6007  0.1192 -0.5310
    1TCq1    C714079   0.240   2.535   2.663  0.1311  0.7332 -0.5898
    1TCq1    C814080   0.248   2.550   2.893 -0.2504 -0.3236 -0.1458
    1TCq1    O414081   0.347   2.479   2.884 -0.3896 -0.2193  0.0494
    1TCq1    C914082   4.629   2.757   2.619 -0.3194  0.2418  0.3780
    1TCq1    O514083   4.558   2.786   2.717 -0.1503  0.0167  0.2121
    1TCq1    O614084   4.583   2.753   2.497  0.3827 -0.0916 -0.0575
    1TCq1    H114085   0.096   2.450   2.378  1.1537 -2.5547  0.4851
    1TCq1    H214086   0.057   2.682   2.428  0.7132 -2.5164 -1.3306
    1TCq1    H314087   4.704   2.648   2.837 -0.5509 -0.6953  0.0801
    1TCq1    H414088   0.341   2.496   2.666 -0.7254 -1.6533 -2.8904
    2MPD1     C14089   0.313   2.635   3.398  0.0239 -0.4319 -0.3385
    2MPD1    C114090   0.215   2.718   3.352  0.5682 -0.1005 -0.0847
    2MPD1    C214091   0.199   2.731   3.213  0.0793 -0.4410  0.2901
    2MPD1    C314092   0.254   2.635   3.126 -0.4319 -0.0927 -0.5383
    2MPD1    C414093   0.332   2.538   3.183 -0.1662  0.3124  0.3312
    2MPD1    C514094   0.363   2.538   3.315  0.5953  0.2700  0.0741
    2MPD1     H14095   0.127   2.802   3.175 -0.0208 -0.3395  0.6724
    2MPD1    H114096   0.379   2.458   3.125  1.1891  0.3441  1.3773
    2MPD1    H214097   0.335   2.628   3.504  1.1925 -0.3266 -0.5777
    2MPD1    H314098   0.434   2.467   3.356 -1.0617 -2.1306 -1.1999
    2MPD1     N14099   0.201   2.635   2.993 -0.1400 -0.2820  0.0728
    2MPD1    H514100   0.129   2.702   2.969  0.9956  0.8092 -0.2115
    2MPD1    N114101   0.160   2.812   3.446 -0.7394 -0.2105  0.5819
    2MPD1    H614102   0.072   2.856   3.420 -0.1817 -0.2945 -1.4399
    2MPD1    H714103   0.162   2.775   3.541 -0.3393  0.4593  0.8350
    1MPD1     C14104   0.351   4.490  12.733  0.0952  0.5925  1.3420
    1MPD1    C114105   0.264   4.600  12.752 -0.0716 -0.1076  0.0846
    1MPD1    C214106   0.318   4.708  12.818 -0.4437  0.0041 -1.3567
    1MPD1    C314107   0.458   4.714  12.852  0.8264  0.1062 -0.3340
    1MPD1    C414108   0.534   4.605  12.845  0.3475  0.0981 -0.1003
    1MPD1    C514109   0.472   4.495  12.792 -0.4351 -0.2490  0.0293
    1MPD1     H14110   0.255   0.069  12.842 -0.5042 -0.7757  1.2329
    1MPD1    H114111   0.621   4.595  12.909  1.9165  2.6245 -1.8830
    1MPD1    H214112   0.321   4.402  12.676  2.5834 -0.4151  1.5708
    1MPD1    H314113   0.532   4.404  12.796  0.6057  0.3503 -2.1907
    1MPD1     N14114   0.507   0.113  12.903  0.0670 -0.1284  0.2440
    1MPD1    H514115   0.443   0.192  12.903  0.9386  0.5695  1.2098
    1MPD1    N114116   0.139   4.608  12.695  0.2424  0.4565 -0.4906
    1MPD1    H614117   0.073   4.678  12.730 -2.5228 -1.7065 -1.4088
    1MPD1    H714118   0.096   4.519  12.671  0.1285  0.3630  0.0734
    2MPD1     C14119   0.653   1.926  11.973 -0.3751 -0.0742  0.9652
    2MPD1    C114120   0.590   1.901  11.854 -0.1128 -0.1526 -0.5550
    2MPD1    C214121   0.564   1.771  11.820  0.1885 -0.4400 -0.5878
    2MPD1    C314122   0.610   1.663  11.899 -0.6507 -0.6990 -0.2414
    2MPD1    C414123   0.680   1.694  12.011 -1.3429  0.4251  0.1316
    2MPD1    C514124   0.691   1.823  12.055 -0.1832  0.1891 -0.0268
    2MPD1     H14125   0.496   1.758  11.737  0.2707  1.3666 -0.9453
    2MPD1    H114126   0.724   1.624  12.081  1.6777  1.3930 -0.8335
    2MPD1    H214127   0.657   2.029  12.007 -0.2019  0.4343 -0.5937
    2MPD1    H314128   0.748   1.842  12.145 -1.5819 -0.4580  0.9879
    2MPD1     N14129   0.592   1.527  11.875  0.3152  0.4737  0.2170
    2MPD1    H514130   0.626   1.455  11.938 -2.9035  0.6600  2.1671
    2MPD1    N114131   0.531   2.002  11.793  0.1521  0.0221 -0.2862
    2MPD1    H614132   0.535   1.975  11.695  0.3484 -1.6579  0.1821
    2MPD1    H714133   0.567   2.097  11.806  0.0795 -0.0120  0.1759
    3MPD1     C14134   0.196   1.051  11.062  0.3338 -0.1730  0.2288
    3MPD1    C114135   0.139   1.020  11.185 -0.7004  0.7269  0.3864
    3MPD1    C214136   0.205   1.062  11.302 -0.3268  0.0009  0.3501
    3MPD1    C314137   0.340   1.095  11.292 -0.0386  0.2685 -0.7067
    3MPD1    C414138   0.399   1.104  11.167 -0.0812 -1.0054  0.5211
    3MPD1    C514139   0.328   1.078  11.055 -0.1121  0.4765 -0.2088
    3MPD1     H14140   0.151   1.072  11.395  0.1741  0.9048  0.5393
    3MPD1    H114141   0.504   1.127  11.156 -0.4853  0.7189  0.2045
    3MPD1    H214142   0.133   1.047  10.974 -0.1527  2.0813  0.4599
    3MPD1    H314143   0.379   1.108  10.964 -0.5596 -2.1196 -1.3332
    3MPD1     N14144   0.403   1.143  11.407  0.0693 -0.5620 -0.2060
    3MPD1    H514145   0.340   1.184  11.475  0.2756 -0.0378 -0.3239
    3MPD1    N114146   0.001   0.978  11.174 -0.0969 -0.4415 -0.2266
    3MPD1    H614147   4.713   0.913  11.096 -1.4749  1.9686 -2.0121
    3MPD1    H714148   4.697   0.927  11.258  0.8494  1.6710  1.3420
    4MPD2     C14149   0.509   0.789  12.668 -0.0826 -0.9201  0.4202
    4MPD2    C114150   0.617   0.748  12.736  0.6700 -0.1308  0.6217
    4MPD2    C214151   0.741   0.796  12.687  0.0911  0.4949 -0.5801
    4MPD2    C314152   0.759   0.878  12.580 -0.3925 -0.2586  0.5165
    4MPD2    C414153   0.644   0.928  12.522  0.2111 -0.5946 -1.1825
    4MPD2    C514154   0.520   0.882  12.566  0.1063 -0.3382  0.2377
    4MPD2     H14155   0.826   0.742  12.727  0.7603  0.9423 -1.4000
    4MPD2    H114156   0.660   1.004  12.446 -0.7495  0.0630 -0.7422
    4MPD2    H214157   0.409   0.749  12.686 -0.1097 -0.2597  1.6823
    4MPD2    H314158   0.428   0.917  12.520 -0.1434  1.1172  1.8860
    4MPD2     N14159   0.885   0.912  12.533 -0.2481  0.0069  0.6355
    4MPD2    H514160   0.878   0.965  12.446  3.1303 -2.6393 -1.2100
    4MPD2    N114161   0.622   0.667  12.847 -0.7035  0.0230 -0.1597
    4MPD2    H714162   0.710   0.652  12.896 -0.6533  1.8873  0.2999
    5TMC3    C114163   0.568   0.512  13.004 -0.2015  0.1309 -0.1292
    5TMC3    C214164   0.540   0.376  12.981  0.4329 -0.2380  0.1019
    5TMC3    C314165   0.644   0.291  12.979 -0.2418  0.0340 -0.0880
    5TMC3    C414166   0.692   0.551  13.052  0.2951 -0.2799 -0.2632
    5TMC3    C514167   0.790   0.458  13.058  0.0801 -0.3459 -0.3288
    5TMC3    C614168   0.776   0.334  13.015  0.1088 -0.6838  0.3138
    5TMC3     C14169   0.514   0.595  12.902 -0.3374  0.4485 -0.9046
    5TMC3     O14170   0.409   0.561  12.856  0.4286 -0.0089 -0.2537
    5TMC3     H14171   0.438   0.344  12.966  0.3423 -0.0640  0.3452
    5TMC3    H114172   0.715   0.654  13.073  2.9706 -0.7294 -1.0401
    5TMC3    H214173   0.857   0.269  12.985 -0.4562  0.1909 -3.1562
    5TMC3    C714174   0.912   0.524  13.008  0.0334 -0.8632  0.1979
    5TMC3    C814175   0.629   0.152  12.943 -0.0300 -1.2132 -0.0204
    5TMC3    O114176   0.891   0.630  12.948 -0.4259 -0.6139 -0.1491
    5TMC3    O214177   0.720   0.081  12.982 -0.1779 -0.2431 -0.0715
    6TMC3    C114178   0.576   1.347  11.732 -0.2712 -1.1887  0.3534
    6TMC3    C214179   0.530   1.293  11.610  0.1915 -0.5117  0.6255
    6TMC3    C314180   0.573   1.173  11.563  0.5366  0.1881 -0.4682
    6TMC3    C414181   0.687   1.287  11.782 -0.3328  0.5659 -0.2801
    6TMC3    C514182   0.742   1.175  11.720 -1.4096 -1.1282  0.2952
    6TMC3    C614183   0.683   1.113  11.619  0.4630  0.0081  0.0110
    6TMC3     C14184   0.555   1.487  11.750 -0.4982 -0.2138  0.2247
    6TMC3     O14185   0.524   1.553  11.650 -0.2932 -0.0859  0.0823
    6TMC3     H14186   0.450   1.345  11.557  2.0644  3.1001  1.2959
    6TMC3    H114187   0.733   1.338  11.866  0.2489  0.9861 -0.8514
    6TMC3    H214188   0.720   1.020  11.577  2.9319  1.5769 -1.3194
    6TMC3    C714189   0.832   1.105  11.805 -0.4817  0.2462 -0.7617
    6TMC3    C814190   0.540   1.134  11.432  0.3596  0.2477  0.1164
    6TMC3    O114191   0.819   1.131  11.928  0.1921 -0.0650 -0.0541
    6TMC3    O214192   0.640   1.102  11.364 -0.6860  0.2568  0.4300
    7MPD2     C14193   1.411   0.580  12.878 -0.1177  0.5342 -0.0167
    7MPD2    C114194   1.291   0.637  12.822  0.7265 -0.0939 -0.0123
    7MPD2    C214195   1.171   0.600  12.872  0.5857 -0.0428 -0.2905
    7MPD2    C314196   1.160   0.500  12.972  0.4971 -0.7951  0.0619
    7MPD2    C414197   1.275   0.443  13.021 -0.5539  0.6957  0.5209
    7MPD2    C514198   1.398   0.481  12.976 -0.1067  1.0197  0.1557
    7MPD2     H14199   1.077   0.647  12.845  0.3110 -1.0009 -1.0144
    7MPD2    H114200   1.272   0.373  13.103 -0.0050 -1.6478 -1.4794
    7MPD2    H214201   1.512   0.595  12.843 -0.2921 -1.2477 -1.3184
    7MPD2    H314202   1.483   0.419  13.002 -1.6893 -1.7888 -1.3306
    7MPD2     N14203   1.034   0.466  13.033  0.2131  0.2455  0.4839
    7MPD2    H514204   1.036   0.396  13.106 -0.5451 -0.0555  0.2154
    7MPD2    N114205   1.296   0.742  12.729  0.5357 -0.3945 -0.6721
    7MPD2    H714206   1.204   0.783  12.715  0.1481 -2.1450 -3.2741
    8TMC3    C114207   1.350   0.878  12.548  0.2053  0.2108  0.4744
    8TMC3    C214208   1.357   0.836  12.421 -0.5238  0.0913  0.4444
    8TMC3    C314209   1.244   0.842  12.339 -0.2273  0.0053 -0.4755
    8TMC3    C414210   1.232   0.927  12.591  0.3903 -0.1232  0.4803
    8TMC3    C514211   1.121   0.923  12.511 -0.1482  0.3881  0.2585
    8TMC3    C614212   1.122   0.881  12.383  0.5024 -0.0704  0.3031
    8TMC3     C14213   1.401   0.788  12.645 -0.1483 -0.4229  0.6455
    8TMC3     O14214   1.506   0.726  12.615  0.1486  0.1633 -0.2052
    8TMC3     H14215   1.447   0.802  12.373  0.8665  1.1136  2.3366
    8TMC3    H114216   1.221   0.977  12.687 -0.2449  1.4166 -0.3957
    8TMC3    H214217   1.031   0.859  12.329  0.5051  0.5621  0.0386
    8TMC3    C714218   1.003   0.894  12.596 -0.1398 -0.1669 -0.3228
    8TMC3    C814219   1.262   0.812  12.204  0.2984 -0.1975  0.3631
    8TMC3    O114220   1.029   0.848  12.708  0.3961  0.3104 -0.2263
    8TMC3    O214221   1.366   0.758  12.167  0.7007  0.0694 -0.7392
    9MPD2     C14222   1.229   0.805  11.896 -0.1475  0.0605 -0.3947
    9MPD2    C114223   1.147   0.865  11.987 -0.1482 -0.0252  0.3957
    9MPD2    C214224   1.044   0.945  11.934  0.3477 -0.8987  0.1472
    9MPD2    C314225   1.022   0.955  11.795  0.2221 -0.7525  0.0759
    9MPD2    C414226   1.108   0.887  11.713  0.1097 -0.4522  0.3675
    9MPD2    C514227   1.213   0.815  11.762 -0.6275 -0.3774  0.3536
    9MPD2     H14228   0.975   0.993  12.003 -0.0184 -1.4232  0.1512
    9MPD2    H114229   1.114   0.900  11.605  4.3527  0.3585  0.7203
    9MPD2    H214230   1.314   0.750  11.935 -0.0901  0.0981 -0.4662
    9MPD2    H314231   1.268   0.752  11.692  0.2605  0.3737  0.3796
    9MPD2     N14232   0.918   1.023  11.732 -0.1633 -0.0223 -0.0449
    9MPD2    H514233   0.907   1.000  11.634 -0.0694  3.1431 -0.7870
    9MPD2    N114234   1.155   0.859  12.129  0.1876 -0.5488  0.0925
    9MPD2    H714235   1.076   0.900  12.177  0.1285  1.7414 -1.9830
    1MPD1     C14236   0.935   4.700  17.113 -0.5397 -0.4038  0.5177
    1MPD1    C114237   0.929   4.618  17.224 -0.0247  0.5952 -0.4703
    1MPD1    C214238   0.820   4.542  17.247 -0.1123  0.1245 -0.0004
    1MPD1    C314239   0.701   4.561  17.172 -1.0755 -0.1681 -0.0888
    1MPD1    C414240   0.703   4.661  17.074  0.3548 -0.3346  0.8588
    1MPD1    C514241   0.822   4.723  17.041 -0.7233 -0.4149 -0.1501
    1MPD1     H14242   0.815   4.465  17.324  2.1892 -0.6650 -0.6451
    1MPD1    H114243   0.617   4.678  17.010 -0.4693  1.1542  2.3411
    1MPD1    H214244   1.022   0.036  17.087  0.5046 -1.6695  1.0972
    1MPD1    H314245   0.817   0.069  16.958  1.3132  0.1492  0.1924
    1MPD1     N14246   0.575   4.503  17.196  0.4442  0.3565 -0.7541
    1MPD1    H514247   0.508   4.502  17.120  0.1819 -0.5972 -0.5049
    1MPD1    N114248   1.054   4.597  17.291 -0.7490 -0.2343 -0.6172
    1MPD1    H614249   1.037   4.561  17.385 -2.4628 -1.7613 -1.5010
    1MPD1    H714250   1.120   4.674  17.291  0.8864 -1.6356 -0.1571
    2MPD1     C14251   4.689   4.492  16.625  0.1442 -0.2902  0.1954
    2MPD1    C114252   0.100   4.529  16.650 -0.3050 -0.2860  0.6045
    2MPD1    C214253   0.153   4.530  16.780 -0.3883 -1.1795  0.2818
    2MPD1    C314254   0.077   4.460  16.882  0.1129 -0.7939  0.1040
    2MPD1    C414255   4.675   4.405  16.859  0.8506  0.3661  0.2829
    2MPD1    C514256   4.619   4.428  16.733 -0.1433 -0.0590 -0.0102
    2MPD1     H14257   0.252   4.569  16.798 -0.1988 -2.5909  2.3045
    2MPD1    H114258   4.622   4.352  16.937  0.9591  1.5377  1.1457
    2MPD1    H214259   4.643   4.506  16.528  0.3179 -0.1882  0.1276
    2MPD1    H314260   4.522   4.392  16.700  0.2116 -1.1966  0.1967
    2MPD1     N14261   0.147   4.459  17.005 -0.0306 -0.3006  0.5661
    2MPD1    H514262   0.237   4.504  17.011  0.3982 -0.9807 -0.7383
    2MPD1    N114263   0.163   4.611  16.557 -0.1256 -0.1648 -0.2273
    2MPD1    H614264   0.263   4.609  16.575 -0.3847 -0.6658  1.1854
    2MPD1    H714265   0.144   4.577  16.462  1.3615 -0.6120 -0.3569
    3TCq2    C114266   0.096   4.404  17.125  0.5989  0.3797  0.5326
    3TCq2    O214267   4.708   4.352  17.144 -0.1239  0.2211  0.3360
    3TCq2    C214268   0.188   4.418  17.237  0.0898  0.1304 -0.0850
    3TCq2    C314269   0.141   4.388  17.357  0.6764 -0.4800  0.3432
    3TCq2    C414270   0.226   4.350  17.458 -0.1119  0.0103 -0.1485
    3TCq2    C514271   0.364   4.352  17.438  0.3281  0.7817  0.5116
    3TCq2    C614272   0.407   4.378  17.312 -0.6352 -0.9751 -1.0433
    3TCq2    C714273   0.322   4.411  17.212 -0.8346  0.1336  0.5451
    3TCq2    C814274   0.539   4.436  17.309  0.1186  0.8630  0.2012
    3TCq2    O414275   0.597   4.441  17.417 -0.1481 -0.0396 -0.0520
    3TCq2    C914276   0.170   4.298  17.582 -0.3233  0.0027 -0.3939
    3TCq2    O514277   0.248   4.277  17.678  0.0469  0.2778  0.3900
    3TCq2    O614278   0.043   4.293  17.586  0.0815  0.5304  0.0297
    3TCq2    H214279   0.034   4.373  17.358  0.2946  2.2691  1.5984
    3TCq2    H314280   0.433   4.325  17.517  1.0338  1.1872  0.0369
    3TCq2    H414281   0.362   4.430  17.113  0.0363  0.7510  1.0115
    1TCq1    O114282   2.940   3.886  12.916  0.5288 -0.4021 -0.2148
    1TCq1    C114283   3.038   3.978  12.901 -0.8075  0.0885  0.0282
    1TCq1    O214284   3.100   4.001  12.795 -0.0451 -0.1113  1.2194
    1TCq1    C214285   3.072   4.036  13.023 -0.2836 -0.2048 -0.5582
    1TCq1    C314286   2.979   4.043  13.123  0.0853 -0.6447 -0.1104
    1TCq1    C414287   3.030   4.070  13.244 -0.1702 -0.0123  0.3192
    1TCq1    C514288   3.161   4.102  13.264  0.4447 -0.3075 -0.2196
    1TCq1    C614289   3.249   4.103  13.162  0.1591 -0.6087 -0.1571
    1TCq1    C714290   3.206   4.056  13.046 -0.2382 -0.5196 -0.3589
    1TCq1    C814291   3.391   4.125  13.170  0.0810  0.0136 -0.7064
    1TCq1    O414292   3.444   4.159  13.069  0.3034  0.1789  0.1247
    1TCq1    C914293   2.942   4.065  13.355  0.0790  0.1862  0.1161
    1TCq1    O514294   2.823   4.047  13.328  0.5855  0.0276  0.1873
    1TCq1    O614295   2.985   4.097  13.467 -0.5955 -0.1668 -0.2261
    1TCq1    H114296   2.922   3.873  13.012  0.3136  0.1756 -0.1769
    1TCq1    H214297   2.875   4.016  13.108  0.8235 -3.9788  0.8894
    1TCq1    H314298   3.186   4.146  13.360  1.0300 -2.8001  0.7775
    1TCq1    H414299   3.284   4.045  12.971 -0.9050  0.2295 -1.1623
    2MPD2     C14300   3.667   4.150  13.253 -0.4850 -0.6494  0.8195
    2MPD2    C114301   3.570   4.122  13.344 -0.2995 -0.5161  0.1064
    2MPD2    C214302   3.613   4.093  13.470  0.2487 -0.0225 -0.2079
    2MPD2    C314303   3.745   4.100  13.500 -0.5194 -0.3702 -0.3195
    2MPD2    C414304   3.848   4.135  13.412 -0.7800 -0.9536  0.0663
    2MPD2    C514305   3.801   4.160  13.290  0.6399 -0.4200 -0.2414
    2MPD2     H14306   3.535   4.069  13.542 -2.0217  0.3842 -2.5166
    2MPD2    H114307   3.952   4.142  13.440 -1.5478  1.6450  2.3025
    2MPD2    H214308   3.650   4.165  13.147  1.5620  0.9332  0.7116
    2MPD2    H314309   3.866   4.194  13.210  1.2123  2.0941  1.2800
    2MPD2     N14310   3.781   4.064  13.634 -0.1454  0.8486 -0.2557
    2MPD2    H514311   3.699   4.053  13.692  1.4943 -0.7177  1.7483
    2MPD2    N114312   3.438   4.118  13.302  0.0173  0.4857  0.2164
    2MPD2    H714313   3.376   4.085  13.376 -2.1036  1.3781 -1.1480
    3TCq1    O114314   3.667   4.206  14.222 -0.0722  0.2955 -0.1050
    3TCq1    C114315   3.692   4.236  14.090 -0.8969  0.0357 -0.5200
    3TCq1    O214316   3.654   4.332  14.026 -0.0821  0.3889 -0.1097
    3TCq1    C214317   3.772   4.125  14.031  0.8113  0.2746 -0.2254
    3TCq1    C314318   3.867   4.068  14.116  0.4759 -0.3116 -0.0077
    3TCq1    C414319   3.964   3.993  14.059 -0.4427 -0.3513  0.1833
    3TCq1    C514320   3.978   3.995  13.924  0.5822 -0.3160  0.1447
    3TCq1    C614321   3.892   4.059  13.842 -0.0463  0.1421 -0.4616
    3TCq1    C714322   3.783   4.124  13.894  0.2334  0.0688  0.0383
    3TCq1    C814323   3.901   4.047  13.697 -0.2184 -0.6417  0.2934
    3TCq1    O414324   4.012   4.045  13.650 -0.2293 -0.2257 -0.2935
    3TCq1    C914325   4.047   3.912  14.141  0.1528 -0.0064  1.5173
    3TCq1    O514326   4.158   3.867  14.093 -0.5736 -0.4453 -0.1625
    3TCq1    O614327   4.010   3.898  14.258  0.1222  0.2421 -0.6042
    3TCq1    H114328   3.683   4.111  14.242 -0.8293 -0.1108 -1.4462
    3TCq1    H214329   3.866   4.086  14.223 -1.2006  2.5333 -0.5059
    3TCq1    H314330   4.062   3.940  13.883  1.4166  1.5861 -0.7096
    3TCq1    H414331   3.707   4.176  13.838 -0.9426 -0.7721  0.8554
    1MPD2     C14332   3.528   4.706  15.320  0.0437 -0.0408  0.1066
    1MPD2    C114333   3.399   4.668  15.288 -0.2494  0.1057  0.3341
    1MPD2    C214334   3.372   4.562  15.199 -0.6148 -0.0161  0.0602
    1MPD2    C314335   3.475   4.497  15.133 -0.3489 -0.7649  0.7477
    1MPD2    C414336   3.605   4.547  15.155 -0.0180  0.2240  0.0844
    1MPD2    C514337   3.627   4.652  15.242 -0.2578 -0.0867  0.5014
    1MPD2     H14338   3.270   4.535  15.176 -0.5014 -1.0525  0.7692
    1MPD2    H114339   3.697   4.498  15.124  0.9158  0.5330  2.3953
    1MPD2    H214340   3.541   0.071  15.380  1.2372  0.7809 -1.3550
    1MPD2    H314341   3.729   4.687  15.246  0.3723 -1.6336 -1.7587
    1MPD2     N14342   3.429   4.391  15.046 -0.2955  0.2758 -0.2599
    1MPD2    H514343   3.328   4.382  15.044 -0.2173 -0.1495 -1.9541
    1MPD2    N114344   3.299   0.012  15.365  0.0052 -0.1586  0.0463
    1MPD2    H714345   3.327   0.097  15.412  0.9643  0.4187 -1.5597
    2TMC3    C114346   3.084   0.056  15.459 -0.2538 -0.4822 -0.1301
    2TMC3    C214347   2.974   4.708  15.489 -0.0192 -0.1290 -0.4509
    2TMC3    C314348   2.845   0.033  15.458  1.3655 -0.2388  0.1759
    2TMC3    C414349   3.068   0.179  15.403 -0.4461 -0.1774 -0.0339
    2TMC3    C514350   2.940   0.230  15.384  0.1216  0.4538  0.1588
    2TMC3    C614351   2.828   0.158  15.410 -0.7425  0.3155  0.4196
    2TMC3     C14352   3.168   4.690  15.382  0.8775 -0.2589  0.6200
    2TMC3     O14353   3.120   4.581  15.346  0.8049 -0.5633  0.1373
    2TMC3     H14354   2.986   4.620  15.551  1.3210  0.2253 -0.2135
    2TMC3    H114355   3.151   0.248  15.393 -1.5005  0.9154 -1.2160
    2TMC3    H214356   2.731   0.197  15.382 -0.4962 -0.5503 -1.6797
    2TMC3    C714357   2.927   0.366  15.345  0.0719 -0.1210 -0.5935
    2TMC3    C814358   2.755   4.655  15.405 -0.4677 -0.0914 -0.9140
    2TMC3    O114359   3.011   0.445  15.376 -0.0419  0.7867  0.1489
    2TMC3    O214360   2.640   4.687  15.381  0.7188  0.1078 -0.2320
    3TCq1    O114361   2.129   1.047  14.612  0.4173 -0.1141 -0.3955
    3TCq1    C114362   2.109   0.964  14.720  0.5470 -0.7200  0.2961
    3TCq1    O214363   2.023   0.979  14.814  0.0037 -0.2242  0.2829
    3TCq1    C214364   2.226   0.876  14.718 -0.5227  0.5902 -0.0285
    3TCq1    C314365   2.227   0.780  14.625 -0.0721 -0.4247  0.2622
    3TCq1    C414366   2.318   0.670  14.628  0.7133  0.0248 -0.3439
    3TCq1    C514367   2.396   0.654  14.740 -0.8437  0.4090  0.4276
    3TCq1    C614368   2.378   0.752  14.841 -0.4566  0.1007 -0.0848
    3TCq1    C714369   2.294   0.860  14.828  0.1412 -0.2981  0.6112
    3TCq1    C814370   2.492   0.775  14.924 -0.6883 -0.1238  0.0719
    3TCq1    O414371   2.535   0.894  14.930 -0.4004 -0.2764  0.4857
    3TCq1    C914372   2.311   0.577  14.509 -0.1539  0.5334  0.0253
    3TCq1    O514373   2.385   0.476  14.512  0.7090 -0.3567  0.0826
    3TCq1    O614374   2.262   0.613  14.399  0.5971  0.1783 -0.2393
    3TCq1    H114375   2.205   1.026  14.553  0.3076 -0.7287 -0.3106
    3TCq1    H214376   2.154   0.789  14.545 -0.1016  0.0157  0.3390
    3TCq1    H314377   2.476   0.582  14.735 -2.3371 -1.0522 -2.4139
    3TCq1    H414378   2.283   0.936  14.904  1.3173  0.8387 -0.3637
    4MPD2     C14379   2.688   0.774  15.134  0.2408 -0.4777  0.0721
    4MPD2    C114380   2.622   0.665  15.088 -0.0446 -0.1257  0.9738
    4MPD2    C214381   2.662   0.546  15.143 -0.6008  1.0413 -0.0086
    4MPD2    C314382   2.768   0.530  15.232 -0.1450  0.2786  0.5833
    4MPD2    C414383   2.842   0.644  15.264 -0.5064 -0.4795 -0.0545
    4MPD2    C514384   2.791   0.765  15.223 -0.0890  0.2319  0.1839
    4MPD2     H14385   2.606   0.455  15.119 -0.3067  0.5148  1.2864
    4MPD2    H114386   2.934   0.646  15.320 -1.0811 -0.7691  0.8898
    4MPD2    H214387   2.674   0.875  15.098  1.9104  0.3663  1.7494
    4MPD2    H314388   2.852   0.853  15.239  0.5709 -0.1999  0.0402
    4MPD2     N14389   2.814   0.402  15.276 -0.1493 -0.2066  0.6915
    4MPD2    H514390   2.748   0.328  15.254 -0.9142  0.3447  1.1288
    4MPD2    N114391   2.514   0.667  15.005 -0.8757  0.6159 -0.0646
    4MPD2    H714392   2.452   0.588  14.992 -0.1074 -0.1163  0.7686
    5TMC2    C114393   3.167   4.228  14.890 -0.0008 -0.6348 -0.0320
    5TMC2    C214394   3.180   4.095  14.908  0.3587  0.3503 -0.7551
    5TMC2    C314395   3.304   4.038  14.897  0.3767 -0.4200  0.1748
    5TMC2    C414396   3.279   4.304  14.872  0.3020  0.2097 -0.4861
    5TMC2    C514397   3.401   4.244  14.878  0.0442  0.1185  0.0162
    5TMC2    C614398   3.419   4.109  14.891 -0.0563  0.6470  0.0296
    5TMC2     C14399   3.094   4.280  14.997 -0.2448 -0.3630 -0.5022
    5TMC2     O14400   3.162   4.346  15.077  0.2178 -0.0513  0.6898
    5TMC2     H14401   3.088   4.036  14.910  0.8893 -0.4802 -0.8418
    5TMC2    H114402   3.272   4.411  14.859  2.2083  0.3803 -0.0704
    5TMC2    H214403   3.517   4.065  14.878  0.3539  1.0272  1.8826
    5TMC2    C714404   3.498   4.321  14.955 -0.1375  0.5001 -0.4696
    5TMC2    C814405   3.304   3.901  14.858  0.4638 -0.3975  1.0354
    5TMC2    O114406   3.620   4.311  14.936 -0.1199  0.1778 -0.2498
    5TMC2    O214407   3.408   3.836  14.870  0.1486  0.6050  0.0455
    5TMC2    O514408   3.260   3.915  14.726  0.0141 -0.4479  0.4153
    5TMC2    H514409   3.205   3.995  14.713  1.0099  0.3279  1.0655
    6MPD2     C14410   2.656   4.450  15.214 -0.2630  0.2749 -0.0238
    6MPD2    C114411   2.786   4.472  15.242  0.2533 -0.2716 -0.0594
    6MPD2    C214412   2.885   4.412  15.168 -0.2788  0.5297 -0.0571
    6MPD2    C314413   2.856   4.322  15.070  0.8543  0.2920  0.0676
    6MPD2    C414414   2.721   4.298  15.049  0.0562 -0.4203  0.0762
    6MPD2    C514415   2.620   4.355  15.126 -0.5682 -0.4289  0.8600
    6MPD2     H14416   2.986   4.418  15.207 -0.0983 -1.6582 -0.1437
    6MPD2    H114417   2.688   4.234  14.968  1.5770 -1.1465  0.0416
    6MPD2    H214418   2.584   4.479  15.289  0.4769  0.3935  0.6471
    6MPD2    H314419   2.518   4.322  15.114 -0.3915 -0.4592 -0.5224
    6MPD2     N14420   2.954   4.252  14.989 -0.9747 -0.3361 -0.0577
    6MPD2    H514421   2.919   4.193  14.913  0.5711 -0.1630 -0.8968
    6MPD2    N114422   2.828   4.560  15.344  0.2438 -0.3532  0.3314
    6MPD2    H714423   2.926   4.572  15.370 -0.1107  2.8262  0.2312
  945NH4     N114424   3.400   4.432  15.529 -0.0954  0.8050  0.1208
  945NH4     H214425   3.334   4.487  15.469  0.4042  1.0636 -0.1898
  945NH4     H314426   3.495   4.429  15.488 -1.7180 -0.0475 -3.5435
  945NH4     H414427   3.375   4.335  15.556 -0.2980  1.2259  1.4748
  945NH4     H514428   3.414   4.485  15.618  2.1459 -2.6657  1.8345
  946SOD     NA14429   1.020   0.929   9.667 -0.7966 -0.4220  0.0556
  947SOD     NA14430   4.677   2.732  14.991 -0.2782 -0.3271 -0.1312
  948SOD     NA14431   0.214   3.238  17.235 -0.4185 -0.0895  0.0199
  949SOD     NA14432   4.139   0.891  16.616  0.1867  0.4200  0.0790
  950SOD     NA14433   3.019   0.576   3.311  0.3526  0.0303  0.1453
  951SOD     NA14434   4.282   0.452  11.883  0.2208  0.0446  0.2316
  952SOD     NA14435   3.867   2.956   9.106  0.1277 -0.0112 -0.1306
  953SOD     NA14436   4.029   4.505   7.304  0.4582 -0.1050  0.1792
  954SOD     NA14437   1.028   3.861   9.192 -0.7410  0.2014  0.6348
  955SOD     NA14438   2.010   0.514  10.380 -0.2426  0.7976 -0.0614
  956SOD     NA14439   2.736   3.883  13.452 -0.0794 -0.1190  0.2390
  957SOD     NA14440   1.146   3.792  17.691  0.6132 -0.0123 -0.6826
  958SOD     NA14441   1.011   1.866   1.636 -0.1180 -0.0925 -0.0477
  959SOD     NA14442   3.339   1.495  11.925  0.0930 -0.3311  0.4885
  960SOD     NA14443   3.973   4.704  13.003  0.1977  0.4943  0.1525
  961SOD     NA14444   3.213   3.884   8.665 -0.5206 -0.0399 -0.0901
  962SOD     NA14445   4.174   3.946  11.131  0.0465 -0.4298 -0.1710
  963SOD     NA14446   0.554   2.977   0.471 -0.4051  0.0279 -0.4793
  964SOD     NA14447   2.392   0.464  14.295 -0.5160  0.2585  0.0594
  965SOD     NA14448   3.478   3.766   9.853 -0.3005  0.1937 -0.2969
  966SOD     NA14449   2.421   2.649   2.284  0.5957 -0.1859 -0.3124
  967SOD     NA14450   2.627   4.119  13.268  0.0966  0.2481 -0.0792
  968SOD     NA14451   3.804   0.303  12.632  0.1705  0.7570 -0.1148
  969SOD     NA14452   1.946   2.976  11.811 -0.2318  0.2726 -0.1458
  970SOD     NA14453   2.310   4.155   8.730 -0.0873 -0.6486  0.4059
  971SOD     NA14454   0.316   2.109   2.608 -0.1497 -0.3689 -0.2608
  972SOD     NA14455   0.042   3.542  14.713  0.3372  0.3235 -0.4206
  973SOD     NA14456   4.616   0.994   2.551 -0.5793  0.2503 -0.1838
  974SOD     NA14457   0.903   3.817  12.094  0.0163  0.3368  0.3275
  975SOD     NA14458   0.554   3.177  12.898 -0.5317 -0.1758  0.1025
  976SOD     NA14459   4.421   1.640  14.044  0.4657 -0.2292 -0.0021
  977SOD     NA14460   1.067   0.868   7.050  0.5448  0.1481  0.0949
  978SOD     NA14461   4.507   3.613  12.414  0.0828  0.6602  0.2035
  979SOD     NA14462   4.691   4.694   8.430 -0.0841 -0.4753  0.1995
  980SOD     NA14463   0.516   4.503  15.819 -0.3030  0.1285  0.3745
  981SOD     NA14464   1.629   1.113   3.102  0.1517  0.0848 -0.0994
  982SOD     NA14465   1.693   4.522   3.732  0.5581 -0.3030  0.1260
  983SOD     NA14466   2.533   3.252   8.976 -0.0917  0.0934  0.1853
  984SOD     NA14467   4.055   4.666   0.248  0.0912 -0.2476 -0.1161
  985SOD     NA14468   3.633   2.649  11.025  0.5581 -0.6421 -0.3666
  986SOD     NA14469   1.088   0.228  14.457 -0.4750  0.3340  0.1785
  987SOD     NA14470   2.002   1.604  13.052  0.0448 -0.0549 -0.2159
  988SOD     NA14471   1.686   2.596   1.867 -0.0019  0.1439  0.6219
  989SOD     NA14472   4.240   1.630   9.705  0.3712 -0.3378  0.4542
  990SOD     NA14473   4.671   3.706   8.698  0.0425 -0.3240  0.0156
  991SOD     NA14474   0.473   2.597  14.635 -0.1109  0.3328  0.1557
  992SOD     NA14475   2.352   4.453  10.344  0.0930 -0.2171 -0.7191
  993SOD     NA14476   0.226   4.305  15.797 -0.4264  0.2637 -0.3703
  994SOD     NA14477   0.855   0.643  14.226  0.5824  0.5982  0.2315
  995SOD     NA14478   1.737   1.436   8.927 -0.1110 -0.3443 -0.1627
  996SOD     NA14479   2.797   3.403  15.930  0.1461  0.0453  0.6588
  997SOD     NA14480   3.213   2.900  10.838  0.3983 -0.2091  0.1011
  998SOD     NA14481   0.330   0.305  11.081  0.2667 -0.2601 -0.0440
  999SOD     NA14482   0.242   4.336   1.246  0.4120  0.1508  0.4303
 1000SOD     NA14483   4.504   1.957  12.715 -0.0892  0.2822  0.3413
 1001SOD     NA14484   2.949   1.461   2.041  0.1270 -0.2168 -0.0496
 1002SOD     NA14485   1.219   2.957   0.805 -0.3252  0.0967  0.1370
 1003SOD     NA14486   3.860   0.064   1.088  0.2809  0.3394 -0.1411
 1004SOD     NA14487   0.288   3.735  14.800  0.1622  0.1064  0.6379
 1005SOD     NA14488   1.957   3.362  12.870 -0.2113  0.0237 -0.3157
 1006SOD     NA14489   4.419   3.847  12.212  0.0168 -0.1561 -0.4227
 1007SOD     NA14490   3.828   1.245   1.141 -0.0701  0.3735  0.1851
 1008SOD     NA14491   3.708   3.539  11.755 -0.3846  0.3509 -0.3394
 1009SOD     NA14492   0.345   1.227   3.818  0.2479  0.1889  0.8480
 1010SOD     NA14493   3.775   1.740   0.109 -0.4920 -0.2413 -0.3978
 1011SOL     OW14494   0.546   1.443   6.882 -0.1753 -0.2539 -0.2145
 1011SOL    HW114495   0.631   1.461   6.841  1.2711 -1.4041  2.2160
 1011SOL    HW214496   0.554   1.503   6.957 -0.1724 -0.6139  0.0751
 1012SOL     OW14497   2.702   1.967  15.788 -0.4324  0.3593 -0.5279
 1012SOL    HW114498   2.682   1.873  15.793 -1.6703  0.8026  2.5713
 1012SOL    HW214499   2.710   1.968  15.692  1.6319  0.4123 -0.3536
 1013SOL     OW14500   4.556   2.839   4.756  0.0482 -0.4600 -0.0135
 1013SOL    HW114501   4.599   2.875   4.833  0.5422  0.8504 -0.8921
 1013SOL    HW214502   4.530   2.922   4.717  0.4049 -0.1171  0.4783
 1014SOL     OW14503   3.219   2.070   7.609 -0.0962 -0.3434 -0.1411
 1014SOL    HW114504   3.277   2.145   7.622 -0.3560  0.1040 -1.5089
 1014SOL    HW214505   3.157   2.116   7.552  2.3605 -1.6683 -3.9587
 1015SOL     OW14506   2.047   4.409   7.788 -0.1190 -0.3153  0.5993
 1015SOL    HW114507   2.067   4.503   7.789 -1.5738 -0.0041 -0.0646
 1015SOL    HW214508   2.023   4.390   7.697  0.0255 -2.2418  0.9613
 1016SOL     OW14509   2.117   1.847   0.751 -0.0149 -0.3788 -0.8079
 1016SOL    HW114510   2.203   1.817   0.781 -0.5213 -2.0713 -1.0574
 1016SOL    HW214511   2.102   1.920   0.811  2.1485  0.3683 -1.1604
 1017SOL     OW14512   1.408   4.655   8.361  0.2912 -0.2709  0.2799
 1017SOL    HW114513   1.460   4.654   8.442  2.7123 -1.9492 -1.2727
 1017SOL    HW214514   1.464   4.693   8.293  0.8761 -0.2770  0.7497
 1018SOL     OW14515   1.638   1.363   1.352 -0.1019  0.1673 -0.1190
 1018SOL    HW114516   1.695   1.308   1.298 -0.4852 -0.7620  0.4213
 1018SOL    HW214517   1.617   1.436   1.293 -0.8425 -3.0878 -3.8604
 1019SOL     OW14518   1.523   2.203   5.967 -0.0602 -0.3379 -0.1676
 1019SOL    HW114519   1.614   2.224   5.949  0.2760  0.9562  2.9814
 1019SOL    HW214520   1.524   2.169   6.057  0.4209  1.9043  0.6656
 1020SOL     OW14521   3.747   3.275   9.341 -0.0946 -0.1205 -0.3289
 1020SOL    HW114522   3.748   3.276   9.245 -1.8739 -0.6045 -0.3430
 1020SOL    HW214523   3.821   3.220   9.366  1.2274  1.2828 -1.1772
 1021SOL     OW14524   4.182   2.518   4.736 -0.3496  0.8581  0.0714
 1021SOL    HW114525   4.118   2.450   4.753  1.2370 -0.7111 -0.2300
 1021SOL    HW214526   4.148   2.555   4.655  0.5413  0.8892 -0.2925
 1022SOL     OW14527   0.575   2.883   4.315  0.1906  0.0685  0.0533
 1022SOL    HW114528   0.569   2.978   4.307  2.0176  0.2491  0.9069
 1022SOL    HW214529   0.648   2.868   4.256  0.1548 -1.3488  0.3647
 1023SOL     OW14530   3.891   1.591   2.558  0.3212  0.3117 -0.2112
 1023SOL    HW114531   3.973   1.542   2.555 -1.0928 -2.0226 -0.6723
 1023SOL    HW214532   3.879   1.615   2.466  1.2076 -1.7478 -0.8817
 1024SOL     OW14533   0.207   3.564   8.134 -0.0251  0.6643  0.1502
 1024SOL    HW114534   0.293   3.569   8.092  0.4168 -0.7445  0.8956
 1024SOL    HW214535   0.198   3.475   8.168  3.5050 -0.6888 -2.4596
 1025SOL     OW14536   2.916   0.074   8.883 -0.7995  0.3195 -0.0210
 1025SOL    HW114537   2.958   0.098   8.965 -0.6046  0.6740 -0.2248
 1025SOL    HW214538   2.961   4.715   8.863 -1.6071 -0.0719 -0.2185
 1026SOL     OW14539   2.146   0.102  12.046 -0.3455  0.6232 -0.1581
 1026SOL    HW114540   2.200   0.181  12.043  0.2096  0.1516 -3.0335
 1026SOL    HW214541   2.058   0.128  12.020 -0.8979  0.1544  1.3001
 1027SOL     OW14542   4.653   1.367  11.849  0.3002  0.0079 -0.6048
 1027SOL    HW114543   0.009   1.332  11.889 -1.1912 -1.8057  0.7601
 1027SOL    HW214544   4.607   1.291  11.815  0.1876 -0.8583  1.5027
 1028SOL     OW14545   1.044   2.893  13.021 -0.0629  0.1415  0.4427
 1028SOL    HW114546   1.016   2.841  12.945  3.4176 -0.5167 -0.4075
 1028SOL    HW214547   0.985   2.863  13.090  0.3782  1.6704  1.4641
 1029SOL     OW14548   3.002   3.206   8.321 -0.6703 -0.0289 -0.3371
 1029SOL    HW114549   2.960   3.291   8.336  0.5255  0.8308 -1.8501
 1029SOL    HW214550   3.086   3.224   8.364 -1.0018  1.5614 -0.3338
 1030SOL     OW14551   1.164   4.241  16.761  0.2593  0.1463 -0.6473
 1030SOL    HW114552   1.102   4.285  16.819  0.6856 -1.5736  1.0993
 1030SOL    HW214553   1.100   4.202  16.702  0.2497  0.3267 -0.7572
 1031SOL     OW14554   0.271   4.197  16.958  0.4225  0.3926 -0.2273
 1031SOL    HW114555   0.179   4.175  16.946  0.4092 -0.1199  0.7881
 1031SOL    HW214556   0.291   4.225  16.868 -0.2412  3.9575  0.7115
 1032SOL     OW14557   3.795   3.787  15.661 -0.0896 -0.0199  0.1430
 1032SOL    HW114558   3.785   3.747  15.747  0.6019 -1.4811 -0.4452
 1032SOL    HW214559   3.804   3.708  15.607  0.5576  2.3264 -3.2067
 1033SOL     OW14560   3.908   1.190  10.440  0.1622 -0.4122  0.0958
 1033SOL    HW114561   3.951   1.136  10.506  3.5196  0.0039 -1.7947
 1033SOL    HW214562   3.927   1.130  10.368  1.3506  0.0282  0.0375
 1034SOL     OW14563   2.275   1.144  16.063  0.0195 -0.1272 -0.5112
 1034SOL    HW114564   2.295   1.159  16.156  2.0094 -0.4361 -0.9021
 1034SOL    HW214565   2.357   1.114  16.024  0.7510  1.3833 -0.1632
 1035SOL     OW14566   1.768   4.428   5.204  0.3558  0.2183  0.0310
 1035SOL    HW114567   1.756   4.522   5.218  1.2355  0.0729  1.8629
 1035SOL    HW214568   1.853   4.414   5.247  1.0938  1.0723 -1.1380
 1036SOL     OW14569   0.938   1.350   9.278 -0.2463 -0.0336  0.1915
 1036SOL    HW114570   1.028   1.355   9.247 -0.5048 -0.6155 -0.6494
 1036SOL    HW214571   0.941   1.388   9.366  2.3531  0.6351 -0.2037
 1037SOL     OW14572   2.411   2.739  15.342 -0.0237 -0.1029  0.6642
 1037SOL    HW114573   2.364   2.655  15.346 -0.4935  0.2706  3.1282
 1037SOL    HW214574   2.371   2.782  15.267 -0.9687  0.9705  1.7810
 1038SOL     OW14575   0.559   2.571  12.358  0.4697  0.3450 -0.2849
 1038SOL    HW114576   0.529   2.489  12.319  0.5211  0.3777 -0.3925
 1038SOL    HW214577   0.473   2.604  12.386  0.5498  0.1491  0.1902
 1039SOL     OW14578   3.094   3.471   1.506  0.0265  0.0813 -0.3166
 1039SOL    HW114579   3.175   3.461   1.557 -0.4338  2.0723  0.7980
 1039SOL    HW214580   3.140   3.491   1.425  2.9425  0.6730  1.5009
 1040SOL     OW14581   3.438   2.859   5.383 -0.0736  0.0176 -0.1329
 1040SOL    HW114582   3.474   2.895   5.464  1.3383 -0.9709 -0.3168
 1040SOL    HW214583   3.449   2.933   5.324 -0.7304 -0.7966 -1.2772
 1041SOL     OW14584   1.281   0.382  11.354  0.7961 -0.5076 -0.1798
 1041SOL    HW114585   1.253   0.399  11.264 -2.4108  0.4839  1.0412
 1041SOL    HW214586   1.212   0.336  11.401  1.0052 -0.9329 -0.2833
 1042SOL     OW14587   4.331   2.283   7.871 -0.0728  0.3733 -0.4433
 1042SOL    HW114588   4.341   2.194   7.907 -0.1313 -0.4545 -2.4986
 1042SOL    HW214589   4.282   2.266   7.790 -1.3294  0.1243  0.3504
 1043SOL     OW14590   0.144   3.062  10.475  0.1407 -0.4452 -0.1216
 1043SOL    HW114591   0.151   3.153  10.504 -0.8505 -0.3675 -0.1215
 1043SOL    HW214592   0.052   3.065  10.447  0.1334  2.5934  0.2277
 1044SOL     OW14593   0.851   3.507   7.688  0.1496 -0.1143  0.0715
 1044SOL    HW114594   0.791   3.511   7.762 -0.9529 -1.9611 -0.7319
 1044SOL    HW214595   0.865   3.412   7.695 -0.2833 -0.4287 -3.1926
 1045SOL     OW14596   0.055   0.374   1.769 -0.1453 -0.1649  0.3868
 1045SOL    HW114597   0.122   0.442   1.774  0.2115 -0.3606 -1.7396
 1045SOL    HW214598   4.701   0.422   1.740  0.6517  0.0670 -1.3397
 1046SOL     OW14599   4.305   1.017   5.529 -0.4341 -0.3598  0.2613
 1046SOL    HW114600   4.281   0.930   5.562  0.7246 -0.4030  1.0002
 1046SOL    HW214601   4.388   1.028   5.575 -0.9098  0.2791  0.9785
 1047SOL     OW14602   3.938   0.006   1.833  0.4628 -0.3591  0.0045
 1047SOL    HW114603   3.874   4.658   1.834 -0.8113  0.7926  1.5256
 1047SOL    HW214604   3.921   0.046   1.918  1.7584  0.4088 -0.1082
 1048SOL     OW14605   4.175   2.490   5.539  0.5070  0.2955  0.6875
 1048SOL    HW114606   4.136   2.403   5.530  0.7938  0.4530 -2.3231
 1048SOL    HW214607   4.125   2.534   5.607  1.7825  0.9980  1.1652
 1049SOL     OW14608   0.891   0.601   2.371 -0.2706 -0.2321  0.4972
 1049SOL    HW114609   0.914   0.512   2.346 -0.6713  0.2091 -1.4469
 1049SOL    HW214610   0.851   0.637   2.292  1.1509  1.6911  0.6533
 1050SOL     OW14611   3.512   2.127   7.696  0.2965  0.1914 -0.2822
 1050SOL    HW114612   3.527   2.033   7.686 -0.4294  0.0347  0.0952
 1050SOL    HW214613   3.603   2.155   7.697  0.9851 -2.0442  0.1819
 1051SOL     OW14614   0.463   4.529  16.915  0.1025  0.2028 -0.1677
 1051SOL    HW114615   0.478   4.455  16.856 -1.0747 -0.1595 -0.0179
 1051SOL    HW214616   0.498   4.603  16.866  1.0382 -0.7264 -0.9155
 1052SOL     OW14617   2.561   2.385   4.408  0.7543 -0.5392 -0.5409
 1052SOL    HW114618   2.612   2.305   4.415  1.9248  0.3759  1.4248
 1052SOL    HW214619   2.625   2.450   4.438 -0.3152 -0.3746  1.4092
 1053SOL     OW14620   4.539   2.268  16.171  0.3822 -0.3478  0.5073
 1053SOL    HW114621   4.626   2.231  16.185  1.4483  2.8782  2.5538
 1053SOL    HW214622   4.521   2.236  16.083 -0.2533  3.2229 -0.6874
 1054SOL     OW14623   3.593   2.048   8.899 -0.3375  0.0188 -0.0731
 1054SOL    HW114624   3.630   2.053   8.987  0.1749  2.8300 -0.4451
 1054SOL    HW214625   3.513   2.003   8.925  0.9224 -0.9580  2.1093
 1055SOL     OW14626   1.670   1.162   4.238  0.3513 -0.1733  0.2011
 1055SOL    HW114627   1.733   1.183   4.307  1.0852  0.4828 -0.6870
 1055SOL    HW214628   1.721   1.139   4.160 -0.0594  1.2617 -0.4858
 1056SOL     OW14629   2.755   1.092   3.058 -0.4626 -0.4674 -0.0767
 1056SOL    HW114630   2.779   1.091   2.965 -1.7806 -2.5966 -0.4022
 1056SOL    HW214631   2.774   1.183   3.079  2.3708 -1.5441  1.9559
 1057SOL     OW14632   1.891   3.577   7.181  0.4175 -0.7725  0.3185
 1057SOL    HW114633   1.896   3.588   7.086  1.6935  2.1013  0.7171
 1057SOL    HW214634   1.901   3.482   7.183  0.2897 -0.7218  2.6407
 1058SOL     OW14635   4.488   0.513   7.173  0.3093  0.0641  0.2174
 1058SOL    HW114636   4.533   0.440   7.216 -1.0799 -1.2411 -0.5079
 1058SOL    HW214637   4.428   0.529   7.247 -1.5631  1.7366 -1.6630
 1059SOL     OW14638   2.696   0.178  11.270  0.1605 -0.2880 -0.2541
 1059SOL    HW114639   2.778   0.128  11.266  0.0273 -0.4204 -1.3579
 1059SOL    HW214640   2.729   0.252  11.219  0.5056  0.5650  1.2017
 1060SOL     OW14641   0.856   0.318   6.322  0.1538  0.4951  0.0553
 1060SOL    HW114642   0.784   0.346   6.267 -0.8681 -2.2377 -0.0139
 1060SOL    HW214643   0.817   0.290   6.405  0.7063  0.6884  0.3838
 1061SOL     OW14644   3.143   2.173   2.475  0.3467  0.0887 -0.2888
 1061SOL    HW114645   3.126   2.105   2.411 -0.6830 -0.6709  0.7868
 1061SOL    HW214646   3.227   2.208   2.444  1.4314 -0.8231  1.6228
 1062SOL     OW14647   2.595   3.377  10.985  0.3954 -0.1938  0.2836
 1062SOL    HW114648   2.542   3.328  11.047 -1.8765  0.8988 -0.8196
 1062SOL    HW214649   2.629   3.455  11.028  1.0733 -1.4919  2.0900
 1063SOL     OW14650   1.780   0.747   2.414  0.2402 -0.1943  0.5724
 1063SOL    HW114651   1.697   0.718   2.451 -0.3989 -0.7474 -1.3163
 1063SOL    HW214652   1.764   0.742   2.320  1.4576  0.7362  0.3075
 1064SOL     OW14653   1.039   1.609  11.502  0.1209 -0.2902  0.3459
 1064SOL    HW114654   1.056   1.645  11.415  4.4572 -2.1416  0.4421
 1064SOL    HW214655   0.971   1.671  11.530 -1.9714 -1.3561 -2.4472
 1065SOL     OW14656   4.369   2.599   8.503 -0.0943 -0.0769  0.2319
 1065SOL    HW114657   4.458   2.634   8.504  1.0642 -3.0128 -1.2765
 1065SOL    HW214658   4.351   2.611   8.410 -0.1220 -1.1301  0.1064
 1066SOL     OW14659   1.698   1.252   7.139 -0.1868 -0.2831 -0.3174
 1066SOL    HW114660   1.727   1.161   7.144 -0.3207 -0.2528  0.8811
 1066SOL    HW214661   1.652   1.256   7.055 -1.3170 -0.6410  0.2964
 1067SOL     OW14662   2.864   0.599   4.216 -0.0129  0.7264 -0.7179
 1067SOL    HW114663   2.772   0.613   4.237  0.0770  0.2612 -0.0095
 1067SOL    HW214664   2.877   0.647   4.135 -0.6351  1.1007 -0.5932
 1068SOL     OW14665   2.254   0.805   1.138 -0.0390 -0.1698 -0.2305
 1068SOL    HW114666   2.248   0.796   1.233  0.7052 -0.6649 -0.2329
 1068SOL    HW214667   2.160   0.812   1.121 -0.5431 -1.4154  2.0668
 1069SOL     OW14668   2.869   2.759  13.097 -0.3849  0.4299  0.0062
 1069SOL    HW114669   2.783   2.749  13.054 -0.5325 -1.1336  0.6789
 1069SOL    HW214670   2.877   2.676  13.143  1.3229 -0.1540 -1.3521
 1070SOL     OW14671   3.783   3.243  10.656  0.6169  0.0713 -0.6923
 1070SOL    HW114672   3.771   3.156  10.618  1.1200  0.1287 -0.9820
 1070SOL    HW214673   3.845   3.244  10.730  0.6769 -1.2267 -0.7365
 1071SOL     OW14674   0.508   1.053   7.539 -0.6139  0.1847 -0.7319
 1071SOL    HW114675   0.538   1.143   7.546  0.8947 -0.5908  2.9984
 1071SOL    HW214676   0.449   1.058   7.615  1.4521 -0.0874  0.8720
 1072SOL     OW14677   0.188   4.689   8.924  0.0413 -0.4348 -0.1225
 1072SOL    HW114678   0.201   4.604   8.967  0.9782 -0.6535 -0.8478
 1072SOL    HW214679   0.214   4.658   8.837 -0.6838  0.5909 -0.7007
 1073SOL     OW14680   2.563   4.257  13.442 -0.0471 -0.2652 -0.1849
 1073SOL    HW114681   2.491   4.229  13.498  1.0076  0.8221  1.7312
 1073SOL    HW214682   2.590   4.331  13.496  0.9090 -0.8562  0.1615
 1074SOL     OW14683   0.517   4.240   7.709  0.0216 -0.1039 -0.3599
 1074SOL    HW114684   0.512   4.267   7.617 -0.0051 -1.4766 -0.7574
 1074SOL    HW214685   0.547   4.151   7.693  1.5338  0.3614 -0.1132
 1075SOL     OW14686   3.347   1.966  12.970  0.7609  0.0967 -0.1988
 1075SOL    HW114687   3.358   1.918  12.888 -0.3085  1.3411 -1.0835
 1075SOL    HW214688   3.402   1.912  13.026  0.6051 -0.1298 -0.2650
 1076SOL     OW14689   2.092   1.316   9.711  0.4307  0.4021 -0.4163
 1076SOL    HW114690   2.127   1.403   9.730  1.0333  0.1540 -0.4111
 1076SOL    HW214691   2.160   1.260   9.748 -0.8141  1.7102  3.8327
 1077SOL     OW14692   2.986   3.631   0.918 -0.0113  0.7107 -0.2555
 1077SOL    HW114693   2.983   3.703   0.854 -0.6896  0.1139 -0.8908
 1077SOL    HW214694   2.929   3.565   0.880  1.2852  0.3609 -1.6137
 1078SOL     OW14695   1.180   1.109  16.025  0.1669  0.1105 -0.2726
 1078SOL    HW114696   1.137   1.194  16.035 -0.4494 -0.3862  1.2841
 1078SOL    HW214697   1.180   1.110  15.929 -1.0926  0.2624 -0.2740
 1079SOL     OW14698   1.537   0.671   2.518 -0.2047  0.0563 -0.2402
 1079SOL    HW114699   1.477   0.603   2.547  2.4801 -2.1260  0.2468
 1079SOL    HW214700   1.477   0.699   2.449  0.5315  0.6571 -0.6479
 1080SOL     OW14701   0.222   2.163   8.029  0.1389  0.0245 -0.1343
 1080SOL    HW114702   0.254   2.247   8.061  0.5667 -0.2829  0.2376
 1080SOL    HW214703   0.133   2.196   8.013 -0.5966 -0.5656  2.7329
 1081SOL     OW14704   4.354   3.212   9.916 -0.2722  0.2113  0.2356
 1081SOL    HW114705   4.443   3.183   9.937  0.3041  1.5555 -0.3548
 1081SOL    HW214706   4.343   3.178   9.827 -1.3175  0.2041  0.3716
 1082SOL     OW14707   1.974   3.086  16.721 -0.6689 -0.4476 -1.0697
 1082SOL    HW114708   1.964   3.168  16.768 -1.0243 -0.3008 -1.4067
 1082SOL    HW214709   1.959   3.024  16.793  1.0435 -0.7673 -0.9767
 1083SOL     OW14710   3.169   0.361   7.363  0.3014  0.5547 -0.3467
 1083SOL    HW114711   3.123   0.367   7.446  0.9189  0.5468 -0.0017
 1083SOL    HW214712   3.159   0.455   7.344  1.0920  0.9027  0.8989
 1084SOL     OW14713   3.924   0.500   9.727  0.0133  0.7869 -0.2202
 1084SOL    HW114714   3.929   0.589   9.692 -0.7285  1.5941  1.7430
 1084SOL    HW214715   3.833   0.498   9.756  0.1468 -0.9549  0.0867
 1085SOL     OW14716   4.192   3.870   0.155 -0.3299 -0.3393  0.1687
 1085SOL    HW114717   4.156   3.783   0.136  0.4538 -0.7205  0.4575
 1085SOL    HW214718   4.276   3.866   0.109  0.5947 -0.9802  1.9207
 1086SOL     OW14719   3.896   1.620   5.896 -0.3056 -0.3552 -0.2703
 1086SOL    HW114720   3.825   1.683   5.908  1.3252  1.1696  1.3190
 1086SOL    HW214721   3.970   1.675   5.922 -1.2708  0.2544  1.1623
 1087SOL     OW14722   0.729   3.796   3.707 -0.7338  0.2167 -0.5317
 1087SOL    HW114723   0.810   3.773   3.662 -2.0861 -1.4965 -2.1316
 1087SOL    HW214724   0.705   3.866   3.645  1.7626  1.3972 -0.1671
 1088SOL     OW14725   2.552   4.390   6.289  0.0800  0.1534 -0.1003
 1088SOL    HW114726   2.584   4.363   6.203  2.7145  0.2678  0.8450
 1088SOL    HW214727   2.459   4.410   6.279 -0.4199 -1.1137  1.9586
 1089SOL     OW14728   2.891   1.496   4.667 -0.2980  0.1517 -0.3078
 1089SOL    HW114729   2.928   1.539   4.590  0.0426  1.1968  0.4354
 1089SOL    HW214730   2.963   1.488   4.729 -1.2620  0.0958  0.7953
 1090SOL     OW14731   2.867   1.280   9.816 -0.0060 -0.1542  0.0603
 1090SOL    HW114732   2.779   1.256   9.847  0.5299 -3.1092 -0.6246
 1090SOL    HW214733   2.865   1.354   9.756  0.6858 -1.3301 -1.4080
 1091SOL     OW14734   3.900   3.892   8.700  0.0258 -0.1313  0.1892
 1091SOL    HW114735   3.900   3.970   8.756  0.3314 -1.2434  1.7211
 1091SOL    HW214736   3.981   3.850   8.730  1.1972  1.2441 -1.0466
 1092SOL     OW14737   0.646   1.695   6.996 -0.4833 -0.3536 -0.2911
 1092SOL    HW114738   0.686   1.734   6.919 -0.2974  0.0851  0.0265
 1092SOL    HW214739   0.697   1.744   7.061 -1.3761  1.8286 -1.2476
 1093SOL     OW14740   3.472   1.622   5.909 -0.0153  0.0237  0.3415
 1093SOL    HW114741   3.487   1.543   5.961 -1.6446 -0.8451 -0.4943
 1093SOL    HW214742   3.471   1.581   5.822  1.7280 -0.6039  0.6147
 1094SOL     OW14743   2.302   2.562   5.201  0.0454  0.0076  0.1944
 1094SOL    HW114744   2.305   2.539   5.294  0.1137 -1.6134 -0.2088
 1094SOL    HW214745   2.392   2.594   5.191 -0.5571  1.0151 -1.9081
 1095SOL     OW14746   1.420   1.721   5.942  0.6814 -0.4824  0.4067
 1095SOL    HW114747   1.470   1.761   6.014  1.7679  1.4197 -1.3990
 1095SOL    HW214748   1.337   1.769   5.950  0.9366  0.2467 -1.2589
 1096SOL     OW14749   3.240   2.609   7.538 -0.4737 -0.3197  0.0972
 1096SOL    HW114750   3.220   2.562   7.619 -0.0893  1.5781  1.2968
 1096SOL    HW214751   3.186   2.556   7.479 -1.3415  0.5073  0.1397
 1097SOL     OW14752   2.274   1.118   9.777 -0.7102  0.1318 -0.1465
 1097SOL    HW114753   2.213   1.047   9.759 -0.5214 -0.4547  1.4899
 1097SOL    HW214754   2.351   1.080   9.818  0.7028  2.6852 -0.4217
 1098SOL     OW14755   0.954   1.138  12.851  0.0272  0.1287 -0.1683
 1098SOL    HW114756   0.959   1.139  12.947 -0.4495  1.2249 -0.1584
 1098SOL    HW214757   0.991   1.049  12.844  1.5838  0.8024 -0.5014
 1099SOL     OW14758   2.355   4.706   8.751 -0.1292  0.7902 -0.0399
 1099SOL    HW114759   2.405   0.026   8.821 -0.3816  0.5552  0.2847
 1099SOL    HW214760   2.264   4.715   8.779 -0.0888  1.7700 -0.2223
 1100SOL     OW14761   2.561   1.650   6.611  0.1480 -0.1183  0.2315
 1100SOL    HW114762   2.562   1.598   6.530  3.2921 -1.9379  1.4212
 1100SOL    HW214763   2.473   1.687   6.602  0.1400 -0.0245  0.6987
 1101SOL     OW14764   1.391   2.438   5.930 -0.2332 -0.1631 -0.2013
 1101SOL    HW114765   1.438   2.356   5.947  0.8580  0.3108 -0.9377
 1101SOL    HW214766   1.305   2.404   5.906  0.9071 -1.5097 -2.3836
 1102SOL     OW14767   2.891   3.730   1.177 -0.5026  0.1213  0.4627
 1102SOL    HW114768   2.908   3.683   1.095  0.4446  0.6536  0.3554
 1102SOL    HW214769   2.816   3.781   1.146 -0.8203 -0.7134 -0.1471
 1103SOL     OW14770   2.139   4.155  16.838  0.1562 -0.2803  0.1002
 1103SOL    HW114771   2.214   4.208  16.809 -0.7347  1.4410  0.9347
 1103SOL    HW214772   2.093   4.223  16.888  1.0802  1.5317 -1.5171
 1104SOL     OW14773   0.111   3.860   2.817  0.3650 -0.3145  0.2763
 1104SOL    HW114774   0.048   3.829   2.753 -0.4215  0.7590  0.5141
 1104SOL    HW214775   0.059   3.925   2.864  1.1528 -0.5874  1.5455
 1105SOL     OW14776   0.676   0.294  10.543 -0.2332  0.3590 -0.6170
 1105SOL    HW114777   0.671   0.340  10.627 -1.0596 -1.0128  0.0681
 1105SOL    HW214778   0.737   0.225  10.567 -0.1112  0.5903 -0.2469
 1106SOL     OW14779   4.374   3.173   4.878 -0.2787  0.1108 -0.0539
 1106SOL    HW114780   4.460   3.162   4.838 -1.0495  2.4413 -2.3671
 1106SOL    HW214781   4.368   3.264   4.909 -0.8978 -0.1696  0.6536
 1107SOL     OW14782   4.183   3.399   1.593 -0.4970  0.0775  0.4188
 1107SOL    HW114783   4.111   3.455   1.621  0.6572  0.5880  2.4491
 1107SOL    HW214784   4.210   3.364   1.678  3.8011 -0.0655 -1.0081
 1108SOL     OW14785   3.883   1.735   9.301  0.3829  0.5246 -0.1907
 1108SOL    HW114786   3.915   1.789   9.374  1.0811 -1.5829  1.0540
 1108SOL    HW214787   3.915   1.797   9.235 -0.3653  0.2365 -0.8268
 1109SOL     OW14788   2.452   4.592   4.961 -0.5106 -0.0133 -0.2873
 1109SOL    HW114789   2.543   4.568   4.979 -0.6654 -1.2136 -1.0718
 1109SOL    HW214790   2.429   4.524   4.897 -2.7076 -1.5780  2.1458
 1110SOL     OW14791   3.199   3.184   3.740  0.4825 -0.1368 -0.3340
 1110SOL    HW114792   3.168   3.274   3.726  0.1110 -0.1259  0.6182
 1110SOL    HW214793   3.227   3.163   3.650 -0.3944  0.7444 -0.8084
 1111SOL     OW14794   4.706   0.267   6.783  0.4516  0.1942 -0.5127
 1111SOL    HW114795   0.054   0.331   6.783  1.6058 -1.1106 -2.9419
 1111SOL    HW214796   4.642   0.307   6.842  0.5071 -1.2397  0.5141
 1112SOL     OW14797   1.396   0.522   5.794 -0.4092  0.4529  0.0898
 1112SOL    HW114798   1.330   0.584   5.763 -1.5332 -0.5999  0.4115
 1112SOL    HW214799   1.468   0.553   5.738 -0.0097  1.5715  1.2099
 1113SOL     OW14800   3.843   1.781  11.314 -0.2545 -0.0559 -0.4097
 1113SOL    HW114801   3.791   1.844  11.264  0.9761  1.7435  0.5596
 1113SOL    HW214802   3.781   1.715  11.342 -0.6432  0.0987 -0.9107
 1114SOL     OW14803   4.677   1.065  12.522  0.0969  0.1968  0.0084
 1114SOL    HW114804   4.599   1.043  12.472  0.4376 -2.1470  0.4904
 1114SOL    HW214805   4.722   1.116  12.455  1.0622  0.0513  0.5376
 1115SOL     OW14806   2.250   1.039   5.506 -0.4854 -0.5344 -0.2499
 1115SOL    HW114807   2.230   0.985   5.429  1.7086 -1.5983 -0.0820
 1115SOL    HW214808   2.293   1.105   5.451 -0.5658 -0.8263 -0.6632
 1116SOL     OW14809   1.874   3.776   6.254 -0.3236 -0.0596 -0.5380
 1116SOL    HW114810   1.968   3.785   6.235 -0.7128  1.0484 -1.9713
 1116SOL    HW214811   1.874   3.681   6.248  1.2644 -0.1913  1.5113
 1117SOL     OW14812   3.060   0.628   5.695 -0.3892  0.3449 -0.2576
 1117SOL    HW114813   3.079   0.721   5.709  1.0084 -0.1810  1.2874
 1117SOL    HW214814   3.115   0.604   5.621 -1.5528  0.2206 -1.0839
 1118SOL     OW14815   4.481   4.221  17.133 -0.3132 -0.3658 -0.6730
 1118SOL    HW114816   4.546   4.284  17.163 -0.9601 -0.7152  1.4298
 1118SOL    HW214817   4.540   4.148  17.116 -0.9191 -1.7592  3.1515
 1119SOL     OW14818   3.803   1.237   1.848  0.4477 -0.2993 -0.1145
 1119SOL    HW114819   3.740   1.244   1.776  0.9215 -1.5245 -0.6564
 1119SOL    HW214820   3.864   1.179   1.802  0.3122 -0.6714  0.1699
 1120SOL     OW14821   3.845   4.587   2.612 -0.4529 -0.2857  0.1219
 1120SOL    HW114822   3.856   4.621   2.523 -2.1257 -1.5676 -0.5714
 1120SOL    HW214823   3.792   4.660   2.645  0.6954 -0.1001  1.5538
 1121SOL     OW14824   3.069   1.258  12.299 -0.0900  0.1304 -0.1151
 1121SOL    HW114825   2.982   1.297  12.306  0.5547  1.8928 -1.8318
 1121SOL    HW214826   3.125   1.328  12.333  0.5292  0.0997 -1.0650
 1122SOL     OW14827   3.997   3.941   1.668 -0.0135  0.4763 -0.4514
 1122SOL    HW114828   4.077   3.891   1.683  0.3816  0.5130 -2.4021
 1122SOL    HW214829   4.013   3.952   1.574  0.6490 -0.0952 -0.3992
 1123SOL     OW14830   3.896   4.292  16.012 -0.4366 -0.0637  0.5072
 1123SOL    HW114831   3.825   4.323  15.956 -1.9775 -0.7724  2.0483
 1123SOL    HW214832   3.949   4.246  15.947  0.0270  0.3827  0.5619
 1124SOL     OW14833   4.357   4.606   2.383 -0.3608 -0.2695  0.5089
 1124SOL    HW114834   4.285   4.545   2.397 -0.1307 -1.5279 -3.8227
 1124SOL    HW214835   4.343   4.661   2.460 -0.7706 -0.3542  0.4932
 1125SOL     OW14836   3.633   2.821   0.644  0.2371 -0.2503 -0.2147
 1125SOL    HW114837   3.584   2.742   0.621  1.7284 -1.1579 -0.2665
 1125SOL    HW214838   3.562   2.859   0.696  0.5739 -1.3052  0.9961
 1126SOL     OW14839   1.024   3.931  13.468  0.3681 -0.0763  0.8493
 1126SOL    HW114840   1.050   3.840  13.485 -1.7177 -0.7616  0.4334
 1126SOL    HW214841   1.084   3.938  13.394 -0.6383 -0.3975 -0.0007
 1127SOL     OW14842   1.467   2.216   9.677 -0.4499  0.3135  0.1992
 1127SOL    HW114843   1.495   2.298   9.717 -0.3571  0.2040  0.3582
 1127SOL    HW214844   1.539   2.158   9.699 -0.0287 -0.0236 -2.0191
 1128SOL     OW14845   1.061   3.536   2.233  0.2560  0.2591 -0.3700
 1128SOL    HW114846   1.053   3.470   2.164 -0.8032  2.1577 -2.0594
 1128SOL    HW214847   0.995   3.507   2.297 -1.2015  2.3654 -0.8943
 1129SOL     OW14848   0.428   3.560   6.012  0.2339  0.2812  0.3270
 1129SOL    HW114849   0.521   3.539   6.006 -0.1382 -1.0583 -0.7722
 1129SOL    HW214850   0.441   3.641   5.963 -1.3182 -1.5802 -3.2534
 1130SOL     OW14851   4.265   0.098  13.388 -0.1837  0.1658 -0.2085
 1130SOL    HW114852   4.173   0.087  13.362 -0.1422  2.5743 -1.3618
 1130SOL    HW214853   4.302   0.041  13.320  0.9807  1.6520 -0.8012
 1131SOL     OW14854   1.150   2.672   5.598  0.1116  0.3671 -0.6069
 1131SOL    HW114855   1.231   2.684   5.548  1.4545  1.0112  1.7149
 1131SOL    HW214856   1.083   2.667   5.529 -0.2212 -1.3628 -0.1370
 1132SOL     OW14857   3.738   3.472  12.335  0.2322  0.2691  0.0143
 1132SOL    HW114858   3.690   3.445  12.413  1.3243  1.6433  1.1548
 1132SOL    HW214859   3.662   3.503  12.285 -0.6912 -2.4654 -0.2799
 1133SOL     OW14860   2.460   4.380  13.104  0.2525  0.0078 -0.3132
 1133SOL    HW114861   2.551   4.361  13.081  0.3439 -0.4936  0.4529
 1133SOL    HW214862   2.457   4.313  13.172  2.8679  0.2878  0.0563
 1134SOL     OW14863   3.280   2.935  13.471 -0.3091 -0.2226 -0.3171
 1134SOL    HW114864   3.226   3.003  13.432  0.0484 -0.8532 -1.8879
 1134SOL    HW214865   3.353   2.947  13.411  0.1877 -1.6841 -0.0142
 1135SOL     OW14866   1.964   1.286  12.222  0.4931 -0.2412  0.3244
 1135SOL    HW114867   2.004   1.227  12.287 -1.2098 -1.1835  0.5181
 1135SOL    HW214868   2.007   1.243  12.148 -0.5392 -3.0675  1.3411
 1136SOL     OW14869   1.856   2.851  10.662  0.1239 -0.3810  0.4497
 1136SOL    HW114870   1.793   2.803  10.714  0.0243  1.2618  1.8626
 1136SOL    HW214871   1.863   2.939  10.700  1.5908  0.3604 -1.5177
 1137SOL     OW14872   2.889   0.488   8.914  0.1570  0.0488  0.3258
 1137SOL    HW114873   2.832   0.416   8.887 -0.3297  0.1287  1.1327
 1137SOL    HW214874   2.829   0.548   8.959  0.1366  0.1147  0.2104
 1138SOL     OW14875   1.144   4.616   8.649  0.3126 -0.1879  0.2191
 1138SOL    HW114876   1.179   4.587   8.564  1.6314  3.0237 -0.3220
 1138SOL    HW214877   1.134   4.708   8.626  0.4249 -0.4169 -0.7727
 1139SOL     OW14878   1.997   2.927  14.839  0.3249  0.4920  0.1591
 1139SOL    HW114879   2.087   2.907  14.865  0.3122 -0.4130 -0.4669
 1139SOL    HW214880   1.971   2.992  14.904  1.0455  2.3181 -1.4123
 1140SOL     OW14881   1.140   1.244  12.214 -0.0297  0.4935  0.3669
 1140SOL    HW114882   1.214   1.287  12.170  0.2755  1.5822  1.9715
 1140SOL    HW214883   1.079   1.316  12.229 -0.8826 -0.4289  1.3179
 1141SOL     OW14884   1.315   2.596  12.510 -0.2968  0.0730 -0.1519
 1141SOL    HW114885   1.400   2.553  12.505  0.4799  1.3367  2.1560
 1141SOL    HW214886   1.270   2.521  12.470 -1.6059 -1.4364  4.1017
 1142SOL     OW14887   2.267   2.394  11.117 -0.0623  0.8428  0.3622
 1142SOL    HW114888   2.242   2.444  11.195  2.2141  0.5240  1.3158
 1142SOL    HW214889   2.353   2.363  11.147  0.5716  1.9355 -0.3208
 1143SOL     OW14890   1.556   1.441   8.779 -0.0964 -0.3303  0.1615
 1143SOL    HW114891   1.478   1.386   8.787 -0.3216  0.0708  0.6718
 1143SOL    HW214892   1.543   1.482   8.694 -2.7936 -2.6458 -0.5514
 1144SOL     OW14893   1.666   4.045   0.711 -0.2022  0.0094  0.3615
 1144SOL    HW114894   1.677   3.959   0.671  0.5119  0.4231 -0.3331
 1144SOL    HW214895   1.730   4.039   0.782 -1.2983  1.7497  1.4792
 1145SOL     OW14896   3.209   2.074   4.753  0.5595 -0.6249 -0.1956
 1145SOL    HW114897   3.188   2.051   4.844  2.5136 -4.0921 -0.6059
 1145SOL    HW214898   3.215   1.983   4.725 -2.1227 -0.8356 -0.0703
 1146SOL     OW14899   2.777   2.036   0.803  0.6022  0.0339 -0.5837
 1146SOL    HW114900   2.696   2.063   0.846 -0.6985 -0.3836 -2.7984
 1146SOL    HW214901   2.749   1.987   0.726  0.5576 -1.1981  0.2108
 1147SOL     OW14902   3.695   4.407   5.682 -0.5007 -0.2997  0.7838
 1147SOL    HW114903   3.672   4.334   5.740  0.5732 -0.8671  0.4855
 1147SOL    HW214904   3.718   4.366   5.599 -2.6206  0.7204 -0.3240
 1148SOL     OW14905   1.993   1.007   5.611 -0.2302  0.0012 -0.0828
 1148SOL    HW114906   1.939   1.084   5.627 -1.3241 -0.7695 -0.1010
 1148SOL    HW214907   2.078   1.042   5.583  0.6878 -0.1936  2.5366
 1149SOL     OW14908   3.979   4.716   7.445 -0.0733 -0.0893 -0.4353
 1149SOL    HW114909   4.072   0.005   7.430 -0.2484 -0.2324 -1.6425
 1149SOL    HW214910   3.938   0.073   7.416 -0.2223  0.8389  2.3782
 1150SOL     OW14911   3.536   3.501   9.581 -0.3799 -0.5438 -0.2759
 1150SOL    HW114912   3.477   3.473   9.511 -1.1974 -0.5149  0.4009
 1150SOL    HW214913   3.504   3.587   9.608 -0.8324 -1.3419  1.7613
 1151SOL     OW14914   3.549   0.741   9.779  0.1185 -0.1663 -0.2459
 1151SOL    HW114915   3.610   0.698   9.838 -0.7687 -0.8379  0.1780
 1151SOL    HW214916   3.582   0.707   9.696  0.5122  0.9586 -0.5616
 1152SOL     OW14917   3.795   3.126  16.329 -0.0273 -0.1811 -0.5286
 1152SOL    HW114918   3.889   3.109  16.320  0.2811  1.2382 -0.0866
 1152SOL    HW214919   3.755   3.043  16.302 -0.6327 -0.1904  0.4061
 1153SOL     OW14920   2.467   2.053   8.552  0.1674 -0.5547  0.3545
 1153SOL    HW114921   2.396   2.071   8.491  3.1065  0.5511 -2.7144
 1153SOL    HW214922   2.494   2.140   8.581  1.9070 -1.2852  0.9449
 1154SOL     OW14923   0.121   3.519  10.363 -0.1936  0.0923 -0.0281
 1154SOL    HW114924   0.082   3.577  10.297  2.0963  1.3677 -0.2677
 1154SOL    HW214925   0.084   3.563  10.440 -0.2472  0.0693 -0.0400
 1155SOL     OW14926   0.936   4.588   3.150 -0.0811  0.1949 -0.7714
 1155SOL    HW114927   0.861   4.618   3.098 -0.5377 -1.3913 -1.0393
 1155SOL    HW214928   0.972   4.530   3.083  2.1195  1.2621 -0.5010
 1156SOL     OW14929   2.378   1.322  11.952  0.0130 -0.3150  0.7857
 1156SOL    HW114930   2.440   1.288  11.888 -0.6189 -2.8703  1.5019
 1156SOL    HW214931   2.433   1.331  12.030  0.7800  2.5192 -0.0909
 1157SOL     OW14932   3.681   4.471   0.224  0.1834 -0.3745 -0.2518
 1157SOL    HW114933   3.592   4.496   0.246  0.4176  0.3388 -0.1079
 1157SOL    HW214934   3.667   4.400   0.162 -3.2556  0.4513 -0.4127
 1158SOL     OW14935   1.862   3.421   2.440  0.1410 -0.5482 -0.1978
 1158SOL    HW114936   1.813   3.445   2.519 -0.3141  0.9036 -0.9292
 1158SOL    HW214937   1.932   3.369   2.479  1.9895  0.4903 -2.1501
 1159SOL     OW14938   2.000   2.766   3.792  0.3082 -0.4825  0.6328
 1159SOL    HW114939   2.017   2.748   3.884 -2.0598 -3.8955  0.3904
 1159SOL    HW214940   1.940   2.841   3.788 -0.1698 -0.8189  1.6260
 1160SOL     OW14941   1.200   1.829   2.661  0.3476  0.0156 -0.1814
 1160SOL    HW114942   1.161   1.899   2.609  0.8758  1.6142  1.5935
 1160SOL    HW214943   1.212   1.879   2.741 -2.0317 -1.0639  0.8631
 1161SOL     OW14944   0.312   4.380   5.221 -0.3140 -0.0642 -0.8084
 1161SOL    HW114945   0.225   4.420   5.214  0.2713  1.2598 -0.4618
 1161SOL    HW214946   0.308   4.299   5.170  0.5983 -0.8909  0.4190
 1162SOL     OW14947   1.038   4.165   8.549  0.0678  0.5687  0.1864
 1162SOL    HW114948   1.132   4.152   8.554  0.3125  2.7601  1.5044
 1162SOL    HW214949   1.018   4.111   8.473 -0.4329  1.4826 -0.3220
 1163SOL     OW14950   1.308   2.062   5.101  0.3687  0.6387  0.1657
 1163SOL    HW114951   1.276   2.130   5.041 -1.5460 -0.7324 -0.3843
 1163SOL    HW214952   1.241   2.076   5.168  0.9713 -0.7996  1.0542
 1164SOL     OW14953   0.841   2.865   2.461  0.0054  0.3411 -0.5495
 1164SOL    HW114954   0.775   2.879   2.393  0.6589  3.9451 -0.4544
 1164SOL    HW214955   0.809   2.925   2.529 -0.5648 -1.5550  0.8622
 1165SOL     OW14956   3.261   2.366   4.887 -0.5337 -0.1663  0.4115
 1165SOL    HW114957   3.333   2.383   4.947  0.6140  3.0135 -1.8493
 1165SOL    HW214958   3.314   2.345   4.811 -0.2658 -0.3783  0.6559
 1166SOL     OW14959   2.731   3.322   2.349 -0.0599  0.3715 -0.5675
 1166SOL    HW114960   2.708   3.278   2.268  0.1455 -1.5980  0.4358
 1166SOL    HW214961   2.827   3.317   2.347 -0.0410 -1.6015  3.5452
 1167SOL     OW14962   3.365   3.017  12.109  0.0348 -0.1805 -0.1203
 1167SOL    HW114963   3.374   2.954  12.180 -0.2384 -1.2657 -1.0471
 1167SOL    HW214964   3.456   3.044  12.095  0.0127 -0.5189 -0.9135
 1168SOL     OW14965   1.256   2.458   4.629 -0.3418 -0.3561 -0.1392
 1168SOL    HW114966   1.181   2.446   4.570 -0.5104 -1.1550  0.2328
 1168SOL    HW214967   1.234   2.397   4.699 -3.1685  0.3501 -0.4008
 1169SOL     OW14968   2.909   2.607  12.224  0.2030 -0.0439 -0.3925
 1169SOL    HW114969   2.951   2.659  12.156 -1.3430  2.2796  0.4290
 1169SOL    HW214970   2.837   2.575  12.171  0.9762 -0.0811 -1.4128
 1170SOL     OW14971   2.425   2.901   4.326  0.0104 -0.0186  0.3070
 1170SOL    HW114972   2.447   2.856   4.245  0.0085 -1.6407  1.2101
 1170SOL    HW214973   2.511   2.933   4.353  0.2930 -1.9312  1.6929
 1171SOL     OW14974   4.120   0.855   4.212  0.1288 -0.6087  0.1471
 1171SOL    HW114975   4.168   0.937   4.215 -0.3962 -0.3103  0.3798
 1171SOL    HW214976   4.041   0.883   4.259 -0.2283 -0.2567 -0.6603
 1172SOL     OW14977   0.929   3.013   7.390 -0.4121  0.6652  0.1730
 1172SOL    HW114978   0.952   3.076   7.322 -2.1752 -0.8956 -1.8809
 1172SOL    HW214979   0.892   2.941   7.339 -0.7096  1.5015 -0.7934
 1173SOL     OW14980   4.356   2.916   5.759 -0.6365  0.6734  0.2212
 1173SOL    HW114981   4.277   2.958   5.791 -0.7654 -2.0665  3.5750
 1173SOL    HW214982   4.425   2.976   5.787  1.4450 -1.1281 -0.9736
 1174SOL     OW14983   2.131   3.219   9.361  0.2043 -0.0057 -0.1619
 1174SOL    HW114984   2.181   3.141   9.341  1.2229  0.4425  0.6642
 1174SOL    HW214985   2.067   3.184   9.423  0.9993  0.6174  1.0041
 1175SOL     OW14986   3.605   3.507   1.053  0.1479 -0.4023 -0.8697
 1175SOL    HW114987   3.673   3.511   0.986 -2.5291  2.0894 -3.4567
 1175SOL    HW214988   3.524   3.526   1.006 -0.7984  0.3653  1.0494
 1176SOL     OW14989   1.521   0.593   8.969 -0.6630 -0.1703 -0.3448
 1176SOL    HW114990   1.536   0.587   9.063  0.7114  0.7132 -0.5256
 1176SOL    HW214991   1.576   0.527   8.928 -1.4788 -0.3213 -1.1986
 1177SOL     OW14992   3.802   4.443  11.204 -0.3336 -0.6841 -0.4750
 1177SOL    HW114993   3.883   4.432  11.152 -1.0815 -2.0568 -1.3672
 1177SOL    HW214994   3.815   4.374  11.270  0.2116  0.6224  0.7769
 1178SOL     OW14995   1.256   3.338   0.803 -0.4083 -0.2751  0.0181
 1178SOL    HW114996   1.283   3.282   0.730  0.2382 -0.9693  0.7932
 1178SOL    HW214997   1.162   3.349   0.791 -0.5742 -2.2503 -0.3665
 1179SOL     OW14998   2.078   0.654   1.961 -0.0795 -0.0772 -0.7065
 1179SOL    HW114999   2.014   0.583   1.957  0.0149 -0.2298  0.3726
 1179SOL    HW215000   2.027   0.725   1.922  1.0004  1.2840  0.3449
 1180SOL     OW15001   1.299   0.843   7.546  1.0599 -0.2687 -0.4736
 1180SOL    HW115002   1.250   0.888   7.477  1.7647  0.7589 -0.3080
 1180SOL    HW215003   1.241   0.780   7.589  2.4722 -1.6749 -0.6735
 1181SOL     OW15004   0.987   2.147   4.109  0.0013 -0.2195 -0.1650
 1181SOL    HW115005   0.949   2.131   4.022 -2.5052 -0.1640  0.9045
 1181SOL    HW215006   1.008   2.240   4.100  1.2967 -0.6029 -1.0780
 1182SOL     OW15007   2.245   2.062   9.706  0.5694  0.0659 -0.1021
 1182SOL    HW115008   2.285   2.097   9.626 -1.7670  0.1043 -1.2675
 1182SOL    HW215009   2.250   2.134   9.768  2.3609  0.9640 -1.2907
 1183SOL     OW15010   1.406   3.730   3.499  0.0145  0.4859 -0.5598
 1183SOL    HW115011   1.445   3.650   3.464 -1.3356 -0.8437  0.9655
 1183SOL    HW215012   1.449   3.799   3.448 -0.0344  1.1182  0.2489
 1184SOL     OW15013   3.076   2.908   5.592  0.5575 -0.3110 -0.0126
 1184SOL    HW115014   3.135   2.848   5.636  2.0040 -0.1974 -1.8015
 1184SOL    HW215015   2.996   2.857   5.602  1.0699 -0.9217  0.8713
 1185SOL     OW15016   1.415   3.972   0.861 -0.2595  0.2734  0.8043
 1185SOL    HW115017   1.491   4.008   0.817  1.2406 -4.3019 -0.3457
 1185SOL    HW215018   1.464   3.902   0.904 -0.9127  1.0256  2.8002
 1186SOL     OW15019   0.913   1.206  10.718  0.8066 -0.1112  0.5884
 1186SOL    HW115020   0.887   1.265  10.788 -1.1462 -0.5939  0.2750
 1186SOL    HW215021   0.979   1.149  10.758  0.2153 -2.0071 -1.1470
 1187SOL     OW15022   3.617   2.308   0.588  0.0144 -0.0290  0.3794
 1187SOL    HW115023   3.612   2.371   0.661  1.2078  0.4279  0.0683
 1187SOL    HW215024   3.526   2.303   0.560  0.7439  0.7685 -2.0599
 1188SOL     OW15025   4.513   4.573   3.277  0.1754 -0.1331  0.6210
 1188SOL    HW115026   4.554   4.490   3.251 -2.6878 -1.0543 -1.0251
 1188SOL    HW215027   4.573   4.639   3.244  0.1138  0.2162  1.2033
 1189SOL     OW15028   0.836   3.038  13.134  0.3514  0.4852 -0.5374
 1189SOL    HW115029   0.927   3.020  13.112  1.1321  1.0274  2.3767
 1189SOL    HW215030   0.809   3.107  13.074 -1.6141  0.6938  0.5817
 1190SOL     OW15031   2.745   4.160  11.812 -0.1845  0.1015  0.0097
 1190SOL    HW115032   2.660   4.203  11.797  0.2404  0.4719 -1.3916
 1190SOL    HW215033   2.767   4.200  11.896 -0.3532  1.5481 -0.6301
 1191SOL     OW15034   3.825   2.374  12.891 -0.2722  0.4271 -0.4450
 1191SOL    HW115035   3.858   2.448  12.941  1.5275 -1.6667  1.4694
 1191SOL    HW215036   3.798   2.315  12.962  0.1680 -1.2229 -1.6582
 1192SOL     OW15037   4.309   3.814  14.646 -0.2687  0.2489 -0.0452
 1192SOL    HW115038   4.277   3.849  14.729 -2.3928 -0.3556 -0.6184
 1192SOL    HW215039   4.223   3.795  14.608  0.0113  1.0803 -1.1302
 1193SOL     OW15040   0.684   4.688   4.091 -0.4930  0.4188 -0.3307
 1193SOL    HW115041   0.735   0.044   4.078 -2.1912  1.8391  1.8169
 1193SOL    HW215042   0.622   4.717   4.157  0.2313  0.7475  0.2061
 1194SOL     OW15043   3.271   2.797   4.345 -0.0316  0.6470 -0.2475
 1194SOL    HW115044   3.321   2.879   4.350  0.6232  0.3748 -2.0987
 1194SOL    HW215045   3.200   2.815   4.406  0.8765  2.2538  0.3380
 1195SOL     OW15046   4.016   1.893   5.299 -0.0576  0.2851 -0.0114
 1195SOL    HW115047   4.018   1.818   5.358 -1.1140 -0.6768 -1.2022
 1195SOL    HW215048   3.979   1.951   5.366 -1.7614 -0.0040 -0.6926
 1196SOL     OW15049   3.585   2.646   7.887 -0.6608  0.5031  0.2999
 1196SOL    HW115050   3.617   2.596   7.962  0.7276 -0.3607 -0.8679
 1196SOL    HW215051   3.552   2.580   7.826  1.8568  1.0299 -1.6589
 1197SOL     OW15052   3.403   1.379   7.493  0.1165  0.3149 -0.8901
 1197SOL    HW115053   3.351   1.451   7.528  1.2965  1.1254 -0.7975
 1197SOL    HW215054   3.340   1.340   7.432 -0.0540  1.7830 -1.6415
 1198SOL     OW15055   3.214   1.786   8.991  0.1756 -0.1832  0.7860
 1198SOL    HW115056   3.129   1.743   8.995 -0.5275  1.0203 -1.3009
 1198SOL    HW215057   3.269   1.717   9.028 -3.1677 -1.8787  2.6080
 1199SOL     OW15058   0.535   3.174  13.130 -0.1482 -0.0370  0.5015
 1199SOL    HW115059   0.613   3.226  13.110 -2.7557  3.8770  0.6110
 1199SOL    HW215060   0.518   3.192  13.222 -0.2386  0.8505  0.3152
 1200SOL     OW15061   3.672   2.547   2.083 -0.6471 -0.6474  0.3497
 1200SOL    HW115062   3.650   2.620   2.025  1.7465 -0.2837 -0.0920
 1200SOL    HW215063   3.602   2.486   2.062 -2.2954  1.0870  0.7475
 1201SOL     OW15064   4.476   4.100   7.264  0.4652  0.3342 -0.6849
 1201SOL    HW115065   4.507   4.098   7.355  0.6101 -0.4139 -0.7487
 1201SOL    HW215066   4.486   4.193   7.242 -1.1502  0.5634 -0.4036
 1202SOL     OW15067   3.897   4.191  12.271 -0.0423 -0.2725 -0.0370
 1202SOL    HW115068   3.827   4.136  12.237 -1.1153  0.3186  1.2055
 1202SOL    HW215069   3.942   4.211  12.189 -0.0162  3.5911  0.9119
 1203SOL     OW15070   3.528   3.742   3.508  0.4792  0.5326 -0.2348
 1203SOL    HW115071   3.513   3.755   3.414  0.4759 -1.6169 -0.5178
 1203SOL    HW215072   3.568   3.656   3.504 -0.8446 -0.0101 -1.8382
 1204SOL     OW15073   2.383   0.129  10.908  0.3813 -0.2804  0.0480
 1204SOL    HW115074   2.381   0.155  11.000  3.2740  0.3695 -0.0753
 1204SOL    HW215075   2.410   0.038  10.923  2.1799  0.3023  0.3761
 1205SOL     OW15076   1.152   0.300   2.838 -0.1802  0.4930 -0.3250
 1205SOL    HW115077   1.225   0.360   2.822 -0.3394 -0.0820 -3.0915
 1205SOL    HW215078   1.194   0.245   2.904  1.2668 -0.1107 -1.7509
 1206SOL     OW15079   3.633   2.498   0.816 -0.5447  0.2355 -0.1562
 1206SOL    HW115080   3.647   2.447   0.897 -0.1463  0.3648 -0.1467
 1206SOL    HW215081   3.559   2.552   0.844 -0.1442  0.0312  1.2855
 1207SOL     OW15082   3.048   2.846   4.530  0.3082  0.0212 -0.2153
 1207SOL    HW115083   3.026   2.793   4.606 -2.4802 -0.4323 -1.3348
 1207SOL    HW215084   2.992   2.801   4.466  1.2439 -0.8506 -0.4274
 1208SOL     OW15085   1.130   1.044   9.244  0.2177  0.1491  0.1606
 1208SOL    HW115086   1.118   1.033   9.150  0.8276  1.5588 -0.0683
 1208SOL    HW215087   1.065   1.111   9.264 -0.3720 -1.6837  4.5335
 1209SOL     OW15088   0.262   2.162  10.163  0.0783  0.0840  0.1750
 1209SOL    HW115089   0.280   2.132  10.074  0.3868 -3.4163  1.4087
 1209SOL    HW215090   0.343   2.155  10.213 -0.1924 -0.3136  0.5648
 1210SOL     OW15091   3.884   3.338   7.620 -0.1704  0.4987  0.3719
 1210SOL    HW115092   3.803   3.290   7.601  0.4968 -0.5907  0.2228
 1210SOL    HW215093   3.889   3.318   7.714  2.7423 -0.4968  0.0344
 1211SOL     OW15094   3.025   4.302   6.782 -0.0962 -0.6071  0.2231
 1211SOL    HW115095   2.990   4.255   6.706  0.1560 -0.1402 -0.1798
 1211SOL    HW215096   3.118   4.282   6.780 -0.2257 -1.2952  0.8238
 1212SOL     OW15097   1.635   0.207   4.992  0.0639  0.9823  0.1873
 1212SOL    HW115098   1.638   0.116   4.963  0.7956  1.2813 -0.6882
 1212SOL    HW215099   1.547   0.227   4.960  0.2300 -0.2942 -1.0823
 1213SOL     OW15100   4.602   2.286   7.506 -0.0362 -0.0322 -0.5953
 1213SOL    HW115101   4.645   2.270   7.590  0.7956 -1.2489 -1.2462
 1213SOL    HW215102   4.567   2.198   7.491 -0.9856  0.0020  1.4118
 1214SOL     OW15103   0.412   1.772   3.829  0.3547  0.2779 -0.2254
 1214SOL    HW115104   0.417   1.744   3.738 -1.5828 -0.9056  0.0433
 1214SOL    HW215105   0.413   1.867   3.813 -1.3683  0.2078 -0.7174
 1215SOL     OW15106   2.387   2.901   7.756 -0.0886 -0.2128  0.1253
 1215SOL    HW115107   2.361   2.821   7.802  0.9511 -1.5779 -1.6599
 1215SOL    HW215108   2.482   2.891   7.768  0.0361 -1.6392 -1.9182
 1216SOL     OW15109   2.563   2.449  16.809  0.9240 -0.3575 -0.4130
 1216SOL    HW115110   2.502   2.427  16.880  0.6497 -0.9875 -0.8507
 1216SOL    HW215111   2.569   2.367  16.760 -1.5829 -0.9648  0.2740
 1217SOL     OW15112   1.338   0.410   1.697 -0.1770  0.2906  0.2909
 1217SOL    HW115113   1.408   0.431   1.636  0.7614 -0.7306  1.0220
 1217SOL    HW215114   1.380   0.333   1.735 -0.6476  0.5512  1.3265
 1218SOL     OW15115   1.554   0.963  13.053 -0.2827 -0.2651  0.8654
 1218SOL    HW115116   1.585   0.876  13.079  2.9139  0.9344  0.9800
 1218SOL    HW215117   1.496   0.989  13.125 -4.3268  1.8179 -3.1559
 1219SOL     OW15118   3.499   0.846  11.463 -0.2292  0.5266 -0.2229
 1219SOL    HW115119   3.467   0.827  11.551  0.5434  2.7879  0.5431
 1219SOL    HW215120   3.560   0.773  11.450 -0.6816 -0.0313  0.8445
 1220SOL     OW15121   4.268   4.208   0.088  0.2384  0.1342 -0.3925
 1220SOL    HW115122   4.340   4.269   0.075 -0.6223  1.5370  1.3532
 1220SOL    HW215123   4.292   4.131   0.038  1.1377 -0.1673  0.4966
 1221SOL     OW15124   1.700   4.096  16.447 -0.0311 -0.2687  0.6857
 1221SOL    HW115125   1.779   4.104  16.501  0.7421  1.3244 -0.6820
 1221SOL    HW215126   1.677   4.003  16.442  1.4255 -0.7492  2.5852
 1222SOL     OW15127   4.514   2.193  12.342  0.5399 -0.4439  0.2249
 1222SOL    HW115128   4.483   2.103  12.340 -2.1362  0.4474  1.1235
 1222SOL    HW215129   4.430   2.239  12.334  1.0308  0.6104  1.3172
 1223SOL     OW15130   4.247   4.189  10.331  0.5685 -0.3349 -0.2814
 1223SOL    HW115131   4.173   4.134  10.306 -0.7547  1.0118  0.6358
 1223SOL    HW215132   4.303   4.189  10.254 -0.5296  1.7781 -1.0562
 1224SOL     OW15133   0.323   1.331   5.208  0.5453  0.1069 -0.1849
 1224SOL    HW115134   0.353   1.418   5.182 -0.1599  0.6206  0.7436
 1224SOL    HW215135   0.364   1.271   5.146  1.4600 -0.2979  0.7938
 1225SOL     OW15136   3.397   0.488  16.339  0.3014  0.0017 -0.1294
 1225SOL    HW115137   3.315   0.467  16.384  0.1386 -0.9530 -0.8524
 1225SOL    HW215138   3.362   0.518  16.255 -0.6279 -1.1994 -0.1670
 1226SOL     OW15139   3.217   0.867   7.238 -0.0480 -0.2715 -0.6865
 1226SOL    HW115140   3.302   0.899   7.208  0.9326 -1.8550  0.4351
 1226SOL    HW215141   3.170   0.951   7.235  1.8005  0.9724  4.3422
 1227SOL     OW15142   4.619   4.656  17.395  0.1095  0.3858  0.2351
 1227SOL    HW115143   4.622   0.028  17.397 -1.3304  0.4394 -0.2016
 1227SOL    HW215144   4.672   4.646  17.474  2.4349  0.3487 -1.3207
 1228SOL     OW15145   1.853   3.511  15.518  0.0653  0.2388  0.1527
 1228SOL    HW115146   1.879   3.506  15.426 -0.3891 -1.3471  0.1168
 1228SOL    HW215147   1.879   3.426  15.554  1.6682  0.1720 -1.1352
 1229SOL     OW15148   1.739   2.919   3.498 -0.7614 -0.0454 -0.0580
 1229SOL    HW115149   1.825   2.951   3.524 -1.3975  0.8679  0.9170
 1229SOL    HW215150   1.682   2.990   3.527  1.0313  0.9977  0.8637
 1230SOL     OW15151   0.636   1.179   6.701  0.0661  0.1242  0.2751
 1230SOL    HW115152   0.730   1.192   6.712  0.3091 -2.3640  1.1039
 1230SOL    HW215153   0.622   1.245   6.634 -2.2246  0.4556  1.0932
 1231SOL     OW15154   2.868   2.479   5.922 -0.1502 -0.1399 -0.0388
 1231SOL    HW115155   2.851   2.415   5.992  1.0363 -0.6970 -0.2645
 1231SOL    HW215156   2.912   2.423   5.857  1.0525  2.1107 -1.1536
 1232SOL     OW15157   3.623   4.335   0.831  0.4048 -0.0804  0.4481
 1232SOL    HW115158   3.530   4.354   0.847  0.3750 -1.1997  1.6317
 1232SOL    HW215159   3.649   4.382   0.752 -0.6030 -2.2036 -1.1496
 1233SOL     OW15160   0.571   1.790   5.096 -0.2228 -0.0267  0.8357
 1233SOL    HW115161   0.657   1.796   5.138  1.9220 -0.7325 -3.5069
 1233SOL    HW215162   0.584   1.837   5.014  0.8873  0.1450  1.1017
 1234SOL     OW15163   3.349   2.969   7.305 -0.0771 -0.0099  0.4836
 1234SOL    HW115164   3.293   2.902   7.343  0.2017 -0.8084 -0.5133
 1234SOL    HW215165   3.428   2.957   7.358 -0.4265 -2.3703  0.4488
 1235SOL     OW15166   4.372   1.388   0.597 -0.1813  0.0787  0.2896
 1235SOL    HW115167   4.435   1.339   0.651 -0.4271 -1.6539 -0.9981
 1235SOL    HW215168   4.301   1.340   0.640  0.2223  0.5305  1.4747
 1236SOL     OW15169   4.560   3.190  12.284 -0.0017 -0.5170 -0.7736
 1236SOL    HW115170   4.576   3.109  12.332  0.0973 -0.1203 -0.1501
 1236SOL    HW215171   4.464   3.196  12.285  0.1063  0.5003  1.6985
 1237SOL     OW15172   0.983   3.533  11.494 -0.9373 -0.1815  0.5526
 1237SOL    HW115173   0.985   3.444  11.528  1.5130 -0.5122 -0.4601
 1237SOL    HW215174   1.074   3.559  11.504 -0.9748 -0.0400  0.5193
 1238SOL     OW15175   2.008   2.774  13.468 -0.3805 -0.3892 -0.0378
 1238SOL    HW115176   1.928   2.800  13.514 -0.7958 -1.2257 -0.3010
 1238SOL    HW215177   2.067   2.846  13.490 -2.3519  1.6070 -1.2731
 1239SOL     OW15178   4.471   3.725   8.018 -0.0825 -0.1446  0.2081
 1239SOL    HW115179   4.429   3.789   7.960 -0.3768  1.3512  2.0659
 1239SOL    HW215180   4.548   3.705   7.965  0.7784  0.4340  1.2569
 1240SOL     OW15181   4.455   0.014   9.569 -0.6949 -0.3912 -0.2416
 1240SOL    HW115182   4.536   0.010   9.519  0.9244  1.4007  2.2473
 1240SOL    HW215183   4.380   4.714   9.514 -0.9494  1.6460 -0.7684
 1241SOL     OW15184   1.063   1.910  12.897 -0.1564  0.1067  0.2735
 1241SOL    HW115185   1.014   1.860  12.962 -0.2924  0.4465  0.4317
 1241SOL    HW215186   1.108   1.962  12.963  0.2411 -0.3422  0.3619
 1242SOL     OW15187   2.540   2.525   8.731 -0.2489 -0.1404 -0.0646
 1242SOL    HW115188   2.490   2.445   8.748 -1.6246  0.8079  0.3380
 1242SOL    HW215189   2.590   2.533   8.812  0.0785 -1.1069 -0.1631
 1243SOL     OW15190   3.366   2.863   0.775  0.4015  0.8159  0.5640
 1243SOL    HW115191   3.380   2.803   0.848 -2.2270 -1.5239 -0.8623
 1243SOL    HW215192   3.272   2.848   0.766 -0.0622  1.2978  4.4406
 1244SOL     OW15193   1.231   4.177   5.093  0.0855  0.3743  0.3604
 1244SOL    HW115194   1.277   4.240   5.148 -0.8472  1.5963 -0.2660
 1244SOL    HW215195   1.187   4.121   5.156 -0.5715  0.5654  0.0673
 1245SOL     OW15196   2.582   2.029  15.105  0.3350  0.6945  0.0565
 1245SOL    HW115197   2.629   2.021  15.188  1.3839 -0.7975 -0.6843
 1245SOL    HW215198   2.574   2.124  15.093 -0.6167  0.5700 -0.3654
 1246SOL     OW15199   4.267   0.092   3.716  0.1576 -0.2770 -0.2953
 1246SOL    HW115200   4.337   0.135   3.765 -0.6079  0.1332  0.4349
 1246SOL    HW215201   4.307   0.087   3.629  0.8580  1.7814 -0.0984
 1247SOL     OW15202   2.938   0.387   2.009 -0.4194 -0.7020  0.0135
 1247SOL    HW115203   2.899   0.324   2.070 -0.3156 -0.0765  0.7266
 1247SOL    HW215204   2.988   0.329   1.952  0.1889 -0.5470  0.3872
 1248SOL     OW15205   1.474   1.727  10.613  0.3644  0.0603 -0.5741
 1248SOL    HW115206   1.447   1.803  10.663 -1.3406 -1.2050  0.4321
 1248SOL    HW215207   1.567   1.723  10.633  0.7721 -0.9296 -2.6358
 1249SOL     OW15208   2.922   4.443   8.198  0.3594 -0.2435 -0.3782
 1249SOL    HW115209   2.956   4.525   8.235  0.4094 -0.8770  0.9986
 1249SOL    HW215210   3.005   4.408   8.165 -0.5004  0.2662 -3.1089
 1250SOL     OW15211   1.515   0.707   1.334  0.4462  0.6203 -0.3715
 1250SOL    HW115212   1.595   0.705   1.386 -0.6478 -3.7302  1.0943
 1250SOL    HW215213   1.524   0.797   1.303 -1.3063  0.6571 -0.7449
 1251SOL     OW15214   3.861   2.839   0.464  0.1518 -0.6854 -0.1523
 1251SOL    HW115215   3.773   2.831   0.502 -0.3275 -1.6325 -1.4548
 1251SOL    HW215216   3.900   2.885   0.538  1.7978 -2.7891  0.3019
 1252SOL     OW15217   3.906   2.778   0.815 -0.8885 -0.3964 -0.0659
 1252SOL    HW115218   3.902   2.685   0.840 -0.6449 -0.6832 -1.1108
 1252SOL    HW215219   3.827   2.788   0.763  0.5344 -2.1209 -2.5864
 1253SOL     OW15220   1.573   2.486  17.030 -0.1647 -0.5244  0.1887
 1253SOL    HW115221   1.518   2.447  16.961  0.3671  1.6398 -1.4705
 1253SOL    HW215222   1.566   2.416  17.094 -1.7939 -2.5426 -2.1655
 1254SOL     OW15223   1.610   3.245   6.168  0.7081  0.4259  0.2427
 1254SOL    HW115224   1.568   3.325   6.200  0.6097  0.4238  0.1141
 1254SOL    HW215225   1.600   3.267   6.076 -1.3941  1.9606  0.8445
 1255SOL     OW15226   2.435   2.736  16.877 -0.0676 -0.0595 -0.0990
 1255SOL    HW115227   2.452   2.699  16.963  2.3104  0.3557 -0.3836
 1255SOL    HW215228   2.508   2.707  16.823  1.5973  2.2370  0.9322
 1256SOL     OW15229   3.888   1.258   9.699  0.3490 -0.4617 -0.3930
 1256SOL    HW115230   3.951   1.278   9.768 -0.4483 -2.6019  0.9766
 1256SOL    HW215231   3.903   1.334   9.644 -1.0428 -1.1873 -1.7911
 1257SOL     OW15232   1.497   3.512   0.823 -0.3135 -0.0198  0.4631
 1257SOL    HW115233   1.501   3.491   0.917  0.2219 -1.8588  0.0355
 1257SOL    HW215234   1.423   3.455   0.804 -0.1666 -0.4263  1.1150
 1258SOL     OW15235   0.941   4.064   9.229 -0.8235  0.1642  0.2056
 1258SOL    HW115236   0.965   4.107   9.311  2.6284 -0.3452 -0.5458
 1258SOL    HW215237   0.875   4.126   9.199 -0.1414  0.4542 -0.6716
 1259SOL     OW15238   1.604   0.602   8.326  0.4455 -0.6634  0.0328
 1259SOL    HW115239   1.564   0.684   8.354 -0.4847 -2.0528  2.7850
 1259SOL    HW215240   1.563   0.573   8.245  0.3892 -0.6995  0.0742
 1260SOL     OW15241   4.627   0.081   9.003  0.5120  0.3581  0.0122
 1260SOL    HW115242   4.632   0.176   8.986 -0.3171  0.6310  1.2657
 1260SOL    HW215243   4.691   0.046   8.941  1.1204  0.9825  0.2864
 1261SOL     OW15244   0.037   2.302   2.963  0.0806  0.2035  0.5166
 1261SOL    HW115245   4.697   2.259   2.906 -0.2830 -1.3114  2.0629
 1261SOL    HW215246   4.711   2.374   3.001 -0.8267  0.3315 -0.8976
 1262SOL     OW15247   4.106   1.979   4.416 -0.2404 -0.1497  0.4310
 1262SOL    HW115248   4.095   2.073   4.407  0.8677 -0.0044  0.5996
 1262SOL    HW215249   4.120   1.947   4.327  0.8093 -1.1529  0.9497
 1263SOL     OW15250   4.456   3.913   6.323  0.0521 -0.2141  0.2797
 1263SOL    HW115251   4.532   3.923   6.381  1.8232  1.5258 -2.3159
 1263SOL    HW215252   4.458   3.820   6.300  0.4056 -0.6139  1.9474
 1264SOL     OW15253   1.045   3.262   4.459  0.2312  0.4488  0.7674
 1264SOL    HW115254   1.061   3.328   4.392  2.6918 -0.3685  0.5817
 1264SOL    HW215255   0.991   3.197   4.413  2.2430 -0.5001 -0.2414
 1265SOL     OW15256   3.573   1.945   6.182  0.2319  0.3325  0.3562
 1265SOL    HW115257   3.598   2.012   6.245  0.0623  1.0795 -0.3741
 1265SOL    HW215258   3.482   1.932   6.208 -0.6240  0.8989 -2.3567
 1266SOL     OW15259   1.193   4.344  12.502  0.2705 -0.1936 -0.2285
 1266SOL    HW115260   1.284   4.341  12.471  0.0667  0.7004 -0.9117
 1266SOL    HW215261   1.170   4.436  12.500  0.3248 -0.1537  0.7040
 1267SOL     OW15262   3.499   1.308   8.443  0.2196  0.1534 -0.7444
 1267SOL    HW115263   3.495   1.328   8.537 -2.5836  2.2367 -1.3295
 1267SOL    HW215264   3.453   1.224   8.445  0.6888 -0.0268  3.4042
 1268SOL     OW15265   2.780   0.819   3.596 -0.3604  0.2352  0.2236
 1268SOL    HW115266   2.783   0.883   3.525  1.4813 -2.1761 -1.8831
 1268SOL    HW215267   2.832   0.746   3.564 -1.7543  0.0105 -1.5202
 1269SOL     OW15268   0.185   4.409  13.817 -0.3668  0.0075 -0.5298
 1269SOL    HW115269   0.153   4.459  13.742  0.9363 -0.8216 -1.6466
 1269SOL    HW215270   0.150   4.322  13.802  0.7295 -0.6160  0.5003
 1270SOL     OW15271   2.579   1.600   8.227  0.0215 -0.2014 -0.0549
 1270SOL    HW115272   2.548   1.622   8.139 -2.2562 -0.4161  0.7005
 1270SOL    HW215273   2.642   1.533   8.198  0.5529  0.3874 -0.2506
 1271SOL     OW15274   2.266   4.322   4.576 -0.5543 -0.0312 -0.2480
 1271SOL    HW115275   2.242   4.412   4.558 -1.3398  0.1985  2.0034
 1271SOL    HW215276   2.322   4.304   4.500 -2.4050 -1.5740 -1.2453
 1272SOL     OW15277   2.171   0.879  16.137 -0.3206  0.2440  0.0669
 1272SOL    HW115278   2.258   0.845  16.121 -0.3323  1.0146 -1.6786
 1272SOL    HW215279   2.168   0.967  16.099  2.1606  0.6060  0.7607
 1273SOL     OW15280   1.638   1.262   8.470 -0.2546  0.3373 -0.1082
 1273SOL    HW115281   1.728   1.290   8.456 -0.6353  0.3751 -2.4953
 1273SOL    HW215282   1.618   1.315   8.546 -3.5416 -0.5546 -0.3476
 1274SOL     OW15283   1.350   4.607  14.888  0.0446  0.2685  0.2330
 1274SOL    HW115284   1.280   4.660  14.926  1.4641  1.0651  1.7490
 1274SOL    HW215285   1.401   4.678  14.851 -0.3445 -0.4658 -1.7123
 1275SOL     OW15286   1.503   0.818   7.024 -0.7003 -0.2808 -0.4570
 1275SOL    HW115287   1.546   0.895   7.061 -3.0166  1.0917 -0.5977
 1275SOL    HW215288   1.408   0.823   7.039 -0.6819 -1.9158  0.2070
 1276SOL     OW15289   2.568   2.913  12.111 -0.6725  0.4971 -0.3223
 1276SOL    HW115290   2.642   2.906  12.170 -1.5664  1.3121  0.9005
 1276SOL    HW215291   2.503   2.851  12.146  0.9887 -1.3339 -0.4946
 1277SOL     OW15292   3.759   4.333  15.768 -0.3758  0.0659  0.4380
 1277SOL    HW115293   3.677   4.380  15.752 -0.1295 -0.3159 -2.0287
 1277SOL    HW215294   3.750   4.273  15.694  0.4242 -0.3438  0.6617
 1278SOL     OW15295   2.099   2.769   2.531  0.2856  0.1007  0.0680
 1278SOL    HW115296   2.027   2.823   2.499  0.2937 -0.6032 -1.1501
 1278SOL    HW215297   2.142   2.755   2.447 -1.3202  0.9785 -0.8886
 1279SOL     OW15298   1.783   0.194   3.291 -0.0928 -0.4773  0.0708
 1279SOL    HW115299   1.827   0.127   3.343 -1.1779 -1.8743 -0.8190
 1279SOL    HW215300   1.843   0.202   3.218 -2.0258  1.7029 -1.2631
 1280SOL     OW15301   0.848   0.601   5.547 -0.7861 -0.0583  0.7806
 1280SOL    HW115302   0.864   0.635   5.635 -0.1746  1.2523  0.1612
 1280SOL    HW215303   0.798   0.672   5.507  0.1499 -0.1659 -0.5776
 1281SOL     OW15304   3.505   2.433   7.719 -0.2317 -0.0683  0.1549
 1281SOL    HW115305   3.504   2.361   7.656 -0.6309  0.2933 -0.2567
 1281SOL    HW215306   3.465   2.393   7.795 -1.9335  0.1151 -0.6416
 1282SOL     OW15307   3.246   0.066   9.117 -0.1110 -0.4841 -0.4102
 1282SOL    HW115308   3.317   0.120   9.153 -1.9503  2.3365 -1.0430
 1282SOL    HW215309   3.255   4.704   9.159  2.5394  0.3780  0.7759
 1283SOL     OW15310   0.430   1.735  17.507 -0.1116  0.2157  0.2865
 1283SOL    HW115311   0.404   1.689  17.587  3.8757 -0.5475  1.1776
 1283SOL    HW215312   0.526   1.730  17.512 -0.0003  0.7834 -1.4890
 1284SOL     OW15313   3.734   1.156   8.898 -0.0243  0.2524  0.0902
 1284SOL    HW115314   3.815   1.199   8.927 -0.3239  1.8276 -1.3666
 1284SOL    HW215315   3.708   1.222   8.834  0.4279 -0.6208 -0.9904
 1285SOL     OW15316   2.451   3.750   6.690 -0.1272 -0.1064 -0.1305
 1285SOL    HW115317   2.500   3.756   6.608 -0.1686  0.8355 -0.0911
 1285SOL    HW215318   2.387   3.821   6.686 -0.9885 -0.7805  1.6800
 1286SOL     OW15319   2.767   2.103   6.464 -0.2613 -0.0281  0.2943
 1286SOL    HW115320   2.751   2.190   6.500 -0.1626  1.2438 -2.7557
 1286SOL    HW215321   2.862   2.106   6.455 -0.1917  0.4973  1.2302
 1287SOL     OW15322   0.774   3.923   7.121  0.7254  0.0327  0.1782
 1287SOL    HW115323   0.855   3.970   7.102  0.9357 -1.1821 -1.9339
 1287SOL    HW215324   0.798   3.833   7.139  3.2807  0.6401 -0.1137
 1288SOL     OW15325   3.368   2.298   2.361  0.7504  0.5384 -0.1331
 1288SOL    HW115326   3.387   2.326   2.272  0.5749  0.3087 -0.2416
 1288SOL    HW215327   3.398   2.207   2.371  1.3618  0.8479  0.8497
 1289SOL     OW15328   0.884   2.319   5.353  0.3001  0.3274  0.2683
 1289SOL    HW115329   0.956   2.359   5.402  0.0030  1.6331 -0.3605
 1289SOL    HW215330   0.818   2.327   5.422 -0.0821 -0.1969 -0.0348
 1290SOL     OW15331   3.363   2.692   7.229 -0.0509 -0.0006 -0.2668
 1290SOL    HW115332   3.409   2.686   7.313 -0.7844  1.1269  0.2285
 1290SOL    HW215333   3.430   2.734   7.175  0.0135  0.9816  0.5630
 1291SOL     OW15334   1.983   1.431   9.997  0.2473 -0.5588 -0.2061
 1291SOL    HW115335   1.951   1.514  10.031 -2.0547 -1.8163  0.7172
 1291SOL    HW215336   2.055   1.469   9.947 -0.4745 -1.1517 -1.6719
 1292SOL     OW15337   1.216   0.959   2.101  0.1003 -0.4068 -0.6634
 1292SOL    HW115338   1.270   1.022   2.149 -0.1940  1.6570 -3.0258
 1292SOL    HW215339   1.202   1.002   2.016 -0.6070  0.3966 -0.1447
 1293SOL     OW15340   1.169   4.601  13.018  0.0527 -0.2912 -0.2126
 1293SOL    HW115341   1.085   4.635  13.048 -1.6964 -0.8221 -4.4861
 1293SOL    HW215342   1.184   4.559  13.103 -0.3650 -0.6206 -0.3002
 1294SOL     OW15343   1.734   2.405   1.750 -0.1203 -0.1473  0.0728
 1294SOL    HW115344   1.805   2.367   1.698  2.1878  0.0528  3.1326
 1294SOL    HW215345   1.661   2.346   1.734  0.2875 -0.4738 -0.6190
 1295SOL     OW15346   0.616   3.068   1.722 -0.9187 -0.1650 -1.0923
 1295SOL    HW115347   0.539   3.074   1.667 -0.2669  1.5360 -1.8500
 1295SOL    HW215348   0.587   3.007   1.790  0.6090  0.1371 -0.1552
 1296SOL     OW15349   1.486   4.085   9.083 -0.2941 -0.1248 -0.2999
 1296SOL    HW115350   1.453   4.119   9.166  0.1827  0.7751 -0.4689
 1296SOL    HW215351   1.410   4.104   9.029 -0.8683 -1.9228 -0.0923
 1297SOL     OW15352   2.155   1.915   4.927 -0.1644 -0.0356  0.1827
 1297SOL    HW115353   2.250   1.911   4.910 -0.5911 -1.0756 -1.9069
 1297SOL    HW215354   2.116   1.875   4.849 -0.1116  1.9238 -0.8438
 1298SOL     OW15355   2.932   3.199   9.150  0.3165  0.2750 -0.3303
 1298SOL    HW115356   3.013   3.178   9.197  0.7939  0.5728 -1.0182
 1298SOL    HW215357   2.917   3.286   9.187  2.9510  1.0354 -1.0794
 1299SOL     OW15358   0.676   4.408   1.364 -0.1710 -0.1110  0.1731
 1299SOL    HW115359   0.728   4.396   1.443 -0.3946 -0.1504  0.3138
 1299SOL    HW215360   0.611   4.339   1.374 -0.0711 -0.4918 -1.7217
 1300SOL     OW15361   0.949   1.388   6.326  0.5635 -0.0383  0.7404
 1300SOL    HW115362   0.887   1.315   6.318 -1.3567  1.7299 -0.3551
 1300SOL    HW215363   0.985   1.389   6.237 -0.7754  1.4318  0.2129
 1301SOL     OW15364   3.643   4.143   5.500 -0.4888 -0.0752  0.0479
 1301SOL    HW115365   3.588   4.076   5.542 -0.9934 -0.6334 -1.5056
 1301SOL    HW215366   3.713   4.149   5.565 -0.4701  1.3304 -0.0959
 1302SOL     OW15367   1.198   3.818   4.091 -0.0849  1.1322 -0.7257
 1302SOL    HW115368   1.251   3.887   4.053  3.2589 -1.5091 -0.8341
 1302SOL    HW215369   1.268   3.775   4.140  0.2151  1.6629 -0.6880
 1303SOL     OW15370   3.021   0.163   7.237  0.2581  0.1294 -0.2422
 1303SOL    HW115371   3.102   0.213   7.249  0.6784  0.0679 -2.9464
 1303SOL    HW215372   3.013   0.104   7.312 -1.9668  0.4646 -0.2285
 1304SOL     OW15373   0.406   1.359   9.269  0.0776  0.1880 -0.0898
 1304SOL    HW115374   0.312   1.373   9.276  0.1412 -0.1572  1.3073
 1304SOL    HW215375   0.434   1.430   9.211 -1.3302 -0.0875 -1.1039
 1305SOL     OW15376   0.034   0.284   7.500 -0.0300 -0.3480  0.6243
 1305SOL    HW115377   0.091   0.211   7.476  2.1414  0.6922  2.6299
 1305SOL    HW215378   0.030   0.332   7.418 -0.8112 -1.3735  0.0632
 1306SOL     OW15379   1.765   0.117   7.772  0.5890  0.2678  0.3360
 1306SOL    HW115380   1.825   0.152   7.706 -0.4510 -0.3070 -0.9081
 1306SOL    HW215381   1.821   0.147   7.843 -0.9753  0.8718  1.3296
 1307SOL     OW15382   4.282   3.794   7.461 -0.1234 -0.3274 -1.0140
 1307SOL    HW115383   4.206   3.837   7.500 -0.2920 -0.1777 -1.5009
 1307SOL    HW215384   4.233   3.723   7.420 -1.4342  0.0108 -0.0180
 1308SOL     OW15385   3.110   1.969   2.297  0.0769  0.4026 -0.2349
 1308SOL    HW115386   3.154   1.896   2.340  1.6772 -0.2897 -3.0230
 1308SOL    HW215387   3.039   1.921   2.255  0.6737  2.0791 -3.1382
 1309SOL     OW15388   3.453   1.536  16.757  0.3029 -0.7932 -0.2958
 1309SOL    HW115389   3.440   1.628  16.781 -0.2466  0.0535 -3.7259
 1309SOL    HW215390   3.511   1.539  16.681  0.8851  2.2648  0.2823
 1310SOL     OW15391   1.426   4.277   1.062 -0.2098 -0.3101  0.3641
 1310SOL    HW115392   1.444   4.361   1.104 -0.7822  1.0273 -2.1158
 1310SOL    HW215393   1.340   4.298   1.024  0.8373  1.6001 -0.9336
 1311SOL     OW15394   0.996   4.292   2.598 -0.1065 -0.0082 -0.1066
 1311SOL    HW115395   0.933   4.230   2.561  0.5990  1.5421 -3.8808
 1311SOL    HW215396   1.070   4.289   2.538  0.0486 -1.4545  0.1382
 1312SOL     OW15397   0.516   2.729   3.968  0.2504  0.1057 -0.6120
 1312SOL    HW115398   0.604   2.763   3.984  0.3008 -0.2810 -0.0567
 1312SOL    HW215399   0.506   2.658   4.032  1.6046 -1.1138 -1.7615
 1313SOL     OW15400   3.888   4.399  12.625 -0.3106  0.0158 -0.6768
 1313SOL    HW115401   3.980   4.424  12.612  0.1642 -1.2970  0.0462
 1313SOL    HW215402   3.883   4.333  12.556 -2.8279 -1.3329  0.8055
 1314SOL     OW15403   0.910   2.883   3.236  0.0205  0.2848 -0.0046
 1314SOL    HW115404   0.972   2.933   3.288 -0.0472  2.4346 -1.9803
 1314SOL    HW215405   0.844   2.848   3.296  0.8248 -0.8673  0.2076
 1315SOL     OW15406   3.351   0.839   8.529 -0.1350 -0.8974 -0.0886
 1315SOL    HW115407   3.260   0.868   8.518  0.0816  0.0084  0.5446
 1315SOL    HW215408   3.363   0.816   8.437  0.2662 -0.1134 -0.2320
 1316SOL     OW15409   3.975   1.113   4.124  0.1357 -0.6000 -0.2524
 1316SOL    HW115410   4.035   1.111   4.049 -1.0346 -0.3105 -1.1898
 1316SOL    HW215411   3.897   1.064   4.098  0.6354 -1.3435 -0.3581
 1317SOL     OW15412   0.956   3.395   4.695  0.2406 -0.2194  0.2351
 1317SOL    HW115413   1.014   3.364   4.626  0.0069  1.2106 -0.6189
 1317SOL    HW215414   1.002   3.476   4.717 -1.3703  1.6083 -3.0503
 1318SOL     OW15415   0.437   4.261   5.899  0.1493 -0.3597 -0.7303
 1318SOL    HW115416   0.370   4.213   5.948 -0.5722 -1.0208 -2.3553
 1318SOL    HW215417   0.495   4.191   5.871 -0.9744 -1.6633  0.2051
 1319SOL     OW15418   1.704   2.895   9.243 -0.1094  0.2609  0.1812
 1319SOL    HW115419   1.688   2.948   9.321  2.1703 -0.1156  0.9085
 1319SOL    HW215420   1.638   2.828   9.261 -0.3653  0.7490  1.0799
 1320SOL     OW15421   2.226   3.021   3.768 -0.1359 -0.3186 -0.4699
 1320SOL    HW115422   2.282   3.035   3.845  0.9283 -1.0809 -1.1171
 1320SOL    HW215423   2.262   2.946   3.720 -1.1755 -1.2621  0.2275
 1321SOL     OW15424   2.546   1.137   6.858  0.7802  0.2155 -0.3740
 1321SOL    HW115425   2.494   1.089   6.923  1.4134 -2.7150 -2.0461
 1321SOL    HW215426   2.547   1.223   6.900  2.3170  0.6502 -1.2859
 1322SOL     OW15427   2.459   2.052   4.275  0.1810  0.1488  0.3576
 1322SOL    HW115428   2.535   2.110   4.270  0.8917 -0.9027 -0.9425
 1322SOL    HW215429   2.421   2.067   4.362  0.8692  2.9179  0.1778
 1323SOL     OW15430   3.617   3.165   2.817  0.3558 -0.6197  0.4927
 1323SOL    HW115431   3.630   3.093   2.756  1.4661  0.8527 -1.0251
 1323SOL    HW215432   3.694   3.157   2.874 -0.1929  3.0612  1.7419
 1324SOL     OW15433   4.039   0.233   5.502  0.6882  0.1193  0.1663
 1324SOL    HW115434   3.982   0.187   5.440  2.6478  0.1250 -1.6317
 1324SOL    HW215435   4.051   0.321   5.467  0.8276  0.3216  0.7213
 1325SOL     OW15436   4.412   0.501  16.163 -0.2521 -0.4527 -0.0174
 1325SOL    HW115437   4.380   0.567  16.223  2.8778 -1.1603  2.4085
 1325SOL    HW215438   4.426   0.552  16.083  0.4971  1.9254  1.6270
 1326SOL     OW15439   3.997   0.436  14.413 -0.0934 -0.3390  0.3668
 1326SOL    HW115440   4.070   0.415  14.472 -0.1621  0.9500  0.9182
 1326SOL    HW215441   3.923   0.439  14.473  0.0118 -0.0079  0.4828
 1327SOL     OW15442   2.434   0.768  16.068  0.1149 -0.1818 -0.1572
 1327SOL    HW115443   2.513   0.740  16.114  0.5959 -1.2677 -1.6544
 1327SOL    HW215444   2.466   0.841  16.015  0.1804 -1.4572 -1.8654
 1328SOL     OW15445   4.451   0.954  15.508 -0.7564 -0.0338 -0.6715
 1328SOL    HW115446   4.517   0.891  15.537 -0.0043 -0.0796 -2.5236
 1328SOL    HW215447   4.474   1.040  15.544  0.4038 -0.3073 -0.7719
 1329SOL     OW15448   0.817   3.994  15.861  0.0105  0.1742 -0.2898
 1329SOL    HW115449   0.777   3.944  15.789 -3.2394  1.4079  0.6799
 1329SOL    HW215450   0.896   4.030  15.821 -0.8538  0.7619 -1.5021
 1330SOL     OW15451   1.717   4.288   3.798  0.3334 -0.1028  0.0478
 1330SOL    HW115452   1.657   4.217   3.775  1.0931 -0.7472  0.0546
 1330SOL    HW215453   1.805   4.262   3.770  1.1717  5.9586 -3.0507
 1331SOL     OW15454   0.402   4.062   9.591 -0.5843 -0.2568 -0.7498
 1331SOL    HW115455   0.380   4.155   9.585 -0.4284 -0.4310 -4.3741
 1331SOL    HW215456   0.323   4.028   9.633 -0.5780 -1.4355 -1.6607
 1332SOL     OW15457   4.218   1.791   1.262 -0.2381 -0.5862  0.0684
 1332SOL    HW115458   4.312   1.802   1.277  0.3650 -2.2027 -2.4481
 1332SOL    HW215459   4.220   1.714   1.205  0.8720 -0.8098  0.4116
 1333SOL     OW15460   3.963   4.513  15.781  0.4655 -0.1493  0.5353
 1333SOL    HW115461   3.922   4.568  15.848  0.4944 -0.9080  1.1702
 1333SOL    HW215462   3.909   4.435  15.785  0.6037 -0.2054  1.3301
 1334SOL     OW15463   3.153   0.808   4.599 -0.0239  0.1516 -0.7798
 1334SOL    HW115464   3.187   0.793   4.511  2.9282  0.1335  0.3574
 1334SOL    HW215465   3.190   0.896   4.599  1.2030 -0.3769  2.2313
 1335SOL     OW15466   4.392   4.241   4.260  0.1894 -0.0578 -0.4083
 1335SOL    HW115467   4.320   4.284   4.212  0.7269  0.9478 -0.3104
 1335SOL    HW215468   4.354   4.241   4.348  0.5982 -1.6651 -0.2392
 1336SOL     OW15469   4.412   0.244   4.065 -0.0064  0.5235 -0.2780
 1336SOL    HW115470   4.488   0.230   4.122  0.3466 -1.5362 -1.2580
 1336SOL    HW215471   4.455   0.290   3.993 -0.5468  0.4979 -0.6142
 1337SOL     OW15472   3.825   4.406   4.149  0.2125 -0.0551  0.3670
 1337SOL    HW115473   3.843   4.481   4.093  1.4157 -0.4756  0.1767
 1337SOL    HW215474   3.739   4.436   4.178  0.6077 -1.4120  2.9084
 1338SOL     OW15475   1.463   0.818   5.422  0.5894  0.3010  0.1062
 1338SOL    HW115476   1.502   0.817   5.335  1.0923 -0.9149  0.3542
 1338SOL    HW215477   1.373   0.821   5.391  0.5848  4.0889  0.3649
 1339SOL     OW15478   1.873   3.157   3.676  0.1675 -0.3566 -0.3071
 1339SOL    HW115479   1.785   3.179   3.647 -0.7045 -0.3903  2.3254
 1339SOL    HW215480   1.919   3.134   3.596 -0.7896  1.5514 -1.3964
 1340SOL     OW15481   0.522   3.811  11.394  0.2520 -0.0216 -0.6424
 1340SOL    HW115482   0.569   3.818  11.310 -0.3233 -0.6929 -1.0165
 1340SOL    HW215483   0.507   3.905  11.405 -2.4673 -0.4593 -0.7750
 1341SOL     OW15484   4.414   2.817   6.616 -0.3331  0.6710 -0.0701
 1341SOL    HW115485   4.373   2.902   6.599  3.3282  2.0917 -1.7243
 1341SOL    HW215486   4.355   2.778   6.681  2.0229  1.3007  2.4125
 1342SOL     OW15487   2.137   0.615   0.961  0.2713 -0.4799  0.3292
 1342SOL    HW115488   2.175   0.702   0.972  0.4799 -0.3513 -1.4435
 1342SOL    HW215489   2.197   0.559   1.012  0.3694 -1.8283 -1.2584
 1343SOL     OW15490   0.171   0.856  16.180 -0.0040  0.2097  0.1960
 1343SOL    HW115491   0.144   0.938  16.223  0.7566  1.4115 -1.6478
 1343SOL    HW215492   0.177   0.885  16.089  1.5201  0.2428  0.3200
 1344SOL     OW15493   3.160   2.937   5.219  0.5456  0.3702  0.0835
 1344SOL    HW115494   3.222   2.881   5.266 -0.2186 -0.2120  0.3998
 1344SOL    HW215495   3.214   3.004   5.176 -0.0721  1.8190  1.5920
 1345SOL     OW15496   3.800   2.195   4.749 -0.1436  0.0223  0.0896
 1345SOL    HW115497   3.789   2.106   4.783 -0.1003 -0.5718 -1.4700
 1345SOL    HW215498   3.787   2.251   4.826 -0.5110 -0.8734  0.6694
 1346SOL     OW15499   2.293   3.449  10.948 -0.0535  0.0122 -0.3754
 1346SOL    HW115500   2.322   3.401  11.025  0.7294  1.8065  0.4186
 1346SOL    HW215501   2.340   3.532  10.953 -0.3496  0.1733 -0.2236
 1347SOL     OW15502   4.084   4.302  12.409 -0.4218  0.5470  0.0393
 1347SOL    HW115503   4.017   4.247  12.368 -0.0996  1.8526 -2.2726
 1347SOL    HW215504   4.168   4.271  12.374 -0.8354  1.4084 -1.7241
 1348SOL     OW15505   2.773   4.183   7.704  0.1586 -0.3071 -0.2608
 1348SOL    HW115506   2.815   4.121   7.645  0.6563 -0.7015  0.5175
 1348SOL    HW215507   2.689   4.139   7.715  0.0964 -0.3469 -0.8654
 1349SOL     OW15508   3.616   4.254   1.455 -0.1694  0.4568  0.0721
 1349SOL    HW115509   3.557   4.310   1.506 -1.5626 -1.3436  0.4399
 1349SOL    HW215510   3.641   4.200   1.530 -0.4646  0.2905  0.0494
 1350SOL     OW15511   2.179   0.517   9.729  0.4549 -0.4825 -0.0694
 1350SOL    HW115512   2.267   0.488   9.755  0.2750  0.7294  1.8845
 1350SOL    HW215513   2.181   0.612   9.739  0.5401 -0.7822  2.7620
 1351SOL     OW15514   2.201   2.793   5.358  0.5084  0.2234 -0.1408
 1351SOL    HW115515   2.167   2.717   5.404 -0.0843 -0.0734 -1.0681
 1351SOL    HW215516   2.261   2.742   5.304  0.7860  2.9642 -2.4532
 1352SOL     OW15517   2.429   4.678  13.347  0.3406 -0.4927 -0.4159
 1352SOL    HW115518   2.445   4.637  13.432  2.2818 -0.4407 -0.7579
 1352SOL    HW215519   2.382   0.033  13.375 -1.3308 -0.4176 -3.4336
 1353SOL     OW15520   2.390   3.425   3.841 -0.6977 -0.2088  0.6776
 1353SOL    HW115521   2.296   3.412   3.848 -1.0355  0.5788 -2.3557
 1353SOL    HW215522   2.412   3.358   3.776 -2.3265  1.4434 -1.5816
 1354SOL     OW15523   3.575   2.761   2.470 -0.2166 -0.3041  0.1091
 1354SOL    HW115524   3.561   2.677   2.514 -1.7423 -1.0568 -1.8030
 1354SOL    HW215525   3.582   2.734   2.379  0.3952 -0.9179  0.3370
 1355SOL     OW15526   3.034   4.055   6.227 -0.1579 -0.1349  0.2419
 1355SOL    HW115527   3.057   3.966   6.198 -2.0123 -0.6051  0.1988
 1355SOL    HW215528   3.116   4.076   6.271  0.2107 -1.7827  0.3303
 1356SOL     OW15529   0.520   1.630   8.309  1.0877 -0.3664 -0.2131
 1356SOL    HW115530   0.541   1.638   8.216  0.0168 -0.0146 -0.4208
 1356SOL    HW215531   0.429   1.654   8.295  0.9529 -0.0957  1.1960
 1357SOL     OW15532   0.621   1.773   2.961  0.1477 -0.1276 -0.0587
 1357SOL    HW115533   0.625   1.863   2.929 -1.4405 -0.4760 -1.2455
 1357SOL    HW215534   0.699   1.762   3.015 -0.4682 -0.6666  0.7280
 1358SOL     OW15535   1.688   0.250   1.513 -0.3993 -0.1714  0.3860
 1358SOL    HW115536   1.643   0.175   1.551  1.5488 -2.2170 -1.3061
 1358SOL    HW215537   1.603   0.287   1.490 -0.2764  0.5657  1.1249
 1359SOL     OW15538   2.175   3.693   4.823  0.4836 -0.3246 -0.1552
 1359SOL    HW115539   2.153   3.760   4.758  0.2308 -1.0350 -0.7900
 1359SOL    HW215540   2.245   3.740   4.870  0.0597 -0.7450  0.8933
 1360SOL     OW15541   0.847   0.297   6.619 -0.1219  0.4732 -0.2820
 1360SOL    HW115542   0.937   0.328   6.629 -0.7138  2.3487 -0.6612
 1360SOL    HW215543   0.811   0.317   6.705 -1.5798 -0.8508 -0.5891
 1361SOL     OW15544   0.199   0.993  15.939 -0.5018 -0.2118  0.3447
 1361SOL    HW115545   0.239   0.952  15.863  2.8169  0.0477  1.8970
 1361SOL    HW215546   0.136   1.052  15.899  0.3324 -0.8635 -1.9319
 1362SOL     OW15547   4.095   3.619   0.578 -0.0602 -0.0386 -0.2288
 1362SOL    HW115548   4.071   3.587   0.665  1.5908 -2.2501 -0.5860
 1362SOL    HW215549   4.125   3.707   0.600  0.8089 -0.7347  1.4260
 1363SOL     OW15550   4.638   0.966  16.359  0.4740 -0.3226  1.1681
 1363SOL    HW115551   4.694   1.030  16.314 -3.2781  1.6498 -0.7579
 1363SOL    HW215552   4.611   1.026  16.428 -0.5667  1.2908 -0.6332
 1364SOL     OW15553   3.736   3.417   8.933 -0.8091 -0.8558  1.0601
 1364SOL    HW115554   3.741   3.510   8.956 -2.4142 -0.6514  0.5654
 1364SOL    HW215555   3.730   3.410   8.838  0.2883 -0.6277  0.9735
 1365SOL     OW15556   3.164   0.513   4.930 -0.6851 -0.3703 -0.2834
 1365SOL    HW115557   3.104   0.573   4.886 -1.1779 -0.9412 -0.3908
 1365SOL    HW215558   3.216   0.481   4.856 -1.7263 -2.1861 -0.2371
 1366SOL     OW15559   2.905   3.608   1.988  0.1920 -0.2791 -0.7758
 1366SOL    HW115560   2.929   3.520   2.016 -0.5663 -0.6064 -1.1557
 1366SOL    HW215561   2.866   3.635   2.071 -1.1873  1.0758 -1.8715
 1367SOL     OW15562   3.048   1.078   4.198 -0.5115 -0.8370  0.6352
 1367SOL    HW115563   3.133   1.040   4.222  0.3081 -0.3096 -1.3554
 1367SOL    HW215564   2.990   1.041   4.264 -0.6913 -0.8017  0.4981
 1368SOL     OW15565   4.133   1.888   3.601  0.2432  0.2485  0.5657
 1368SOL    HW115566   4.114   1.878   3.694 -0.5044 -0.7925  0.3024
 1368SOL    HW215567   4.050   1.913   3.560 -0.0823  1.2841  1.8704
 1369SOL     OW15568   3.802   3.647   8.286  0.3674  0.0063 -0.1622
 1369SOL    HW115569   3.842   3.642   8.374  0.1253 -0.9140 -0.1044
 1369SOL    HW215570   3.807   3.736   8.252  1.1069 -0.4009 -1.1379
 1370SOL     OW15571   0.653   0.602   9.067  0.4189  0.0152 -0.2642
 1370SOL    HW115572   0.633   0.536   9.000 -0.1561  0.9086 -0.9755
 1370SOL    HW215573   0.581   0.576   9.126 -1.7364  2.1534 -1.9594
 1371SOL     OW15574   1.838   4.358   2.975 -0.0205  0.6291 -0.0467
 1371SOL    HW115575   1.866   4.306   3.051 -0.1742  1.2397  0.4319
 1371SOL    HW215576   1.822   4.443   3.016 -0.5468  0.4648  0.0943
 1372SOL     OW15577   3.885   0.269   8.171  0.0564  0.6038 -0.2072
 1372SOL    HW115578   3.913   0.187   8.131 -0.0892 -0.1793  1.2907
 1372SOL    HW215579   3.927   0.333   8.114 -3.0332  1.8480 -1.0921
 1373SOL     OW15580   3.807   3.329   2.210  0.2426  0.0434 -0.1794
 1373SOL    HW115581   3.825   3.421   2.194 -3.6620  0.8098 -0.0386
 1373SOL    HW215582   3.887   3.310   2.260  0.2947 -1.2034 -0.7153
 1374SOL     OW15583   0.002   0.397   4.412 -0.1482  0.6142  0.0559
 1374SOL    HW115584   4.690   0.364   4.495  0.1379  1.3860  0.4879
 1374SOL    HW215585   4.698   0.326   4.354  3.0115  0.4679 -1.2479
 1375SOL     OW15586   3.619   3.180   3.571  0.0033 -0.1899  1.1131
 1375SOL    HW115587   3.533   3.207   3.541  0.8959 -0.0932 -1.3748
 1375SOL    HW215588   3.673   3.251   3.535  0.2116 -1.3726 -0.9024
 1376SOL     OW15589   1.049   0.393  10.643 -0.2421  0.1786  0.4016
 1376SOL    HW115590   0.959   0.368  10.665 -0.3434 -2.0703 -2.5155
 1376SOL    HW215591   1.090   0.405  10.729 -1.0629 -0.2073  0.8493
 1377SOL     OW15592   2.036   3.730  10.011 -0.2746 -0.1880  0.6829
 1377SOL    HW115593   2.109   3.755  10.067  0.3688  0.5821 -0.5140
 1377SOL    HW215594   2.023   3.816   9.971 -0.6468  0.3240  1.9019
 1378SOL     OW15595   3.151   3.475   0.468  0.2009  0.0646  0.0134
 1378SOL    HW115596   3.114   3.481   0.380 -1.4309 -1.9752  0.5478
 1378SOL    HW215597   3.090   3.521   0.526  0.7752 -0.0306  0.6951
 1379SOL     OW15598   3.805   4.509   7.301 -0.9737 -0.2780  0.1983
 1379SOL    HW115599   3.770   4.532   7.387 -4.4885  0.3576 -1.4412
 1379SOL    HW215600   3.757   4.566   7.242  0.5807  0.6726 -0.1703
 1380SOL     OW15601   3.692   4.567  14.849  0.3731  0.1823 -0.5389
 1380SOL    HW115602   3.655   4.491  14.893  1.8728  0.3912  1.1034
 1380SOL    HW215603   3.786   4.554  14.862 -0.1368 -0.0231  3.0654
 1381SOL     OW15604   2.100   0.880   8.576 -0.2770  0.4543 -0.2269
 1381SOL    HW115605   2.069   0.833   8.498 -0.1086  2.5687 -1.5807
 1381SOL    HW215606   2.051   0.831   8.642  2.0682 -3.6345 -1.4902
 1382SOL     OW15607   1.279   2.327   8.423 -0.1173 -0.3097 -0.6696
 1382SOL    HW115608   1.211   2.361   8.365  0.9391  0.7244 -1.2995
 1382SOL    HW215609   1.243   2.238   8.418 -0.3100 -0.3372  1.1911
 1383SOL     OW15610   2.158   1.901   3.533 -0.1626  0.5503 -0.0516
 1383SOL    HW115611   2.172   1.932   3.622  2.0426 -1.0335  0.1561
 1383SOL    HW215612   2.096   1.830   3.549 -0.5050  0.7013 -0.7118
 1384SOL     OW15613   2.899   3.845   3.964  0.0488 -0.4502  0.3314
 1384SOL    HW115614   2.993   3.842   3.942  0.3849 -2.5472  1.9639
 1384SOL    HW215615   2.906   3.863   4.058 -0.2859  1.1119  0.0483
 1385SOL     OW15616   1.359   2.276  17.181  0.0218  0.4211 -0.0272
 1385SOL    HW115617   1.443   2.261  17.225 -0.1192  0.6163  0.3044
 1385SOL    HW215618   1.323   2.188  17.193 -3.2217  1.6906 -0.4998
 1386SOL     OW15619   1.829   4.465   1.890 -0.2294 -0.5284  0.6130
 1386SOL    HW115620   1.773   4.393   1.919 -1.5197  0.4415  0.5367
 1386SOL    HW215621   1.912   4.417   1.889  0.2383  0.2903 -0.3732
 1387SOL     OW15622   1.152   2.095   3.117  0.0284 -0.1393 -0.0824
 1387SOL    HW115623   1.193   2.176   3.086 -1.4222  0.3679 -0.6684
 1387SOL    HW215624   1.151   2.112   3.211  0.5484 -0.9865  0.0759
 1388SOL     OW15625   3.415   3.785   8.583 -0.2768  0.0919  0.3115
 1388SOL    HW115626   3.419   3.693   8.557 -1.0313  0.5048 -1.2767
 1388SOL    HW215627   3.503   3.791   8.620  0.2828 -1.3665 -0.7953
 1389SOL     OW15628   4.247   2.767  10.480 -0.1731 -0.3965  0.4730
 1389SOL    HW115629   4.326   2.816  10.503  0.2901  0.7993 -3.5582
 1389SOL    HW215630   4.172   2.823  10.500 -0.3336 -0.6098  0.4666
 1390SOL     OW15631   4.021   3.753   7.057  0.9657  0.5378  0.5288
 1390SOL    HW115632   4.091   3.776   6.998  1.8815 -2.8287  0.2852
 1390SOL    HW215633   3.944   3.778   7.006  1.8845  0.6545 -0.7721
 1391SOL     OW15634   4.628   3.559   5.532  0.4750 -0.2171 -1.0996
 1391SOL    HW115635   4.621   3.646   5.572 -2.1679  0.0002 -2.0189
 1391SOL    HW215636   4.674   3.513   5.602 -1.1170  1.5607  1.1297
 1392SOL     OW15637   1.735   0.193   3.908  0.8917  0.2964 -0.4862
 1392SOL    HW115638   1.799   0.124   3.923 -0.4371 -0.9397 -0.5633
 1392SOL    HW215639   1.767   0.226   3.823  3.0358  0.9849  0.5727
 1393SOL     OW15640   0.474   2.103   7.981 -0.1700 -0.2160  0.1722
 1393SOL    HW115641   0.491   2.151   7.899  0.8543 -2.0542 -0.7073
 1393SOL    HW215642   0.379   2.109   7.980 -0.1925 -0.5606  0.3172
 1394SOL     OW15643   2.357   3.496  12.879  0.7310  0.0172  0.0190
 1394SOL    HW115644   2.362   3.402  12.893 -0.7468 -0.2735 -1.4879
 1394SOL    HW215645   2.450   3.521  12.877  0.0191  2.7246 -0.1478
 1395SOL     OW15646   3.765   1.651   4.745 -0.6837  0.0856  0.3073
 1395SOL    HW115647   3.851   1.683   4.770  0.1997 -0.4948 -2.0336
 1395SOL    HW215648   3.768   1.556   4.759 -2.0012 -0.2327 -1.4348
 1396SOL     OW15649   1.989   3.747  12.097  1.4403 -0.2957 -0.2938
 1396SOL    HW115650   1.912   3.691  12.086  0.6761  1.2488 -2.6125
 1396SOL    HW215651   1.981   3.802  12.020  0.3601 -0.3838 -0.2558
 1397SOL     OW15652   0.371   4.582   9.357  0.5690 -0.6894 -0.0896
 1397SOL    HW115653   0.296   4.614   9.307  1.0627 -0.3432 -0.5971
 1397SOL    HW215654   0.401   4.664   9.397 -0.0064 -0.1158 -0.8331
 1398SOL     OW15655   3.809   4.652   8.499  0.6480  0.3651  0.5769
 1398SOL    HW115656   3.810   0.018   8.466  1.8795  0.6390  1.3606
 1398SOL    HW215657   3.903   4.647   8.512  0.8458 -0.7637 -1.2447
 1399SOL     OW15658   0.217   0.991   6.205 -0.1782 -0.2038  0.4293
 1399SOL    HW115659   0.172   1.026   6.282 -1.7663 -0.8573 -0.1897
 1399SOL    HW215660   0.209   1.066   6.146  1.2930 -1.0022 -0.7773
 1400SOL     OW15661   4.056   2.142   9.226  0.5621 -0.5491  0.0732
 1400SOL    HW115662   4.044   2.061   9.176 -1.5062 -0.0964 -0.1938
 1400SOL    HW215663   4.112   2.182   9.159 -1.4298  0.9008 -0.7507
 1401SOL     OW15664   2.672   1.641   7.723 -0.1083 -0.1033 -0.3221
 1401SOL    HW115665   2.624   1.713   7.682 -0.1020 -1.5899 -2.9300
 1401SOL    HW215666   2.753   1.683   7.752  0.4177 -1.0803 -0.3462
 1402SOL     OW15667   1.404   1.424   6.557  0.7159 -0.6342 -0.4764
 1402SOL    HW115668   1.349   1.431   6.479 -1.3099 -0.3910  0.9621
 1402SOL    HW215669   1.466   1.353   6.547  1.0397 -0.6842  1.8704
 1403SOL     OW15670   3.929   2.190  12.729 -0.0992 -0.6128  0.3598
 1403SOL    HW115671   3.884   2.231  12.802  0.7756 -1.4286  1.3639
 1403SOL    HW215672   3.961   2.271  12.691 -2.4483 -0.1802 -0.6756
 1404SOL     OW15673   2.573   3.630   5.197 -0.4587  0.1459  0.0870
 1404SOL    HW115674   2.658   3.670   5.218 -1.1348  1.6226 -0.0028
 1404SOL    HW215675   2.609   3.568   5.134 -1.8243 -0.3096 -0.2419
 1405SOL     OW15676   2.957   4.039   7.029  0.6290  0.6966  0.2842
 1405SOL    HW115677   2.963   4.001   6.941  1.5781  1.3005  0.0944
 1405SOL    HW215678   2.981   3.963   7.082  1.9120 -0.5681 -2.1027
 1406SOL     OW15679   3.028   3.405   7.870 -0.1434 -0.0936  0.3199
 1406SOL    HW115680   2.971   3.461   7.818 -0.3829  1.5175  2.3049
 1406SOL    HW215681   2.983   3.322   7.853  0.0267 -0.2435  0.5986
 1407SOL     OW15682   2.220   0.170   5.609 -0.6821 -0.3474  0.0600
 1407SOL    HW115683   2.221   0.094   5.552 -2.1668 -0.6028  0.3715
 1407SOL    HW215684   2.309   0.175   5.645  0.1784  1.0654 -2.3128
 1408SOL     OW15685   0.060   3.967  12.140 -0.1331  0.1630  0.2133
 1408SOL    HW115686   0.129   3.936  12.199  0.6246 -0.3777 -0.9658
 1408SOL    HW215687   4.709   3.940  12.194 -0.2912  0.2807  0.0526
 1409SOL     OW15688   0.062   3.807   1.995 -0.3869  0.2793 -0.2047
 1409SOL    HW115689   0.104   3.721   1.990 -0.8639  0.0689 -0.6155
 1409SOL    HW215690   0.119   3.865   1.945 -0.5732  1.8154  1.4033
 1410SOL     OW15691   4.301   1.971   4.969  0.3605  0.0496  0.2012
 1410SOL    HW115692   4.358   2.018   4.908 -0.1524  1.6414  0.9490
 1410SOL    HW215693   4.361   1.922   5.025 -1.3478 -3.0101 -0.6156
 1411SOL     OW15694   0.970   4.609   3.854 -0.0026  0.0548  0.2279
 1411SOL    HW115695   0.885   4.619   3.897  1.4028  1.3571  2.7355
 1411SOL    HW215696   0.958   4.638   3.764  2.3041  0.9515  0.2061
 1412SOL     OW15697   3.580   1.740   5.595 -0.6742 -0.0139 -0.4431
 1412SOL    HW115698   3.566   1.649   5.620 -0.0861 -0.5435 -2.0434
 1412SOL    HW215699   3.605   1.726   5.504  1.5295 -1.4893  0.3920
 1413SOL     OW15700   1.535   4.389  16.865 -0.2299 -0.4226  0.4524
 1413SOL    HW115701   1.467   4.322  16.875 -1.4591  0.6771 -0.5148
 1413SOL    HW215702   1.616   4.346  16.839  0.7283  2.1211 -0.7109
 1414SOL     OW15703   1.707   1.488   4.779  0.6919 -0.1834 -0.2295
 1414SOL    HW115704   1.767   1.500   4.854  2.0874  0.0691 -1.3890
 1414SOL    HW215705   1.763   1.465   4.705  1.1330 -0.5932  0.2234
 1415SOL     OW15706   1.107   0.404   6.237 -0.1578 -0.4915 -0.3438
 1415SOL    HW115707   1.013   0.397   6.254 -0.6672  0.4623 -2.6205
 1415SOL    HW215708   1.127   0.318   6.200 -0.6673 -0.3414 -0.9812
 1416SOL     OW15709   3.785   1.215   1.397 -0.0443  0.6570  0.2194
 1416SOL    HW115710   3.720   1.212   1.467 -0.4074 -2.1426 -0.2542
 1416SOL    HW215711   3.867   1.231   1.444  0.6348  0.1726 -0.8000
 1417SOL     OW15712   2.154   3.629   7.615 -0.3927 -0.5504  0.4793
 1417SOL    HW115713   2.164   3.639   7.520  1.3096 -1.8380  0.5331
 1417SOL    HW215714   2.067   3.667   7.626  0.6614  1.9393  0.3422
 1418SOL     OW15715   3.566   2.376  16.147 -0.3336  0.4084  0.1405
 1418SOL    HW115716   3.540   2.361  16.056  1.8260  0.8946 -0.5712
 1418SOL    HW215717   3.660   2.387  16.137 -0.2272 -1.9782 -1.4468
 1419SOL     OW15718   3.470   1.138   0.421 -0.1384 -0.2051 -0.4738
 1419SOL    HW115719   3.557   1.168   0.446 -0.1663  0.3614 -1.0616
 1419SOL    HW215720   3.491   1.045   0.407 -0.0788 -0.4646  1.3732
 1420SOL     OW15721   3.716   3.841   3.938 -0.1177 -0.6985  0.1750
 1420SOL    HW115722   3.741   3.920   3.985  0.3169 -1.0449  0.5335
 1420SOL    HW215723   3.711   3.854   3.844  0.8931  1.6966  0.4484
 1421SOL     OW15724   0.205   0.096   2.337  0.1396  0.4023 -0.3266
 1421SOL    HW115725   0.235   0.033   2.403  3.5502  0.0880 -2.1548
 1421SOL    HW215726   0.130   0.136   2.381 -2.4162 -4.7174 -0.0083
 1422SOL     OW15727   0.963   2.638   6.100 -1.0203 -0.1101  0.5648
 1422SOL    HW115728   1.051   2.608   6.125 -1.3983 -2.2265 -0.5974
 1422SOL    HW215729   0.984   2.673   6.014 -1.6372  0.8703  0.8158
 1423SOL     OW15730   4.084   3.364  14.116 -0.0885  0.3973  0.0580
 1423SOL    HW115731   4.150   3.402  14.057  1.4344  1.1979  2.2863
 1423SOL    HW215732   4.047   3.295  14.061 -1.1067  0.1529  1.0740
 1424SOL     OW15733   2.231   3.604   6.853  0.1177 -0.5971 -0.2964
 1424SOL    HW115734   2.219   3.545   6.779  0.2920 -1.7107  0.5568
 1424SOL    HW215735   2.293   3.667   6.818  0.2238 -0.4754  0.1120
 1425SOL     OW15736   0.102   3.675   3.996 -0.0697 -0.0905  0.1788
 1425SOL    HW115737   0.117   3.650   3.905 -1.0524 -2.3131  0.6027
 1425SOL    HW215738   0.174   3.730   4.026  0.6555  0.0704 -1.8736
 1426SOL     OW15739   3.992   3.988   0.337  0.2788 -0.7285  0.4241
 1426SOL    HW115740   4.041   3.939   0.271 -1.7960 -0.2534 -1.4864
 1426SOL    HW215741   4.061   4.027   0.390  0.5932  0.7732 -1.0724
 1427SOL     OW15742   3.104   2.761   0.734 -0.0965  0.3249 -0.3029
 1427SOL    HW115743   3.068   2.673   0.744 -1.3741  0.7191 -1.4448
 1427SOL    HW215744   3.089   2.783   0.642  1.2297 -1.0785 -0.8506
 1428SOL     OW15745   1.921   3.802   8.514 -0.0191  0.4551  0.1593
 1428SOL    HW115746   1.844   3.772   8.466  0.7970 -3.2041  1.1165
 1428SOL    HW215747   1.885   3.808   8.602  0.2200 -2.7220  0.4820
 1429SOL     OW15748   3.273   3.227  10.369  0.2037  0.1640 -0.1090
 1429SOL    HW115749   3.369   3.227  10.375  0.2301  1.1071 -0.5235
 1429SOL    HW215750   3.259   3.284  10.444  4.0316  0.9546  0.0321
 1430SOL     OW15751   3.335   0.376   5.121  0.1435  0.4951  0.4661
 1430SOL    HW115752   3.255   0.418   5.087  0.8345 -0.7683 -2.7108
 1430SOL    HW215753   3.397   0.377   5.048 -1.1641 -0.6310 -0.6739
 1431SOL     OW15754   0.591   0.754  12.280  0.3712 -0.4299  0.1787
 1431SOL    HW115755   0.496   0.766  12.278  0.0590 -3.2621 -1.7036
 1431SOL    HW215756   0.609   0.747  12.373 -0.6892  0.5880  0.4631
 1432SOL     OW15757   1.633   4.240   6.137 -0.0569  0.3459  0.0936
 1432SOL    HW115758   1.625   4.328   6.174 -2.8572  0.4814 -0.8961
 1432SOL    HW215759   1.728   4.247   6.126 -0.2813 -0.5972 -2.2598
 1433SOL     OW15760   3.663   1.058   5.327  0.1648 -0.1662  0.2056
 1433SOL    HW115761   3.637   1.024   5.242  2.5015 -1.2779 -0.0887
 1433SOL    HW215762   3.597   1.126   5.338  2.5387  2.3582 -1.2670
 1434SOL     OW15763   3.233   3.612   4.750 -0.5899  0.2017 -0.3429
 1434SOL    HW115764   3.256   3.692   4.703 -2.9459 -0.3183 -2.3707
 1434SOL    HW215765   3.248   3.544   4.684 -0.8314 -1.0150  0.8549
 1435SOL     OW15766   0.021   0.587   2.566  0.1166  0.0385 -0.3792
 1435SOL    HW115767   4.652   0.565   2.558 -0.1977  1.3430 -0.4058
 1435SOL    HW215768   0.020   0.616   2.657  2.3726  0.4284 -0.4744
 1436SOL     OW15769   1.829   1.138   2.676 -0.2429  0.1207  0.0816
 1436SOL    HW115770   1.774   1.102   2.745  0.0468  1.5493  1.0443
 1436SOL    HW215771   1.861   1.222   2.708  0.8753  0.4007 -1.7747
 1437SOL     OW15772   2.406   4.117  13.208  0.5368 -0.4039 -0.0519
 1437SOL    HW115773   2.379   4.038  13.255  1.3221  0.6833  2.2268
 1437SOL    HW215774   2.324   4.127  13.161 -0.1276 -2.4210  0.6706
 1438SOL     OW15775   1.985   2.906   6.840 -0.2534 -0.2114  0.0436
 1438SOL    HW115776   1.890   2.902   6.827 -0.2881  1.0212 -0.0744
 1438SOL    HW215777   1.969   2.889   6.933 -1.7360  2.8577  0.3854
 1439SOL     OW15778   1.768   0.308  15.422  0.1737 -0.1705 -0.1545
 1439SOL    HW115779   1.767   0.310  15.326 -0.2786  0.3034 -0.1403
 1439SOL    HW215780   1.838   0.244  15.435 -0.8347 -1.0015  1.1273
 1440SOL     OW15781   0.869   1.228   8.362  0.0759  0.6424  0.3090
 1440SOL    HW115782   0.829   1.303   8.319 -0.1118 -0.4871 -1.4918
 1440SOL    HW215783   0.804   1.159   8.348 -1.4291  1.8192  1.5276
 1441SOL     OW15784   4.193   2.479  12.047 -0.6392 -0.4032 -0.2121
 1441SOL    HW115785   4.178   2.565  12.086  0.3991 -0.6295  0.6665
 1441SOL    HW215786   4.101   2.467  12.021 -0.0408  0.3278 -2.6387
 1442SOL     OW15787   1.481   2.602   7.338  0.1819 -0.0475 -0.6871
 1442SOL    HW115788   1.560   2.636   7.294  1.7471 -0.2233  1.9780
 1442SOL    HW215789   1.515   2.578   7.424  0.2402  3.1577  0.2025
 1443SOL     OW15790   2.036   3.268   7.767  0.1088  0.5808 -0.3984
 1443SOL    HW115791   2.130   3.255   7.778  0.3592  0.1411 -3.0408
 1443SOL    HW215792   2.040   3.274   7.671  0.6230 -1.0100 -0.4815
 1444SOL     OW15793   0.840   1.076   9.633  0.1432 -0.2501 -0.1653
 1444SOL    HW115794   0.789   1.134   9.689  1.0120  0.3105  0.0631
 1444SOL    HW215795   0.774   1.038   9.576 -0.5259 -1.0716  1.1558
 1445SOL     OW15796   4.022   3.179   4.658 -0.0246 -0.2105 -0.5742
 1445SOL    HW115797   3.967   3.197   4.582 -0.8954 -1.0867 -0.1593
 1445SOL    HW215798   4.005   3.085   4.670  0.9828  0.0829  3.3050
 1446SOL     OW15799   2.360   0.220   4.370 -0.5815  0.8672 -0.6805
 1446SOL    HW115800   2.404   0.155   4.425 -1.8214  0.0498 -0.6400
 1446SOL    HW215801   2.269   0.224   4.401  0.1080 -0.0442  1.5367
 1447SOL     OW15802   2.267   2.751   0.702  0.8146  0.4904 -0.2296
 1447SOL    HW115803   2.268   2.819   0.769  0.5488  1.2536 -0.9975
 1447SOL    HW215804   2.179   2.763   0.665  0.4356  1.2599  0.9135
 1448SOL     OW15805   1.001   4.295   2.870  0.0032 -0.3007  0.3668
 1448SOL    HW115806   1.038   4.321   2.786  0.8266  2.0397  1.4546
 1448SOL    HW215807   0.911   4.276   2.843 -0.2654  2.6272 -0.7782
 1449SOL     OW15808   3.053   1.228   4.936 -0.0861  0.1293 -0.5271
 1449SOL    HW115809   2.981   1.285   4.960 -0.7730 -0.5298 -1.0244
 1449SOL    HW215810   3.088   1.205   5.022 -3.5224 -1.2374  0.5021
 1450SOL     OW15811   4.570   0.293   1.922  0.0948 -0.2683  0.1434
 1450SOL    HW115812   4.517   0.366   1.953 -1.1167 -0.7143 -0.8693
 1450SOL    HW215813   4.638   0.331   1.866  1.3924 -2.6321  0.0885
 1451SOL     OW15814   1.831   3.973   4.396  0.3833  0.2292  0.0032
 1451SOL    HW115815   1.792   4.061   4.397  0.7725  0.4099 -0.7972
 1451SOL    HW215816   1.774   3.929   4.333  0.9844 -1.5146  0.7024
 1452SOL     OW15817   2.789   2.514   4.472  0.4065 -0.0549 -0.0243
 1452SOL    HW115818   2.877   2.497   4.503  0.9312 -1.0317 -2.0160
 1452SOL    HW215819   2.804   2.586   4.410 -1.9454  0.1576 -0.3570
 1453SOL     OW15820   2.622   3.766   9.076 -0.7607  0.0625 -0.2584
 1453SOL    HW115821   2.678   3.813   9.015 -0.1993 -0.2369  0.0251
 1453SOL    HW215822   2.549   3.731   9.025  0.8816 -2.0004 -1.1945
 1454SOL     OW15823   0.784   2.417   7.886 -0.0563  0.4488  0.1895
 1454SOL    HW115824   0.829   2.501   7.885  1.8548 -0.5760 -1.1032
 1454SOL    HW215825   0.692   2.440   7.877 -0.5742 -0.4167  3.4954
 1455SOL     OW15826   2.530   4.367   5.813  0.1582  0.3628  0.3496
 1455SOL    HW115827   2.588   4.432   5.852 -0.6124  0.3826  1.4400
 1455SOL    HW215828   2.521   4.403   5.724 -1.8773 -1.7497 -0.3054
 1456SOL     OW15829   2.798   3.568   7.287  0.0118  0.5074  0.1365
 1456SOL    HW115830   2.777   3.475   7.297 -1.3802  0.7252 -0.9221
 1456SOL    HW215831   2.759   3.585   7.202  0.6380 -1.0992 -0.4720
 1457SOL     OW15832   2.390   3.454   9.529 -0.3385  0.5142 -0.5549
 1457SOL    HW115833   2.438   3.484   9.453  0.9559 -0.9916 -0.3379
 1457SOL    HW215834   2.345   3.377   9.494  1.0375 -0.4242 -0.2681
 1458SOL     OW15835   4.370   2.425  15.567 -0.1594 -0.4369 -0.1038
 1458SOL    HW115836   4.373   2.456  15.657  1.6671  0.8446 -0.6048
 1458SOL    HW215837   4.444   2.364  15.564 -1.4090 -1.8887 -1.7061
 1459SOL     OW15838   1.169   2.926   3.557 -0.1901 -0.3838  0.1495
 1459SOL    HW115839   1.137   2.840   3.583 -0.9378  0.0997  0.8332
 1459SOL    HW215840   1.192   2.952   3.646  1.9249  0.3482 -0.5953
 1460SOL     OW15841   0.100   0.571   8.558  0.8301  0.4381 -0.2495
 1460SOL    HW115842   0.022   0.595   8.509 -0.6449  0.0683  1.9219
 1460SOL    HW215843   0.067   0.526   8.635 -0.5163  3.0484  0.6914
 1461SOL     OW15844   1.506   1.741   3.907 -0.5725 -0.5536 -0.0886
 1461SOL    HW115845   1.441   1.808   3.889  1.5408  0.8355 -2.5598
 1461SOL    HW215846   1.520   1.705   3.819 -0.5595  2.2609 -1.2329
 1462SOL     OW15847   4.497   3.351   3.071 -1.1107 -0.4757 -0.0007
 1462SOL    HW115848   4.520   3.259   3.057  0.2702 -0.4063  1.8420
 1462SOL    HW215849   4.499   3.366   3.165  1.5191 -0.2045 -0.1154
 1463SOL     OW15850   1.497   4.443  14.481 -0.2931 -0.5381 -0.8223
 1463SOL    HW115851   1.480   4.349  14.480  2.9578 -1.1416 -0.9627
 1463SOL    HW215852   1.589   4.439  14.509  0.1490 -1.1730 -2.3393
 1464SOL     OW15853   1.004   1.265   6.944 -0.4517  0.2145  0.4617
 1464SOL    HW115854   1.100   1.266   6.947 -0.4232 -0.2801 -0.2579
 1464SOL    HW215855   0.984   1.356   6.966 -1.0891  0.2985 -0.4958
 1465SOL     OW15856   3.604   1.839  13.631  0.2776 -0.5751  0.2315
 1465SOL    HW115857   3.523   1.850  13.682 -0.0333 -2.0395  0.0547
 1465SOL    HW215858   3.657   1.802  13.701  0.7894  0.2503  0.2725
 1466SOL     OW15859   2.461   1.784   4.517 -0.0767  0.1228 -0.3708
 1466SOL    HW115860   2.527   1.848   4.491 -1.0496  1.4708  0.4475
 1466SOL    HW215861   2.492   1.708   4.468 -2.5558 -0.6783 -0.6836
 1467SOL     OW15862   0.970   1.098  10.256 -0.1333 -0.2675  0.1110
 1467SOL    HW115863   0.909   1.151  10.308  1.6227  0.1499  1.7834
 1467SOL    HW215864   1.026   1.162  10.211  0.7919 -0.2014  1.3696
 1468SOL     OW15865   4.358   2.502  15.849  0.4264  0.1919 -0.4262
 1468SOL    HW115866   4.350   2.493  15.944  0.9566 -0.1127 -0.4104
 1468SOL    HW215867   4.392   2.591  15.847 -0.8569  0.6684 -1.4684
 1469SOL     OW15868   1.951   3.974  16.184 -0.5856  0.0611 -0.3702
 1469SOL    HW115869   1.915   4.061  16.169 -0.2716  0.3529  0.5663
 1469SOL    HW215870   2.045   3.980  16.168 -0.4703 -0.8813 -0.0735
 1470SOL     OW15871   1.929   2.257  13.454  0.5526 -0.2691  0.5644
 1470SOL    HW115872   2.004   2.316  13.447 -0.4500  0.8518 -0.7042
 1470SOL    HW215873   1.867   2.317  13.494  0.6686  1.3353 -1.7100
 1471SOL     OW15874   1.742   4.212   5.055 -0.4820  0.1740 -0.9049
 1471SOL    HW115875   1.774   4.284   5.110  1.0892 -0.7863 -0.5401
 1471SOL    HW215876   1.808   4.204   4.986 -1.0193 -1.3968 -1.2267
 1472SOL     OW15877   0.992   2.158  16.616 -0.2913  0.6864 -0.2284
 1472SOL    HW115878   0.997   2.069  16.650  0.6074  0.3259 -1.3211
 1472SOL    HW215879   1.080   2.186  16.641  0.1775 -1.9666  1.0493
 1473SOL     OW15880   1.793   2.708   5.232  0.8598  0.0911  0.3255
 1473SOL    HW115881   1.738   2.683   5.158 -0.5291  1.2206  0.9701
 1473SOL    HW215882   1.871   2.725   5.178  1.0456 -1.6779  0.0509
 1474SOL     OW15883   0.019   1.700   1.960 -0.1015 -0.4171  0.0028
 1474SOL    HW115884   0.076   1.670   1.889 -0.6090 -0.9987 -0.1589
 1474SOL    HW215885   0.057   1.780   1.995 -0.7842 -0.2584  0.3830
 1475SOL     OW15886   3.111   1.582   1.946  0.0365  0.5782 -0.1615
 1475SOL    HW115887   3.194   1.541   1.970  0.1892  1.8554  1.5007
 1475SOL    HW215888   3.142   1.632   1.871  1.0984 -0.9828 -0.7579
 1476SOL     OW15889   4.655   4.439  10.044  0.4513 -0.7414  0.3691
 1476SOL    HW115890   4.588   4.401  10.100  1.8940 -2.0558  1.1946
 1476SOL    HW215891   0.012   4.428  10.094 -0.4401  0.4805  2.0656
 1477SOL     OW15892   1.307   4.243   0.559  0.1090  0.1088  0.6025
 1477SOL    HW115893   1.359   4.300   0.616 -2.3029  3.2094 -0.3356
 1477SOL    HW215894   1.345   4.252   0.472 -0.0688  1.6785  0.6846
 1478SOL     OW15895   1.068   1.539   4.228 -0.1185 -0.0671  0.0227
 1478SOL    HW115896   1.122   1.601   4.179  2.6543 -2.9811 -0.6224
 1478SOL    HW215897   1.121   1.531   4.308 -0.2372  2.9786  0.4045
 1479SOL     OW15898   0.209   4.285  11.909 -0.3297  0.6688  1.1135
 1479SOL    HW115899   0.266   4.255  11.838  0.5429 -1.3502  2.6869
 1479SOL    HW215900   0.273   4.346  11.945  0.8440 -0.4675  0.9528
 1480SOL     OW15901   2.488   2.981   8.249 -0.2837 -0.1736 -0.3595
 1480SOL    HW115902   2.506   2.950   8.160 -0.8328  0.3160 -0.6402
 1480SOL    HW215903   2.395   3.003   8.252 -0.4133 -0.3974 -2.4389
 1481SOL     OW15904   1.685   1.049   5.053  0.5092  0.2416  0.4374
 1481SOL    HW115905   1.739   0.982   5.013 -0.1472  0.5208 -0.9009
 1481SOL    HW215906   1.666   1.111   4.982 -0.6038 -0.2722  0.2992
 1482SOL     OW15907   1.231   2.373   8.876 -0.7651  0.1086 -0.4419
 1482SOL    HW115908   1.230   2.379   8.781 -1.5389 -0.6340 -0.4797
 1482SOL    HW215909   1.258   2.464   8.891  0.2332 -0.4178  1.0372
 1483SOL     OW15910   1.857   3.665   7.586  0.4508 -0.2409  0.5553
 1483SOL    HW115911   1.876   3.573   7.565 -3.3917 -1.1199  0.9233
 1483SOL    HW215912   1.843   3.684   7.494 -1.4092 -2.6219  0.3233
 1484SOL     OW15913   1.455   1.022   8.979  0.3784 -0.0721 -0.0790
 1484SOL    HW115914   1.526   1.040   9.041  0.7733 -1.2671 -0.1948
 1484SOL    HW215915   1.374   1.050   9.023  0.2587  2.3352 -1.8352
 1485SOL     OW15916   0.998   0.877  12.968  0.3319 -0.6759  0.2715
 1485SOL    HW115917   1.023   0.845  12.881 -0.4005 -1.1700  0.2458
 1485SOL    HW215918   0.966   0.793  13.000 -2.0829 -0.5527 -1.8332
 1486SOL     OW15919   2.686   2.833   4.736  0.0134 -0.4170 -0.0885
 1486SOL    HW115920   2.770   2.791   4.716  0.3847  0.1486  0.2977
 1486SOL    HW215921   2.711   2.900   4.799 -1.8645  1.7090 -1.5842
 1487SOL     OW15922   0.145   1.476   7.165 -0.2561 -0.2514  0.2859
 1487SOL    HW115923   0.170   1.403   7.221 -1.8485 -1.1627 -0.1937
 1487SOL    HW215924   0.222   1.533   7.168 -0.7028  0.4291 -1.1730
 1488SOL     OW15925   0.608   2.794  17.008  0.0176 -0.3277 -0.1803
 1488SOL    HW115926   0.530   2.743  16.986 -0.8834  0.5220  1.0645
 1488SOL    HW215927   0.681   2.766  16.951 -0.2171  1.5366 -1.4095
 1489SOL     OW15928   4.263   0.955   1.446  0.2361 -0.5535  0.8387
 1489SOL    HW115929   4.343   0.937   1.497  0.7726 -0.3092  0.0875
 1489SOL    HW215930   4.243   1.038   1.490  0.0315 -0.2158  0.0998
 1490SOL     OW15931   1.716   3.157  16.580  0.8076 -0.6048  0.0249
 1490SOL    HW115932   1.801   3.123  16.606  0.8917 -0.5984 -0.2367
 1490SOL    HW215933   1.737   3.222  16.512 -0.7284 -0.2338 -0.0895
 1491SOL     OW15934   1.780   1.694   9.648 -0.5768  0.0516 -0.2006
 1491SOL    HW115935   1.701   1.654   9.686  1.1877 -1.5771  1.7678
 1491SOL    HW215936   1.792   1.651   9.563 -0.0043 -0.7895  0.3002
 1492SOL     OW15937   0.740   0.732   6.621 -0.3774 -0.0822 -0.0760
 1492SOL    HW115938   0.792   0.812   6.609 -0.0094 -0.2896  0.1551
 1492SOL    HW215939   0.729   0.724   6.716 -1.0086  0.3775 -0.1072
 1493SOL     OW15940   1.563   4.137   5.267  0.1604 -0.6000 -0.2305
 1493SOL    HW115941   1.600   4.179   5.189 -0.1916  1.2348  0.5952
 1493SOL    HW215942   1.479   4.111   5.230  0.1921  1.8390 -2.0461
 1494SOL     OW15943   0.216   1.382   6.278 -0.0538 -0.4047 -0.1298
 1494SOL    HW115944   0.277   1.391   6.205 -0.4301  3.2739 -0.0292
 1494SOL    HW215945   0.158   1.313   6.246 -1.3863  0.9708 -0.6927
 1495SOL     OW15946   0.398   2.811   0.417  0.0680  0.1834 -0.2825
 1495SOL    HW115947   0.332   2.767   0.363 -2.5835  1.6871  1.6843
 1495SOL    HW215948   0.404   2.747   0.488  0.3943 -1.2134 -1.5731
 1496SOL     OW15949   1.751   3.966   2.999  0.0286 -0.9490 -0.2798
 1496SOL    HW115950   1.694   3.897   2.964 -1.4271  0.1390 -0.0659
 1496SOL    HW215951   1.735   4.035   2.934 -0.0660 -0.4219  0.3080
 1497SOL     OW15952   4.126   1.635   8.429  0.1507  0.1968 -0.5919
 1497SOL    HW115953   4.112   1.696   8.356 -1.7403  0.6354  0.1430
 1497SOL    HW215954   4.050   1.655   8.483  1.9044  0.6920  1.6585
 1498SOL     OW15955   2.051   2.564   9.050  0.2049  0.4070  0.6455
 1498SOL    HW115956   2.125   2.515   9.082 -0.3558 -0.1998  1.0078
 1498SOL    HW215957   1.984   2.541   9.114  0.5464 -1.4820  0.3031
 1499SOL     OW15958   1.428   1.751   5.668  0.1321  0.8536  0.5342
 1499SOL    HW115959   1.419   1.738   5.762 -0.2337  2.0004  0.6657
 1499SOL    HW215960   1.420   1.659   5.645  0.4409  0.8109  0.5992
 1500SOL     OW15961   1.259   2.718  12.751  0.2134 -0.4110  0.4953
 1500SOL    HW115962   1.267   2.648  12.686 -0.0146 -1.8127  1.9907
 1500SOL    HW215963   1.223   2.791  12.701  2.3663 -0.8533 -1.7390
 1501SOL     OW15964   3.318   2.507   4.620 -0.3550  0.3381 -0.2505
 1501SOL    HW115965   3.328   2.591   4.663  1.1027  0.1212 -0.1905
 1501SOL    HW215966   3.392   2.455   4.651 -0.7426 -1.7336 -2.7678
 1502SOL     OW15967   4.321   4.402   7.798 -0.6506 -0.0308 -0.0572
 1502SOL    HW115968   4.256   4.472   7.810 -1.3458 -0.9956  1.9830
 1502SOL    HW215969   4.280   4.330   7.845  0.4483 -0.3069  0.4719
 1503SOL     OW15970   2.131   2.849   6.145  0.6666 -0.3177  0.2368
 1503SOL    HW115971   2.181   2.893   6.076  1.4599 -0.4319  0.7399
 1503SOL    HW215972   2.087   2.783   6.090  0.1265 -0.2629  0.6064
 1504SOL     OW15973   3.858   3.582   1.904  0.2183 -0.0974  0.3890
 1504SOL    HW115974   3.884   3.574   1.812  1.0948  0.6499  0.5749
 1504SOL    HW215975   3.825   3.672   1.900  0.9673  0.0959 -1.5397
 1505SOL     OW15976   1.405   1.959  16.643 -0.1913  0.3972  0.4512
 1505SOL    HW115977   1.393   2.048  16.677 -1.3300  0.7689 -0.8921
 1505SOL    HW215978   1.377   1.966  16.551 -3.0928  0.2540  1.3189
 1506SOL     OW15979   4.138   1.111  16.674  0.1615 -0.0053 -0.2994
 1506SOL    HW115980   4.225   1.146  16.657  0.5553 -1.5920 -1.5688
 1506SOL    HW215981   4.090   1.182  16.631 -1.0508 -0.6078  0.0577
 1507SOL     OW15982   1.977   1.647   6.322 -0.3843  0.2349 -0.6037
 1507SOL    HW115983   2.000   1.622   6.411  0.3986  0.8373 -0.6416
 1507SOL    HW215984   1.918   1.575   6.298  0.4256 -0.4513 -0.5196
 1508SOL     OW15985   1.266   2.036   6.271 -0.2111  0.0410 -0.3141
 1508SOL    HW115986   1.234   1.964   6.325  1.9348 -0.6174  0.0663
 1508SOL    HW215987   1.233   2.003   6.187 -1.5043  0.9402 -0.1556
 1509SOL     OW15988   4.575   3.347   6.038 -0.1506  0.3590  0.3623
 1509SOL    HW115989   4.637   3.286   6.079  0.4373 -0.8422 -2.3152
 1509SOL    HW215990   4.510   3.346   6.108  1.2309 -1.1372  1.6485
 1510SOL     OW15991   0.284   0.313   2.566 -0.2421 -0.6393 -0.2026
 1510SOL    HW115992   0.264   0.273   2.651  0.1143  0.2811  0.3048
 1510SOL    HW215993   0.197   0.316   2.524 -0.3413 -1.6910 -0.0964
 1511SOL     OW15994   3.383   4.125   7.781  0.2022  0.5798  0.3501
 1511SOL    HW115995   3.374   4.030   7.771  0.9449  0.6643 -1.2546
 1511SOL    HW215996   3.312   4.145   7.842 -2.0205 -0.2938 -1.9523
 1512SOL     OW15997   4.248   3.851   5.764 -0.0307 -0.2453  0.0852
 1512SOL    HW115998   4.261   3.888   5.677 -1.3900  1.0521  0.4343
 1512SOL    HW215999   4.261   3.760   5.738  0.0535  0.2685 -1.6766
 1513SOL     OW16000   1.605   3.498   4.064 -0.0276 -0.1449  0.2730
 1513SOL    HW116001   1.690   3.453   4.065 -0.7783 -1.5430 -0.8808
 1513SOL    HW216002   1.619   3.567   3.999  3.8160 -0.4595  0.7108
 1514SOL     OW16003   0.518   3.517   4.881  0.5968  0.7979  0.3125
 1514SOL    HW116004   0.451   3.532   4.814  1.9109 -0.1343 -1.2125
 1514SOL    HW216005   0.596   3.565   4.852  1.3407 -0.3415  0.4168
 1515SOL     OW16006   2.917   0.909   4.367  0.1997  0.4783 -0.0528
 1515SOL    HW116007   2.940   0.817   4.377  0.9371  0.7691  0.8659
 1515SOL    HW216008   2.855   0.917   4.439  0.7461  0.3704  0.4244
 1516SOL     OW16009   2.079   2.313   5.457  0.3284 -0.7153  0.1301
 1516SOL    HW116010   2.012   2.381   5.470  0.6204 -0.6268  1.2037
 1516SOL    HW216011   2.031   2.233   5.477 -0.9332  0.0524  0.1955
 1517SOL     OW16012   1.441   0.199   4.804 -0.4079 -0.3667 -0.2498
 1517SOL    HW116013   1.511   0.229   4.745 -0.3055 -1.0455 -0.4771
 1517SOL    HW216014   1.363   0.207   4.749  0.9654  1.5553 -1.9236
 1518SOL     OW16015   2.386   4.656  12.850  0.1221 -0.2870  0.4148
 1518SOL    HW116016   2.378   4.653  12.945  2.4877  1.3402  0.6657
 1518SOL    HW216017   2.294   4.679  12.834  0.0870 -1.0780 -0.4861
 1519SOL     OW16018   1.427   1.006  11.472  0.1390 -0.3376  0.2749
 1519SOL    HW116019   1.499   1.053  11.430  0.5972 -0.8256  0.5201
 1519SOL    HW216020   1.413   1.054  11.554 -1.1739 -1.7256  0.8593
 1520SOL     OW16021   2.656   2.545   8.985 -0.6073  0.4086 -0.1507
 1520SOL    HW116022   2.731   2.594   9.019  0.6840 -0.4608 -1.6910
 1520SOL    HW216023   2.614   2.507   9.062  1.3803  0.4674  0.9705
 1521SOL     OW16024   3.965   2.655  15.068 -0.1411  0.5882 -0.1564
 1521SOL    HW116025   4.024   2.704  15.010  2.0990 -1.1870  0.6142
 1521SOL    HW216026   3.903   2.622  15.003  1.1361 -1.7938 -0.1933
 1522SOL     OW16027   1.050   4.259  12.736  0.6640 -0.3227 -0.0917
 1522SOL    HW116028   1.087   4.276  12.649 -1.7427  0.2100 -1.0211
 1522SOL    HW216029   1.134   4.259  12.782  0.1905  1.5810  0.7534
 1523SOL     OW16030   1.633   1.554   4.193 -0.3999  0.0378 -0.0181
 1523SOL    HW116031   1.646   1.489   4.124 -3.0122  0.4354 -0.8829
 1523SOL    HW216032   1.611   1.493   4.263  1.4122  0.0969  0.5966
 1524SOL     OW16033   3.895   4.567   0.395  0.4369  0.5185 -0.0538
 1524SOL    HW116034   3.905   4.477   0.424 -1.0105  0.9863  1.9180
 1524SOL    HW216035   3.808   4.562   0.355  0.8737 -1.2426 -0.7562
 1525SOL     OW16036   4.577   1.678   2.359 -0.5619  0.3326 -0.6006
 1525SOL    HW116037   4.551   1.659   2.270 -0.5159  1.4171 -0.8470
 1525SOL    HW216038   4.629   1.600   2.380  0.4151  0.8162 -1.2722
 1526SOL     OW16039   1.773   1.574   8.181 -0.0242 -0.3049 -0.2203
 1526SOL    HW116040   1.759   1.658   8.138 -1.1161 -0.6160 -0.4679
 1526SOL    HW216041   1.688   1.532   8.192 -0.1779  0.2995  0.9520
 1527SOL     OW16042   2.880   1.414   3.946 -0.0383  0.0721  0.2332
 1527SOL    HW116043   2.811   1.350   3.966 -0.0865  0.3651  0.9738
 1527SOL    HW216044   2.843   1.489   3.992  1.4631  0.6689  0.4442
 1528SOL     OW16045   1.176   3.136  14.458  0.0711  0.0982  0.0097
 1528SOL    HW116046   1.263   3.165  14.430  0.8929 -0.7654  1.6652
 1528SOL    HW216047   1.147   3.214  14.505  0.9542 -0.5010  1.5678
 1529SOL     OW16048   1.905   0.481  13.269 -0.2036 -0.4958  0.1698
 1529SOL    HW116049   1.911   0.571  13.238 -2.7911 -0.1662  0.6612
 1529SOL    HW216050   1.861   0.448  13.191  0.2499  1.5018 -0.9287
 1530SOL     OW16051   4.307   1.746   6.245 -0.4480 -0.1437 -0.1060
 1530SOL    HW116052   4.388   1.750   6.195  0.4385 -0.1949  1.3508
 1530SOL    HW216053   4.264   1.664   6.221 -1.2985 -0.6692  3.1749
 1531SOL     OW16054   4.514   3.002   2.858 -0.4359  0.4402  0.0378
 1531SOL    HW116055   4.536   2.928   2.801 -0.7973  0.2201  0.1836
 1531SOL    HW216056   4.459   3.054   2.800 -0.0065  0.6944 -0.1420
 1532SOL     OW16057   2.932   3.360   2.053 -0.2196 -0.1775 -0.6504
 1532SOL    HW116058   3.004   3.334   1.996  0.9682  1.6178  0.0237
 1532SOL    HW216059   2.893   3.274   2.066 -0.5132  0.1361  0.5506
 1533SOL     OW16060   0.928   2.559  14.479 -0.0714 -0.2073  0.3175
 1533SOL    HW116061   0.912   2.651  14.462  0.5187 -0.2950 -0.7167
 1533SOL    HW216062   0.874   2.518  14.412 -0.5383 -0.0932  0.6270
 1534SOL     OW16063   0.959   2.462  13.030 -0.2902 -0.5817 -0.3819
 1534SOL    HW116064   0.945   2.554  13.053  1.0618 -0.5706  0.3924
 1534SOL    HW216065   1.053   2.446  13.036 -0.3239 -0.7451 -0.3056
 1535SOL     OW16066   3.942   2.935   8.894  0.0808  0.1385 -0.0859
 1535SOL    HW116067   3.913   2.969   8.810 -1.2832 -3.2451 -0.9745
 1535SOL    HW216068   3.969   2.848   8.866 -2.5378 -0.1082 -1.8419
 1536SOL     OW16069   1.236   2.105   9.726  0.0450  0.2214  0.5543
 1536SOL    HW116070   1.319   2.152   9.720  0.6885 -1.0387 -0.4229
 1536SOL    HW216071   1.226   2.092   9.632 -0.8665 -0.0165  0.6795
 1537SOL     OW16072   1.819   1.961   2.244  0.2444 -0.1616  0.1372
 1537SOL    HW116073   1.828   2.014   2.165  1.3113 -0.3614  0.1231
 1537SOL    HW216074   1.749   2.013   2.284  0.3133  0.2335 -0.2551
 1538SOL     OW16075   3.270   2.664   5.292 -0.4915 -0.2814 -0.0024
 1538SOL    HW116076   3.310   2.577   5.301 -0.2646 -0.1841 -0.0610
 1538SOL    HW216077   3.329   2.719   5.342 -1.6448 -2.4425  3.7387
 1539SOL     OW16078   2.423   3.322   7.946 -0.5588  0.0434  0.6649
 1539SOL    HW116079   2.360   3.381   7.904 -0.9600 -0.2207  0.8917
 1539SOL    HW216080   2.415   3.356   8.035 -1.5084  0.3918  0.4449
 1540SOL     OW16081   3.649   3.029   1.698 -0.3464  0.0411 -0.2369
 1540SOL    HW116082   3.688   2.944   1.721  0.6674  0.9182  1.3155
 1540SOL    HW216083   3.586   3.013   1.628 -1.9560 -1.1663  1.4714
 1541SOL     OW16084   2.144   2.815   5.709 -0.0522  0.3201 -0.1071
 1541SOL    HW116085   2.207   2.745   5.726 -0.0253  0.4066  0.1400
 1541SOL    HW216086   2.066   2.781   5.752  1.5177 -0.6415  1.9583
 1542SOL     OW16087   1.727   1.853   5.797 -0.1516 -0.6630 -0.5117
 1542SOL    HW116088   1.740   1.898   5.881 -1.2516 -1.5318  0.1197
 1542SOL    HW216089   1.692   1.930   5.753 -4.3172 -1.9143  0.6206
 1543SOL     OW16090   0.723   3.140   8.284 -0.7268 -0.0391  0.1750
 1543SOL    HW116091   0.813   3.121   8.309 -0.4039  1.8442  0.4331
 1543SOL    HW216092   0.687   3.052   8.296  0.6899 -0.8571 -1.5081
 1544SOL     OW16093   3.823   1.142   8.602  0.0217 -0.7047  0.5271
 1544SOL    HW116094   3.854   1.118   8.515 -0.2493 -0.3235  0.3245
 1544SOL    HW216095   3.732   1.112   8.592 -0.5954  0.1436  3.3772
 1545SOL     OW16096   0.775   0.106   4.614  0.3740 -0.4755  0.0314
 1545SOL    HW116097   0.781   0.028   4.669  0.5294 -0.7212 -0.3311
 1545SOL    HW216098   0.689   0.140   4.638  0.3907  0.2440 -0.8933
 1546SOL     OW16099   3.899   1.372   4.174  0.4128  0.1153 -0.2742
 1546SOL    HW116100   3.934   1.283   4.169  0.6621  0.1911  0.1534
 1546SOL    HW216101   3.807   1.362   4.148  0.5026  0.9940 -0.9376
 1547SOL     OW16102   4.055   3.361   8.530 -0.2365 -0.2988 -0.0751
 1547SOL    HW116103   4.100   3.352   8.614 -3.5832  0.4838  1.8178
 1547SOL    HW216104   4.050   3.269   8.504  0.9701 -0.1795 -0.7058
 1548SOL     OW16105   3.568   3.976   4.674  0.3126  0.6003  0.3916
 1548SOL    HW116106   3.585   3.938   4.760  1.5285 -1.0059 -0.5641
 1548SOL    HW216107   3.532   4.062   4.694  0.6115  0.9140 -0.4043
 1549SOL     OW16108   3.133   0.105   8.186  0.1175  0.0576  0.0726
 1549SOL    HW116109   3.183   0.137   8.111 -0.9439  0.3160 -0.5200
 1549SOL    HW216110   3.103   0.185   8.228 -2.3504 -0.3657 -0.8901
 1550SOL     OW16111   0.106   1.106  12.894 -0.3033  0.2938 -0.9354
 1550SOL    HW116112   0.123   1.077  12.984 -0.6611  2.3413 -0.2075
 1550SOL    HW216113   0.012   1.124  12.898 -0.4887 -0.8762  0.0995
 1551SOL     OW16114   1.404   3.889  11.250  0.4715  0.4283  0.7611
 1551SOL    HW116115   1.484   3.874  11.300 -0.1812 -0.3291  1.5872
 1551SOL    HW216116   1.455   3.922  11.176 -0.2027  1.2402  0.6568
 1552SOL     OW16117   2.987   3.258   5.210  0.2313 -0.0069 -0.2008
 1552SOL    HW116118   3.081   3.248   5.198  0.4673 -1.1233  2.5964
 1552SOL    HW216119   2.962   3.214   5.128 -0.8216  0.9431 -0.3951
 1553SOL     OW16120   2.584   4.491   1.058  0.1681 -0.2028 -0.3725
 1553SOL    HW116121   2.573   4.402   1.026 -0.6536 -0.2182 -0.0353
 1553SOL    HW216122   2.638   4.525   0.986 -0.2996  1.9473  0.2796
 1554SOL     OW16123   0.742   1.185   4.423 -0.4181  0.2985  0.1591
 1554SOL    HW116124   0.784   1.132   4.355 -0.0957 -0.6035  1.0595
 1554SOL    HW216125   0.815   1.232   4.461  0.7472 -0.3983 -1.2181
 1555SOL     OW16126   2.597   2.515   5.828  0.0452 -0.4415 -0.0475
 1555SOL    HW116127   2.679   2.517   5.876 -1.0289  5.0521  1.5806
 1555SOL    HW216128   2.614   2.438   5.774  1.3783 -0.1206 -0.0792
 1556SOL     OW16129   2.898   1.623  11.817 -0.5414  0.1736  0.9322
 1556SOL    HW116130   2.837   1.695  11.833 -0.2835  0.7659 -0.7422
 1556SOL    HW216131   2.858   1.557  11.873 -0.4330  0.3104  1.1700
 1557SOL     OW16132   1.788   1.077   4.035  0.1148  0.3477  0.3065
 1557SOL    HW116133   1.771   1.115   3.949  3.2310  0.7359 -0.1435
 1557SOL    HW216134   1.878   1.045   4.023 -0.0647  0.1976 -0.6250
 1558SOL     OW16135   0.256   4.090  15.389  0.2289  0.2451 -0.2094
 1558SOL    HW116136   0.199   4.066  15.462  0.3831 -0.4487 -0.3155
 1558SOL    HW216137   0.340   4.057  15.420 -0.0138  1.6509  1.9393
 1559SOL     OW16138   3.172   3.957   0.917  0.6525 -0.1757  0.0824
 1559SOL    HW116139   3.077   3.961   0.906  0.6984  2.3241  0.6192
 1559SOL    HW216140   3.174   3.862   0.935  2.3374 -0.1665 -0.0399
 1560SOL     OW16141   1.173   0.441   3.778 -0.3506 -0.1123 -0.3492
 1560SOL    HW116142   1.227   0.459   3.855 -1.6303 -0.3619  0.6261
 1560SOL    HW216143   1.112   0.380   3.820 -0.0982 -1.2750 -1.6828
 1561SOL     OW16144   2.285   0.735   8.315  0.2238  0.1692  0.2590
 1561SOL    HW116145   2.193   0.757   8.332  0.3247  0.7716  0.0292
 1561SOL    HW216146   2.297   0.780   8.231  0.2668  0.3166  0.3450
 1562SOL     OW16147   3.179   1.487   5.118 -0.2973 -0.2756  0.3848
 1562SOL    HW116148   3.146   1.541   5.189 -0.0634  0.4219 -0.0420
 1562SOL    HW216149   3.144   1.399   5.132 -0.2225 -0.4549 -0.5648
 1563SOL     OW16150   3.743   4.134  11.170 -0.2590  0.4708 -0.0526
 1563SOL    HW116151   3.803   4.144  11.096  0.8442 -0.0192  0.7791
 1563SOL    HW216152   3.769   4.061  11.225  0.3202  0.9447  0.3133
 1564SOL     OW16153   1.233   0.705  11.157  0.6791 -0.2242  0.1415
 1564SOL    HW116154   1.186   0.751  11.087 -0.2178  1.3284  1.7375
 1564SOL    HW216155   1.203   0.753  11.235  1.3401  0.6188 -0.1276
 1565SOL     OW16156   0.007   0.456   3.569  0.5490 -0.1878 -0.1647
 1565SOL    HW116157   4.651   0.411   3.540 -1.2019  2.5685  0.3107
 1565SOL    HW216158   4.690   0.538   3.598 -0.4319  0.0861 -2.2584
 1566SOL     OW16159   3.846   1.857   8.045  0.2908 -0.3519 -0.0450
 1566SOL    HW116160   3.768   1.850   7.989  0.8488 -0.9828 -0.7403
 1566SOL    HW216161   3.807   1.916   8.110 -3.9049  1.1346 -3.8210
 1567SOL     OW16162   1.906   1.079  11.216 -0.0418 -0.1779 -0.4804
 1567SOL    HW116163   1.996   1.060  11.189 -0.2032 -0.2392 -0.9846
 1567SOL    HW216164   1.862   1.118  11.140 -0.8430 -1.4163 -0.6492
 1568SOL     OW16165   3.609   2.117  11.234  0.1487 -0.4878  0.3631
 1568SOL    HW116166   3.570   2.199  11.204  0.2003 -1.3379 -2.0504
 1568SOL    HW216167   3.534   2.091  11.288  1.2734 -1.0984  1.6275
 1569SOL     OW16168   2.985   0.293   7.973 -0.0328 -0.7192  0.0256
 1569SOL    HW116169   2.980   0.335   8.059 -2.1071 -0.4207 -0.2358
 1569SOL    HW216170   2.983   0.362   7.907 -0.9972 -1.3699 -0.6100
 1570SOL     OW16171   2.561   3.439   6.197 -0.4742  0.1724  0.9330
 1570SOL    HW116172   2.522   3.368   6.147 -2.2606  1.4025  0.5642
 1570SOL    HW216173   2.629   3.390   6.242 -0.6674 -0.3870  0.6205
 1571SOL     OW16174   1.822   4.301   6.703 -0.3571  0.2356 -0.1982
 1571SOL    HW116175   1.780   4.226   6.744  0.2631  0.9348  1.7054
 1571SOL    HW216176   1.784   4.377   6.748 -1.4361 -0.8066  0.6247
 1572SOL     OW16177   4.312   2.395   3.744 -0.8514 -0.8379  0.3137
 1572SOL    HW116178   4.379   2.328   3.754 -0.6349 -0.6232  0.2940
 1572SOL    HW216179   4.376   2.466   3.747 -0.0278 -1.5195 -0.9742
 1573SOL     OW16180   4.244   3.577  10.090  0.2636 -0.3177 -0.9501
 1573SOL    HW116181   4.247   3.616  10.177  0.9098 -1.0267 -0.6540
 1573SOL    HW216182   4.149   3.580  10.084  0.0709  0.9885  2.7002
 1574SOL     OW16183   2.470   4.631  10.220  0.3190 -0.1350  0.4558
 1574SOL    HW116184   2.485   4.723  10.243 -2.2795  0.2236  0.7733
 1574SOL    HW216185   2.530   4.621  10.146 -1.8095 -0.3982 -1.2410
 1575SOL     OW16186   2.206   1.007  11.121  0.1955  0.5263  0.1824
 1575SOL    HW116187   2.185   1.088  11.167 -1.8289 -0.0083  0.2086
 1575SOL    HW216188   2.230   1.036  11.033  0.0318  1.3929  0.4254
 1576SOL     OW16189   3.015   3.518   0.238 -0.1747  0.7092 -0.1942
 1576SOL    HW116190   3.030   3.536   0.145  1.4784 -1.5172 -0.3768
 1576SOL    HW216191   2.928   3.482   0.254  1.1652 -2.5534 -0.1627
 1577SOL     OW16192   0.565   4.062  12.208  0.2439  0.0809  0.2546
 1577SOL    HW116193   0.478   4.093  12.184  1.1599  1.4742 -1.2615
 1577SOL    HW216194   0.539   4.038  12.297  0.2590 -2.7528 -0.5094
 1578SOL     OW16195   1.314   1.142   3.320  0.4164 -0.3440  0.5410
 1578SOL    HW116196   1.269   1.220   3.290 -0.2298 -1.4736 -1.3779
 1578SOL    HW216197   1.293   1.087   3.245 -0.2839  1.1874 -0.3839
 1579SOL     OW16198   2.685   2.986   9.961 -0.3852 -0.8444 -0.0937
 1579SOL    HW116199   2.638   3.044  10.021  0.5769 -2.1226  1.9091
 1579SOL    HW216200   2.642   2.903   9.982  0.1522 -1.7993 -2.8856
 1580SOL     OW16201   4.225   2.320   8.407  0.1040 -0.4788  0.0957
 1580SOL    HW116202   4.223   2.379   8.482  0.1744  0.6804 -0.8153
 1580SOL    HW216203   4.280   2.252   8.447  1.2985  0.0742 -0.5868
 1581SOL     OW16204   3.439   3.022   4.333  0.5984 -0.3310 -0.1656
 1581SOL    HW116205   3.464   3.069   4.253 -2.2789  0.9573 -0.3277
 1581SOL    HW216206   3.466   3.074   4.409 -0.5310 -1.7235  1.1794
 1582SOL     OW16207   2.065   4.446   5.751 -0.3782  0.0042  0.4247
 1582SOL    HW116208   2.059   4.412   5.841  1.1818 -2.2076 -0.3037
 1582SOL    HW216209   2.144   4.500   5.752  1.9724 -3.4249  0.9574
 1583SOL     OW16210   0.256   1.038   8.484 -0.6168  0.2763  0.5183
 1583SOL    HW116211   0.303   1.009   8.406 -2.8552 -1.3503 -0.2306
 1583SOL    HW216212   0.287   0.970   8.544  2.6291  1.3015 -0.0306
 1584SOL     OW16213   1.179   1.398  10.993 -0.8115 -0.1403 -0.3201
 1584SOL    HW116214   1.104   1.379  11.049 -1.3342  0.2776 -0.8825
 1584SOL    HW216215   1.177   1.335  10.922  0.5292 -1.6421  0.9795
 1585SOL     OW16216   1.206   1.252   4.083 -0.3790 -0.0963 -0.0603
 1585SOL    HW116217   1.274   1.319   4.084 -0.3177 -0.1388 -1.0700
 1585SOL    HW216218   1.194   1.253   3.988  1.4073  0.0712 -0.2897
 1586SOL     OW16219   0.540   0.620   4.160  0.3267  0.0434  0.6884
 1586SOL    HW116220   0.588   0.691   4.118  1.9649  0.8173  3.9241
 1586SOL    HW216221   0.452   0.656   4.166  0.5391  0.7087 -0.3085
 1587SOL     OW16222   1.700   0.966   2.930 -0.2390  0.0735  0.1214
 1587SOL    HW116223   1.776   0.923   2.970 -0.2890  1.0079  1.2308
 1587SOL    HW216224   1.676   0.895   2.870 -0.5298 -0.7462  1.1987
 1588SOL     OW16225   3.084   2.050   3.328 -0.0932  0.0824  0.7755
 1588SOL    HW116226   3.132   2.124   3.367 -3.3681  1.5386  2.0706
 1588SOL    HW216227   3.019   2.031   3.395 -0.4373  1.2469  0.7716
 1589SOL     OW16228   2.742   3.572   7.671  1.1232 -0.0236  0.2233
 1589SOL    HW116229   2.687   3.601   7.598  0.2398  0.2456  1.0050
 1589SOL    HW216230   2.823   3.544   7.627 -0.7136 -0.0971 -3.1542
 1590SOL     OW16231   3.773   2.282  12.300 -0.3255 -0.5078  0.4547
 1590SOL    HW116232   3.818   2.361  12.330 -0.8702 -0.0592  0.0962
 1590SOL    HW216233   3.769   2.298  12.206  2.0299  2.2808  0.8525
 1591SOL     OW16234   3.208   0.864   9.509  0.6088 -0.3054 -0.0107
 1591SOL    HW116235   3.136   0.927   9.501  0.5858 -0.3188  0.0943
 1591SOL    HW216236   3.268   0.899   9.443 -0.2970  0.6051 -0.3527
 1592SOL     OW16237   1.870   1.911  10.318 -0.0668 -0.1920  0.6798
 1592SOL    HW116238   1.836   1.914  10.228 -0.6791 -0.9635  0.8864
 1592SOL    HW216239   1.810   1.848  10.358 -0.6667 -0.5261 -0.7431
 1593SOL     OW16240   1.814   3.264   8.343  0.0579 -0.6138 -0.0693
 1593SOL    HW116241   1.861   3.338   8.305  1.8743 -0.6246  2.1485
 1593SOL    HW216242   1.770   3.302   8.418 -0.7302 -2.0418  0.1972
 1594SOL     OW16243   2.482   2.655   6.835  0.0446  0.2128  0.1213
 1594SOL    HW116244   2.411   2.621   6.890 -0.8884  0.0027 -1.2123
 1594SOL    HW216245   2.445   2.654   6.746  0.0210 -0.4605  0.1429
 1595SOL     OW16246   1.126   0.713   2.174 -0.5118 -0.3831 -0.7167
 1595SOL    HW116247   1.149   0.803   2.153 -2.2187  1.0098  3.4504
 1595SOL    HW216248   1.213   0.674   2.164 -0.3102 -0.2864  0.6422
 1596SOL     OW16249   3.785   2.678   6.260  0.0016 -0.3246  0.2825
 1596SOL    HW116250   3.796   2.727   6.179 -2.8604 -1.4618 -0.8131
 1596SOL    HW216251   3.860   2.706   6.311 -1.5599  1.5627  1.5315
 1597SOL     OW16252   4.646   1.478   4.947  0.0606  0.1753  0.6422
 1597SOL    HW116253   4.712   1.410   4.959  1.0565  1.4378  2.3758
 1597SOL    HW216254   4.655   1.506   4.856  1.2275 -1.3355  0.2975
 1598SOL     OW16255   0.008   3.791  11.281 -0.4184 -0.5523 -0.0869
 1598SOL    HW116256   0.090   3.835  11.256 -1.3144  1.3881  0.4048
 1598SOL    HW216257   4.700   3.756  11.197 -1.8034  1.9242 -0.5810
 1599SOL     OW16258   4.315   0.392  12.904 -0.0871  0.5589  0.1062
 1599SOL    HW116259   4.286   0.314  12.855  0.4158  2.6956 -3.5493
 1599SOL    HW216260   4.410   0.394  12.893 -0.4800 -1.1063 -3.6808
 1600SOL     OW16261   1.924   1.538   6.004 -0.1945  0.7365  0.6609
 1600SOL    HW116262   1.867   1.556   5.929 -0.6472  1.7234  1.2397
 1600SOL    HW216263   1.978   1.616   6.016 -0.3720  1.5369 -3.8836
 1601SOL     OW16264   3.600   3.577  16.123  0.6277 -0.1270 -0.1880
 1601SOL    HW116265   3.598   3.645  16.190 -0.8360  2.6225 -2.9872
 1601SOL    HW216266   3.660   3.509  16.153  2.1516  1.6625  0.8352
 1602SOL     OW16267   1.386   4.268   3.357 -0.2997  0.3491 -0.1165
 1602SOL    HW116268   1.377   4.210   3.433 -0.8677  0.6788  0.0708
 1602SOL    HW216269   1.297   4.302   3.342 -0.4349 -0.8444 -1.9601
 1603SOL     OW16270   4.500   4.305   5.050 -0.0604 -0.2254  0.3171
 1603SOL    HW116271   4.584   4.303   5.003 -0.7161  0.1433 -0.8776
 1603SOL    HW216272   4.523   4.256   5.129  0.1191 -1.1712 -0.3205
 1604SOL     OW16273   3.550   3.933   6.251 -0.8058 -0.0957 -0.8544
 1604SOL    HW116274   3.583   3.883   6.177  2.0507  0.5578 -0.0298
 1604SOL    HW216275   3.541   4.022   6.218  2.1705 -0.0694 -1.6014
 1605SOL     OW16276   4.136   2.389   7.349  0.3463 -0.2898 -0.3116
 1605SOL    HW116277   4.212   2.361   7.298 -2.1296  0.2644 -4.2680
 1605SOL    HW216278   4.062   2.370   7.292 -0.0337  0.0417  0.0700
 1606SOL     OW16279   1.206   2.837   6.629  0.5466 -0.4421 -0.0271
 1606SOL    HW116280   1.133   2.823   6.569  1.0917  2.3994 -1.3374
 1606SOL    HW216281   1.170   2.847   6.717  3.8504  2.1279  1.0195
 1607SOL     OW16282   2.411   1.001  11.800  0.2370  0.3665  0.5270
 1607SOL    HW116283   2.363   0.927  11.836  0.1257  1.5349  2.7724
 1607SOL    HW216284   2.344   1.068  11.785 -1.1679 -0.7737  1.7137
 1608SOL     OW16285   4.592   1.358  16.604 -0.0793 -0.3781  0.5516
 1608SOL    HW116286   4.613   1.417  16.532 -2.5466 -2.6959 -2.0367
 1608SOL    HW216287   4.617   1.404  16.684  1.2965  0.3789 -0.3116
 1609SOL     OW16288   0.047   3.974   1.332  0.2941  0.0368  0.2778
 1609SOL    HW116289   0.069   3.922   1.409 -0.6375  2.6807  2.3228
 1609SOL    HW216290   0.062   3.900   1.273 -3.9852  0.5805 -1.4511
 1610SOL     OW16291   3.947   0.924   3.714  0.0628 -0.1654 -0.9175
 1610SOL    HW116292   3.905   0.881   3.639  0.5962  1.0675 -1.9139
 1610SOL    HW216293   3.981   1.007   3.682 -0.0096  0.1054 -0.2824
 1611SOL     OW16294   1.274   0.280   5.789 -0.4483  0.1407 -0.1792
 1611SOL    HW116295   1.317   0.366   5.789  1.0980 -0.6305 -1.1419
 1611SOL    HW216296   1.242   0.282   5.699 -1.9023  1.2564  0.3599
 1612SOL     OW16297   2.879   0.005  11.259 -0.6427 -0.4722 -0.9826
 1612SOL    HW116298   2.880   4.675  11.180 -0.8987 -0.0061 -1.3038
 1612SOL    HW216299   2.789   4.714  11.287 -0.9189  1.4542 -0.8287
 1613SOL     OW16300   1.705   0.711   1.513 -0.3093  0.3730  0.4152
 1613SOL    HW116301   1.733   0.679   1.599 -1.0462  0.0595  0.5418
 1613SOL    HW216302   1.790   0.712   1.470 -0.0472 -1.7960  0.8393
 1614SOL     OW16303   3.574   2.537   4.084 -0.3291 -0.0138  0.0990
 1614SOL    HW116304   3.591   2.597   4.157 -0.1999  0.9813 -0.7404
 1614SOL    HW216305   3.500   2.487   4.116  0.2866 -0.3849  0.9401
 1615SOL     OW16306   0.989   0.390  15.506 -0.7486  0.4724 -0.0956
 1615SOL    HW116307   0.975   0.328  15.578  2.0636  0.3734  0.3697
 1615SOL    HW216308   0.953   0.322  15.448 -0.7939 -0.3139  0.8390
 1616SOL     OW16309   0.345   0.323   6.287  0.3411 -0.1122 -0.1621
 1616SOL    HW116310   0.425   0.331   6.339 -1.2226 -2.1863  2.5267
 1616SOL    HW216311   0.350   0.411   6.249  1.2685 -0.0296  0.1417
 1617SOL     OW16312   1.262   4.498  12.771 -0.0272 -0.4019 -0.2254
 1617SOL    HW116313   1.310   4.416  12.781  0.9860  0.0351 -1.5460
 1617SOL    HW216314   1.219   4.513  12.855 -0.7704  0.3931 -0.7452
 1618SOL     OW16315   2.974   3.071   6.620 -0.3654  0.0989  0.0057
 1618SOL    HW116316   3.010   3.125   6.549  0.1345 -0.7183 -0.3622
 1618SOL    HW216317   2.991   2.983   6.586 -0.5596 -0.5123  1.4669
 1619SOL     OW16318   3.093   2.124   6.651 -0.0250  0.8368  0.1495
 1619SOL    HW116319   3.047   2.093   6.729  0.3225  2.2990  0.9179
 1619SOL    HW216320   3.140   2.202   6.677  2.3471 -0.3914 -0.4347
 1620SOL     OW16321   1.018   2.655   4.050 -0.2113 -0.3494  0.3387
 1620SOL    HW116322   1.063   2.648   4.134 -0.1536 -0.6960  0.2797
 1620SOL    HW216323   1.092   2.652   3.989 -1.1330 -0.7836 -0.7596
 1621SOL     OW16324   2.657   3.581   5.966  0.7753 -0.8590  0.5701
 1621SOL    HW116325   2.656   3.552   5.875 -0.6618 -0.9040  0.5977
 1621SOL    HW216326   2.719   3.515   5.997  0.8272 -0.7032  0.8012
 1622SOL     OW16327   0.722   3.364   2.018  0.3493 -0.3635 -0.2011
 1622SOL    HW116328   0.813   3.340   2.033  0.4834 -0.8750 -1.8287
 1622SOL    HW216329   0.722   3.374   1.923 -0.3457  0.6423 -0.1018
 1623SOL     OW16330   2.118   3.541   0.821  0.3520 -0.0330  0.3537
 1623SOL    HW116331   2.080   3.525   0.908 -1.0149  1.4400  0.0388
 1623SOL    HW216332   2.053   3.505   0.761  0.5369 -0.7208  0.5739
 1624SOL     OW16333   0.191   1.413  16.227 -0.4793 -0.0899 -0.4411
 1624SOL    HW116334   0.236   1.480  16.176  0.4066  0.9735  1.7600
 1624SOL    HW216335   0.169   1.468  16.302  0.8896  0.4602 -0.4551
 1625SOL     OW16336   0.476   3.872   9.405 -0.3343 -0.7397  0.1040
 1625SOL    HW116337   0.560   3.832   9.425  1.1064  2.3763  0.4084
 1625SOL    HW216338   0.466   3.936   9.476  1.4554 -1.5626  1.0951
 1626SOL     OW16339   2.494   4.399   7.383  0.5033 -0.2325 -0.1814
 1626SOL    HW116340   2.537   4.343   7.319  1.3139  0.9500 -0.6823
 1626SOL    HW216341   2.566   4.456   7.409 -1.3451  2.1014 -0.1324
 1627SOL     OW16342   3.371   2.679   0.548 -0.0553 -0.2565 -0.0464
 1627SOL    HW116343   3.383   2.766   0.585  0.2709  0.0182 -0.7974
 1627SOL    HW216344   3.281   2.684   0.518  0.3388  0.0465 -1.1918
 1628SOL     OW16345   0.660   1.394   5.348 -0.2086 -0.9716 -0.1744
 1628SOL    HW116346   0.616   1.463   5.398 -0.2693  0.5443 -2.3053
 1628SOL    HW216347   0.633   1.423   5.261 -0.2662  0.0636  0.1907
 1629SOL     OW16348   1.111   1.292   8.506 -0.1708 -0.3626  0.1045
 1629SOL    HW116349   1.166   1.217   8.484 -2.3458 -2.7033  2.6606
 1629SOL    HW216350   1.025   1.262   8.476 -0.2208 -0.8479  0.7280
 1630SOL     OW16351   1.179   3.561   0.094  0.1194 -0.6059  0.0747
 1630SOL    HW116352   1.106   3.534   0.150  0.0360 -0.8615 -0.1563
 1630SOL    HW216353   1.216   3.487   0.045 -1.5205 -0.8413 -0.7797
 1631SOL     OW16354   3.551   0.475   8.101  0.3336 -0.0845  0.5117
 1631SOL    HW116355   3.554   0.541   8.033  0.9323 -1.0497 -0.3970
 1631SOL    HW216356   3.643   0.450   8.100  0.5769  0.8150  0.4154
 1632SOL     OW16357   2.497   1.724   9.689  0.3731 -0.1127 -0.4932
 1632SOL    HW116358   2.536   1.670   9.758  0.0692  0.7180  0.3285
 1632SOL    HW216359   2.415   1.750   9.730 -0.6435  0.0081 -2.6258
 1633SOL     OW16360   3.666   3.909   3.655 -0.2435  0.0492 -0.2650
 1633SOL    HW116361   3.627   3.854   3.587 -1.5040 -0.0529  0.5277
 1633SOL    HW216362   3.602   3.980   3.653 -0.8516 -0.4970 -0.4173
 1634SOL     OW16363   0.586   1.254   4.635 -0.8522 -0.6623 -0.1046
 1634SOL    HW116364   0.669   1.299   4.649 -1.9115  0.8793  1.1752
 1634SOL    HW216365   0.608   1.207   4.555  2.8718  0.2944  0.3542
 1635SOL     OW16366   4.655   3.539   4.475 -0.2652  0.4436  0.3093
 1635SOL    HW116367   0.009   3.534   4.420 -1.4523 -1.4269 -1.1924
 1635SOL    HW216368   4.636   3.447   4.493  0.1090 -0.1648 -2.4040
 1636SOL     OW16369   2.416   4.305   4.336 -0.4188  0.4206  0.2200
 1636SOL    HW116370   2.406   4.374   4.271  0.4835  0.3912  0.0436
 1636SOL    HW216371   2.511   4.297   4.324 -0.5912 -0.8220 -0.3736
 1637SOL     OW16372   2.224   1.633   2.581 -0.0589  0.2757 -0.2332
 1637SOL    HW116373   2.265   1.676   2.506 -0.9608 -0.4868 -1.1657
 1637SOL    HW216374   2.233   1.701   2.647 -0.1042 -0.1626  0.2211
 1638SOL     OW16375   3.894   4.329   2.659  0.1799  0.1935 -0.5359
 1638SOL    HW116376   3.825   4.328   2.592  0.8495  1.5873 -1.2412
 1638SOL    HW216377   3.886   4.423   2.672  0.2968 -0.1798  2.2414
 1639SOL     OW16378   2.550   2.541   1.243 -0.1375 -0.4114 -0.0341
 1639SOL    HW116379   2.620   2.591   1.203 -0.1581 -1.4504 -1.3462
 1639SOL    HW216380   2.598   2.519   1.323  2.0683  0.2958 -1.1864
 1640SOL     OW16381   2.787   2.905   2.994 -0.2007 -0.4573 -0.1505
 1640SOL    HW116382   2.790   2.839   3.064  1.1790 -0.6457 -0.3929
 1640SOL    HW216383   2.694   2.909   2.971 -0.7684 -2.3147  1.7988
 1641SOL     OW16384   2.912   0.759  14.232  0.2805  0.5611  0.2147
 1641SOL    HW116385   2.827   0.738  14.270  0.7529 -0.7229  0.5601
 1641SOL    HW216386   2.963   0.786  14.309 -1.7760  2.9635  0.7410
 1642SOL     OW16387   2.155   2.092   5.651  0.5580 -0.1753  0.2365
 1642SOL    HW116388   2.094   2.022   5.629 -1.3078  1.1309  1.2316
 1642SOL    HW216389   2.230   2.041   5.620  0.5879  0.5396 -0.8744
 1643SOL     OW16390   2.086   2.415   4.874  0.0557 -0.2319  0.3132
 1643SOL    HW116391   2.156   2.479   4.883  0.5449 -0.8136  0.7207
 1643SOL    HW216392   2.131   2.335   4.847 -0.6634 -1.1680  1.8602
 1644SOL     OW16393   4.316   2.380   2.229  0.3701  0.2388  0.3916
 1644SOL    HW116394   4.349   2.442   2.294 -1.2591  0.3258  1.1414
 1644SOL    HW216395   4.229   2.359   2.264 -0.1561  1.6844 -0.0695
 1645SOL     OW16396   0.180   2.082  14.673  0.0395 -0.4868  0.5905
 1645SOL    HW116397   0.126   2.017  14.719 -1.0705 -1.5328 -2.2172
 1645SOL    HW216398   0.239   2.017  14.634  0.7899  0.9358 -0.6203
 1646SOL     OW16399   3.857   0.598   2.621  0.1730  0.0182 -0.3812
 1646SOL    HW116400   3.847   0.568   2.530  2.5250 -0.2005 -0.5601
 1646SOL    HW216401   3.944   0.559   2.631  0.0328  0.7637  3.4631
 1647SOL     OW16402   1.156   0.733   9.673 -0.9507  0.5969  1.0206
 1647SOL    HW116403   1.166   0.668   9.603 -2.4381 -1.3054  2.5703
 1647SOL    HW216404   1.202   0.686   9.742  2.0475  2.6134  0.3397
 1648SOL     OW16405   0.920   1.404  15.089 -0.7032  0.0770 -0.3183
 1648SOL    HW116406   0.868   1.468  15.041 -0.0469  0.7409 -0.1480
 1648SOL    HW216407   0.927   1.460  15.167 -1.9318  0.9087 -0.8002
 1649SOL     OW16408   0.895   3.039   4.014  0.1659 -0.0490  0.2081
 1649SOL    HW116409   0.804   3.071   4.012  0.9134  2.2257  2.9323
 1649SOL    HW216410   0.928   3.055   3.925  1.2147  0.9641  0.7847
 1650SOL     OW16411   1.786   3.214  13.878  0.2695  0.1419 -0.3895
 1650SOL    HW116412   1.699   3.203  13.917 -0.2022  2.8347 -0.6892
 1650SOL    HW216413   1.777   3.178  13.790  1.3296  3.5773 -1.8694
 1651SOL     OW16414   2.887   4.115  14.762 -0.0044  0.2637 -0.0805
 1651SOL    HW116415   2.825   4.159  14.704  0.0349  2.1761  1.3592
 1651SOL    HW216416   2.923   4.040  14.713 -0.3788 -0.0098  0.0654
 1652SOL     OW16417   1.014   1.564   1.435  0.4589  0.1720  0.4490
 1652SOL    HW116418   1.102   1.575   1.400 -0.6119  2.8866 -1.3679
 1652SOL    HW216419   0.976   1.652   1.437  0.6872  0.2979 -1.3143
 1653SOL     OW16420   3.891   2.106  14.465  0.0971 -0.1749 -0.0130
 1653SOL    HW116421   3.805   2.073  14.492  0.0981 -1.1745 -1.2207
 1653SOL    HW216422   3.878   2.126  14.372  0.7445  2.1181  0.3890
 1654SOL     OW16423   3.594   0.207   4.410 -0.5239 -0.4501 -0.1680
 1654SOL    HW116424   3.651   0.245   4.343 -1.8128  3.4104  0.9678
 1654SOL    HW216425   3.657   0.192   4.480 -0.0204  0.1022 -0.5040
 1655SOL     OW16426   4.072   4.341   1.480  0.0817 -0.1674  0.3054
 1655SOL    HW116427   4.158   4.309   1.453 -0.3559 -1.8321  0.9045
 1655SOL    HW216428   4.041   4.372   1.395  0.8391  0.4321  0.2462
 1656SOL     OW16429   2.596   0.235   7.016 -0.3972 -0.0573 -0.3232
 1656SOL    HW116430   2.586   0.140   7.019 -0.9475  0.0053 -0.2226
 1656SOL    HW216431   2.689   0.246   7.037 -0.1953 -0.7019 -0.9066
 1657SOL     OW16432   2.603   0.693  11.102 -0.0874 -0.1302  0.0881
 1657SOL    HW116433   2.698   0.679  11.099 -0.1254 -0.2616 -0.5559
 1657SOL    HW216434   2.582   0.742  11.182 -2.1549 -0.6704 -0.1373
 1658SOL     OW16435   1.439   1.310  14.682  0.4519 -0.1545  0.0009
 1658SOL    HW116436   1.482   1.361  14.750  0.5610 -1.5971  1.0055
 1658SOL    HW216437   1.349   1.304  14.714  1.6691  1.6049  3.6773
 1659SOL     OW16438   3.426   0.161   3.582  0.3833 -0.5510 -0.1401
 1659SOL    HW116439   3.375   0.170   3.502  0.7783  0.9902 -0.2117
 1659SOL    HW216440   3.503   0.216   3.569  0.6272 -0.7346  0.5149
 1660SOL     OW16441   3.205   0.806  14.749  0.3375 -0.3214  0.0816
 1660SOL    HW116442   3.260   0.852  14.813  0.5739 -1.3072  0.5785
 1660SOL    HW216443   3.128   0.781  14.801 -0.2416 -1.0510 -1.1235
 1661SOL     OW16444   4.609   1.323   5.373 -0.2063  0.2137  0.8244
 1661SOL    HW116445   4.679   1.384   5.352  0.7820 -0.6643  1.5694
 1661SOL    HW216446   4.596   1.289   5.284  2.1400 -1.7532  1.2277
 1662SOL     OW16447   2.522   0.262  17.146  0.1993 -0.6530 -0.3387
 1662SOL    HW116448   2.476   0.302  17.220 -0.9747 -1.1641 -0.7966
 1662SOL    HW216449   2.606   0.245  17.188 -0.3619 -1.1090  0.6070
 1663SOL     OW16450   0.616   2.625   5.205 -0.2007 -0.2645  0.0944
 1663SOL    HW116451   0.699   2.671   5.201  0.4654 -1.6586 -2.1546
 1663SOL    HW216452   0.562   2.696   5.240 -0.2721 -0.3730  0.2028
 1664SOL     OW16453   1.196   2.262   4.943 -0.0753 -0.5991 -0.3283
 1664SOL    HW116454   1.164   2.207   4.872 -0.8320 -0.3497 -0.1770
 1664SOL    HW216455   1.113   2.264   4.990  1.9485  1.9573  3.1637
 1665SOL     OW16456   3.673   2.114   3.540  0.3247 -0.6690  0.3139
 1665SOL    HW116457   3.689   2.066   3.621 -1.3067  0.2706  1.2064
 1665SOL    HW216458   3.580   2.091   3.530  0.3048  0.0109 -0.9648
 1666SOL     OW16459   2.496   1.311   6.202 -0.2330  0.4697  0.1090
 1666SOL    HW116460   2.574   1.312   6.148 -2.0672  1.7549 -2.5164
 1666SOL    HW216461   2.469   1.219   6.196 -0.2787  0.6420 -2.2098
 1667SOL     OW16462   3.267   1.981   8.148 -0.2277 -0.4932  0.3419
 1667SOL    HW116463   3.314   2.024   8.077 -2.6988 -0.6771 -1.4163
 1667SOL    HW216464   3.213   2.055   8.175 -0.5375 -0.4466 -0.3907
 1668SOL     OW16465   3.151   1.318   2.921 -0.6740 -0.3062  0.2376
 1668SOL    HW116466   3.244   1.319   2.943 -0.7242 -2.2801  0.6128
 1668SOL    HW216467   3.120   1.390   2.976 -0.6070  1.2229 -1.7556
 1669SOL     OW16468   4.099   1.758   2.889 -0.3003 -0.5937  0.5286
 1669SOL    HW116469   4.088   1.806   2.807 -3.3162 -1.6614  0.3319
 1669SOL    HW216470   4.012   1.769   2.927 -1.8492 -6.2292 -1.3966
 1670SOL     OW16471   2.867   2.006   4.805  0.3772 -0.1298 -0.1586
 1670SOL    HW116472   2.953   1.987   4.844  1.2758  1.4804 -1.3738
 1670SOL    HW216473   2.896   2.009   4.714  1.6292  1.0046  0.2743
 1671SOL     OW16474   2.124   0.973   8.240  0.6675  0.3311  0.1716
 1671SOL    HW116475   2.200   1.005   8.289  0.2677  0.5595  0.6469
 1671SOL    HW216476   2.053   1.016   8.288  0.4081  0.3893 -0.2613
 1672SOL     OW16477   0.455   2.740   1.225  0.2170  0.3614 -0.1785
 1672SOL    HW116478   0.500   2.763   1.306  2.1528  1.1236 -1.4690
 1672SOL    HW216479   0.382   2.690   1.260  0.9611  0.8889  2.0856
 1673SOL     OW16480   0.450   1.322   9.804 -0.3760 -0.3833  0.1223
 1673SOL    HW116481   0.520   1.267   9.838 -2.5126 -4.4469 -2.0201
 1673SOL    HW216482   0.479   1.316   9.713 -0.2156  1.9946  0.0304
 1674SOL     OW16483   4.043   3.957   3.758 -0.3368  0.2399 -0.1445
 1674SOL    HW116484   4.121   3.998   3.794 -1.2258  0.0500  1.9934
 1674SOL    HW216485   3.975   4.018   3.786  0.8306  0.6530  1.7513
 1675SOL     OW16486   0.669   3.206   7.157 -0.7081  0.6719 -0.3782
 1675SOL    HW116487   0.726   3.278   7.186 -0.5493  0.5707 -0.4422
 1675SOL    HW216488   0.718   3.177   7.080  1.8231 -0.0475  1.5271
 1676SOL     OW16489   1.761   3.205   4.214  0.4622 -0.5945 -0.7121
 1676SOL    HW116490   1.829   3.201   4.147  0.2718  3.6950 -1.1314
 1676SOL    HW216491   1.753   3.114   4.241  0.2567 -0.7347 -1.2540
 1677SOL     OW16492   3.126   3.006  11.006  0.0294  0.1971  0.2223
 1677SOL    HW116493   3.157   2.998  11.097 -3.2887  0.2029  1.3444
 1677SOL    HW216494   3.072   3.085  11.011 -1.8409 -1.0478 -0.5448
 1678SOL     OW16495   2.803   3.188   9.792  0.1599  0.2834 -0.1907
 1678SOL    HW116496   2.783   3.122   9.858 -1.5505  1.2243  0.2299
 1678SOL    HW216497   2.717   3.203   9.751  0.7513 -2.8955 -2.6201
 1679SOL     OW16498   0.454   0.346   9.395  0.0821 -0.9461 -0.3587
 1679SOL    HW116499   0.511   0.316   9.324 -0.4233 -0.1695 -1.0763
 1679SOL    HW216500   0.440   0.433   9.358  0.8756 -0.7788 -0.2664
 1680SOL     OW16501   4.081   2.095   3.206 -0.1070  0.1191 -0.4804
 1680SOL    HW116502   4.131   2.049   3.139  0.4701 -1.6507  1.1848
 1680SOL    HW216503   4.057   2.174   3.156 -1.8024 -0.5315 -0.7051
 1681SOL     OW16504   0.126   1.533  16.474  0.4274 -0.2692 -0.4291
 1681SOL    HW116505   0.037   1.568  16.468  0.9828  1.1174 -0.7350
 1681SOL    HW216506   0.179   1.613  16.468 -1.9936  1.3111 -0.8867
 1682SOL     OW16507   3.494   0.489   3.969 -0.5859 -0.2191 -0.0935
 1682SOL    HW116508   3.501   0.568   4.023 -2.2844  0.4763 -0.9011
 1682SOL    HW216509   3.399   0.484   3.958 -0.4771 -1.2303 -0.5227
 1683SOL     OW16510   3.577   4.239   8.041 -0.4547  0.3519 -0.1085
 1683SOL    HW116511   3.548   4.149   8.027  1.0340  0.1783 -2.1556
 1683SOL    HW216512   3.500   4.276   8.084 -0.8184 -1.9868  1.2652
 1684SOL     OW16513   2.142   4.360   6.007  0.1182 -0.4021  0.2276
 1684SOL    HW116514   2.062   4.343   6.056 -0.7346  1.4662 -0.5228
 1684SOL    HW216515   2.199   4.375   6.083 -1.3249 -2.7010  1.7791
 1685SOL     OW16516   2.710   4.169   6.463  0.3735  0.2510  0.0999
 1685SOL    HW116517   2.653   4.241   6.436 -0.3678 -0.4072 -0.0929
 1685SOL    HW216518   2.701   4.112   6.387  0.9599 -0.0382  0.2512
 1686SOL     OW16519   0.725   4.408  11.867 -0.7380  0.1508  0.3295
 1686SOL    HW116520   0.688   4.426  11.780 -1.7500 -2.0069  0.3158
 1686SOL    HW216521   0.736   4.313  11.858  1.2153  0.4811 -0.8385
 1687SOL     OW16522   4.699   3.109   4.399 -0.2141 -0.0371 -0.9031
 1687SOL    HW116523   0.016   3.167   4.334  2.2742 -3.4391 -2.3285
 1687SOL    HW216524   0.014   3.139   4.482  0.4995 -1.0013 -0.8834
 1688SOL     OW16525   1.068   0.718   7.908 -0.0566  0.5160 -0.4399
 1688SOL    HW116526   1.118   0.640   7.884 -1.5296 -0.2820 -0.9365
 1688SOL    HW216527   1.002   0.687   7.970 -0.8773 -0.4558 -1.7846
 1689SOL     OW16528   4.036   4.456   8.123  0.4064 -0.9938  0.5935
 1689SOL    HW116529   4.073   4.383   8.073  0.4357 -1.8731  1.9075
 1689SOL    HW216530   3.941   4.441   8.121  0.1399  0.6573  1.2740
 1690SOL     OW16531   1.980   2.106  16.972  0.0213  0.4197  0.1810
 1690SOL    HW116532   1.923   2.095  16.896 -1.0656 -1.5668  1.2819
 1690SOL    HW216533   2.052   2.161  16.942  0.8321 -2.6548 -3.4888
 1691SOL     OW16534   4.145   1.393  14.890  0.0801 -0.1110  0.7194
 1691SOL    HW116535   4.093   1.359  14.818  0.4666  1.1618 -0.1606
 1691SOL    HW216536   4.217   1.437  14.845  0.3310 -0.4040  0.8390
 1692SOL     OW16537   1.231   0.285   5.087  0.1095  0.0453 -0.2550
 1692SOL    HW116538   1.197   0.330   5.009  0.4650  1.3891  0.3697
 1692SOL    HW216539   1.289   0.345   5.132  1.2613 -1.0252 -0.3070
 1693SOL     OW16540   4.311   3.258   2.859 -0.8253  0.6256 -0.1581
 1693SOL    HW116541   4.355   3.228   2.780  0.7408 -0.5449  1.1437
 1693SOL    HW216542   4.386   3.292   2.909 -0.5677  2.0808 -1.5339
 1694SOL     OW16543   0.545   4.219  16.506  0.2314 -0.8356  0.1314
 1694SOL    HW116544   0.638   4.227  16.482 -0.0792  0.7716 -0.4700
 1694SOL    HW216545   0.516   4.149  16.447  2.2485  0.4455 -2.3812
 1695SOL     OW16546   2.292   2.241   4.822  0.0243  0.1717  0.0700
 1695SOL    HW116547   2.350   2.182   4.870 -0.6404 -0.1890  0.4273
 1695SOL    HW216548   2.330   2.327   4.843  0.0276  0.2446 -0.2338
 1696SOL     OW16549   0.846   1.101  15.125  0.0589  0.2237  0.1441
 1696SOL    HW116550   0.898   1.161  15.072  1.8141 -1.0158  0.4442
 1696SOL    HW216551   0.907   1.027  15.122  0.9258  0.9274  0.2484
 1697SOL     OW16552   2.793   4.013   9.796  0.6281 -0.0148  0.1629
 1697SOL    HW116553   2.814   4.105   9.809 -0.9668  0.7732 -2.9894
 1697SOL    HW216554   2.751   4.002   9.882 -0.1859  0.9595 -0.1144
 1698SOL     OW16555   1.552   3.675   9.090 -0.4729 -0.0545  0.0130
 1698SOL    HW116556   1.526   3.726   9.167 -2.1202 -0.2665 -0.3960
 1698SOL    HW216557   1.629   3.636   9.131 -1.5066 -1.4569  0.5880
 1699SOL     OW16558   1.538   3.302   0.155 -0.1294  0.1618 -0.3097
 1699SOL    HW116559   1.502   3.345   0.232  1.2545 -0.9330  0.9343
 1699SOL    HW216560   1.467   3.302   0.090 -1.9143 -0.3985  1.6637
 1700SOL     OW16561   1.844   0.431   7.389  0.1918 -0.2352 -0.5767
 1700SOL    HW116562   1.825   0.356   7.333  1.9292 -0.4926 -0.8214
 1700SOL    HW216563   1.934   0.449   7.362  0.2475 -0.4998 -0.5664
 1701SOL     OW16564   0.586   2.845   2.355  0.2743 -0.2190  0.1092
 1701SOL    HW116565   0.581   2.869   2.263  0.4395  1.2114  0.4783
 1701SOL    HW216566   0.495   2.821   2.369  0.6517 -0.7977  1.5841
 1702SOL     OW16567   0.938   0.419   7.009 -0.4105  0.4862 -0.7284
 1702SOL    HW116568   0.928   0.511   7.034 -0.0676  0.8858 -2.0123
 1702SOL    HW216569   0.853   0.404   6.968 -2.0840  0.1436  2.9187
 1703SOL     OW16570   0.862   0.970   4.242  0.5054  0.0034  0.2004
 1703SOL    HW116571   0.904   0.889   4.272  0.8126  0.9925  2.4713
 1703SOL    HW216572   0.927   1.038   4.257  0.6242  0.0506 -0.5552
 1704SOL     OW16573   2.534   0.201  10.315 -0.3796 -0.1490 -0.4562
 1704SOL    HW116574   2.586   0.278  10.291 -0.3556  0.2918  1.0305
 1704SOL    HW216575   2.573   0.168  10.396 -0.3873 -1.1502 -0.8651
 1705SOL     OW16576   2.258   3.432   6.653  0.4910 -0.2292 -0.4355
 1705SOL    HW116577   2.284   3.425   6.562 -0.2509 -0.7294 -0.6071
 1705SOL    HW216578   2.246   3.341   6.680 -0.7824  0.5092  1.4970
 1706SOL     OW16579   4.628   3.056  15.555  0.3788  0.0375  0.2638
 1706SOL    HW116580   4.564   3.051  15.484  1.9266 -3.0398 -0.9063
 1706SOL    HW216581   4.714   3.044  15.514 -0.2304 -0.3378 -0.9123
 1707SOL     OW16582   2.107   1.484   3.363 -0.2646 -0.4367 -0.5507
 1707SOL    HW116583   2.031   1.539   3.345 -0.0268 -0.3850 -1.4074
 1707SOL    HW216584   2.180   1.545   3.352  0.1458 -0.5264  1.6247
 1708SOL     OW16585   0.145   2.684   0.349 -0.2597  0.3118 -0.5347
 1708SOL    HW116586   0.140   2.696   0.254  0.1829  3.8021 -0.1518
 1708SOL    HW216587   0.148   2.590   0.362 -2.5859  0.2576 -0.4260
 1709SOL     OW16588   1.807   4.540  16.873  0.3846 -0.0174  0.1812
 1709SOL    HW116589   1.761   4.599  16.813  0.0488 -2.2577 -1.7798
 1709SOL    HW216590   1.740   4.503  16.930 -0.1434 -1.3500 -1.2958
 1710SOL     OW16591   2.516   1.152   9.571  0.0568  0.0097 -0.3930
 1710SOL    HW116592   2.596   1.202   9.555  1.2690 -1.4393  1.1867
 1710SOL    HW216593   2.452   1.222   9.556  1.2764  1.2923  0.4893
 1711SOL     OW16594   2.482   3.960   7.377 -0.1050 -0.3560  0.1995
 1711SOL    HW116595   2.550   4.025   7.400  0.8882 -1.3686  0.1212
 1711SOL    HW216596   2.479   3.974   7.282  2.1118 -1.4630 -0.0291
 1712SOL     OW16597   2.023   0.815   4.227 -0.2814 -0.1929 -0.2866
 1712SOL    HW116598   2.073   0.855   4.156  1.0291 -0.3669  0.5410
 1712SOL    HW216599   2.048   0.723   4.219 -1.4507 -0.4005 -1.5392
 1713SOL     OW16600   3.399   4.137   9.342 -0.0446 -0.0735 -0.1196
 1713SOL    HW116601   3.337   4.084   9.392  1.0714 -0.7043  0.5656
 1713SOL    HW216602   3.375   4.221   9.382  1.3773  0.4186 -0.3302
 1714SOL     OW16603   0.923   3.073   8.472 -0.4417 -0.9009  0.3549
 1714SOL    HW116604   0.855   3.081   8.538 -0.1671 -1.0227  0.6547
 1714SOL    HW216605   0.991   3.014   8.505 -1.2979 -2.5363 -0.8407
 1715SOL     OW16606   3.543   1.430   6.420  0.2543 -0.0648 -0.1039
 1715SOL    HW116607   3.495   1.512   6.433 -0.4457 -0.6898  1.2765
 1715SOL    HW216608   3.609   1.449   6.353 -1.1951  1.2436 -1.1659
 1716SOL     OW16609   0.641   2.113   9.352 -0.4351 -0.2630 -0.1582
 1716SOL    HW116610   0.640   2.034   9.405  3.9348 -0.9328 -1.0165
 1716SOL    HW216611   0.727   2.153   9.366 -0.6352  0.8080 -1.9182
 1717SOL     OW16612   4.396   2.299   7.258 -0.0819  0.9455 -0.1054
 1717SOL    HW116613   4.447   2.377   7.234 -1.7616  2.2927  0.7231
 1717SOL    HW216614   4.455   2.263   7.324 -0.6591  0.8836  0.3700
 1718SOL     OW16615   4.313   2.042  15.745 -0.1544  0.2988  0.8374
 1718SOL    HW116616   4.280   2.080  15.663 -0.3399 -1.4847  0.0611
 1718SOL    HW216617   4.246   1.977  15.769  0.2263 -1.3819 -2.6006
 1719SOL     OW16618   3.599   3.500  15.364 -0.2871 -0.3283 -0.6464
 1719SOL    HW116619   3.661   3.543  15.423 -0.7568  0.2397 -0.5660
 1719SOL    HW216620   3.567   3.434  15.426  1.3351 -1.0461 -0.5494
 1720SOL     OW16621   0.751   4.708   5.366  0.1391  0.1686  1.0873
 1720SOL    HW116622   0.786   4.709   5.277  3.6797 -0.2820  2.5095
 1720SOL    HW216623   0.787   0.067   5.397  0.0343  0.9281 -0.7798
 1721SOL     OW16624   3.024   0.575   3.774  0.7942  0.0957 -0.2999
 1721SOL    HW116625   3.032   0.668   3.754 -0.4443  0.1684 -0.4179
 1721SOL    HW216626   2.934   0.560   3.745  1.0274 -1.9783  0.0612
 1722SOL     OW16627   0.142   2.267   2.627 -0.0761 -0.4161  0.0643
 1722SOL    HW116628   0.063   2.267   2.573 -0.5652 -0.4361  0.7941
 1722SOL    HW216629   0.118   2.308   2.709  1.3158 -2.6472  1.5986
 1723SOL     OW16630   1.660   0.903   3.724 -0.0046 -0.0630  0.2362
 1723SOL    HW116631   1.744   0.903   3.771 -0.5544 -2.5077  1.2267
 1723SOL    HW216632   1.627   0.813   3.733 -0.0671  0.1065  1.6501
 1724SOL     OW16633   4.264   4.142   2.269 -0.3534  0.4262 -0.3632
 1724SOL    HW116634   4.359   4.137   2.275 -0.5477  0.1070  2.6477
 1724SOL    HW216635   4.250   4.203   2.197 -0.2956 -1.3695 -1.9159
 1725SOL     OW16636   3.482   3.615   3.783 -0.0339 -0.0674 -0.1008
 1725SOL    HW116637   3.576   3.604   3.773 -0.0760 -0.3291 -0.2107
 1725SOL    HW216638   3.460   3.696   3.738  4.1707  1.5806  0.8173
 1726SOL     OW16639   1.154   2.483   2.558  0.1703  0.0628 -0.3010
 1726SOL    HW116640   1.167   2.461   2.465  0.4531  0.2123 -0.2946
 1726SOL    HW216641   1.094   2.557   2.544  0.3874  0.7801  2.5602
 1727SOL     OW16642   2.665   1.375   8.553 -0.0612 -0.0420 -0.6648
 1727SOL    HW116643   2.713   1.294   8.567 -0.3552 -0.0517  0.2932
 1727SOL    HW216644   2.736   1.440   8.550 -0.6563  0.6808  0.7918
 1728SOL     OW16645   0.893   1.444  12.882  0.0322  0.0169  0.1665
 1728SOL    HW116646   0.932   1.372  12.933 -0.8991 -0.4172  0.2746
 1728SOL    HW216647   0.854   1.397  12.808 -1.9280  1.8675  0.0383
 1729SOL     OW16648   2.664   2.806  13.416 -0.2278 -0.1057  0.2994
 1729SOL    HW116649   2.689   2.866  13.346  1.0700 -1.7772 -0.6669
 1729SOL    HW216650   2.592   2.843  13.468  0.7910  1.9331  0.2352
 1730SOL     OW16651   1.362   1.675  17.009  0.2061  0.5351  0.1186
 1730SOL    HW116652   1.448   1.711  17.028  0.4707 -0.1747  0.2735
 1730SOL    HW216653   1.346   1.621  17.087  1.5091  2.0277  1.4346
 1731SOL     OW16654   2.575   0.686  15.836  0.2687  0.1524 -0.0450
 1731SOL    HW116655   2.504   0.621  15.839 -0.0264  0.5153  0.8924
 1731SOL    HW216656   2.596   0.702  15.928 -1.0309 -1.4620  0.5336
 1732SOL     OW16657   1.215   0.501   8.805  0.3978  0.2809 -0.0202
 1732SOL    HW116658   1.192   0.523   8.895  0.5299 -1.3889  0.4295
 1732SOL    HW216659   1.212   0.588   8.765 -1.6504 -0.3036 -1.1685
 1733SOL     OW16660   0.599   0.957   3.474 -0.4891  0.1436  0.0617
 1733SOL    HW116661   0.571   0.870   3.503  3.3534 -1.0915  0.0333
 1733SOL    HW216662   0.662   0.982   3.541  1.6735 -1.3568 -1.4076
 1734SOL     OW16663   2.992   4.291   7.843 -0.6306 -0.1701  0.2903
 1734SOL    HW116664   2.936   4.272   7.768  1.4966 -3.3837 -0.4595
 1734SOL    HW216665   3.004   4.386   7.842 -0.4102 -0.2016 -0.0392
 1735SOL     OW16666   0.814   2.032  10.112  0.2243  0.2269 -0.1045
 1735SOL    HW116667   0.877   2.102  10.129  0.9150 -0.3252 -0.3717
 1735SOL    HW216668   0.824   1.978  10.191 -0.3097 -0.6385 -0.6320
 1736SOL     OW16669   1.648   4.099   7.255 -0.6315 -0.3482  0.0534
 1736SOL    HW116670   1.646   4.194   7.242 -0.2195 -0.3271  0.1427
 1736SOL    HW216671   1.740   4.073   7.263 -0.7968 -1.0487 -0.3353
 1737SOL     OW16672   0.465   2.687  12.690  0.0698  0.3195 -0.1472
 1737SOL    HW116673   0.529   2.748  12.725 -0.2611  0.2599  0.5705
 1737SOL    HW216674   0.409   2.751  12.645 -0.5192  0.6598  1.0719
 1738SOL     OW16675   2.281   2.530   6.936  0.0813 -0.0779  0.2486
 1738SOL    HW116676   2.196   2.557   6.970 -0.4236 -1.6678  0.2449
 1738SOL    HW216677   2.280   2.435   6.946 -1.3375  0.1252  2.1223
 1739SOL     OW16678   2.585   3.726   7.467 -0.1703 -0.5575 -0.5955
 1739SOL    HW116679   2.647   3.715   7.396  1.0024 -2.5569  0.7258
 1739SOL    HW216680   2.549   3.802   7.423 -0.5026 -1.4901 -1.9166
 1740SOL     OW16681   2.538   0.135   8.976 -0.2643 -0.0811 -0.1781
 1740SOL    HW116682   2.632   0.129   8.993 -0.6208 -0.4432  1.7009
 1740SOL    HW216683   2.496   0.052   8.999 -1.5607  0.5616 -0.2269
 1741SOL     OW16684   2.437   3.204  12.843 -0.0895  0.3534  0.0300
 1741SOL    HW116685   2.431   3.126  12.788 -2.7511 -1.0203  2.3056
 1741SOL    HW216686   2.381   3.176  12.914 -0.2212  2.0510  0.6121
 1742SOL     OW16687   4.023   3.768   7.365  0.0088  0.4414 -0.3676
 1742SOL    HW116688   4.022   3.748   7.272 -2.9245 -0.7337 -0.0924
 1742SOL    HW216689   3.997   3.679   7.390  1.3883 -0.6470 -2.8008
 1743SOL     OW16690   4.308   1.081  11.200  0.2262 -0.1324  0.3970
 1743SOL    HW116691   4.343   1.091  11.288  2.3503  1.9580 -0.6620
 1743SOL    HW216692   4.389   1.092  11.148  0.5908 -2.2121  0.5304
 1744SOL     OW16693   2.266   2.815   7.341 -0.1327  0.1556  0.2559
 1744SOL    HW116694   2.262   2.838   7.248 -0.0797 -0.5040  0.0914
 1744SOL    HW216695   2.355   2.847   7.354 -0.4193  0.5047  1.3439
 1745SOL     OW16696   3.011   1.640   6.060  0.0515 -0.4381 -0.3887
 1745SOL    HW116697   2.924   1.602   6.065  0.4126 -1.5213 -2.4603
 1745SOL    HW216698   3.070   1.592   6.118 -0.9877 -2.1726 -0.7904
 1746SOL     OW16699   4.629   4.090   8.961  0.2114 -0.3423 -0.0258
 1746SOL    HW116700   4.565   4.091   9.032  1.8862  0.0140  1.4753
 1746SOL    HW216701   4.701   4.139   9.000 -0.4380  0.2307  0.4393
 1747SOL     OW16702   3.346   0.656   2.748 -0.0160 -0.1524  0.2304
 1747SOL    HW116703   3.338   0.651   2.653 -2.0010 -2.0613  0.4877
 1747SOL    HW216704   3.303   0.740   2.764 -0.1714 -0.5351  1.8401
 1748SOL     OW16705   4.458   2.624  11.410 -0.0180 -0.1633 -0.5697
 1748SOL    HW116706   4.418   2.603  11.326 -0.4419  0.3997 -0.5098
 1748SOL    HW216707   4.377   2.656  11.449 -0.7633 -1.0242 -1.4236
 1749SOL     OW16708   0.117   3.214   5.237  0.6267  0.4216 -0.1721
 1749SOL    HW116709   0.175   3.239   5.309 -1.5995  1.4359  1.2679
 1749SOL    HW216710   0.036   3.199   5.285  0.6528 -1.2836 -0.6455
 1750SOL     OW16711   2.752   1.318   9.473  0.2669 -0.5281  0.3215
 1750SOL    HW116712   2.834   1.270   9.461 -0.6099 -1.9393 -0.1257
 1750SOL    HW216713   2.789   1.386   9.529 -0.2290 -0.3444  0.4233
 1751SOL     OW16714   0.220   1.942   2.736  0.2288  0.2343 -0.3220
 1751SOL    HW116715   0.260   1.860   2.765 -2.1659 -0.6174  0.5891
 1751SOL    HW216716   0.202   1.966   2.827 -0.9884  0.9395 -0.7485
 1752SOL     OW16717   2.098   4.239   7.038  0.0480  0.1004 -0.4205
 1752SOL    HW116718   2.084   4.284   7.122  1.7686 -2.3527  1.1870
 1752SOL    HW216719   2.149   4.164   7.070  0.0158  0.2576  0.0007
 1753SOL     OW16720   3.067   4.597  12.852  0.0767  0.6496 -0.2791
 1753SOL    HW116721   3.066   4.502  12.838  1.8681  0.9023 -2.1556
 1753SOL    HW216722   2.998   4.611  12.788  1.0374  0.8158 -1.2845
 1754SOL     OW16723   4.683   4.197   7.464  0.4482  0.4558  0.0141
 1754SOL    HW116724   4.605   4.248   7.484 -0.2479 -0.5342 -0.1807
 1754SOL    HW216725   4.697   4.170   7.555 -0.8805 -0.8057 -0.1559
 1755SOL     OW16726   2.915   1.116  14.867  0.4297  0.6587 -0.5913
 1755SOL    HW116727   2.959   1.159  14.940 -0.0374  0.4408 -0.1793
 1755SOL    HW216728   2.866   1.190  14.830 -0.5121  0.4037  0.1314
 1756SOL     OW16729   1.662   1.999   3.777  0.1700  0.2536  0.7255
 1756SOL    HW116730   1.686   1.908   3.793  0.7132 -0.0470 -1.7853
 1756SOL    HW216731   1.748   2.034   3.799  0.6872  0.1677 -1.1140
 1757SOL     OW16732   0.973   4.547   5.480 -0.5384 -0.2856  0.5443
 1757SOL    HW116733   0.945   4.466   5.437 -0.7608  0.3205 -0.4555
 1757SOL    HW216734   0.905   4.608   5.450 -2.1146 -1.9691  0.7312
 1758SOL     OW16735   4.296   4.395   5.424  0.1735  0.2453 -0.3577
 1758SOL    HW116736   4.271   4.436   5.507 -1.1825  0.4989 -0.8900
 1758SOL    HW216737   4.231   4.438   5.368  2.1095  0.9151 -2.1153
 1759SOL     OW16738   2.575   1.772  16.510 -0.0064  0.2700 -0.3555
 1759SOL    HW116739   2.630   1.822  16.450  0.9907 -0.7965 -0.3452
 1759SOL    HW216740   2.500   1.829  16.520  2.0357  2.5072  2.1583
 1760SOL     OW16741   1.944   1.915  10.712  0.5049  0.2841 -0.1290
 1760SOL    HW116742   1.949   1.960  10.628  1.2987  0.8505  0.2187
 1760SOL    HW216743   1.946   1.996  10.762 -0.1695  1.0381 -1.3262
 1761SOL     OW16744   2.583   3.443   4.784 -0.0173 -0.4099  0.3408
 1761SOL    HW116745   2.642   3.372   4.762 -0.0153  0.4919 -2.6050
 1761SOL    HW216746   2.493   3.415   4.767  0.6483 -2.8699  0.8261
 1762SOL     OW16747   2.428   3.334   2.452 -1.0044 -0.4130 -0.0046
 1762SOL    HW116748   2.509   3.385   2.451 -0.8991 -0.5792  0.0675
 1762SOL    HW216749   2.406   3.330   2.359 -3.8538  0.5043  0.5998
 1763SOL     OW16750   2.381   2.259   7.571 -0.3398 -0.7351  0.0711
 1763SOL    HW116751   2.358   2.256   7.664 -0.8428 -0.8723 -0.0600
 1763SOL    HW216752   2.458   2.204   7.559  0.0272 -0.2003 -0.0113
 1764SOL     OW16753   0.846   3.898  16.987 -0.8420 -0.1912  0.4448
 1764SOL    HW116754   0.930   3.904  16.941 -0.8447 -1.2867  0.3155
 1764SOL    HW216755   0.791   3.840  16.936 -0.0709  0.2888 -0.9363
 1765SOL     OW16756   4.504   1.929  16.474  0.2995 -0.3814  0.9267
 1765SOL    HW116757   4.478   1.889  16.391 -0.2585 -1.8080  1.7913
 1765SOL    HW216758   4.442   1.875  16.522 -0.3103 -2.3478 -2.0689
 1766SOL     OW16759   2.325   0.148  17.006 -0.8932 -0.5881  0.0346
 1766SOL    HW116760   2.335   0.198  16.925 -0.3655 -0.0618  0.4285
 1766SOL    HW216761   2.397   0.179  17.060 -0.0653 -1.4001 -0.6109
 1767SOL     OW16762   0.807   1.689   9.657  0.5448  0.1974 -0.5216
 1767SOL    HW116763   0.754   1.657   9.729  1.9912 -0.0679  0.4188
 1767SOL    HW216764   0.876   1.741   9.698  0.2322  0.0309  0.2045
 1768SOL     OW16765   3.525   2.347   8.858  0.0935 -0.4721  0.4620
 1768SOL    HW116766   3.519   2.253   8.876  3.0849 -0.7529 -0.0043
 1768SOL    HW216767   3.477   2.344   8.775 -2.1726 -3.0592  1.8456
 1769SOL     OW16768   2.840   0.008   6.115 -0.1763  0.3975  0.4079
 1769SOL    HW116769   2.820   0.099   6.139 -2.0221  0.2477 -0.5534
 1769SOL    HW216770   2.876   4.686   6.191  1.4788  1.1160  0.0553
 1770SOL     OW16771   0.296   2.177   3.325  0.3555 -0.1673 -0.3242
 1770SOL    HW116772   0.255   2.251   3.370 -1.9733 -0.1160 -2.5383
 1770SOL    HW216773   0.332   2.132   3.401 -2.6822 -3.5932 -0.9165
 1771SOL     OW16774   1.652   4.106  15.916 -0.0649 -0.4346 -0.0940
 1771SOL    HW116775   1.614   4.020  15.935 -3.3181  0.8424 -1.0090
 1771SOL    HW216776   1.741   4.076  15.893 -0.4793 -2.5928  1.0929
 1772SOL     OW16777   0.665   4.169   4.225  0.5517  0.3151 -0.0704
 1772SOL    HW116778   0.581   4.183   4.270  0.0784 -1.2531 -0.4735
 1772SOL    HW216779   0.643   4.223   4.149 -0.4290  1.9486  1.3583
 1773SOL     OW16780   3.120   2.450   7.759 -0.1503 -0.0637 -0.1090
 1773SOL    HW116781   3.083   2.365   7.782 -2.7656  0.2133 -3.3726
 1773SOL    HW216782   3.180   2.460   7.833  1.2274 -1.1281 -1.0764
 1774SOL     OW16783   4.168   4.500   2.859 -0.2848  0.0945  0.1539
 1774SOL    HW116784   4.202   4.436   2.796 -2.4591 -0.6562 -0.2752
 1774SOL    HW216785   4.132   4.439   2.924  2.2938  1.0056  2.4511
 1775SOL     OW16786   4.264   3.962   7.118  0.3028  0.3111 -0.2309
 1775SOL    HW116787   4.314   4.023   7.172 -0.3767  0.6090  0.0618
 1775SOL    HW216788   4.218   4.025   7.063  3.2248  0.9606 -1.9648
 1776SOL     OW16789   4.518   4.482  14.500  0.8986 -0.6645  0.7908
 1776SOL    HW116790   4.507   4.548  14.569  1.2859  2.6744 -2.3482
 1776SOL    HW216791   4.527   4.403  14.554  1.2284 -0.4106  1.1064
 1777SOL     OW16792   2.454   1.298   2.774 -0.1982  0.3636 -0.0176
 1777SOL    HW116793   2.433   1.266   2.862 -0.6866 -0.2355 -0.3499
 1777SOL    HW216794   2.370   1.325   2.738  0.1530  1.8684  0.3232
 1778SOL     OW16795   2.963   4.472  11.535 -0.1664  0.0189 -0.1643
 1778SOL    HW116796   2.978   4.564  11.559  0.2292 -0.0031 -0.3204
 1778SOL    HW216797   3.007   4.464  11.450  0.9622  0.6974  0.3551
 1779SOL     OW16798   4.300   3.483   6.939 -0.0468  0.1578 -0.4753
 1779SOL    HW116799   4.219   3.435   6.923  0.2853 -0.5288 -0.0952
 1779SOL    HW216800   4.341   3.441   7.014 -0.0035  1.5360  0.2739
 1780SOL     OW16801   4.569   1.091   8.801  0.0972 -0.2946 -0.0896
 1780SOL    HW116802   4.612   1.175   8.781  3.2116 -1.4734  1.7046
 1780SOL    HW216803   4.483   1.120   8.829  0.0155 -0.2024 -0.4297
 1781SOL     OW16804   2.047   2.097   4.146 -0.6526  0.8308 -0.0649
 1781SOL    HW116805   1.954   2.112   4.166 -0.5029  2.4916 -0.5851
 1781SOL    HW216806   2.071   2.182   4.110 -0.5981  0.5354 -0.7224
 1782SOL     OW16807   1.590   2.427   9.310  0.5355 -0.6204  0.3175
 1782SOL    HW116808   1.513   2.471   9.275  1.7680  0.5021 -0.9668
 1782SOL    HW216809   1.558   2.338   9.295 -1.2512  0.3001 -1.2854
 1783SOL     OW16810   0.027   2.405   4.039  0.4989 -0.0250  0.2900
 1783SOL    HW116811   0.037   2.479   3.979  0.3014  0.0556  0.3553
 1783SOL    HW216812   0.041   2.442   4.126  1.6557 -1.9784  0.9426
 1784SOL     OW16813   3.696   4.573  16.734 -0.0739  0.0962 -0.3865
 1784SOL    HW116814   3.777   4.615  16.706 -0.3788  0.7761 -0.2527
 1784SOL    HW216815   3.661   4.537  16.653 -2.1278  1.8867 -0.3200
 1785SOL     OW16816   3.937   3.072   6.706 -0.0874  0.0771  0.3410
 1785SOL    HW116817   4.010   3.014   6.728  0.2088 -0.0437 -0.9317
 1785SOL    HW216818   3.878   3.001   6.681  1.2512 -0.9820  0.1879
 1786SOL     OW16819   1.160   3.877   6.497 -0.4989 -0.1967 -0.1325
 1786SOL    HW116820   1.222   3.930   6.547 -2.2618 -0.4040  2.2420
 1786SOL    HW216821   1.213   3.865   6.418 -0.1547 -2.3833  0.4393
 1787SOL     OW16822   4.208   1.406   7.393  0.1852 -0.3235 -0.4174
 1787SOL    HW116823   4.185   1.427   7.483  0.6847  0.3639 -0.4441
 1787SOL    HW216824   4.123   1.428   7.356 -0.6449 -0.3988  1.4645
 1788SOL     OW16825   3.803   3.519   5.005 -0.1965  0.1962 -0.8571
 1788SOL    HW116826   3.871   3.525   5.071  0.6106 -0.7589 -1.5988
 1788SOL    HW216827   3.809   3.425   4.989  2.9227  0.4337 -1.1477
 1789SOL     OW16828   4.413   1.108   6.958 -0.4177 -0.1631 -0.0512
 1789SOL    HW116829   4.328   1.115   7.000 -1.0778 -1.8452 -1.1112
 1789SOL    HW216830   4.402   1.167   6.883  0.2070 -0.4650 -0.3799
 1790SOL     OW16831   1.216   2.038  15.453  0.7844 -0.0045 -0.1208
 1790SOL    HW116832   1.262   1.962  15.417  0.3870 -0.7138  0.8777
 1790SOL    HW216833   1.130   2.035  15.410  1.0091  0.9572 -0.6307
 1791SOL     OW16834   3.189   1.771   2.952 -0.0408  0.0389 -0.5038
 1791SOL    HW116835   3.231   1.851   2.983 -1.1468  1.0641 -1.6324
 1791SOL    HW216836   3.224   1.761   2.863 -4.2335  1.3291 -2.3185
 1792SOL     OW16837   3.553   3.195   6.587 -0.3311 -0.2312  0.2648
 1792SOL    HW116838   3.470   3.221   6.626  0.2694  1.2699  0.5582
 1792SOL    HW216839   3.529   3.147   6.507  0.0477  0.4947 -0.2919
 1793SOL     OW16840   1.455   2.610   5.703  0.1143  0.5656  0.4834
 1793SOL    HW116841   1.420   2.531   5.743  0.1042  1.1273  1.5803
 1793SOL    HW216842   1.499   2.572   5.627 -0.8844 -1.1939  0.7895
 1794SOL     OW16843   2.965   3.651   0.515 -0.0989 -0.7169  0.1107
 1794SOL    HW116844   3.010   3.690   0.440 -0.9301  0.8853  0.4307
 1794SOL    HW216845   2.875   3.671   0.487 -1.0048 -1.6335  2.3987
 1795SOL     OW16846   0.506   0.791  13.223  0.2298  0.5159 -0.3598
 1795SOL    HW116847   0.452   0.841  13.284 -1.2344 -0.0560 -1.1673
 1795SOL    HW216848   0.454   0.712  13.203  0.1443  0.7030 -0.8792
 1796SOL     OW16849   4.166   2.819   7.010  0.0627  0.0379 -0.4067
 1796SOL    HW116850   4.103   2.748   7.020  1.5703 -1.7903 -3.8511
 1796SOL    HW216851   4.169   2.864   7.095 -1.2729 -1.6510  0.5337
 1797SOL     OW16852   0.922   4.032   4.588  0.2039 -1.0130 -0.6905
 1797SOL    HW116853   0.996   3.997   4.539 -0.4099 -1.4444 -1.3145
 1797SOL    HW216854   0.918   4.121   4.553  0.7023 -1.1094 -0.9884
 1798SOL     OW16855   1.434   1.961   7.856 -0.1275  0.0791  0.0374
 1798SOL    HW116856   1.344   1.965   7.824 -0.8318 -1.4719  1.8465
 1798SOL    HW216857   1.436   1.878   7.903  1.7692  0.6110  0.8687
 1799SOL     OW16858   1.299   0.106   8.926 -0.2501 -0.2013 -0.5288
 1799SOL    HW116859   1.219   0.145   8.961 -1.1588 -1.7270 -0.8873
 1799SOL    HW216860   1.279   0.015   8.950  1.8719 -1.3432 -2.9290
 1800SOL     OW16861   1.765   2.278   2.449  0.3451 -0.0462 -0.4467
 1800SOL    HW116862   1.699   2.227   2.402 -1.0682  0.9900  0.4321
 1800SOL    HW216863   1.836   2.214   2.463  0.1112 -0.4762 -1.2047
 1801SOL     OW16864   0.284   0.672   7.623 -0.1218  0.1222 -0.0067
 1801SOL    HW116865   0.366   0.695   7.666  0.5124 -0.3255 -0.9924
 1801SOL    HW216866   0.304   0.578   7.619 -1.8410 -0.2451  0.0466
 1802SOL     OW16867   2.127   0.218  10.810  0.2216  1.1597 -0.6871
 1802SOL    HW116868   2.160   0.193  10.724 -0.3198 -2.0296  0.0056
 1802SOL    HW216869   2.196   0.179  10.865 -1.1790  0.7785  0.7880
 1803SOL     OW16870   3.177   4.146  14.593  0.5266 -0.6712  0.3775
 1803SOL    HW116871   3.231   4.217  14.558  0.3487 -0.3565  0.7395
 1803SOL    HW216872   3.091   4.186  14.581  0.3601 -1.4141 -0.9305
 1804SOL     OW16873   0.223   0.134   1.823 -0.1286  0.3403  0.0623
 1804SOL    HW116874   0.160   0.204   1.806 -2.7889 -1.4223  2.5858
 1804SOL    HW216875   0.218   0.141   1.919 -0.5033 -0.6982  0.1242
 1805SOL     OW16876   3.224   0.716   7.755 -0.7689 -0.5944  0.9681
 1805SOL    HW116877   3.186   0.674   7.832 -2.2530 -0.1599  0.4651
 1805SOL    HW216878   3.215   0.805   7.789 -2.1216 -1.4819  2.9854
 1806SOL     OW16879   2.241   4.058   8.311  0.5559 -0.0300 -0.8253
 1806SOL    HW116880   2.205   4.146   8.327  1.7328  0.3031  0.0286
 1806SOL    HW216881   2.250   4.030   8.402 -0.3495 -2.3193 -1.4484
 1807SOL     OW16882   2.304   1.604   9.090  0.1360 -0.0416  0.3305
 1807SOL    HW116883   2.329   1.695   9.102 -0.6713  0.1067  0.8857
 1807SOL    HW216884   2.229   1.614   9.032  1.1631  1.4316 -0.7525
 1808SOL     OW16885   1.084   4.067   5.302 -0.4352 -0.3658  0.2041
 1808SOL    HW116886   1.133   4.098   5.378  1.1325  0.4318 -1.1389
 1808SOL    HW216887   1.119   3.979   5.298 -2.6842 -1.1439 -2.6052
 1809SOL     OW16888   0.705   3.700   4.836  0.1566  0.7240  0.1620
 1809SOL    HW116889   0.676   3.791   4.843  0.2768  0.6628  1.3447
 1809SOL    HW216890   0.735   3.705   4.745  0.7342  0.8251  0.3602
 1810SOL     OW16891   2.038   1.322   9.439 -0.4777  0.4585 -0.4810
 1810SOL    HW116892   2.041   1.299   9.531 -0.6162 -1.3716 -0.9319
 1810SOL    HW216893   2.061   1.415   9.439  0.7971  0.1370  1.3944
 1811SOL     OW16894   1.348   0.464   2.260  0.1221  0.3190  0.1169
 1811SOL    HW116895   1.264   0.444   2.218  0.2098 -0.9745  0.5560
 1811SOL    HW216896   1.353   0.558   2.274  0.1107  0.4885 -0.9899
 1812SOL     OW16897   2.433   0.972   0.984 -0.3374 -0.6180  0.0744
 1812SOL    HW116898   2.385   0.935   1.058 -0.2220 -0.4801  0.2170
 1812SOL    HW216899   2.366   1.025   0.941 -1.0086 -1.1368  0.4821
 1813SOL     OW16900   3.804   4.077   6.869  0.1038 -0.9895  0.9597
 1813SOL    HW116901   3.793   4.095   6.776  5.3924 -2.3692  0.1098
 1813SOL    HW216902   3.795   3.982   6.868  0.8243 -1.0483  0.2519
 1814SOL     OW16903   4.293   0.048   8.212  0.0539 -0.5878  0.1812
 1814SOL    HW116904   4.277   0.038   8.306 -0.8591 -0.8628 -0.0068
 1814SOL    HW216905   4.314   4.683   8.181 -0.1356 -1.0711  1.4325
 1815SOL     OW16906   3.482   0.333   5.414  0.7121 -0.3838 -0.1419
 1815SOL    HW116907   3.418   0.341   5.485 -0.1064 -0.2382 -0.8933
 1815SOL    HW216908   3.441   0.268   5.358  1.2200  0.0479 -1.0187
 1816SOL     OW16909   0.397   1.710   7.104  0.1783 -0.2407 -0.8702
 1816SOL    HW116910   0.476   1.688   7.056  0.8484  0.2328  0.0055
 1816SOL    HW216911   0.361   1.787   7.059  3.0052  1.2566 -0.6190
 1817SOL     OW16912   1.048   2.822  15.565 -0.0690  0.3313  0.0305
 1817SOL    HW116913   0.974   2.837  15.508 -0.7801 -0.7484  0.6586
 1817SOL    HW216914   1.100   2.902  15.562  1.9157 -0.9739 -0.8706
 1818SOL     OW16915   4.109   3.817   0.804  0.3443  0.1986 -0.4835
 1818SOL    HW116916   4.039   3.836   0.742 -0.8052 -0.9959  0.4449
 1818SOL    HW216917   4.097   3.900   0.850  1.2692  0.0574  0.0177
 1819SOL     OW16918   3.199   2.489  17.331  0.1270  0.2793 -0.1533
 1819SOL    HW116919   3.140   2.553  17.292  0.2366  1.6275  1.8713
 1819SOL    HW216920   3.172   2.402  17.301  0.0208  0.2199  0.1158
 1820SOL     OW16921   1.740   3.468   5.357 -0.2222 -0.1410 -0.0023
 1820SOL    HW116922   1.663   3.442   5.307 -0.2121 -0.8109  0.3268
 1820SOL    HW216923   1.746   3.562   5.339 -0.7718 -0.0781  0.1430
 1821SOL     OW16924   4.518   1.025   4.085 -0.5005  0.2583  0.3628
 1821SOL    HW116925   4.599   0.983   4.056 -0.0371  0.5631  1.1947
 1821SOL    HW216926   4.463   0.947   4.095 -0.3067  0.0577 -0.1605
 1822SOL     OW16927   0.242   4.138   1.154 -0.0463 -0.3819  0.2343
 1822SOL    HW116928   0.263   4.084   1.078  2.1533  2.1271 -0.9674
 1822SOL    HW216929   0.217   4.071   1.217  1.3421 -0.4972  0.6680
 1823SOL     OW16930   0.136   1.231   3.433  0.0150 -0.3757 -0.0022
 1823SOL    HW116931   0.040   1.238   3.434  0.1339  1.7525 -1.7131
 1823SOL    HW216932   0.151   1.198   3.521  3.0827 -0.3701 -0.5214
 1824SOL     OW16933   1.195   1.786   8.735 -0.2580  0.4291  0.3346
 1824SOL    HW116934   1.115   1.839   8.738 -1.1336 -0.8890  0.0567
 1824SOL    HW216935   1.262   1.854   8.727  0.2455 -0.3310 -1.8756
 1825SOL     OW16936   0.726   0.412   5.187 -0.1636 -0.3512 -0.0633
 1825SOL    HW116937   0.692   0.498   5.163 -0.1022 -0.5106 -0.7095
 1825SOL    HW216938   0.665   0.355   5.140 -0.2091 -0.3199 -0.0430
 1826SOL     OW16939   1.499   2.466   5.262 -0.5240  0.1128  0.9820
 1826SOL    HW116940   1.554   2.485   5.186 -0.4139 -1.2306  0.7302
 1826SOL    HW216941   1.418   2.449   5.216  0.5523 -0.0047 -0.8611
 1827SOL     OW16942   1.591   2.858   9.676  0.5627  0.7250 -0.0530
 1827SOL    HW116943   1.648   2.787   9.705  0.2532 -0.2682 -1.8374
 1827SOL    HW216944   1.558   2.896   9.757  2.8442 -0.2998  1.3701
 1828SOL     OW16945   1.032   4.052   1.522 -0.0606 -0.3040  0.2210
 1828SOL    HW116946   1.099   4.030   1.458  0.3312 -0.1983  0.5922
 1828SOL    HW216947   0.955   4.033   1.469  2.2787 -2.0549 -2.5591
 1829SOL     OW16948   4.339   0.203   1.801  0.3439 -0.1355 -0.2522
 1829SOL    HW116949   4.429   0.234   1.793  1.1070 -2.8228 -2.0607
 1829SOL    HW216950   4.344   0.156   1.884 -0.4179 -0.2460 -0.2739
 1830SOL     OW16951   1.893   0.656   0.793 -0.1549  0.1612 -0.1604
 1830SOL    HW116952   1.897   0.631   0.700  0.0799  0.8332 -0.3312
 1830SOL    HW216953   1.978   0.627   0.825 -0.1206 -2.9353 -2.9858
 1831SOL     OW16954   3.161   4.045  15.681 -0.4557 -0.0029  0.2992
 1831SOL    HW116955   3.112   4.091  15.749  0.1843  2.1903 -0.7131
 1831SOL    HW216956   3.233   4.106  15.664  2.1151 -2.6179  1.7611
 1832SOL     OW16957   4.246   3.323   5.753 -0.3660 -0.0220 -0.2358
 1832SOL    HW116958   4.300   3.291   5.680 -1.2622  0.3548 -1.0724
 1832SOL    HW216959   4.270   3.415   5.742  1.0243 -0.3499  0.0422
 1833SOL     OW16960   4.602   4.066   5.569  0.0595 -0.1914  0.2917
 1833SOL    HW116961   4.683   4.114   5.588 -0.9763  1.4036  0.6045
 1833SOL    HW216962   4.638   4.033   5.486 -0.9208 -3.5625  1.2251
 1834SOL     OW16963   3.214   2.366   5.602  0.4676 -0.4497 -0.3683
 1834SOL    HW116964   3.296   2.406   5.576 -0.0278 -0.4804 -1.9850
 1834SOL    HW216965   3.220   2.386   5.696 -4.3558  1.6659 -0.5209
 1835SOL     OW16966   3.818   1.810   6.823  0.4275  0.1533 -0.0520
 1835SOL    HW116967   3.728   1.809   6.856  0.7443 -0.4691  0.7907
 1835SOL    HW216968   3.828   1.722   6.788  0.5826  0.8101 -1.6573
 1836SOL     OW16969   3.780   3.665  11.373 -0.6578  0.5264  0.6456
 1836SOL    HW116970   3.749   3.672  11.463 -1.2157  0.1433  0.4882
 1836SOL    HW216971   3.753   3.576  11.350 -0.5287  0.2312  1.6466
 1837SOL     OW16972   1.913   0.107   5.129 -0.4816  0.2378  0.3144
 1837SOL    HW116973   1.996   0.154   5.134  0.2783 -0.8066 -2.3174
 1837SOL    HW216974   1.891   0.126   5.038  0.6995  0.0790 -0.0014
 1838SOL     OW16975   3.230   0.477  11.722 -0.2529  0.0265  0.0994
 1838SOL    HW116976   3.234   0.558  11.772  0.3053 -0.0505  0.1838
 1838SOL    HW216977   3.284   0.410  11.765  0.2800  0.8178  0.6481
 1839SOL     OW16978   3.956   3.349   3.209  0.2176  0.0862 -0.2503
 1839SOL    HW116979   3.974   3.429   3.160  1.8034 -0.4007 -0.4668
 1839SOL    HW216980   4.045   3.328   3.239  2.2065  2.9298 -4.0635
 1840SOL     OW16981   4.544   4.304  11.783 -0.1538 -0.2709  0.4700
 1840SOL    HW116982   4.466   4.251  11.773  1.8311 -3.1197  0.1195
 1840SOL    HW216983   4.597   4.241  11.832  0.0929  0.7558  1.5210
 1841SOL     OW16984   0.121   2.025   4.879  0.5970 -0.0836 -0.1488
 1841SOL    HW116985   0.129   2.118   4.903 -0.9020 -0.6396  2.4829
 1841SOL    HW216986   0.184   2.006   4.810 -0.7724 -4.4790 -0.1837
 1842SOL     OW16987   1.935   3.881   4.848  0.3242 -0.0171 -0.2929
 1842SOL    HW116988   1.918   3.812   4.783  1.8505 -1.3647  0.7275
 1842SOL    HW216989   1.888   3.951   4.803 -1.3254 -0.7763  0.2740
 1843SOL     OW16990   4.516   0.794   7.171 -0.7331  0.3563 -0.0157
 1843SOL    HW116991   4.607   0.823   7.169 -1.1296  1.5621 -0.7617
 1843SOL    HW216992   4.518   0.699   7.166  1.9412  0.4301 -0.1292
 1844SOL     OW16993   1.512   2.275   5.441  0.2701 -0.1184  0.5107
 1844SOL    HW116994   1.528   2.209   5.374  0.9433 -0.5154  1.0579
 1844SOL    HW216995   1.499   2.350   5.382 -0.0438  0.9846  1.9872
 1845SOL     OW16996   2.666   3.384  17.033  0.3606 -0.4137  0.2602
 1845SOL    HW116997   2.725   3.459  17.040  3.3682 -2.9807  2.6747
 1845SOL    HW216998   2.721   3.315  17.071  2.4849  1.0001 -0.2813
 1846SOL     OW16999   0.370   0.101   5.145 -0.1541 -0.3834  0.0715
 1846SOL    HW117000   0.350   0.139   5.059  2.7137  2.0762  0.5006
 1846SOL    HW217001   0.407   0.013   5.131 -0.8533 -0.7029  0.2278
 1847SOL     OW17002   4.602   2.934  14.562 -0.3193  0.0202 -0.3466
 1847SOL    HW117003   4.664   2.942  14.489 -0.2638 -4.0792 -0.7772
 1847SOL    HW217004   4.545   3.007  14.538  0.1192 -0.1850 -2.0009
 1848SOL     OW17005   0.025   2.863   2.947 -0.1732 -0.1551 -0.1402
 1848SOL    HW117006   4.655   2.878   2.957  0.5018  2.5489  2.0724
 1848SOL    HW217007   0.041   2.915   2.868  1.8399  0.6292  0.7732
 1849SOL     OW17008   2.171   2.898   6.634 -0.0364  0.2330 -0.0559
 1849SOL    HW117009   2.114   2.896   6.711  1.9218  0.5149  1.4004
 1849SOL    HW217010   2.109   2.873   6.565 -0.4318  2.0527 -0.3642
 1850SOL     OW17011   0.819   3.484   2.886 -0.4162  0.2992  0.2542
 1850SOL    HW117012   0.742   3.444   2.846 -1.1861  3.0292 -0.9994
 1850SOL    HW217013   0.789   3.495   2.976 -2.5951 -0.1065 -0.4273
 1851SOL     OW17014   3.349   3.371   1.584 -0.3704  0.1047 -0.0280
 1851SOL    HW117015   3.433   3.344   1.621 -0.6980  0.1179  0.7178
 1851SOL    HW217016   3.342   3.293   1.528 -1.0496  0.2877 -0.2049
 1852SOL     OW17017   3.903   3.704  17.429  0.0894  0.4289 -0.5755
 1852SOL    HW117018   3.985   3.660  17.407  0.1899  0.2213  0.2242
 1852SOL    HW217019   3.880   3.667  17.514 -2.1352 -0.9578 -1.8082
 1853SOL     OW17020   1.314   2.247   2.613  0.0584  0.6359  0.3399
 1853SOL    HW117021   1.263   2.168   2.594  2.3401 -1.0380  1.1466
 1853SOL    HW217022   1.247   2.310   2.586  0.5871  0.9409 -0.2543
 1854SOL     OW17023   1.629   1.785   9.286 -0.3290 -0.0834 -0.7971
 1854SOL    HW117024   1.690   1.850   9.322 -1.2941 -0.8369  2.2396
 1854SOL    HW217025   1.692   1.714   9.281  0.3045  0.4950 -0.8960
 1855SOL     OW17026   2.670   2.239   7.972 -0.4657 -0.1036  0.0780
 1855SOL    HW117027   2.665   2.317   8.028 -0.7438 -0.5338  0.6463
 1855SOL    HW217028   2.679   2.167   8.034 -0.5819 -0.0616  0.1442
 1856SOL     OW17029   3.567   3.370   7.627  0.3889 -0.2106 -0.2073
 1856SOL    HW117030   3.547   3.314   7.552 -1.4942  2.1897 -1.4904
 1856SOL    HW217031   3.520   3.322   7.694 -1.3621  1.0059 -0.5639
 1857SOL     OW17032   4.617   2.224   3.665 -0.3470  0.6597  0.6610
 1857SOL    HW117033   4.672   2.195   3.738  0.1516 -1.5679 -0.5900
 1857SOL    HW217034   4.577   2.146   3.626  0.1485  0.5591  0.3511
 1858SOL     OW17035   4.257   3.755   5.189 -0.2016 -0.0295 -0.1163
 1858SOL    HW117036   4.329   3.752   5.126  0.5527 -0.5569  0.7746
 1858SOL    HW217037   4.178   3.764   5.136 -1.2787  1.4251  1.7362
 1859SOL     OW17038   4.265   2.907   7.315 -0.2379 -0.5163 -0.4753
 1859SOL    HW117039   4.170   2.918   7.308 -0.1468  0.0399 -0.8545
 1859SOL    HW217040   4.262   2.821   7.356  0.4804  0.0331  0.7176
 1860SOL     OW17041   1.458   4.353   7.442 -0.6149 -0.2020  0.2893
 1860SOL    HW117042   1.504   4.290   7.497  1.2884  0.5610 -0.4600
 1860SOL    HW217043   1.472   4.436   7.486  1.2249  0.3686 -1.3717
 1861SOL     OW17044   0.293   4.637   8.634  0.7584  0.2499  0.4577
 1861SOL    HW117045   0.303   4.542   8.645 -0.0946  0.1361  0.2571
 1861SOL    HW217046   0.288   4.643   8.539 -0.7405  0.3044  0.5399
 1862SOL     OW17047   3.480   3.885   5.215 -0.2430  0.0638 -0.2777
 1862SOL    HW117048   3.390   3.915   5.203 -0.9838 -1.8479  0.5871
 1862SOL    HW217049   3.463   3.799   5.254  1.0711 -0.4292 -0.7964
 1863SOL     OW17050   4.433   1.278   5.149  0.1313 -0.2493  0.4022
 1863SOL    HW117051   4.382   1.337   5.094  0.3536 -0.7471 -0.3316
 1863SOL    HW217052   4.410   1.324   5.230  2.1194  0.5416  0.5064
 1864SOL     OW17053   3.170   1.567   7.569 -0.2087  0.2350  0.0538
 1864SOL    HW117054   3.212   1.613   7.641  1.3278 -1.6711  0.3599
 1864SOL    HW217055   3.109   1.506   7.612  0.5605 -1.1329 -0.7881
 1865SOL     OW17056   3.580   2.503   1.603  0.0019 -0.3024  0.5324
 1865SOL    HW117057   3.599   2.444   1.530 -0.5452 -0.4485  0.5093
 1865SOL    HW217058   3.604   2.439   1.670 -0.8200 -3.1732 -1.9332
 1866SOL     OW17059   4.515   4.370   9.552 -0.2240  0.2019  0.1736
 1866SOL    HW117060   4.543   4.425   9.625 -0.7008  0.0337  0.4810
 1866SOL    HW217061   4.563   4.290   9.572  0.2527  0.6230  0.7058
 1867SOL     OW17062   0.880   0.249   8.773 -0.7115  0.1040  0.4006
 1867SOL    HW117063   0.845   0.244   8.684  2.3264  1.5402 -0.8650
 1867SOL    HW217064   0.943   0.320   8.769 -0.2822 -0.3014  0.0523
 1868SOL     OW17065   2.578   1.907   6.392 -0.4023 -0.0547  0.0776
 1868SOL    HW117066   2.619   1.983   6.432  0.3115  0.6769 -2.0679
 1868SOL    HW217067   2.514   1.875   6.455 -1.8586  0.3309 -1.2056
 1869SOL     OW17068   3.635   4.647   8.892 -0.0067 -0.0351 -0.9764
 1869SOL    HW117069   3.668   4.563   8.861 -2.5447 -2.0663  1.8405
 1869SOL    HW217070   3.702   4.708   8.862  0.9356  1.3130  3.7832
 1870SOL     OW17071   0.271   2.764  15.433  0.2901 -0.2158 -0.4146
 1870SOL    HW117072   0.181   2.768  15.400 -0.9747  1.9801  3.3378
 1870SOL    HW217073   0.271   2.839  15.493  0.2893  1.3357 -2.3519
 1871SOL     OW17074   1.515   3.817   3.253 -0.1791 -0.6052  0.0627
 1871SOL    HW117075   1.433   3.808   3.204 -0.1800  3.1553 -0.6362
 1871SOL    HW217076   1.547   3.727   3.248  1.6252  0.1187 -1.2979
 1872SOL     OW17077   0.275   4.093   3.456 -0.2647  0.3441  0.0779
 1872SOL    HW117078   0.197   4.062   3.409  0.5040 -2.5260  0.6905
 1872SOL    HW217079   0.241   4.161   3.513  1.7693 -0.0911  1.8017
 1873SOL     OW17080   4.228   0.731   8.522 -0.4899 -0.4244  0.5615
 1873SOL    HW117081   4.216   0.662   8.587 -0.1377 -1.0039  0.0227
 1873SOL    HW217082   4.275   0.803   8.565 -0.5258 -0.8945  1.3872
 1874SOL     OW17083   0.901   1.014   7.063  0.0796  0.6693  0.5143
 1874SOL    HW117084   0.927   1.101   7.033 -1.4499  0.3286 -1.8068
 1874SOL    HW217085   0.806   1.022   7.054  0.1201 -0.7924 -1.3276
 1875SOL     OW17086   3.338   3.181   8.722  0.2029  0.1945  0.2807
 1875SOL    HW117087   3.334   3.091   8.754  2.0866 -0.0297 -0.1053
 1875SOL    HW217088   3.338   3.161   8.628  0.2861  2.1832 -0.1389
 1876SOL     OW17089   1.466   0.582   1.936 -0.3869  0.0152  0.5578
 1876SOL    HW117090   1.433   0.582   1.846  1.7162 -0.9601 -0.2012
 1876SOL    HW217091   1.453   0.670   1.971  1.4793  0.8844 -1.0049
 1877SOL     OW17092   0.783   4.344   7.417  0.3866  0.7209 -0.1434
 1877SOL    HW117093   0.746   4.259   7.393 -0.6968  0.8432  1.0664
 1877SOL    HW217094   0.769   4.396   7.337  1.0931  3.7597  1.6777
 1878SOL     OW17095   3.911   0.007  12.024  0.1214  0.6113  0.0100
 1878SOL    HW117096   3.886   4.684  11.944  1.1349 -0.6688  0.4322
 1878SOL    HW217097   3.975   4.674  12.068 -1.2929 -2.1033 -1.4815
 1879SOL     OW17098   3.642   2.851   3.853  0.4846  0.1828 -0.0927
 1879SOL    HW117099   3.663   2.847   3.946 -1.8757  0.8567  0.4607
 1879SOL    HW217100   3.635   2.945   3.838 -1.2779 -0.1083 -1.0757
 1880SOL     OW17101   1.554   1.884   0.290 -0.7142 -0.6097 -0.5660
 1880SOL    HW117102   1.521   1.810   0.341  0.5409 -1.3870 -0.8619
 1880SOL    HW217103   1.495   1.956   0.309  0.1885  0.5908 -2.2857
 1881SOL     OW17104   1.356   0.521   1.200  0.1468 -0.1924  0.0737
 1881SOL    HW117105   1.340   0.542   1.108  0.5539  0.0998  0.0707
 1881SOL    HW217106   1.420   0.585   1.230 -1.4665  1.2954  0.3989
 1882SOL     OW17107   1.498   4.408  17.175 -1.0620  0.0978 -0.1252
 1882SOL    HW117108   1.433   4.467  17.136  0.4514  1.1267 -1.0965
 1882SOL    HW217109   1.573   4.426  17.118  0.6718 -2.4321  1.3452
 1883SOL     OW17110   3.005   4.598   5.965 -0.5951 -0.0164  0.3559
 1883SOL    HW117111   3.083   4.653   5.954 -1.2511  1.2995  2.2932
 1883SOL    HW217112   2.949   4.648   6.025 -0.8983  0.1858 -0.1019
 1884SOL     OW17113   4.694   0.622   7.502  0.2650 -0.0123  0.0050
 1884SOL    HW117114   4.698   0.715   7.523 -0.4450 -0.7075  3.1107
 1884SOL    HW217115   4.705   0.575   7.584  1.3745 -0.6900 -0.5310
 1885SOL     OW17116   2.235   2.504  16.219  0.5415  0.8701  0.2597
 1885SOL    HW117117   2.235   2.594  16.250 -1.4446  0.9187  0.0977
 1885SOL    HW217118   2.151   2.472  16.251  0.9866  0.0847  0.6668
 1886SOL     OW17119   4.347   1.085   9.153 -0.1133 -0.0979  0.4038
 1886SOL    HW117120   4.433   1.051   9.125 -1.1739 -1.9798 -0.5227
 1886SOL    HW217121   4.286   1.017   9.127  1.8672 -1.3208 -1.1141
 1887SOL     OW17122   3.355   3.383  10.869 -0.0795  0.3454  0.1776
 1887SOL    HW117123   3.375   3.335  10.788 -0.0079  0.9756 -0.1766
 1887SOL    HW217124   3.306   3.458  10.836  1.0005 -0.4045 -3.1360
 1888SOL     OW17125   3.604   3.449  12.569 -0.0722  0.0353 -0.1410
 1888SOL    HW117126   3.509   3.434  12.578  0.0239 -0.6012 -0.1875
 1888SOL    HW217127   3.600   3.524  12.628  2.0722 -0.4481  0.5957
 1889SOL     OW17128   3.445   3.545  14.226 -0.2002  0.1738 -0.2696
 1889SOL    HW117129   3.497   3.555  14.306 -0.8141 -0.7861  0.2492
 1889SOL    HW217130   3.408   3.633  14.224  0.0179  0.2752  0.3379
 1890SOL     OW17131   1.913   3.442   5.788 -0.6118  0.1405  0.3905
 1890SOL    HW117132   1.925   3.519   5.844 -0.2527  2.2501 -2.6268
 1890SOL    HW217133   1.967   3.369   5.819 -0.7389  0.2613  0.8907
 1891SOL     OW17134   0.578   3.366   8.194  0.2665 -0.6867  0.7006
 1891SOL    HW117135   0.647   3.315   8.236  0.5532 -1.8143 -1.0915
 1891SOL    HW217136   0.630   3.441   8.165 -3.3660  2.1899  1.6337
 1892SOL     OW17137   1.155   2.895   4.344 -0.5158 -0.2659 -0.2077
 1892SOL    HW117138   1.185   2.804   4.346 -2.2088 -0.8150 -0.2180
 1892SOL    HW217139   1.133   2.905   4.437  0.2625 -2.0081  0.1676
 1893SOL     OW17140   2.733   1.018   4.160 -0.2131 -0.4445  0.4953
 1893SOL    HW117141   2.775   0.947   4.112 -0.2910  1.2592 -2.0946
 1893SOL    HW217142   2.764   0.985   4.245  0.4326 -0.5726  0.2116
 1894SOL     OW17143   2.548   2.186   0.926  0.3485  0.2765 -0.2182
 1894SOL    HW117144   2.502   2.110   0.891  2.8355 -1.2656 -0.0404
 1894SOL    HW217145   2.576   2.159   1.014 -2.4219 -0.0495  0.5679
 1895SOL     OW17146   4.599   2.893   3.693  0.2783  0.1985  0.1666
 1895SOL    HW117147   4.561   2.829   3.633  3.1294 -1.7642  0.4278
 1895SOL    HW217148   4.549   2.974   3.681 -0.7837 -0.5051 -0.0589
 1896SOL     OW17149   1.128   1.733   1.773 -0.5092 -0.3715  0.1563
 1896SOL    HW117150   1.199   1.785   1.810 -0.6420 -0.2006  0.1717
 1896SOL    HW217151   1.164   1.646   1.795 -0.8135 -0.6867 -0.5951
 1897SOL     OW17152   2.943   1.423   3.519 -0.1874 -0.1015  0.1006
 1897SOL    HW117153   3.000   1.402   3.593 -0.9605 -1.0335  0.4283
 1897SOL    HW217154   2.947   1.345   3.463 -0.4527 -2.3573  3.2041
 1898SOL     OW17155   1.982   2.520  11.124 -0.1794  0.3341  0.2792
 1898SOL    HW117156   1.929   2.550  11.050  1.3740 -0.0329 -0.9759
 1898SOL    HW217157   2.047   2.473  11.073 -0.0377  1.7502 -0.8640
 1899SOL     OW17158   2.857   3.234   4.963  0.1625 -0.0650  0.1238
 1899SOL    HW117159   2.880   3.254   4.873 -0.0592 -0.7832 -0.0908
 1899SOL    HW217160   2.838   3.141   4.948 -0.8336  0.3650 -1.2544
 1900SOL     OW17161   0.599   1.519   3.904  0.1081  0.0141 -0.2497
 1900SOL    HW117162   0.689   1.545   3.924  0.3910 -1.7659  0.7910
 1900SOL    HW217163   0.558   1.597   3.940  1.2815  0.9065 -0.8562
 1901SOL     OW17164   4.486   2.452  12.011 -0.4994 -0.3077  0.0806
 1901SOL    HW117165   4.391   2.459  12.021 -0.6600 -1.5420 -0.5639
 1901SOL    HW217166   4.507   2.533  11.964  0.4044 -0.8565 -0.4858
 1902SOL     OW17167   1.817   1.145  10.942  0.2137 -0.5530 -0.4475
 1902SOL    HW117168   1.779   1.057  10.951 -1.8431  0.5636  1.7101
 1902SOL    HW217169   1.880   1.126  10.873 -0.0232 -0.0270 -0.7987
 1903SOL     OW17170   2.777   0.797   7.019  0.0716  0.6655 -0.6125
 1903SOL    HW117171   2.749   0.783   6.928  0.5588  0.3787 -0.7158
 1903SOL    HW217172   2.769   0.706   7.044 -0.7599  0.9284  0.0692
 1904SOL     OW17173   3.165   2.709   6.312  0.1130  0.3942  0.0667
 1904SOL    HW117174   3.231   2.641   6.298  1.7488  1.5187  2.4756
 1904SOL    HW217175   3.139   2.739   6.225 -1.1600 -2.8865 -0.6867
 1905SOL     OW17176   3.145   0.757   6.202  0.0270  0.3709 -0.1046
 1905SOL    HW117177   3.140   0.818   6.276  0.4879 -1.0349  1.0878
 1905SOL    HW217178   3.068   0.771   6.146 -0.3333  0.9442  0.5387
 1906SOL     OW17179   2.611   3.869   4.975 -0.5052 -0.2065 -0.6873
 1906SOL    HW117180   2.568   3.863   4.890 -1.6861  0.1789 -0.1186
 1906SOL    HW217181   2.553   3.812   5.026 -0.4298  0.4818  0.1614
 1907SOL     OW17182   2.035   4.072   7.497  0.2761  0.0915  0.3097
 1907SOL    HW117183   2.116   4.021   7.500  0.1068 -0.0978  1.7102
 1907SOL    HW217184   1.977   4.012   7.545  0.7038  0.4994  1.3317
 1908SOL     OW17185   1.436   0.332   3.451  0.1624 -0.3628 -0.7777
 1908SOL    HW117186   1.451   0.268   3.521  1.4005  0.6307 -0.1339
 1908SOL    HW217187   1.444   0.273   3.377 -2.2013 -0.1819 -1.1613
 1909SOL     OW17188   2.974   0.514  14.614 -0.7166 -0.0586  0.2826
 1909SOL    HW117189   3.049   0.467  14.652 -0.9634 -0.4952  0.2323
 1909SOL    HW217190   2.901   0.516  14.676 -0.8636  1.9395  0.0457
 1910SOL     OW17191   0.087   2.981   0.210 -0.9086  0.0399 -0.3964
 1910SOL    HW117192   0.007   2.960   0.259 -2.4907  2.9840 -1.6851
 1910SOL    HW217193   0.146   2.991   0.284 -2.1561 -0.7021  0.7095
 1911SOL     OW17194   4.208   3.485   8.134  0.5091  0.1362  0.1252
 1911SOL    HW117195   4.245   3.488   8.223  2.8136  0.0905 -0.8423
 1911SOL    HW217196   4.153   3.563   8.128 -2.3555 -1.8119  0.4023
 1912SOL     OW17197   3.358   1.707   4.169  0.0538  0.3078 -0.5548
 1912SOL    HW117198   3.413   1.672   4.099  1.8911  3.0871 -0.4899
 1912SOL    HW217199   3.294   1.762   4.125 -0.5086 -0.1395 -0.3058
 1913SOL     OW17200   0.944   0.328  15.106  0.2199 -0.3622  0.5589
 1913SOL    HW117201   0.991   0.410  15.122  0.8193 -0.4172 -0.8466
 1913SOL    HW217202   0.937   0.285  15.191  2.3709 -1.4988  0.1711
 1914SOL     OW17203   2.341   0.940   3.399  0.3688 -0.4172  0.2291
 1914SOL    HW117204   2.259   0.977   3.433 -0.4445 -1.8602 -0.1691
 1914SOL    HW217205   2.373   0.881   3.467  0.4289 -2.1978 -1.3423
 1915SOL     OW17206   3.246   0.409   9.595  0.3535  0.2608 -0.1781
 1915SOL    HW117207   3.229   0.483   9.654 -0.1676 -0.9050  1.1483
 1915SOL    HW217208   3.198   0.427   9.514 -0.8507 -2.0873  0.0010
 1916SOL     OW17209   4.019   3.068   2.735 -0.2778  0.5083  0.0811
 1916SOL    HW117210   3.987   2.978   2.743  0.9771  0.1189  0.8164
 1916SOL    HW217211   4.053   3.087   2.823 -0.0513  1.1365 -0.1464
 1917SOL     OW17212   0.560   2.305  16.318 -0.4041 -0.3610  0.5282
 1917SOL    HW117213   0.609   2.317  16.236  0.7524 -2.2914  0.9214
 1917SOL    HW217214   0.634   2.300  16.378  0.4567  3.2881 -0.2299
 1918SOL     OW17215   3.625   3.478  10.673  0.4216  0.4524 -0.1090
 1918SOL    HW117216   3.685   3.547  10.644  1.2839 -0.4526 -0.4680
 1918SOL    HW217217   3.679   3.402  10.652  1.0016  0.1320  2.4920
 1919SOL     OW17218   2.494   1.556   7.973  0.2123  0.0453  0.6738
 1919SOL    HW117219   2.406   1.559   7.935 -0.3349 -0.3525  1.8831
 1919SOL    HW217220   2.556   1.569   7.902  0.0293  0.3798  0.5735
 1920SOL     OW17221   3.847   1.289  12.455  0.0564 -0.0472  0.0676
 1920SOL    HW117222   3.901   1.280  12.376 -0.3110 -0.4480 -0.1394
 1920SOL    HW217223   3.895   1.368  12.479  0.0078 -0.2954  0.9763
 1921SOL     OW17224   0.860   2.675   7.869 -0.3293 -0.0364  0.0183
 1921SOL    HW117225   0.854   2.720   7.953  1.1706  0.9853 -0.4101
 1921SOL    HW217226   0.940   2.714   7.834 -0.0852 -0.3152  0.2724
 1922SOL     OW17227   4.532   3.073   5.880 -0.8069  0.0919  0.2425
 1922SOL    HW117228   4.557   3.114   5.797  0.1842 -1.4014 -0.2126
 1922SOL    HW217229   4.504   3.150   5.928  2.7518  0.5488  1.5476
 1923SOL     OW17230   1.415   0.039   5.881  0.2139  0.3080  0.2940
 1923SOL    HW117231   1.377   0.117   5.842 -0.4439 -0.0329  0.2602
 1923SOL    HW217232   1.435   0.078   5.965  2.0602 -1.9808  0.9359
 1924SOL     OW17233   1.730   1.628  10.297  0.6628 -0.2713 -0.4959
 1924SOL    HW117234   1.747   1.599  10.386  0.5781  0.6100 -0.1915
 1924SOL    HW217235   1.689   1.554  10.252  1.5138 -0.7505 -0.4698
 1925SOL     OW17236   2.714   4.438   8.028  0.2990 -0.1056  0.4177
 1925SOL    HW117237   2.790   4.469   8.078  0.0183  2.1513 -0.5682
 1925SOL    HW217238   2.754   4.452   7.942 -1.2009  1.6559 -0.0041
 1926SOL     OW17239   0.117   3.015   3.730  0.2827  0.0940  0.0936
 1926SOL    HW117240   0.184   2.959   3.770 -0.3531 -0.3825  0.4776
 1926SOL    HW217241   0.051   2.952   3.702 -0.1973  0.9384 -0.6749
 1927SOL     OW17242   3.968   3.368   8.236 -0.1325  0.3485  0.2046
 1927SOL    HW117243   4.043   3.394   8.182 -0.7371 -0.2266 -0.9078
 1927SOL    HW217244   4.003   3.379   8.324 -1.5694  0.0044  0.8068
 1928SOL     OW17245   3.453   0.562  14.710 -0.5289 -0.4169  0.8626
 1928SOL    HW117246   3.489   0.599  14.791 -1.5843 -1.5969  1.8734
 1928SOL    HW217247   3.374   0.519  14.742 -2.2999  1.4562 -1.0120
 1929SOL     OW17248   4.465   3.130   3.353 -0.1407 -0.1392 -0.0785
 1929SOL    HW117249   4.488   3.129   3.446  0.2643 -0.5544 -0.1832
 1929SOL    HW217250   4.506   3.212   3.325 -0.7960 -0.7896 -2.9164
 1930SOL     OW17251   2.911   2.265   5.022  0.4605 -0.5288  0.0744
 1930SOL    HW117252   2.999   2.269   5.058  0.0512 -0.5289  1.0816
 1930SOL    HW217253   2.929   2.216   4.942 -1.8061 -0.5974 -0.3927
 1931SOL     OW17254   1.081   4.505   9.578  0.3880  0.1353  0.0967
 1931SOL    HW117255   1.158   4.472   9.532 -0.4104 -1.7017  0.0697
 1931SOL    HW217256   1.017   4.473   9.515  1.8457 -1.8490 -0.3935
 1932SOL     OW17257   2.318   3.679   5.276  0.1523 -0.5273 -0.1750
 1932SOL    HW117258   2.329   3.650   5.366  2.2547  1.8749  0.3291
 1932SOL    HW217259   2.405   3.690   5.239  0.9537 -1.2597  1.5255
 1933SOL     OW17260   1.576   1.724   9.899 -0.0288  0.2336  0.2636
 1933SOL    HW117261   1.493   1.767   9.882  0.0518  0.9840  1.7106
 1933SOL    HW217262   1.573   1.635   9.863  2.3956 -0.5102  1.8508
 1934SOL     OW17263   2.129   0.240   4.480  0.5277  0.0469  0.2379
 1934SOL    HW117264   2.064   0.291   4.432 -0.1386 -1.1561 -0.1577
 1934SOL    HW217265   2.073   0.184   4.534  1.0142  0.7128  1.4494
 1935SOL     OW17266   1.949   1.781   9.830 -0.6288  0.2542 -0.0279
 1935SOL    HW117267   1.916   1.782   9.920  0.6545  0.9091  0.4401
 1935SOL    HW217268   1.876   1.749   9.777  0.6094 -1.6266 -0.6461
 1936SOL     OW17269   2.402   0.966  10.689  0.5936 -0.2258  0.4011
 1936SOL    HW117270   2.333   0.900  10.700 -0.6567  0.8791 -1.0042
 1936SOL    HW217271   2.352   1.046  10.702 -2.7941 -2.0604 -1.2276
 1937SOL     OW17272   4.442   3.561   9.001 -0.3891 -0.2658  0.4068
 1937SOL    HW117273   4.407   3.480   9.037 -0.2778 -0.8201 -0.7536
 1937SOL    HW217274   4.365   3.618   9.007 -0.6525 -0.7260  1.3392
 1938SOL     OW17275   4.291   3.742   1.920  0.4077 -0.0169  0.5001
 1938SOL    HW117276   4.374   3.742   1.966 -1.7494  0.3618  4.4235
 1938SOL    HW217277   4.238   3.688   1.978  0.2661 -0.0412  0.3476
 1939SOL     OW17278   1.950   3.847   5.107  0.3674 -0.2466 -0.8309
 1939SOL    HW117279   1.937   3.881   5.018 -0.8339  0.2263 -0.4720
 1939SOL    HW217280   1.983   3.759   5.089 -1.3802 -1.1332  0.3126
 1940SOL     OW17281   0.177   0.334   6.061  0.8700 -0.3848  0.2960
 1940SOL    HW117282   0.180   0.256   6.117  0.1717 -1.2866 -0.9179
 1940SOL    HW217283   0.269   0.356   6.043  0.6537  0.8963  0.7351
 1941SOL     OW17284   4.547   1.637   8.302 -0.8374 -0.0740 -0.3579
 1941SOL    HW117285   4.482   1.601   8.362  0.2420 -0.1509  0.7673
 1941SOL    HW217286   4.631   1.599   8.327 -0.8460  0.0987 -0.0772
 1942SOL     OW17287   2.258   3.399   5.834 -0.0751 -0.5167  0.0922
 1942SOL    HW117288   2.194   3.328   5.836  0.7314 -1.2401  0.0741
 1942SOL    HW217289   2.304   3.376   5.754 -0.3722 -1.4852  0.1950
 1943SOL     OW17290   4.060   1.790  12.706  0.6202 -0.0140  0.3695
 1943SOL    HW117291   3.987   1.748  12.752  2.3514 -1.1420  2.0964
 1943SOL    HW217292   4.035   1.785  12.614 -1.1877  2.0324  0.7574
 1944SOL     OW17293   3.938   1.504   9.145 -0.1351  0.1875  0.9235
 1944SOL    HW117294   3.868   1.528   9.085 -0.0103 -0.0638  0.6797
 1944SOL    HW217295   3.944   1.588   9.191  0.9454  1.2586 -1.2029
 1945SOL     OW17296   0.451   4.347  13.853  0.0940  0.0873 -0.3359
 1945SOL    HW117297   0.433   4.372  13.943  2.4029  1.7403 -0.3501
 1945SOL    HW217298   0.389   4.408  13.813  0.3074 -0.6076 -1.7497
 1946SOL     OW17299   3.150   4.486   1.396  0.4444  0.2949  0.0701
 1946SOL    HW117300   3.238   4.459   1.369 -0.4575 -2.2994 -0.2531
 1946SOL    HW217301   3.101   4.459   1.318 -1.7492 -0.0027  1.5533
 1947SOL     OW17302   2.761   2.270   7.488 -0.1310 -0.3760 -0.1092
 1947SOL    HW117303   2.725   2.197   7.539 -0.8328 -0.1065 -0.2322
 1947SOL    HW217304   2.731   2.332   7.554 -1.1530  2.6162 -3.4410
 1948SOL     OW17305   0.733   1.292  12.477 -0.3723 -0.1132 -0.1232
 1948SOL    HW117306   0.787   1.221  12.443 -1.2833 -0.7876 -0.1375
 1948SOL    HW217307   0.715   1.265  12.567 -0.2570  1.7583  0.4605
 1949SOL     OW17308   1.657   3.108   4.727  0.3136 -0.4967  0.2507
 1949SOL    HW117309   1.579   3.121   4.781 -0.0094  0.3941 -0.4397
 1949SOL    HW217310   1.629   3.135   4.640  0.2461 -1.5935 -0.0651
 1950SOL     OW17311   0.810   3.894   8.825 -0.5019  0.2313 -0.3594
 1950SOL    HW117312   0.724   3.915   8.789 -0.4863 -2.5021 -1.9944
 1950SOL    HW217313   0.856   3.976   8.808 -0.9522  0.9698  1.9105
 1951SOL     OW17314   0.408   2.137   5.806 -0.1870 -0.0711  0.2495
 1951SOL    HW117315   0.402   2.146   5.901 -2.3470  2.3886 -0.1239
 1951SOL    HW217316   0.314   2.135   5.788 -0.2716  0.0433  0.6915
 1952SOL     OW17317   3.601   2.767   5.705 -0.0813  0.4614  0.5316
 1952SOL    HW117318   3.566   2.838   5.651  1.8355  0.9206 -0.0751
 1952SOL    HW217319   3.653   2.726   5.635 -1.2633  0.5101 -0.3862
 1953SOL     OW17320   2.880   4.530   6.290 -0.4225 -0.4386 -0.6250
 1953SOL    HW117321   2.829   4.543   6.370 -0.5141  0.8007 -0.8712
 1953SOL    HW217322   2.804   4.517   6.233  0.6559 -2.1129 -1.6615
 1954SOL     OW17323   3.785   2.206   8.050 -0.3250  0.0348 -0.0206
 1954SOL    HW117324   3.868   2.214   8.098  1.1316  0.0199 -2.5101
 1954SOL    HW217325   3.745   2.134   8.099 -0.7927 -0.5807 -1.3199
 1955SOL     OW17326   2.864   0.412   9.549 -0.0378  1.0315 -0.2369
 1955SOL    HW117327   2.866   0.394   9.455 -4.4381  1.3857 -0.3730
 1955SOL    HW217328   2.793   0.476   9.554 -0.4880  0.4099  1.3599
 1956SOL     OW17329   2.180   1.699   6.783 -0.5117 -0.1075 -1.1348
 1956SOL    HW117330   2.239   1.756   6.831 -1.9841  0.1664  0.3467
 1956SOL    HW217331   2.108   1.682   6.844  1.1980 -3.4176 -0.0651
 1957SOL     OW17332   2.247   3.432  16.945  0.1651 -0.1858  0.7434
 1957SOL    HW117333   2.319   3.413  17.005  0.2684 -1.7700  0.1146
 1957SOL    HW217334   2.184   3.371  16.983  0.5159 -1.4510 -0.7153
 1958SOL     OW17335   2.151   4.329   8.046  0.1560  0.1526  0.1920
 1958SOL    HW117336   2.106   4.335   7.962 -1.2342 -0.7380  0.8531
 1958SOL    HW217337   2.243   4.327   8.021 -0.0907  0.3559 -0.7407
 1959SOL     OW17338   1.291   3.706   8.539  1.1477  0.0426  0.1401
 1959SOL    HW117339   1.288   3.636   8.605 -0.2938  1.3327  1.4185
 1959SOL    HW217340   1.227   3.687   8.470  0.6044  2.7846 -0.1264
 1960SOL     OW17341   3.839   1.041   5.732 -1.2804 -0.1896  0.4468
 1960SOL    HW117342   3.865   0.965   5.783 -1.1616 -0.7984 -0.5066
 1960SOL    HW217343   3.870   1.111   5.789 -0.2167 -1.4928  1.4488
 1961SOL     OW17344   0.838   0.782   9.721  0.1496  0.0890 -0.3163
 1961SOL    HW117345   0.804   0.706   9.769  0.8825  0.3761  0.6484
 1961SOL    HW217346   0.758   0.806   9.673 -0.1909 -1.7716 -0.6670
 1962SOL     OW17347   3.305   4.530   7.542  0.1382  0.4600 -0.2821
 1962SOL    HW117348   3.355   4.572   7.612 -1.0285 -1.0809  1.4838
 1962SOL    HW217349   3.348   4.553   7.459  1.9728 -0.9005  0.3016
 1963SOL     OW17350   2.641   4.148   4.066 -0.5298  0.6039 -0.8072
 1963SOL    HW117351   2.687   4.206   4.127  0.9553 -0.0589 -1.3078
 1963SOL    HW217352   2.608   4.091   4.136 -0.3590  0.0870 -1.1537
 1964SOL     OW17353   0.150   2.522   4.724 -0.5555  0.2137 -0.5587
 1964SOL    HW117354   0.065   2.533   4.681 -0.9109 -1.6541 -0.3557
 1964SOL    HW217355   0.142   2.427   4.732 -0.0003  0.1320 -0.9724
 1965SOL     OW17356   0.980   0.476   3.184 -0.0073 -0.1531  0.3856
 1965SOL    HW117357   0.981   0.500   3.091 -0.4330 -0.3750  0.3237
 1965SOL    HW217358   0.890   0.445   3.198  0.7002 -1.1762  2.6194
 1966SOL     OW17359   3.603   3.091   7.025  0.2188 -0.2178 -0.1397
 1966SOL    HW117360   3.516   3.130   7.033  0.1322 -0.3541 -0.4049
 1966SOL    HW217361   3.610   3.068   6.932 -0.7264  0.8590 -0.4737
 1967SOL     OW17362   0.963   0.718   1.029  0.3416 -0.2397 -0.5007
 1967SOL    HW117363   1.051   0.745   1.056 -0.5114  1.6859  0.3684
 1967SOL    HW217364   0.941   0.657   1.099 -0.5058  0.2641 -0.3235
 1968SOL     OW17365   2.705   1.683   7.013  0.3359  1.0249 -0.1561
 1968SOL    HW117366   2.643   1.749   7.045  0.6819  0.4464  1.7443
 1968SOL    HW217367   2.701   1.627   7.091 -3.4572  1.0282 -0.3357
 1969SOL     OW17368   3.202   4.188   7.993 -0.2036  0.0436  0.3718
 1969SOL    HW117369   3.180   4.262   8.051  1.1021  0.7733 -0.0520
 1969SOL    HW217370   3.129   4.206   7.934  0.9548  0.2184 -1.0082
 1970SOL     OW17371   4.405   1.699   6.886 -0.6836  0.5477  0.3031
 1970SOL    HW117372   4.430   1.622   6.936 -1.4041  0.6704  0.8476
 1970SOL    HW217373   4.368   1.651   6.811 -2.6511  2.7998 -0.1669
 1971SOL     OW17374   4.009   0.388   5.754 -0.3722  0.2019 -0.7836
 1971SOL    HW117375   3.915   0.407   5.749 -0.5328 -0.4914 -0.3533
 1971SOL    HW217376   4.012   0.318   5.690  1.9849  0.4252 -0.9159
 1972SOL     OW17377   0.212   1.042   5.845 -0.4415 -0.1522  0.0709
 1972SOL    HW117378   0.150   1.049   5.772  2.2265  1.5718 -2.0264
 1972SOL    HW217379   0.228   0.948   5.852 -2.9956 -0.6867 -1.3871
 1973SOL     OW17380   4.342   2.962   2.176  0.3741  0.1292  0.5677
 1973SOL    HW117381   4.285   3.037   2.192  1.4954  1.3734 -1.2756
 1973SOL    HW217382   4.392   2.967   2.257  2.5621  1.9833 -0.8998
 1974SOL     OW17383   0.488   4.224   4.435 -0.3025  0.1981  0.1694
 1974SOL    HW117384   0.534   4.295   4.480  2.3112  0.1091 -2.4144
 1974SOL    HW217385   0.511   4.154   4.496  0.6591  1.5573  1.3465
 1975SOL     OW17386   1.421   0.246   3.796 -0.4343 -0.6970  0.4774
 1975SOL    HW117387   1.425   0.336   3.829 -1.2916 -1.5177  2.8169
 1975SOL    HW217388   1.515   0.228   3.797  0.0955  1.9337 -1.1468
 1976SOL     OW17389   3.591   3.194   0.982 -0.2014  0.4155  0.4798
 1976SOL    HW117390   3.602   3.182   0.888  0.3467 -0.8987  0.6974
 1976SOL    HW217391   3.532   3.269   0.984  1.2944  1.5848  0.3850
 1977SOL     OW17392   1.648   1.599   6.397  0.6321 -0.7043  0.0942
 1977SOL    HW117393   1.579   1.597   6.463 -1.1258 -1.0889 -1.7860
 1977SOL    HW217394   1.618   1.677   6.351 -0.7614  1.0685  4.0033
 1978SOL     OW17395   2.697   3.934   5.667 -0.4943 -0.4290  0.3751
 1978SOL    HW117396   2.607   3.935   5.699 -0.9118  0.3172 -0.7862
 1978SOL    HW217397   2.728   4.016   5.704 -0.6475  0.4871 -1.5103
 1979SOL     OW17398   1.104   2.260   7.827  0.0172 -0.2470  0.0621
 1979SOL    HW117399   1.069   2.172   7.839  1.9423 -0.7140  2.2894
 1979SOL    HW217400   1.198   2.255   7.805  0.2884 -2.0478  1.6830
 1980SOL     OW17401   3.572   2.135   5.103  0.6443  0.1593  0.4985
 1980SOL    HW117402   3.651   2.109   5.152  0.6806  1.0480  0.9203
 1980SOL    HW217403   3.507   2.082   5.149  1.1885 -1.6110 -0.7829
 1981SOL     OW17404   0.486   4.658   7.737  0.1691  0.1484 -0.4757
 1981SOL    HW117405   0.521   4.670   7.826 -0.0541 -2.2113 -0.0643
 1981SOL    HW217406   0.555   4.601   7.705  1.3272  1.2857 -0.0138
 1982SOL     OW17407   4.227   1.478   0.173 -0.8257  0.3903 -0.0064
 1982SOL    HW117408   4.261   1.401   0.219 -1.0564  0.0891 -0.3437
 1982SOL    HW217409   4.205   1.457   0.083 -0.2867  0.6372 -0.1952
 1983SOL     OW17410   3.834   0.196   7.318 -0.1954 -0.2847 -0.5823
 1983SOL    HW117411   3.805   0.287   7.323 -0.7310 -0.5027  0.3489
 1983SOL    HW217412   3.815   0.165   7.230 -1.4910  0.5558 -0.5961
 1984SOL     OW17413   1.728   2.460   6.518  0.3737 -0.4523 -0.1015
 1984SOL    HW117414   1.759   2.429   6.433  0.1356 -1.0912  0.0394
 1984SOL    HW217415   1.796   2.426   6.576 -0.2669 -0.8361  0.4300
 1985SOL     OW17416   1.757   3.598  16.402 -0.0296  0.1864  0.3937
 1985SOL    HW117417   1.800   3.514  16.415 -1.6982 -1.2452 -3.5653
 1985SOL    HW217418   1.803   3.637  16.328  0.1171 -2.4491 -0.8798
 1986SOL     OW17419   1.231   1.032   7.008  0.1104 -0.7201 -1.0142
 1986SOL    HW117420   1.257   1.063   6.921  1.0911 -0.3207 -0.5872
 1986SOL    HW217421   1.258   1.107   7.061 -0.4824 -0.9018 -0.4588
 1987SOL     OW17422   0.224   4.404   8.237  0.2775  0.2583 -0.4692
 1987SOL    HW117423   0.283   4.336   8.270  0.1180 -0.3139 -1.3655
 1987SOL    HW217424   0.280   4.418   8.161 -0.0539 -0.6042 -0.8682
 1988SOL     OW17425   0.823   3.028   2.983 -0.0340 -0.0805  0.6754
 1988SOL    HW117426   0.831   2.983   3.067 -0.5531 -2.0681 -0.3498
 1988SOL    HW217427   0.742   3.077   2.998 -1.1918 -1.6592 -0.4123
 1989SOL     OW17428   2.161   2.678   4.639 -0.1206 -0.0499 -0.4887
 1989SOL    HW117429   2.093   2.704   4.702  0.4506  1.3931 -0.4557
 1989SOL    HW217430   2.146   2.735   4.563  0.2991  0.1383 -0.4262
 1990SOL     OW17431   1.709   1.706  12.404 -0.1529  0.1165  0.2285
 1990SOL    HW117432   1.649   1.657  12.347 -3.0262  0.7104  2.7369
 1990SOL    HW217433   1.715   1.639  12.472 -0.2971  0.2987  0.4193
 1991SOL     OW17434   4.154   0.659  16.565 -0.3233  0.4258 -0.4441
 1991SOL    HW117435   4.128   0.645  16.474 -0.9939 -1.9399  0.1329
 1991SOL    HW217436   4.157   0.570  16.599 -1.1650 -0.4638 -2.7096
 1992SOL     OW17437   2.536   2.706  10.092  0.1304 -0.3261  0.3879
 1992SOL    HW117438   2.591   2.635  10.128  0.7427 -0.0762 -0.0596
 1992SOL    HW217439   2.548   2.779  10.152  3.1124 -0.5080  0.0075
 1993SOL     OW17440   4.595   0.513   9.132  0.2687 -0.6915 -0.5302
 1993SOL    HW117441   4.598   0.447   9.063  1.3631 -1.4721  0.2720
 1993SOL    HW217442   4.528   0.469   9.184 -0.1963  0.7837  0.1222
 1994SOL     OW17443   1.204   4.043   7.284  0.5653 -0.5536 -0.1388
 1994SOL    HW117444   1.294   4.047   7.253  0.9655 -0.4840  1.0397
 1994SOL    HW217445   1.172   3.955   7.266  2.7340 -1.3961  0.2092
 1995SOL     OW17446   1.183   1.103   8.096  0.0068  0.3721  0.5290
 1995SOL    HW117447   1.179   1.043   8.022 -0.1500  2.0171 -0.8120
 1995SOL    HW217448   1.270   1.078   8.127  0.1748  0.6171  0.2620
 1996SOL     OW17449   2.236   2.290   7.848 -0.4815  0.2621  0.0939
 1996SOL    HW117450   2.168   2.356   7.832 -0.2774  0.4118 -0.1580
 1996SOL    HW217451   2.183   2.214   7.822 -0.7642  0.9473 -1.2997
 1997SOL     OW17452   3.384   2.065   8.584  0.5716  0.0407  0.0615
 1997SOL    HW117453   3.388   2.015   8.665  2.3677  0.6923  0.3835
 1997SOL    HW217454   3.307   2.026   8.543 -1.6983  3.5111  1.0353
 1998SOL     OW17455   1.512   1.464   5.897  0.1867 -0.4524 -0.1797
 1998SOL    HW117456   1.499   1.557   5.917  2.8006 -0.7542  2.8566
 1998SOL    HW217457   1.597   1.466   5.854  0.9036  0.9221  1.2944
 1999SOL     OW17458   2.813   0.942   5.779 -0.2406 -0.3526  0.1478
 1999SOL    HW117459   2.724   0.945   5.814  0.4774  0.6259  1.8943
 1999SOL    HW217460   2.841   1.030   5.803  0.2071  0.0353 -1.7920
 2000SOL     OW17461   4.290   4.180   4.511  0.0833 -0.1823  0.0142
 2000SOL    HW117462   4.307   4.217   4.598  1.0011 -0.0810 -0.2108
 2000SOL    HW217463   4.259   4.093   4.538  0.2394 -0.4225 -0.5847
 2001SOL     OW17464   4.151   0.421   1.289  0.2851 -0.1622 -0.1142
 2001SOL    HW117465   4.175   0.335   1.255  1.3879  0.3179 -0.5471
 2001SOL    HW217466   4.134   0.409   1.382 -3.0926  0.4274 -0.6444
 2002SOL     OW17467   1.618   1.676   3.236  0.1689  0.1052 -0.2487
 2002SOL    HW117468   1.620   1.751   3.176 -0.8875 -0.5477 -1.1084
 2002SOL    HW217469   1.567   1.613   3.184  1.4960 -0.9187 -0.3206
 2003SOL     OW17470   2.731   0.137  14.577 -0.0931  0.5882 -0.0227
 2003SOL    HW117471   2.772   0.075  14.516  0.5586  0.7912  0.2016
 2003SOL    HW217472   2.657   0.097  14.622 -1.1402  1.4321 -1.0197
 2004SOL     OW17473   4.099   1.715   1.651 -0.0976  0.3205  0.3841
 2004SOL    HW117474   4.101   1.774   1.576  2.0060  0.6565  0.7101
 2004SOL    HW217475   4.084   1.770   1.727 -0.1680  1.6470 -0.5951
 2005SOL     OW17476   1.928   3.539   5.107  0.1132  0.4174  0.0063
 2005SOL    HW117477   1.903   3.452   5.137  0.6035  0.4453  0.5113
 2005SOL    HW217478   1.881   3.547   5.024  1.4786  1.8417 -0.6262
 2006SOL     OW17479   3.118   3.689   8.633 -0.4142  0.1386  0.1299
 2006SOL    HW117480   3.150   3.620   8.575  0.1219  0.8174 -0.3868
 2006SOL    HW217481   3.048   3.637   8.673  1.0359 -0.5558  1.6953
 2007SOL     OW17482   3.230   4.012   6.628 -0.0774  0.1440 -0.4438
 2007SOL    HW117483   3.255   3.922   6.609  0.1222  0.2199 -0.5387
 2007SOL    HW217484   3.142   3.992   6.660  0.7583 -1.7860  0.6244
 2008SOL     OW17485   0.943   1.227  14.897 -0.7498  0.1932  0.1117
 2008SOL    HW117486   0.946   1.304  14.954  2.9748  1.5325 -1.9154
 2008SOL    HW217487   1.025   1.247  14.852 -0.3896 -2.1624 -0.2484
 2009SOL     OW17488   1.246   1.489   6.873 -0.0574 -0.0104  0.0751
 2009SOL    HW117489   1.207   1.502   6.959  0.5901  1.2797  0.1807
 2009SOL    HW217490   1.198   1.544   6.812  1.0164  0.3209 -0.4758
 2010SOL     OW17491   2.602   0.378   2.172 -0.9641 -0.5734  0.4275
 2010SOL    HW117492   2.518   0.344   2.202 -0.0713 -3.0607  0.0771
 2010SOL    HW217493   2.598   0.363   2.077 -2.9002 -0.5011  0.5032
 2011SOL     OW17494   4.483   0.413   7.431 -0.0635  0.3205 -0.0493
 2011SOL    HW117495   4.426   0.390   7.504  1.4625  1.4295  1.4793
 2011SOL    HW217496   4.535   0.479   7.477  0.0271 -0.6574  1.2322
 2012SOL     OW17497   3.271   3.833   8.880 -0.0186 -0.0394 -0.5942
 2012SOL    HW117498   3.230   3.818   8.965  0.0801 -1.8258 -0.8495
 2012SOL    HW217499   3.342   3.895   8.895  0.6665 -0.7127 -1.0400
 2013SOL     OW17500   0.241   4.081   8.943  0.0428  0.4957 -0.1108
 2013SOL    HW117501   0.231   4.067   9.037 -0.8624 -1.4919 -0.5192
 2013SOL    HW217502   0.264   3.990   8.925 -2.2150  0.0803 -0.9090
 2014SOL     OW17503   3.965   2.605   7.031  0.6473  0.4943  0.0605
 2014SOL    HW117504   3.901   2.617   7.101  0.0116 -1.3702 -0.1913
 2014SOL    HW217505   3.898   2.629   6.968  0.0403 -0.2333  0.4336
 2015SOL     OW17506   3.341   1.928   6.567 -0.1074  0.1098 -0.2522
 2015SOL    HW117507   3.340   2.005   6.623 -0.7552 -0.9157  1.1363
 2015SOL    HW217508   3.297   1.969   6.492 -0.3331  1.4106  0.5946
 2016SOL     OW17509   3.816   0.763   6.654  0.0760  0.0533  0.5322
 2016SOL    HW117510   3.760   0.736   6.582  1.7936  0.6661 -1.0241
 2016SOL    HW217511   3.884   0.696   6.663 -0.2765 -0.3425  0.2276
 2017SOL     OW17512   3.921   0.175   6.247  0.0678  0.4123 -0.2246
 2017SOL    HW117513   3.962   0.129   6.174 -2.0838 -0.5823 -0.8274
 2017SOL    HW217514   3.898   0.257   6.204  1.1960  0.7092 -0.2429
 2018SOL     OW17515   0.570   4.000   2.981 -0.0885 -0.2320  0.3892
 2018SOL    HW117516   0.499   3.947   2.947 -1.6147  1.2972  1.2018
 2018SOL    HW217517   0.551   3.991   3.074  2.3557 -2.1661  0.7022
 2019SOL     OW17518   2.152   2.855   8.349 -0.5070  0.2580 -0.1917
 2019SOL    HW117519   2.129   2.943   8.377 -0.7187  0.8574 -2.2533
 2019SOL    HW217520   2.080   2.831   8.290  1.3511  0.7634 -2.6812
 2020SOL     OW17521   0.999   1.474   3.052  0.5118 -0.3562  0.0549
 2020SOL    HW117522   0.955   1.503   2.972 -1.0537  1.7753  1.6841
 2020SOL    HW217523   0.928   1.430   3.098  0.6991 -0.8382 -0.1150
 2021SOL     OW17524   1.104   0.494   7.213  0.0797  0.4474 -0.0086
 2021SOL    HW117525   1.044   0.495   7.288  1.1389  2.0138  0.8061
 2021SOL    HW217526   1.053   0.439   7.154 -0.6917  1.7579 -0.5511
 2022SOL     OW17527   0.025   0.676  16.628 -0.0093 -0.1728  0.5795
 2022SOL    HW117528   0.015   0.583  16.605  1.3067  0.1372 -1.2370
 2022SOL    HW217529   4.695   0.711  16.558  1.3274 -0.5897 -0.6412
 2023SOL     OW17530   4.402   2.780   6.156 -0.0269 -0.3849 -0.2295
 2023SOL    HW117531   4.339   2.836   6.203  0.5542 -1.0506  1.3285
 2023SOL    HW217532   4.384   2.703   6.209  0.8068 -1.0265 -0.9035
 2024SOL     OW17533   1.304   1.522   6.185  0.0221 -0.9008 -0.4287
 2024SOL    HW117534   1.360   1.473   6.125 -0.7001 -0.6746 -1.2806
 2024SOL    HW217535   1.281   1.446   6.238 -2.9703  0.0312 -0.3805
 2025SOL     OW17536   4.012   1.846   3.294 -0.3217 -0.3882 -0.3207
 2025SOL    HW117537   3.951   1.870   3.364 -0.9370 -0.5151 -0.8201
 2025SOL    HW217538   4.045   1.930   3.263  1.1544 -1.0897 -0.6650
 2026SOL     OW17539   4.707   1.576  16.751  0.2891 -0.3419 -0.0625
 2026SOL    HW117540   0.008   1.664  16.721 -1.3519 -0.4042 -1.5974
 2026SOL    HW217541   4.646   1.597  16.822 -0.1378 -1.1257 -0.1957
 2027SOL     OW17542   0.534   3.421  17.077  0.5336  0.6792 -0.4054
 2027SOL    HW117543   0.534   3.351  17.012  0.8142  1.5231 -1.3287
 2027SOL    HW217544   0.453   3.467  17.052  0.2482  0.1450 -0.4573
 2028SOL     OW17545   0.156   1.145   3.176 -0.1146  0.8352  0.2338
 2028SOL    HW117546   0.238   1.123   3.132  0.2380 -0.9098  1.7789
 2028SOL    HW217547   0.185   1.181   3.260  2.4965  0.0271 -0.3127
 2029SOL     OW17548   3.192   2.572  14.855  0.2594 -0.1938 -0.3309
 2029SOL    HW117549   3.116   2.630  14.866 -0.9280 -2.0386  1.1010
 2029SOL    HW217550   3.151   2.490  14.881 -1.8233  0.5312 -1.3502
 2030SOL     OW17551   2.101   0.022   3.056 -0.1943 -0.2726  0.5185
 2030SOL    HW117552   2.103   4.704   2.970 -4.1364 -1.2694  0.8782
 2030SOL    HW217553   2.196   0.027   3.066  0.1718 -0.2822 -2.8904
 2031SOL     OW17554   3.458   0.322  14.303  0.4617  0.0603  0.0185
 2031SOL    HW117555   3.431   0.390  14.241  0.7879 -0.5395 -0.7909
 2031SOL    HW217556   3.504   0.372  14.370  0.3765 -3.4059  2.6819
 2032SOL     OW17557   1.784   1.162   9.377 -0.0272 -0.6889  0.0311
 2032SOL    HW117558   1.743   1.186   9.460  0.2756  0.6091 -0.2048
 2032SOL    HW217559   1.854   1.227   9.377  0.8707 -1.6475 -1.5575
 2033SOL     OW17560   2.746   0.935   9.528  0.3637  0.3366 -0.2136
 2033SOL    HW117561   2.759   0.967   9.439  2.6995  0.3297  0.1331
 2033SOL    HW217562   2.817   0.967   9.584  2.5428 -1.1500 -2.1318
 2034SOL     OW17563   4.495   4.665   1.915 -0.1209 -0.3772  0.6947
 2034SOL    HW117564   4.452   4.637   1.834  1.1353  3.2998 -1.2339
 2034SOL    HW217565   4.584   4.645   1.886 -0.3699 -3.6761  2.1765
 2035SOL     OW17566   1.414   1.017   4.996 -0.3966 -0.2495 -0.2996
 2035SOL    HW117567   1.395   0.955   5.066  0.3576 -0.1890 -0.0378
 2035SOL    HW217568   1.489   1.064   5.031  0.4237 -3.1557  1.8705
 2036SOL     OW17569   2.630   3.708   9.486 -0.2788  0.0969 -0.1632
 2036SOL    HW117570   2.706   3.751   9.526 -0.5219  1.5481 -1.2976
 2036SOL    HW217571   2.561   3.773   9.502 -0.1627  0.3486 -0.7071
 2037SOL     OW17572   3.952   1.971  10.840 -0.9639  0.5274  0.1904
 2037SOL    HW117573   3.871   1.977  10.890 -0.5030  1.3953  0.8310
 2037SOL    HW217574   4.015   1.969  10.911  0.5922 -2.6397 -1.2806
 2038SOL     OW17575   0.296   3.647   5.229 -0.2402  0.2131 -0.6643
 2038SOL    HW117576   0.209   3.680   5.203 -0.2984  0.5937  0.0182
 2038SOL    HW217577   0.273   3.559   5.258  0.2000 -0.2789 -1.8295
 2039SOL     OW17578   3.105   4.353  15.602  0.1601 -0.5218 -0.1182
 2039SOL    HW117579   3.107   4.328  15.509 -1.1193  0.4576 -0.4103
 2039SOL    HW217580   3.021   4.313  15.620  1.1033 -1.7125  1.6417
 2040SOL     OW17581   1.003   2.412  17.145 -0.7938  0.4078 -0.1099
 2040SOL    HW117582   0.979   2.487  17.199  1.7619  1.9419 -1.1107
 2040SOL    HW217583   1.063   2.372  17.208 -2.7735 -1.7569  0.4078
 2041SOL     OW17584   4.116   0.529  15.439 -0.0847  0.7498 -0.5747
 2041SOL    HW117585   4.125   0.531  15.343 -0.9390 -1.3244 -0.6970
 2041SOL    HW217586   4.202   0.547  15.478  1.2538  0.0258 -3.1550
 2042SOL     OW17587   2.541   2.827   7.361 -0.2829 -0.4117 -0.3816
 2042SOL    HW117588   2.608   2.819   7.293 -1.2025 -3.0871 -0.9586
 2042SOL    HW217589   2.545   2.740   7.400  3.5629 -0.5315 -1.0815
 2043SOL     OW17590   4.152   0.178   4.059 -0.1476 -0.3047 -0.0058
 2043SOL    HW117591   4.172   0.092   4.022 -0.3745 -0.1533 -0.4853
 2043SOL    HW217592   4.238   0.219   4.069 -0.8661  1.0185  0.7878
 2044SOL     OW17593   0.175   3.292   6.702 -0.2332 -0.6212 -0.1200
 2044SOL    HW117594   0.087   3.310   6.733  0.0213 -0.7772  0.6893
 2044SOL    HW217595   0.171   3.197   6.714 -0.3754 -0.9912 -3.0350
 2045SOL     OW17596   3.780   4.231  12.880  0.0213  0.0829  0.2561
 2045SOL    HW117597   3.860   4.282  12.865 -1.1647  2.3491  1.6594
 2045SOL    HW217598   3.794   4.155  12.823  2.8271  1.8970 -1.4928
 2046SOL     OW17599   2.170   0.676  15.357 -0.6888 -0.4449  0.0290
 2046SOL    HW117600   2.165   0.609  15.426 -2.2715  0.9808  1.3173
 2046SOL    HW217601   2.262   0.701  15.362 -0.7831 -0.0900 -0.0195
 2047SOL     OW17602   2.064   4.142   4.672 -0.0999  0.0149 -0.7406
 2047SOL    HW117603   2.126   4.069   4.676 -1.1015 -0.7553  0.8381
 2047SOL    HW217604   2.128   4.211   4.657 -0.4629  0.4824 -0.1575
 2048SOL     OW17605   3.600   1.833   7.882 -0.3862  0.1340 -0.6643
 2048SOL    HW117606   3.515   1.875   7.899  0.0660  1.2760 -1.2567
 2048SOL    HW217607   3.605   1.839   7.787  2.1696  0.9894 -0.4553
 2049SOL     OW17608   4.068   3.675   8.752 -0.1753  0.3629 -0.2291
 2049SOL    HW117609   4.108   3.636   8.830  1.4581  0.7227 -0.8747
 2049SOL    HW217610   3.986   3.627   8.753  0.6587 -1.0097  1.7272
 2050SOL     OW17611   1.051   4.238   3.592 -0.6222 -0.3107  0.9665
 2050SOL    HW117612   1.115   4.197   3.650 -2.0635 -2.7643  0.8043
 2050SOL    HW217613   1.043   4.319   3.643 -1.9202  1.6243 -2.2839
 2051SOL     OW17614   0.077   1.136  16.236  0.1799  0.0142 -0.0458
 2051SOL    HW117615   0.030   1.134  16.153  0.0409 -0.1012  0.0359
 2051SOL    HW217616   0.113   1.224  16.232  2.8636 -1.1617 -1.7348
 2052SOL     OW17617   4.565   0.929   6.616 -0.2729 -0.0398 -0.3953
 2052SOL    HW117618   4.660   0.946   6.617 -0.0233 -1.4140 -0.8461
 2052SOL    HW217619   4.564   0.834   6.625  0.0886  0.1154  1.3566
 2053SOL     OW17620   0.895   4.666   5.108  0.3834 -0.1615 -0.0685
 2053SOL    HW117621   0.988   4.688   5.110  0.2721  0.2857  0.1198
 2053SOL    HW217622   0.872   4.641   5.018 -1.3706 -1.6647  0.7784
 2054SOL     OW17623   0.377   2.974   9.289  0.2188 -0.3625 -0.6480
 2054SOL    HW117624   0.283   2.972   9.271 -0.2598  1.9001  1.5366
 2054SOL    HW217625   0.395   3.062   9.323  1.3859 -0.1215 -1.8552
 2055SOL     OW17626   4.620   4.209   0.169 -0.8204  0.9272  0.1122
 2055SOL    HW117627   4.643   4.219   0.077 -0.9204  0.7245  0.0645
 2055SOL    HW217628   4.710   4.212   0.201 -0.2571 -3.0395 -1.0270
 2056SOL     OW17629   1.859   0.973  13.607  0.0665 -0.4324 -0.3941
 2056SOL    HW117630   1.905   0.892  13.625 -0.3127 -0.3333  1.0264
 2056SOL    HW217631   1.793   0.974  13.676  2.1806 -0.8547  1.6272
 2057SOL     OW17632   2.415   2.860   6.525 -0.0554  0.8324  0.2437
 2057SOL    HW117633   2.329   2.897   6.545 -1.6333 -3.3994  1.3026
 2057SOL    HW217634   2.478   2.908   6.578 -2.7996  2.2140  2.2658
 2058SOL     OW17635   0.335   1.454   4.534 -0.0909 -0.0492  0.3599
 2058SOL    HW117636   0.339   1.549   4.547 -0.4532 -0.1642  1.2729
 2058SOL    HW217637   0.382   1.426   4.612  0.4236  1.4293  0.5990
 2059SOL     OW17638   1.985   4.315  16.972 -0.3640  0.0654  0.0582
 2059SOL    HW117639   1.905   4.328  17.021 -2.1018 -2.6354 -2.0591
 2059SOL    HW217640   2.009   4.404  16.948  0.7227 -0.9913 -2.8873
 2060SOL     OW17641   4.487   0.215  13.511 -0.3279 -0.4012  0.2944
 2060SOL    HW117642   4.453   0.213  13.600  0.9771  0.1268  0.8071
 2060SOL    HW217643   4.404   0.194  13.468  0.3473 -0.2770 -1.0725
 2061SOL     OW17644   2.371   0.434   6.438 -0.1262  0.5830  0.1444
 2061SOL    HW117645   2.378   0.346   6.402 -1.0815  0.5377  0.0643
 2061SOL    HW217646   2.349   0.492   6.365  1.4879 -0.3998 -1.1252
 2062SOL     OW17647   3.874   0.491  16.113  0.2970  0.2345 -0.0639
 2062SOL    HW117648   3.921   0.574  16.105  0.7415 -0.2465 -2.5624
 2062SOL    HW217649   3.830   0.467  16.031  1.8057 -0.6882 -0.5960
 2063SOL     OW17650   0.882   2.575  16.261  0.3482 -0.4523 -0.0319
 2063SOL    HW117651   0.813   2.638  16.280  2.2130  0.9018  2.2168
 2063SOL    HW217652   0.858   2.496  16.309 -1.5285  0.8163  1.0956
 2064SOL     OW17653   3.672   3.326   3.302 -0.3609 -0.3039 -0.2652
 2064SOL    HW117654   3.622   3.257   3.257 -0.5197 -0.5494  0.2780
 2064SOL    HW217655   3.738   3.355   3.240 -0.2086  1.4870  0.7244
 2065SOL     OW17656   2.079   1.882   7.026 -0.0190 -0.0671 -0.2113
 2065SOL    HW117657   2.048   1.929   7.102 -1.2852 -1.9560  0.4336
 2065SOL    HW217658   2.113   1.959   6.980  2.5038 -0.5614  0.7844
 2066SOL     OW17659   4.114   2.055  12.568  0.7081  0.3921  1.0753
 2066SOL    HW117660   4.075   2.078  12.483  3.1120 -0.4622 -0.2534
 2066SOL    HW217661   4.037   2.074  12.621  0.4566 -0.5136  1.0192
 2067SOL     OW17662   1.512   0.072  14.771 -0.0935  0.1517 -0.2829
 2067SOL    HW117663   1.441   0.061  14.708 -0.5423  2.4917 -0.1968
 2067SOL    HW217664   1.570   0.124  14.714 -0.4145  1.0830  0.2301
 2068SOL     OW17665   3.797   2.631   1.472  0.3104 -0.4191 -0.3624
 2068SOL    HW117666   3.864   2.567   1.497  0.5747 -0.9284 -2.3789
 2068SOL    HW217667   3.713   2.597   1.506 -0.2240 -1.3711 -2.6556
 2069SOL     OW17668   3.977   3.087   9.247 -0.1661 -0.1778 -0.1761
 2069SOL    HW117669   4.052   3.146   9.234 -1.2221  0.7788 -1.9393
 2069SOL    HW217670   3.972   3.080   9.342 -0.4562 -0.0489 -0.1835
 2070SOL     OW17671   3.491   3.541  16.439 -0.4155  0.0027  0.0181
 2070SOL    HW117672   3.541   3.521  16.518  0.7707 -0.4721 -0.8553
 2070SOL    HW217673   3.434   3.465  16.432 -1.6657  0.8144  1.6556
 2071SOL     OW17674   4.453   0.043   5.216  0.0291 -0.3464  0.2406
 2071SOL    HW117675   4.495   4.695   5.169 -0.6109 -0.4879 -0.1111
 2071SOL    HW217676   4.499   0.043   5.301  2.1629  0.7674 -0.9155
 2072SOL     OW17677   1.721   3.004  11.747  0.3024 -0.1788  0.0067
 2072SOL    HW117678   1.661   3.073  11.779  1.1034  0.0309  1.0524
 2072SOL    HW217679   1.667   2.962  11.680 -0.9895 -1.3390  1.7676
 2073SOL     OW17680   2.174   3.103   4.101 -0.1097  0.6872  0.2068
 2073SOL    HW117681   2.197   3.159   4.175 -1.1390  0.5374  0.6379
 2073SOL    HW217682   2.257   3.073   4.063 -1.7108  0.3617 -3.0171
 2074SOL     OW17683   3.199   1.083   6.617 -0.7196 -0.2506 -0.1075
 2074SOL    HW117684   3.204   1.094   6.522  0.6633 -1.3949 -0.1704
 2074SOL    HW217685   3.128   1.146   6.633 -2.2082 -1.6885 -1.0293
 2075SOL     OW17686   4.486   3.241   0.719  0.6552  0.0271  0.0964
 2075SOL    HW117687   4.483   3.145   0.723 -0.6268  0.0257 -1.1334
 2075SOL    HW217688   4.395   3.268   0.724  0.7309 -0.0093  1.7033
 2076SOL     OW17689   4.275   2.054   9.049  0.2486 -0.6726 -0.4495
 2076SOL    HW117690   4.291   1.998   9.124  2.1694  1.4549  0.7357
 2076SOL    HW217691   4.357   2.104   9.047 -0.1425 -0.0264 -0.4782
 2077SOL     OW17692   3.458   2.697   4.946  0.3708 -0.2245 -0.4828
 2077SOL    HW117693   3.440   2.698   5.040 -0.4131  0.3685 -0.6300
 2077SOL    HW217694   3.545   2.660   4.936 -0.5485 -0.9012 -6.0197
 2078SOL     OW17695   0.849   3.659   6.800  0.1965  0.1992 -0.2070
 2078SOL    HW117696   0.904   3.634   6.874 -0.1944 -1.5371 -0.4950
 2078SOL    HW217697   0.762   3.623   6.819 -1.0991  1.9249 -2.7648
 2079SOL     OW17698   3.659   4.414  15.479  0.0370 -0.1273 -0.0324
 2079SOL    HW117699   3.722   4.352  15.442 -1.0996 -0.1777 -1.8615
 2079SOL    HW217700   3.715   4.491  15.488  0.3913 -0.4224  0.2995
 2080SOL     OW17701   4.609   3.402   3.343  0.7105  0.1731  0.6668
 2080SOL    HW117702   4.680   3.359   3.295  0.6860 -1.2500  1.9075
 2080SOL    HW217703   4.653   3.426   3.424 -0.8956 -1.3948  2.0264
 2081SOL     OW17704   4.376   1.391   1.779  0.0455  0.8145  0.7540
 2081SOL    HW117705   4.395   1.484   1.768 -1.6974  1.0344 -0.4072
 2081SOL    HW217706   4.459   1.371   1.823  1.6686  1.1802 -2.1966
 2082SOL     OW17707   0.084   4.523  15.837  0.0633  0.4197 -0.3803
 2082SOL    HW117708   0.041   4.582  15.898 -1.2311 -0.9852  0.0707
 2082SOL    HW217709   0.054   4.551  15.750  0.5013  2.3352  0.0766
 2083SOL     OW17710   2.208   4.187   9.295  0.2167  0.0934  0.2355
 2083SOL    HW117711   2.257   4.269   9.292 -1.1860  1.0713  4.3384
 2083SOL    HW217712   2.153   4.185   9.217 -0.4639  0.5633  0.7025
 2084SOL     OW17713   3.814   0.191   8.431  0.0755 -0.3129  0.4040
 2084SOL    HW117714   3.818   0.270   8.485  2.7581 -0.4892  0.4299
 2084SOL    HW217715   3.864   0.217   8.353  0.2426 -2.9059 -0.3457
 2085SOL     OW17716   1.850   2.430   9.231  0.2283 -0.0298 -0.2632
 2085SOL    HW117717   1.854   2.522   9.256  0.1403 -1.3265  4.4001
 2085SOL    HW217718   1.758   2.416   9.255 -0.2576  2.1480 -0.8254
 2086SOL     OW17719   3.203   1.977   5.256  0.0103 -0.0679  0.1913
 2086SOL    HW117720   3.200   1.942   5.345 -1.3579  2.5370  1.1805
 2086SOL    HW217721   3.297   1.986   5.240 -0.1471  3.1445  1.1479
 2087SOL     OW17722   1.983   4.047   6.748  0.4094  0.3360 -0.2678
 2087SOL    HW117723   2.023   4.134   6.740  0.3902  0.4782  1.1769
 2087SOL    HW217724   1.891   4.072   6.751 -0.1706 -1.6151 -2.6687
 2088SOL     OW17725   3.617   0.985   4.203  0.0707 -0.5804  0.0395
 2088SOL    HW117726   3.580   1.029   4.127  0.5283 -1.4488 -0.6893
 2088SOL    HW217727   3.607   1.056   4.266 -0.7012  2.0543 -3.0595
 2089SOL     OW17728   3.023   0.074   8.514  0.2587  0.3423 -0.0546
 2089SOL    HW117729   3.085   0.105   8.581 -0.8773 -0.9061  1.5503
 2089SOL    HW217730   2.992   0.155   8.474 -0.5363 -0.1832 -0.4985
 2090SOL     OW17731   2.891   0.749  10.983 -0.3915  0.9646 -0.1255
 2090SOL    HW117732   2.862   0.743  10.892  0.1589  1.9952 -0.3694
 2090SOL    HW217733   2.870   0.662  11.016 -0.1126  1.2903  0.9311
 2091SOL     OW17734   1.796   0.660   5.182  0.4262  0.3285  0.0094
 2091SOL    HW117735   1.725   0.605   5.147  3.1232 -3.0687 -0.1490
 2091SOL    HW217736   1.851   0.593   5.222  1.1783  0.1294 -1.3355
 2092SOL     OW17737   3.885   2.001   5.505  0.3772  0.1533  0.2357
 2092SOL    HW117738   3.876   1.962   5.592 -1.9222  1.3492  0.5365
 2092SOL    HW217739   3.890   2.093   5.529 -1.4703 -0.7422  4.1560
 2093SOL     OW17740   1.419   4.684   4.162  0.0775 -0.1697 -0.4597
 2093SOL    HW117741   1.489   4.670   4.225  0.2909  1.7663 -0.2479
 2093SOL    HW217742   1.399   0.054   4.168  2.6092  0.2392  1.5655
 2094SOL     OW17743   4.177   1.098   2.960  0.2041  0.4803  0.2026
 2094SOL    HW117744   4.170   1.191   2.939 -0.7150  0.5635  0.8753
 2094SOL    HW217745   4.106   1.060   2.909  1.7323 -1.2087 -0.6449
 2095SOL     OW17746   1.008   0.735   4.704 -0.3595  0.0207 -0.1266
 2095SOL    HW117747   0.957   0.730   4.784  0.1205  0.1032  0.1833
 2095SOL    HW217748   0.948   0.692   4.644 -0.2515 -1.5187  0.8809
 2096SOL     OW17749   4.092   1.087  15.972  0.3326 -0.2119  0.2895
 2096SOL    HW117750   3.998   1.071  15.983 -0.0490  0.7121 -1.6297
 2096SOL    HW217751   4.086   1.180  15.951  1.6146 -0.0186  0.8008
 2097SOL     OW17752   4.683   0.838   5.076  0.3670 -0.2817  0.0867
 2097SOL    HW117753   4.628   0.917   5.080  0.2203 -0.4007  0.4001
 2097SOL    HW217754   4.684   0.821   4.982 -1.1317  0.4521 -0.0629
 2098SOL     OW17755   0.803   4.010   1.414 -0.2481 -0.0890  0.2679
 2098SOL    HW117756   0.818   3.918   1.392  0.0158  0.6105 -2.4852
 2098SOL    HW217757   0.759   4.031   1.332  2.3979  1.0260 -0.9013
 2099SOL     OW17758   3.926   3.688   4.665  0.4080  0.3461 -0.1712
 2099SOL    HW117759   3.876   3.737   4.600  0.1871  0.1700 -0.1342
 2099SOL    HW217760   3.979   3.757   4.704 -1.8411  2.1716 -0.3160
 2100SOL     OW17761   0.690   2.918   5.834 -0.4813  0.6499  0.2033
 2100SOL    HW117762   0.736   2.893   5.753 -0.4613  2.9793 -0.5231
 2100SOL    HW217763   0.613   2.863   5.823  0.1234 -0.3204  0.7516
 2101SOL     OW17764   3.991   1.452   0.815  0.7034  0.0843 -0.0833
 2101SOL    HW117765   3.991   1.521   0.749  0.6527 -0.6149 -0.8183
 2101SOL    HW217766   3.985   1.515   0.887  0.2812 -1.2983  1.1005
 2102SOL     OW17767   0.966   3.069  15.008  0.1422  0.9325  0.1906
 2102SOL    HW117768   0.939   3.152  14.967 -0.4620 -0.2976 -1.8923
 2102SOL    HW217769   1.036   3.035  14.953  0.1664  0.6914  0.3703
 2103SOL     OW17770   4.324   2.270   6.189 -0.0145  0.3063  0.0646
 2103SOL    HW117771   4.242   2.229   6.162  0.1646  0.4830 -0.7448
 2103SOL    HW217772   4.365   2.186   6.213 -0.7070  0.2229  0.9489
 2104SOL     OW17773   1.993   1.688   3.558 -0.2110 -0.3595 -0.2771
 2104SOL    HW117774   1.912   1.641   3.577 -0.7143  0.5155 -0.2704
 2104SOL    HW217775   2.056   1.638   3.610 -1.9083  1.2369  3.3237
 2105SOL     OW17776   3.381   4.306   8.580  0.2859  0.2959  0.4040
 2105SOL    HW117777   3.443   4.264   8.520 -0.5069  0.7844 -0.7539
 2105SOL    HW217778   3.294   4.277   8.551  0.2009  0.0854  0.8706
 2106SOL     OW17779   2.159   1.910   8.885  0.1619  0.4396 -0.1358
 2106SOL    HW117780   2.150   2.004   8.902  0.9720  0.0918  2.2271
 2106SOL    HW217781   2.224   1.907   8.814  1.8093 -0.0007  1.3809
 2107SOL     OW17782   1.144   3.751  11.724  0.3417 -0.2402 -0.2796
 2107SOL    HW117783   1.176   3.745  11.634 -1.4857 -0.6839 -0.9093
 2107SOL    HW217784   1.152   3.843  11.750  0.4703  0.4562 -2.7227
 2108SOL     OW17785   3.595   1.068   0.752 -0.2499 -0.0310 -0.0338
 2108SOL    HW117786   3.640   1.131   0.695 -0.4668 -0.7072 -0.9544
 2108SOL    HW217787   3.673   1.023   0.785  0.3040 -0.3204 -1.7202
 2109SOL     OW17788   2.596   1.199   5.704 -0.6206  0.0731 -0.2051
 2109SOL    HW117789   2.520   1.245   5.668 -2.0978 -1.0471  1.4395
 2109SOL    HW217790   2.554   1.113   5.710 -2.0337  0.7421 -0.6461
 2110SOL     OW17791   3.925   4.424   5.388  0.2317  0.2350  0.2484
 2110SOL    HW117792   3.986   4.496   5.370  0.1659  0.0534 -0.6970
 2110SOL    HW217793   3.983   4.360   5.430 -0.2026  0.5829  1.3725
 2111SOL     OW17794   2.955   3.254  10.364  0.4582  0.1479  0.3228
 2111SOL    HW117795   2.980   3.316  10.295 -0.0526 -1.5437 -1.4078
 2111SOL    HW217796   3.016   3.293  10.426  0.0520 -1.1688  1.5546
 2112SOL     OW17797   1.533   3.313   7.549 -0.2661  0.4391  0.3101
 2112SOL    HW117798   1.600   3.263   7.594  1.6715  1.7824 -1.0794
 2112SOL    HW217799   1.581   3.353   7.477  0.4017  2.2906  1.7623
 2113SOL     OW17800   0.558   3.913   5.546 -0.2198  0.2946 -0.4587
 2113SOL    HW117801   0.468   3.892   5.571 -0.0542 -0.2896 -0.3312
 2113SOL    HW217802   0.589   3.824   5.528 -0.7021 -0.4125  2.2140
 2114SOL     OW17803   2.115   0.661  11.060 -0.1599  0.6774  0.6299
 2114SOL    HW117804   2.159   0.693  11.138  0.1223  1.4490  0.1514
 2114SOL    HW217805   2.134   0.732  10.998 -0.0698  1.3805  1.4611
 2115SOL     OW17806   4.069   2.085   9.621 -0.1759 -0.7639 -0.1509
 2115SOL    HW117807   4.017   2.069   9.700  0.5032 -3.4011 -0.2280
 2115SOL    HW217808   4.158   2.059   9.643 -0.0098  0.0891  0.1730
 2116SOL     OW17809   3.555   0.661   7.913  0.7503  0.0619  0.0984
 2116SOL    HW117810   3.501   0.740   7.916  2.5478  1.3851 -1.9125
 2116SOL    HW217811   3.643   0.692   7.933  1.2946 -0.7756 -0.9360
 2117SOL     OW17812   4.208   0.350   7.708  0.3661  0.5792 -0.1358
 2117SOL    HW117813   4.248   0.420   7.759  1.2347 -0.4585  0.6173
 2117SOL    HW217814   4.115   0.353   7.732  0.7987  3.8843  1.0524
 2118SOL     OW17815   1.850   3.050   9.055  0.2118 -0.4673 -0.1280
 2118SOL    HW117816   1.801   3.004   8.988 -0.2683  0.1175 -0.1747
 2118SOL    HW217817   1.815   3.022   9.140 -1.2288 -1.1892 -0.9720
 2119SOL     OW17818   0.700   3.237   5.017 -0.3726  0.5382 -0.9619
 2119SOL    HW117819   0.793   3.252   4.999 -0.1382  0.5042  0.2190
 2119SOL    HW217820   0.674   3.327   5.038 -0.1018  0.2687  0.5281
 2120SOL     OW17821   0.411   4.019  12.470 -0.1943 -0.0592  0.3887
 2120SOL    HW117822   0.441   4.091  12.525  1.9302  0.2034 -1.0974
 2120SOL    HW217823   0.346   3.983  12.530  0.2056 -0.1797  0.7530
 2121SOL     OW17824   1.396   0.068   1.348  0.1088  0.2357 -0.3841
 2121SOL    HW117825   1.308   0.105   1.355 -0.1435 -0.2444 -0.9815
 2121SOL    HW217826   1.432   0.082   1.435 -1.0451  2.6172 -0.2948
 2122SOL     OW17827   2.089   0.923   9.714 -0.5849  0.0644  0.0375
 2122SOL    HW117828   2.006   0.961   9.743 -0.5053  1.7293 -1.9373
 2122SOL    HW217829   2.086   0.938   9.619 -3.0404 -1.0702 -0.0761
 2123SOL     OW17830   3.736   0.678   0.996  0.2972 -0.0232  0.2789
 2123SOL    HW117831   3.735   0.769   0.966 -1.4747 -0.6285 -1.4834
 2123SOL    HW217832   3.781   0.624   0.932 -0.9775  1.0877 -1.5619
 2124SOL     OW17833   4.142   1.462   7.694 -0.1082  0.3235 -0.2918
 2124SOL    HW117834   4.066   1.517   7.711 -0.1156  0.3536 -0.4242
 2124SOL    HW217835   4.151   1.440   7.787 -1.2778  0.0328 -0.2419
 2125SOL     OW17836   4.530   0.457   6.901 -0.5716  0.2432  0.3828
 2125SOL    HW117837   4.515   0.462   6.995 -0.2792 -1.4078  0.5226
 2125SOL    HW217838   4.439   0.463   6.869 -0.5054 -2.1730 -0.3098
 2126SOL     OW17839   0.369   3.862   5.077  0.1575 -0.3951  0.8105
 2126SOL    HW117840   0.355   3.825   4.990 -1.5659  0.2335  0.8287
 2126SOL    HW217841   0.359   3.790   5.139 -1.8397  0.4936  1.5121
 2127SOL     OW17842   0.206   2.461  15.295  0.1562  0.1089 -0.1346
 2127SOL    HW117843   0.183   2.523  15.225  1.1888 -1.1771 -1.6094
 2127SOL    HW217844   0.237   2.386  15.244  0.4031  0.0072  0.1631
 2128SOL     OW17845   1.249   0.673   1.511  0.1310 -0.4785  0.0731
 2128SOL    HW117846   1.195   0.737   1.556 -0.2562  0.0187 -1.0952
 2128SOL    HW217847   1.323   0.691   1.569  0.7427  1.0200 -1.1782
 2129SOL     OW17848   0.525   4.195  13.635  0.0620  0.0903  0.4065
 2129SOL    HW117849   0.578   4.129  13.679  0.4178 -0.4109 -0.8013
 2129SOL    HW217850   0.499   4.251  13.708 -3.2477 -0.2472 -0.5065
 2130SOL     OW17851   3.748   2.239   9.669  0.3463 -1.0551  0.3763
 2130SOL    HW117852   3.804   2.168   9.698 -0.8059 -0.7240  3.5082
 2130SOL    HW217853   3.681   2.238   9.738 -1.9868  2.9626 -1.8337
 2131SOL     OW17854   4.490   4.151   2.735 -0.3422 -0.8672 -0.8024
 2131SOL    HW117855   4.459   4.241   2.740 -1.3417 -1.3294  1.4444
 2131SOL    HW217856   4.418   4.117   2.681  0.1150  0.1838 -2.0594
 2132SOL     OW17857   1.152   0.999   3.124  0.0546  0.1664 -0.1153
 2132SOL    HW117858   1.084   0.933   3.115 -0.0954  0.4169 -0.8240
 2132SOL    HW217859   1.151   1.044   3.039  0.2363 -0.9540 -0.7091
 2133SOL     OW17860   3.222   3.284   3.182  0.6071  0.6730  0.8089
 2133SOL    HW117861   3.142   3.271   3.133  1.8718 -3.2142 -0.2780
 2133SOL    HW217862   3.277   3.216   3.142 -0.5144 -1.9047  3.6490
 2134SOL     OW17863   2.729   3.866  12.411  0.0489 -0.1211  0.2759
 2134SOL    HW117864   2.771   3.884  12.327 -0.8937 -1.5542 -0.5030
 2134SOL    HW217865   2.672   3.942  12.410 -0.9329 -0.8171  2.5731
 2135SOL     OW17866   3.799   3.423   9.687 -0.3432 -0.5084 -0.9134
 2135SOL    HW117867   3.740   3.437   9.613 -0.9692  0.1736 -0.2753
 2135SOL    HW217868   3.801   3.504   9.738  0.8053 -0.6585 -0.7031
 2136SOL     OW17869   2.974   2.661   1.323  0.2650  0.4586 -0.4210
 2136SOL    HW117870   3.035   2.588   1.339 -0.9766  0.2441  3.3393
 2136SOL    HW217871   3.035   2.734   1.313  1.2048 -0.5881 -2.5367
 2137SOL     OW17872   1.649   1.705   5.113 -0.0437 -0.3370  0.0739
 2137SOL    HW117873   1.665   1.747   5.028  0.8265  0.8902  0.8323
 2137SOL    HW217874   1.558   1.732   5.127 -0.2178 -0.2814 -1.1317
 2138SOL     OW17875   0.023   3.082   9.704 -0.0592  0.2967 -0.0005
 2138SOL    HW117876   4.722   3.121   9.788 -0.4680 -3.2722  1.5436
 2138SOL    HW217877   4.662   3.040   9.689 -0.3472  0.4442  1.1590
 2139SOL     OW17878   3.019   2.334   4.276  0.5598 -0.4884  0.7660
 2139SOL    HW117879   3.015   2.416   4.227 -0.7473 -0.5027  0.8554
 2139SOL    HW217880   3.061   2.370   4.355  3.9898  0.6498 -1.5585
 2140SOL     OW17881   0.435   0.064   4.884 -0.0850 -0.2957 -0.1761
 2140SOL    HW117882   0.508   0.036   4.829  0.8130 -0.5609  1.1439
 2140SOL    HW217883   0.372   4.722   4.857  1.7848 -1.7841 -0.9386
 2141SOL     OW17884   3.252   1.867   7.413  0.1584  0.0793  0.3248
 2141SOL    HW117885   3.181   1.816   7.450  0.1056  0.8242  1.2703
 2141SOL    HW217886   3.273   1.923   7.488  1.9437  0.2645 -0.2959
 2142SOL     OW17887   4.214   3.884   7.908 -0.2599  0.4944 -0.1031
 2142SOL    HW117888   4.248   3.960   7.860 -1.2986  1.2843  0.4284
 2142SOL    HW217889   4.186   3.936   7.983  0.7444  1.0997 -0.1420
 2143SOL     OW17890   4.086   3.105   5.624  0.1411  0.6879 -0.2695
 2143SOL    HW117891   4.117   3.117   5.713 -2.2668  0.9644  0.5169
 2143SOL    HW217892   4.035   3.024   5.631  0.7472  0.5218  2.0188
 2144SOL     OW17893   1.802   2.112  17.432 -0.1289  0.0150 -0.2427
 2144SOL    HW117894   1.837   2.047  17.371  1.6511  0.9051 -0.1657
 2144SOL    HW217895   1.859   2.084  17.504  0.0930  1.4926  0.1497
 2145SOL     OW17896   1.516   1.939  17.215 -0.1731  0.1746 -0.0970
 2145SOL    HW117897   1.556   1.876  17.155 -1.7053  0.1922 -1.1261
 2145SOL    HW217898   1.431   1.904  17.243 -0.4932  1.4787  0.5889
 2146SOL     OW17899   0.410   4.494  11.864 -0.1177 -0.5951  0.0262
 2146SOL    HW117900   0.457   4.451  11.792  1.6077  3.1929 -1.0807
 2146SOL    HW217901   0.479   4.472  11.926 -0.3302  0.0858  0.5005
 2147SOL     OW17902   4.156   3.832  13.514 -0.5057  0.0310 -0.0779
 2147SOL    HW117903   4.207   3.891  13.458  1.0449 -1.3750 -0.1343
 2147SOL    HW217904   4.127   3.892  13.582  0.1328  0.4892 -0.1994
 2148SOL     OW17905   1.401   2.876   2.200  0.2914 -0.3566  0.2406
 2148SOL    HW117906   1.412   2.908   2.111 -1.3240  1.3410  0.6488
 2148SOL    HW217907   1.310   2.844   2.198 -0.1394  0.8670  0.5402
 2149SOL     OW17908   0.276   1.753   5.256 -0.5803 -0.1354 -0.1890
 2149SOL    HW117909   0.261   1.752   5.351  1.6955  1.7449  0.2019
 2149SOL    HW217910   0.361   1.796   5.262 -1.1869  1.0534  0.0306
 2150SOL     OW17911   2.182   4.576   4.559 -0.3408  0.0409 -0.5452
 2150SOL    HW117912   2.089   4.582   4.583  0.4604  2.5387  1.8896
 2150SOL    HW217913   2.227   4.631   4.622  2.5511 -0.5437 -2.1008
 2151SOL     OW17914   2.754   4.188  10.113  0.0774  0.0524 -0.0496
 2151SOL    HW117915   2.816   4.206  10.043  0.4997  1.7111  0.7587
 2151SOL    HW217916   2.759   4.277  10.148  1.9431  0.6037 -1.7347
 2152SOL     OW17917   3.673   4.452   3.066 -0.2268  0.1172  0.2106
 2152SOL    HW117918   3.612   4.396   3.115 -0.0792  0.0990  0.3745
 2152SOL    HW217919   3.665   4.536   3.113  0.4346  0.5089 -0.3776
 2153SOL     OW17920   2.602   0.732   2.971  0.8205  0.2394  0.3122
 2153SOL    HW117921   2.533   0.789   2.936 -0.0780 -0.2327  1.3166
 2153SOL    HW217922   2.627   0.786   3.046  2.5745  0.9422 -0.7673
 2154SOL     OW17923   0.505   4.010  15.501  1.0663 -0.2753 -0.5075
 2154SOL    HW117924   0.520   4.104  15.517  2.2964 -0.1108 -2.5772
 2154SOL    HW217925   0.545   3.995  15.415  0.9794  2.0516 -0.9771
 2155SOL     OW17926   4.094   2.749  12.111  0.2119 -0.3110  0.5969
 2155SOL    HW117927   4.000   2.734  12.104  0.0188  1.7610 -1.1752
 2155SOL    HW217928   4.099   2.844  12.113 -0.2451 -0.3243  2.5324
 2156SOL     OW17929   0.214   0.117   7.386  0.0413 -0.3713  0.0639
 2156SOL    HW117930   0.207   0.025   7.412 -0.9280 -1.0979 -2.7512
 2156SOL    HW217931   0.297   0.143   7.426  0.5242 -2.4247  0.4250
 2157SOL     OW17932   1.226   0.822   6.197  0.3394  0.1604  0.3269
 2157SOL    HW117933   1.295   0.839   6.133  1.4749 -1.1069  1.1888
 2157SOL    HW217934   1.186   0.740   6.169 -0.9273  0.8282  0.1764
 2158SOL     OW17935   2.080   4.310   3.953 -0.1110  0.4538 -0.3002
 2158SOL    HW117936   2.086   4.249   4.026 -0.0641  1.9703  0.9710
 2158SOL    HW217937   2.172   4.332   3.942  0.4611 -1.7662  0.1314
 2159SOL     OW17938   4.496   2.693   2.971 -0.3924 -0.2832 -0.6709
 2159SOL    HW117939   4.402   2.690   2.955 -0.7481 -0.4177  1.4787
 2159SOL    HW217940   4.519   2.720   2.882 -1.4473  1.6823 -0.3352
 2160SOL     OW17941   2.878   0.309   7.051 -0.4756  0.0151  0.2200
 2160SOL    HW117942   2.937   0.266   7.113 -3.1433 -1.5104  1.7654
 2160SOL    HW217943   2.941   0.354   6.996  0.0446  1.1398  1.7389
 2161SOL     OW17944   1.043   4.318   0.582 -0.6266 -0.0386 -0.0254
 2161SOL    HW117945   1.134   4.289   0.580  0.1554  2.4129  0.9645
 2161SOL    HW217946   1.025   4.351   0.494 -2.3920 -0.1312  0.2988
 2162SOL     OW17947   0.728   3.556   0.847 -0.0786 -0.1111 -0.1396
 2162SOL    HW117948   0.807   3.572   0.899 -0.5382  1.5785  0.0326
 2162SOL    HW217949   0.663   3.595   0.905 -0.9691 -0.9665 -0.5526
 2163SOL     OW17950   2.972   2.999  10.400  0.1940 -0.0576  0.3302
 2163SOL    HW117951   2.996   3.089  10.380 -1.3781  0.2281 -0.2510
 2163SOL    HW217952   2.882   3.010  10.431 -0.0510  0.3948 -0.5617
 2164SOL     OW17953   2.270   2.478   6.200  0.0927 -0.0991 -0.1137
 2164SOL    HW117954   2.200   2.469   6.264 -0.5734 -0.3323 -0.8645
 2164SOL    HW217955   2.308   2.561   6.228  0.7044 -0.5127  0.2817
 2165SOL     OW17956   0.548   0.928   4.442 -0.0125 -0.1262  0.1455
 2165SOL    HW117957   0.554   0.983   4.364  0.9785  2.4728  2.0375
 2165SOL    HW217958   0.487   0.860   4.416 -0.8929  0.6818  0.1287
 2166SOL     OW17959   3.809   4.012  16.807  0.2566  0.6146  0.4479
 2166SOL    HW117960   3.837   4.008  16.716 -2.7843  0.0697 -0.4502
 2166SOL    HW217961   3.731   4.067  16.796 -0.7180 -1.1547 -1.4268
 2167SOL     OW17962   0.237   0.740   7.992  0.1374  0.4807 -0.4009
 2167SOL    HW117963   0.182   0.725   7.915  1.0371  2.6266 -1.4563
 2167SOL    HW217964   0.173   0.752   8.063 -1.3646 -1.8044 -1.3615
 2168SOL     OW17965   0.524   4.069   5.204  0.1245 -0.3557 -0.1062
 2168SOL    HW117966   0.501   3.984   5.167 -0.7731 -0.2309  0.1836
 2168SOL    HW217967   0.476   4.125   5.143 -0.6524 -0.6651  0.2318
 2169SOL     OW17968   2.248   4.658   6.975  0.1377 -0.2771 -0.0902
 2169SOL    HW117969   2.166   4.660   6.926 -0.2632  1.3245  0.6378
 2169SOL    HW217970   2.305   4.637   6.901 -0.1056 -1.5649  0.0856
 2170SOL     OW17971   2.629   2.813   8.886  0.3452 -0.7709 -0.1837
 2170SOL    HW117972   2.707   2.813   8.830  0.4916  2.4062 -0.0236
 2170SOL    HW217973   2.621   2.721   8.911 -0.9124 -0.6947 -0.3033
 2171SOL     OW17974   1.216   2.532   3.416 -0.2579 -0.2805 -0.0121
 2171SOL    HW117975   1.235   2.618   3.379  0.5629 -0.4377  0.0282
 2171SOL    HW217976   1.249   2.482   3.341  1.1019 -1.7576  1.5463
 2172SOL     OW17977   3.554   4.492   5.988  0.0450 -0.4753  0.2329
 2172SOL    HW117978   3.498   4.546   6.045  0.5443 -0.7690  0.9985
 2172SOL    HW217979   3.518   4.520   5.904  0.9498 -0.0903 -0.0232
 2173SOL     OW17980   1.627   0.059  17.396 -0.2395 -0.0462 -0.7821
 2173SOL    HW117981   1.665   0.011  17.470 -0.1726  1.8160  0.3920
 2173SOL    HW217982   1.533   0.054  17.415 -0.1756 -1.3232 -0.7983
 2174SOL     OW17983   3.555   1.753   9.207 -0.1221 -0.4313  0.4713
 2174SOL    HW117984   3.587   1.792   9.288 -2.3470  1.3961  0.4826
 2174SOL    HW217985   3.485   1.816   9.190  0.0082 -1.1890 -2.8206
 2175SOL     OW17986   3.103   0.101   7.796 -0.5014  0.3788  0.0659
 2175SOL    HW117987   3.062   0.144   7.871  0.3428  1.6291 -0.1944
 2175SOL    HW217988   3.190   0.084   7.833 -1.7051  0.5515  2.9963
 2176SOL     OW17989   2.005   3.837  11.816 -0.1209 -0.4787 -0.0765
 2176SOL    HW117990   2.031   3.913  11.763 -1.7045  1.2533  1.6157
 2176SOL    HW217991   1.934   3.801  11.764 -0.7348  0.9643 -0.2562
 2177SOL     OW17992   3.383   2.324   1.124 -0.2069 -0.0317 -0.2695
 2177SOL    HW117993   3.301   2.276   1.138 -0.4724  0.7942  0.9349
 2177SOL    HW217994   3.395   2.380   1.200 -0.3021 -0.1442 -0.1713
 2178SOL     OW17995   3.724   0.104   2.651  0.2484  0.0442  0.4948
 2178SOL    HW117996   3.632   0.129   2.661  0.6642  2.3641 -1.3699
 2178SOL    HW217997   3.761   0.181   2.607 -0.1402 -0.2207 -0.3117
 2179SOL     OW17998   0.005   2.062  12.127 -0.2478 -0.4493  0.0618
 2179SOL    HW117999   0.004   2.157  12.112  2.1057  0.0252  2.8603
 2179SOL    HW218000   0.035   2.038  12.039 -1.3828 -1.2123 -0.1143
 2180SOL     OW18001   4.439   2.398   8.690  0.1563 -0.3871 -0.0226
 2180SOL    HW118002   4.407   2.470   8.636 -0.0344 -1.0577 -0.8130
 2180SOL    HW218003   4.434   2.446   8.772 -2.4926  0.1299 -0.4936
 2181SOL     OW18004   2.304   2.260   7.062 -0.6073  0.5328 -0.3574
 2181SOL    HW118005   2.281   2.289   7.150  0.2712  0.5392 -0.1306
 2181SOL    HW218006   2.220   2.242   7.020 -0.7423 -2.3566  1.1167
 2182SOL     OW18007   1.821   2.563   1.468 -0.2317 -0.1732  0.0294
 2182SOL    HW118008   1.792   2.568   1.559 -2.5937  1.9170 -0.8213
 2182SOL    HW218009   1.756   2.625   1.435 -0.8260 -0.3437  0.8824
 2183SOL     OW18010   2.145   3.961   5.477  0.1174  0.4119 -0.0876
 2183SOL    HW118011   2.221   3.923   5.522 -0.2124  0.6894  0.7067
 2183SOL    HW218012   2.178   3.943   5.389 -2.4556  0.5014 -1.0723
 2184SOL     OW18013   4.071   0.051   2.741 -0.4838  0.0668 -0.0736
 2184SOL    HW118014   4.123   0.069   2.663 -1.3948 -3.5193 -1.4950
 2184SOL    HW218015   4.095   4.683   2.755 -1.0453 -0.2515 -1.2283
 2185SOL     OW18016   0.763   4.410   0.625  0.0063 -0.2268  0.3147
 2185SOL    HW118017   0.856   4.392   0.633 -0.2599 -1.0816  1.6750
 2185SOL    HW218018   0.744   4.450   0.710  2.1469  0.2935  0.5287
 2186SOL     OW18019   3.309   3.549   3.114  0.0694  0.3400 -0.0450
 2186SOL    HW118020   3.290   3.457   3.131 -0.4067  0.0456 -2.1759
 2186SOL    HW218021   3.369   3.546   3.040 -0.2514  0.6623 -0.3188
 2187SOL     OW18022   0.708   4.057   7.561  0.1325  0.2432  0.2682
 2187SOL    HW118023   0.697   4.039   7.467  1.2107  1.3129 -0.0571
 2187SOL    HW218024   0.713   3.964   7.583 -2.5083 -0.2565 -1.2258
 2188SOL     OW18025   2.388   1.830   2.189 -0.1962  0.9884 -0.2504
 2188SOL    HW118026   2.317   1.794   2.242  1.2098 -1.7072 -0.1980
 2188SOL    HW218027   2.414   1.750   2.144  1.0909  1.4276 -0.2936
 2189SOL     OW18028   3.039   4.674   3.906  0.1241  0.0724  0.4398
 2189SOL    HW118029   3.086   0.034   3.905 -2.4479  1.5021 -0.0068
 2189SOL    HW218030   3.094   4.623   3.967  0.3012 -0.5438 -0.2335
 2190SOL     OW18031   4.343   3.158   5.539  0.1356 -0.5195  0.2810
 2190SOL    HW118032   4.253   3.131   5.551 -0.1930  0.2697 -0.3757
 2190SOL    HW218033   4.347   3.186   5.447 -4.2900  3.0898  1.2135
 2191SOL     OW18034   2.855   0.263   6.267 -0.3117 -0.2619 -0.0806
 2191SOL    HW118035   2.821   0.278   6.355  0.7339 -0.3474  0.3443
 2191SOL    HW218036   2.927   0.325   6.255 -0.9142  1.0951  3.4702
 2192SOL     OW18037   1.068   1.540  17.131 -0.1928 -0.3623 -0.2089
 2192SOL    HW118038   1.150   1.532  17.179 -0.3883  0.7910  0.3240
 2192SOL    HW218039   1.084   1.481  17.057  1.9771  0.7090 -0.6112
 2193SOL     OW18040   1.379   1.919   8.567  0.3125  0.0597  0.0888
 2193SOL    HW118041   1.365   1.990   8.504 -0.7523 -0.8297 -0.6874
 2193SOL    HW218042   1.377   1.956   8.654 -2.1202  1.6706 -0.6705
 2194SOL     OW18043   2.341   1.012  14.452 -0.1700  0.1142  0.6205
 2194SOL    HW118044   2.293   0.980  14.376  1.6627  2.2752 -1.4288
 2194SOL    HW218045   2.419   1.060  14.423  0.1254  0.0810  1.3416
 2195SOL     OW18046   2.103   4.179   4.198 -0.5000  0.3086  0.4494
 2195SOL    HW118047   2.124   4.098   4.245  0.1066 -0.2264 -0.7576
 2195SOL    HW218048   2.033   4.217   4.251  0.9776  0.0684  2.5502
 2196SOL     OW18049   1.423   3.860   1.256  0.7558 -0.5650  0.1012
 2196SOL    HW118050   1.370   3.810   1.194 -0.3797 -0.9051  1.3452
 2196SOL    HW218051   1.359   3.905   1.311  0.2328  1.2483 -2.0042
 2197SOL     OW18052   0.124   0.792   8.255 -0.4932 -0.4586  0.1369
 2197SOL    HW118053   0.196   0.854   8.266 -1.6507  0.9590 -0.3220
 2197SOL    HW218054   0.056   0.826   8.312  0.6983  0.9788  0.7011
 2198SOL     OW18055   1.777   4.456   7.176 -0.2520  0.1259  0.2896
 2198SOL    HW118056   1.724   4.444   7.098 -0.2821  0.2646  0.2899
 2198SOL    HW218057   1.733   4.529   7.219  1.1415  0.5980  0.9200
 2199SOL     OW18058   2.254   2.304   5.807 -0.3552 -0.4203  0.6684
 2199SOL    HW118059   2.206   2.243   5.751 -0.8570  0.3287  0.2922
 2199SOL    HW218060   2.316   2.243   5.848  0.9894 -0.7678 -1.8135
 2200SOL     OW18061   0.919   4.614  15.652 -0.0103 -0.0677  0.0575
 2200SOL    HW118062   0.932   4.526  15.687  1.1595 -0.3512 -1.0708
 2200SOL    HW218063   1.003   4.658  15.663  0.7678 -1.2953 -0.9031
 2201SOL     OW18064   1.558   4.117   3.701  0.1545 -0.0535  0.0058
 2201SOL    HW118065   1.479   4.146   3.654 -0.8252 -0.1064  1.5991
 2201SOL    HW218066   1.539   4.024   3.712  1.7283 -0.5203 -1.2604
 2202SOL     OW18067   3.748   2.662   6.907 -0.0987 -0.3069  0.5310
 2202SOL    HW118068   3.693   2.739   6.925  2.0507  0.9403  1.7388
 2202SOL    HW218069   3.684   2.594   6.928  0.1894 -0.3885  1.1689
 2203SOL     OW18070   2.779   3.184  14.537  0.0155  0.0252 -0.5321
 2203SOL    HW118071   2.714   3.238  14.492 -0.3339 -0.1137 -0.1795
 2203SOL    HW218072   2.722   3.127  14.588  1.0364 -0.0985  0.4625
 2204SOL     OW18073   3.045   0.239   5.286 -0.1464 -0.3527 -0.2094
 2204SOL    HW118074   3.047   0.324   5.242 -2.4287 -0.1848  0.0046
 2204SOL    HW218075   3.054   0.191   5.204  0.5863 -1.2007  0.3665
 2205SOL     OW18076   4.311   2.531   8.206 -0.1166 -0.4619  0.3739
 2205SOL    HW118077   4.283   2.622   8.196 -1.4769 -1.0115 -0.8563
 2205SOL    HW218078   4.232   2.485   8.237  0.5636 -1.2456  0.9588
 2206SOL     OW18079   1.770   3.658   3.895 -0.1773  0.2234 -1.1526
 2206SOL    HW118080   1.835   3.596   3.929 -0.9075 -0.8077 -1.6274
 2206SOL    HW218081   1.748   3.619   3.810 -0.0605  0.4958 -1.3103
 2207SOL     OW18082   1.138   2.653   8.541 -0.2302 -0.2646 -0.5138
 2207SOL    HW118083   1.055   2.663   8.587  0.3668  4.3770 -0.4535
 2207SOL    HW218084   1.112   2.659   8.449 -1.4301  3.6776  0.0803
 2208SOL     OW18085   3.111   2.753   0.465 -0.2732  0.3132 -0.7621
 2208SOL    HW118086   3.150   2.835   0.435  2.6952 -1.0797 -0.7341
 2208SOL    HW218087   3.032   2.758   0.411 -2.0150  0.6522  1.8540
 2209SOL     OW18088   1.034   1.844   2.028  0.5790 -0.0802  0.9965
 2209SOL    HW118089   0.969   1.910   2.006  0.8361 -0.6148 -1.3510
 2209SOL    HW218090   1.044   1.810   1.939  0.2453 -0.2470  1.0241
 2210SOL     OW18091   0.457   2.601   4.956 -0.2181  0.0769  0.1187
 2210SOL    HW118092   0.481   2.509   4.942  0.8643  0.3100  0.4801
 2210SOL    HW218093   0.520   2.628   5.023  0.4573  1.6426 -1.1567
 2211SOL     OW18094   4.272   2.436  14.578 -0.4507 -0.6492  0.1171
 2211SOL    HW118095   4.343   2.373  14.589  0.6051  0.0971 -2.4167
 2211SOL    HW218096   4.197   2.381  14.598  0.2643 -1.2212  1.2577
 2212SOL     OW18097   0.984   1.304   3.847 -0.3874 -0.1886 -0.4110
 2212SOL    HW118098   1.043   1.228   3.851 -1.2046 -0.7466  1.0849
 2212SOL    HW218099   1.022   1.355   3.776 -2.6196  2.1583  0.0878
 2213SOL     OW18100   4.363   1.076  11.705  0.2253 -0.0650 -0.4070
 2213SOL    HW118101   4.326   1.158  11.739 -2.2366 -1.1022 -0.6156
 2213SOL    HW218102   4.450   1.084  11.744  0.2738 -1.0505 -0.3092
 2214SOL     OW18103   4.262   3.903  10.893 -0.6305  0.3331  0.7909
 2214SOL    HW118104   4.214   3.848  10.831 -0.1869 -1.2098  1.8110
 2214SOL    HW218105   4.352   3.876  10.874 -1.4582 -0.9112 -1.3202
 2215SOL     OW18106   3.757   0.601  14.913  0.1755 -0.1420  0.1538
 2215SOL    HW118107   3.678   0.641  14.948 -0.4125  0.8636 -2.3009
 2215SOL    HW218108   3.739   0.516  14.953  0.6492 -0.9599 -1.3474
 2216SOL     OW18109   2.331   3.444   8.180 -0.6646 -0.2893 -0.6602
 2216SOL    HW118110   2.288   3.521   8.143  1.8520  1.8053  0.8548
 2216SOL    HW218111   2.317   3.456   8.274 -2.8506 -2.3224 -0.7060
 2217SOL     OW18112   4.066   3.429  10.321 -0.3977 -0.1313 -0.6231
 2217SOL    HW118113   4.126   3.367  10.279  0.4437  0.1614  0.1450
 2217SOL    HW218114   3.982   3.410  10.280 -0.1297 -0.8137 -0.8549
 2218SOL     OW18115   4.416   0.482   1.497 -0.2866 -0.0355  0.2761
 2218SOL    HW118116   4.446   0.395   1.472  1.4409  1.2034 -1.9155
 2218SOL    HW218117   4.322   0.476   1.479 -0.3576 -0.1819  0.6991
 2219SOL     OW18118   0.496   4.717  16.722  0.0010 -0.3181  0.1063
 2219SOL    HW118119   0.419   0.049  16.715  1.3144  1.4666 -0.2268
 2219SOL    HW218120   0.568   0.046  16.686 -0.7288  1.5229  1.3687
 2220SOL     OW18121   1.690   0.380   8.138  0.1116 -0.0667  0.3033
 2220SOL    HW118122   1.675   0.425   8.055 -0.1666  0.1019  0.4417
 2220SOL    HW218123   1.747   0.440   8.186  1.9792 -0.7170 -1.0939
 2221SOL     OW18124   3.185   0.495   3.427  0.3081 -0.2318  0.0647
 2221SOL    HW118125   3.230   0.410   3.423 -0.4942 -0.6058 -1.2942
 2221SOL    HW218126   3.241   0.557   3.472 -0.2682  0.4884 -0.2148
 2222SOL     OW18127   1.966   4.121   1.228 -0.3906 -0.6035 -0.3118
 2222SOL    HW118128   2.030   4.153   1.292 -1.9262  1.0216  0.4269
 2222SOL    HW218129   1.920   4.204   1.217  0.6416 -0.1840 -1.5112
 2223SOL     OW18130   1.238   1.197  10.700  0.1031  0.2646  0.4931
 2223SOL    HW118131   1.229   1.151  10.616  0.2741  0.6094  0.2856
 2223SOL    HW218132   1.313   1.254  10.683  2.0327 -2.4768 -0.3047
 2224SOL     OW18133   2.228   3.297   6.964 -0.3781 -0.2783 -0.1192
 2224SOL    HW118134   2.237   3.280   6.871 -0.4184  0.1287 -0.1979
 2224SOL    HW218135   2.148   3.245   6.970 -1.7088  2.0210  2.0351
 2225SOL     OW18136   4.432   0.607  15.464  0.1615  0.2430  0.2255
 2225SOL    HW118137   4.451   0.534  15.404  0.6564  0.7136 -0.1979
 2225SOL    HW218138   4.517   0.615  15.508  0.5958 -0.7616 -0.4206
 2226SOL     OW18139   2.443   1.973   5.073  0.2679  0.0836 -0.4516
 2226SOL    HW118140   2.429   2.067   5.071 -1.9506 -0.2495 -0.5828
 2226SOL    HW218141   2.421   1.944   4.984  2.7528 -2.7750 -0.1371
 2227SOL     OW18142   2.164   2.046   3.309 -0.1554 -0.5269  0.1810
 2227SOL    HW118143   2.120   1.997   3.239 -0.7980 -0.6213  0.6547
 2227SOL    HW218144   2.136   1.984   3.376 -3.0601  0.4916 -0.1057
 2228SOL     OW18145   3.849   2.425  14.753  0.2864 -0.0977  0.5133
 2228SOL    HW118146   3.816   2.336  14.771 -0.7111  0.2490  0.4168
 2228SOL    HW218147   3.855   2.467  14.839  2.0869 -2.3070  1.4814
 2229SOL     OW18148   2.094   4.310   2.018  0.1973 -0.0256 -0.5250
 2229SOL    HW118149   2.108   4.223   2.055 -2.4947  0.5727  1.9541
 2229SOL    HW218150   2.119   4.294   1.927  3.2679 -2.0717  0.7232
 2230SOL     OW18151   0.787   1.131   9.177 -0.2417  0.0762 -0.3498
 2230SOL    HW118152   0.803   1.114   9.084  2.1118 -0.5280  0.1655
 2230SOL    HW218153   0.832   1.211   9.203  0.9981 -0.1539 -1.7991
 2231SOL     OW18154   4.512   2.990  15.796 -0.1660 -0.1327  0.7682
 2231SOL    HW118155   4.479   3.080  15.791 -1.2885 -0.5993 -0.2560
 2231SOL    HW218156   4.515   2.971  15.702 -0.9189  1.2446  0.4580
 2232SOL     OW18157   2.992   1.223  16.059 -0.2936 -0.1166  0.0962
 2232SOL    HW118158   2.972   1.229  15.966  0.5773  0.1483 -0.0762
 2232SOL    HW218159   2.905   1.214  16.097 -0.1869  0.2072  0.4217
 2233SOL     OW18160   0.056   2.653   3.902 -0.0974 -0.5968  0.1136
 2233SOL    HW118161   0.026   2.742   3.888  1.0970 -0.7121 -3.1071
 2233SOL    HW218162   0.126   2.680   3.961 -0.3075 -0.3438  0.2436
 2234SOL     OW18163   2.578   4.213   8.364 -0.2152 -0.2733  0.3980
 2234SOL    HW118164   2.653   4.218   8.424 -0.0451 -0.7245  0.2225
 2234SOL    HW218165   2.622   4.143   8.316 -0.6527 -1.5994  1.9139
 2235SOL     OW18166   2.769   4.570   7.405  0.5752  0.2053  0.2153
 2235SOL    HW118167   2.851   4.521   7.407 -0.1688 -1.0620 -0.1721
 2235SOL    HW218168   2.786   4.629   7.479 -0.1918  2.7422 -1.6264
 2236SOL     OW18169   3.564   4.562   7.974 -0.5092 -0.3948  0.2623
 2236SOL    HW118170   3.545   4.505   7.899  0.1727 -0.1150 -0.1198
 2236SOL    HW218171   3.641   4.609   7.942 -1.4676  2.0407  1.5409
 2237SOL     OW18172   2.232   3.834   2.998 -0.0345 -0.1628 -0.5791
 2237SOL    HW118173   2.198   3.854   3.085  2.5154  0.2575  0.3413
 2237SOL    HW218174   2.160   3.777   2.973 -0.5815 -0.3866  1.4784
 2238SOL     OW18175   1.380   2.291   0.927  0.3091 -0.0606 -0.1307
 2238SOL    HW118176   1.367   2.205   0.886 -0.6698 -0.3439  0.7729
 2238SOL    HW218177   1.362   2.282   1.020 -0.6312  0.0894 -0.3010
 2239SOL     OW18178   3.575   3.022   6.352  0.8144  0.1042  0.9027
 2239SOL    HW118179   3.566   3.070   6.270  2.2849 -0.4391  0.4166
 2239SOL    HW218180   3.549   2.934   6.325  0.0307  0.0908  1.6936
 2240SOL     OW18181   3.600   4.119  17.528 -0.1420  0.3497 -0.1876
 2240SOL    HW118182   3.627   4.028  17.545  1.7084  1.1604  1.2514
 2240SOL    HW218183   3.674   4.165  17.567  0.1083 -2.1015  2.2566
 2241SOL     OW18184   4.385   0.988   1.929  0.2008  0.6751  0.1392
 2241SOL    HW118185   4.346   1.054   1.987 -1.5620 -1.0542  0.8863
 2241SOL    HW218186   4.336   0.911   1.956  0.1346  1.4064  2.1440
 2242SOL     OW18187   1.921   1.450   9.094  0.1747 -0.3113 -0.1837
 2242SOL    HW118188   1.964   1.536   9.095  1.7472 -1.0907 -0.5142
 2242SOL    HW218189   1.995   1.394   9.118  1.1815  0.8195 -0.5964
 2243SOL     OW18190   3.615   2.666   4.323  0.2804 -0.3154 -0.0797
 2243SOL    HW118191   3.692   2.634   4.369  0.7160  0.1857 -0.4544
 2243SOL    HW218192   3.537   2.620   4.354 -0.1440  0.0954 -0.5340
 2244SOL     OW18193   3.360   0.382   4.482 -0.1608  0.0736  0.0320
 2244SOL    HW118194   3.441   0.339   4.456  0.5148  1.1281  0.3665
 2244SOL    HW218195   3.298   0.310   4.478  0.7456 -0.8760  2.5375
 2245SOL     OW18196   1.256   4.470  10.539 -0.4490 -0.2918  0.0430
 2245SOL    HW118197   1.342   4.468  10.496 -0.9690 -1.9552 -0.9275
 2245SOL    HW218198   1.210   4.535  10.485  0.4599 -0.6849 -1.2184
 2246SOL     OW18199   2.384   1.795  11.639  0.6368 -0.8902  0.2244
 2246SOL    HW118200   2.354   1.708  11.662  2.5391 -1.9886 -1.4037
 2246SOL    HW218201   2.356   1.841  11.718 -1.2515 -1.0250 -0.3650
 2247SOL     OW18202   2.837   0.568   3.492  0.0913  0.0684 -0.0442
 2247SOL    HW118203   2.820   0.482   3.529 -0.2135 -0.3217 -1.0992
 2247SOL    HW218204   2.769   0.579   3.426 -0.0208 -1.1214 -0.1285
 2248SOL     OW18205   3.403   3.884   1.572 -0.3673  0.0816 -0.0542
 2248SOL    HW118206   3.477   3.839   1.532  0.5676  0.7688  0.9026
 2248SOL    HW218207   3.353   3.812   1.612 -1.7672  0.2196 -1.5365
 2249SOL     OW18208   0.101   3.783  15.421  0.1424 -0.1339  0.5635
 2249SOL    HW118209   0.141   3.773  15.335 -0.5676  0.4705  0.1655
 2249SOL    HW218210   0.017   3.825  15.402 -1.7290 -3.1995  2.1230
 2250SOL     OW18211   2.634   3.181   7.890  0.5917  0.4389 -0.6646
 2250SOL    HW118212   2.571   3.251   7.907  0.1483 -0.2975  0.7605
 2250SOL    HW218213   2.600   3.106   7.940  3.0734 -0.5967 -0.5220
 2251SOL     OW18214   1.655   2.393  11.358 -0.5650 -0.1723  0.2151
 2251SOL    HW118215   1.639   2.393  11.264  0.2453  0.9876  0.0830
 2251SOL    HW218216   1.715   2.467  11.362 -0.6035 -0.0710 -1.1222
 2252SOL     OW18217   3.756   4.110   0.494 -0.1832  0.2976  0.6234
 2252SOL    HW118218   3.789   4.197   0.474  0.4789 -0.2437 -0.6441
 2252SOL    HW218219   3.810   4.054   0.438 -0.6117 -1.5930  2.1033
 2253SOL     OW18220   1.708   3.465   6.401  0.0997  0.0366 -0.1114
 2253SOL    HW118221   1.676   3.555   6.391  2.0425  0.8356  0.9741
 2253SOL    HW218222   1.749   3.459   6.315  0.5766  0.6854  0.0716
 2254SOL     OW18223   0.988   3.296   8.331 -0.1618 -0.1375 -0.1641
 2254SOL    HW118224   1.011   3.239   8.257 -0.2907  0.2667 -0.5201
 2254SOL    HW218225   0.970   3.228   8.395 -0.2259  0.3717  0.3625
 2255SOL     OW18226   4.159   0.577   4.728  0.0347 -0.1094 -0.5340
 2255SOL    HW118227   4.110   0.659   4.723 -3.7829 -2.4686 -2.0778
 2255SOL    HW218228   4.133   0.534   4.646  0.7150 -0.0119 -0.8039
 2256SOL     OW18229   2.275   3.539   7.845  0.2851 -0.1287  0.5265
 2256SOL    HW118230   2.197   3.520   7.899 -0.9741  0.0902 -1.2168
 2256SOL    HW218231   2.243   3.613   7.793  0.6853 -0.1046  0.3248
 2257SOL     OW18232   0.354   4.106  15.715  0.0834  0.3413 -0.0693
 2257SOL    HW118233   0.369   4.017  15.683  1.9997 -0.4751  3.1113
 2257SOL    HW218234   0.414   4.161  15.665  0.7644  0.3519  0.7627
 2258SOL     OW18235   0.662   4.656  15.714  0.4253  0.6837 -0.2475
 2258SOL    HW118236   0.757   4.651  15.705  0.4423 -0.6145  0.5961
 2258SOL    HW218237   0.642   0.019  15.679  0.5829  0.7141 -0.2595
 2259SOL     OW18238   1.544   3.963   7.497  0.4614  0.0493 -0.2482
 2259SOL    HW118239   1.568   4.046   7.537 -1.7324  0.3606  0.4088
 2259SOL    HW218240   1.558   3.989   7.406  1.9148 -1.4016 -0.4334
 2260SOL     OW18241   0.370   1.735   2.799 -0.3455 -0.3688  0.0354
 2260SOL    HW118242   0.400   1.711   2.887 -0.1860 -1.6781 -0.3797
 2260SOL    HW218243   0.445   1.699   2.752  0.8677  1.0766  0.8785
 2261SOL     OW18244   1.711   0.616  13.006  0.0658  0.1655  0.3845
 2261SOL    HW118245   1.644   0.616  13.074 -2.6041 -1.1452 -2.2317
 2261SOL    HW218246   1.716   0.523  12.985 -0.4962  0.3693 -0.6865
 2262SOL     OW18247   1.815   1.191   3.517  0.6931  0.3381 -0.5558
 2262SOL    HW118248   1.748   1.135   3.478 -0.5331  2.1463 -1.0263
 2262SOL    HW218249   1.881   1.194   3.448  2.5892  0.0073  1.2288
 2263SOL     OW18250   1.515   2.256   7.313 -0.7144  0.4605 -0.4074
 2263SOL    HW118251   1.606   2.281   7.294  0.1382 -0.8474  1.9399
 2263SOL    HW218252   1.469   2.288   7.236 -0.0883  0.0671 -0.9487
 2264SOL     OW18253   2.326   3.456   8.443 -0.1929  0.3955  0.1916
 2264SOL    HW118254   2.296   3.398   8.513  2.8159 -0.7704  0.4860
 2264SOL    HW218255   2.266   3.529   8.460  0.3860  0.5989  1.3229
 2265SOL     OW18256   1.463   4.029   2.444  0.2701  0.7701  0.5589
 2265SOL    HW118257   1.411   4.001   2.369  0.1222  1.4533  0.4052
 2265SOL    HW218258   1.530   4.081   2.398  0.5921 -0.7219 -0.6394
 2266SOL     OW18259   2.371   1.870   2.722  0.5257 -0.2067  0.1973
 2266SOL    HW118260   2.344   1.927   2.795  0.7225  0.9470 -0.6236
 2266SOL    HW218261   2.377   1.930   2.647 -0.9191 -1.8177 -1.1858
 2267SOL     OW18262   3.399   0.487   5.794 -0.4236  0.2927 -0.0089
 2267SOL    HW118263   3.364   0.510   5.880 -1.1792  0.2886 -0.3130
 2267SOL    HW218264   3.408   0.393   5.804 -0.6916  0.1280 -1.2496
 2268SOL     OW18265   4.108   1.431   2.545  0.2804 -0.5167 -0.0004
 2268SOL    HW118266   4.118   1.463   2.635 -0.8975 -0.4640  0.1086
 2268SOL    HW218267   4.202   1.429   2.526  0.4399 -3.5833  1.1564
 2269SOL     OW18268   2.878   3.961   0.530  0.2470 -0.1868 -0.0962
 2269SOL    HW118269   2.965   3.957   0.490 -0.1376 -2.4154 -0.6927
 2269SOL    HW218270   2.824   3.962   0.451  0.4742  2.1991 -0.2295
 2270SOL     OW18271   0.407   4.095   1.581 -0.0491 -0.5627 -0.3162
 2270SOL    HW118272   0.497   4.117   1.603  0.0562 -0.2665 -1.0242
 2270SOL    HW218273   0.418   4.009   1.541  2.5513 -0.5006  0.2945
 2271SOL     OW18274   3.543   3.211  17.629 -0.4183 -0.8579 -0.1728
 2271SOL    HW118275   3.539   3.170   0.019  0.6778 -1.9084 -0.6296
 2271SOL    HW218276   3.467   3.165  17.593 -1.3484 -0.6881  1.6031
 2272SOL     OW18277   4.299   0.997   5.875  0.0169  0.4630  0.4306
 2272SOL    HW118278   4.352   0.952   5.941  0.3938 -1.1268 -0.9183
 2272SOL    HW218279   4.244   0.923   5.847 -0.5272 -0.0371  2.8154
 2273SOL     OW18280   2.505   1.358   3.317 -0.8070 -0.1565  0.1362
 2273SOL    HW118281   2.587   1.314   3.341 -0.2289 -0.2226 -1.9646
 2273SOL    HW218282   2.535   1.446   3.295 -2.3183  0.0520 -1.1684
 2274SOL     OW18283   1.542   3.864  11.568  0.6513 -0.1603  0.1187
 2274SOL    HW118284   1.598   3.868  11.490  0.1452 -1.1223 -0.2883
 2274SOL    HW218285   1.522   3.772  11.585 -0.0853 -0.1767 -0.8572
 2275SOL     OW18286   0.991   0.565   1.998 -0.4115 -0.0534  0.8704
 2275SOL    HW118287   0.907   0.548   2.040 -1.4494 -1.0147 -1.5408
 2275SOL    HW218288   1.040   0.616   2.063 -2.6290  1.1434  1.6043
 2276SOL     OW18289   1.193   1.255  12.754 -1.3782  0.0055  0.4610
 2276SOL    HW118290   1.255   1.184  12.772 -0.6018  0.0460 -1.9840
 2276SOL    HW218291   1.111   1.217  12.783 -0.6868 -1.2125  0.8308
 2277SOL     OW18292   1.560   3.566  11.901  0.0180  0.6829  0.3691
 2277SOL    HW118293   1.629   3.558  11.968  0.5363  0.6876 -0.1667
 2277SOL    HW218294   1.556   3.661  11.906  0.8700  0.5886  2.8405
 2278SOL     OW18295   2.454   2.937   5.119 -0.2965  0.3906  0.3874
 2278SOL    HW118296   2.494   2.872   5.176  0.5243 -0.3940 -1.0722
 2278SOL    HW218297   2.445   3.012   5.177  1.2858  1.5394 -0.8818
 2279SOL     OW18298   3.539   0.463  13.951  0.1196 -0.2389  0.2813
 2279SOL    HW118299   3.475   0.462  14.022 -0.7942  0.6618 -0.5365
 2279SOL    HW218300   3.616   0.415  13.982  1.1784  1.0942 -0.2725
 2280SOL     OW18301   3.448   1.355   7.858 -0.1055  0.0407  0.0475
 2280SOL    HW118302   3.513   1.422   7.877  0.4549 -0.1850 -1.0911
 2280SOL    HW218303   3.378   1.389   7.914  0.5696 -0.7842  1.3712
 2281SOL     OW18304   4.048   2.474   8.225  0.3828  0.4465 -0.2594
 2281SOL    HW118305   3.962   2.481   8.183  0.7324  0.7672 -0.9205
 2281SOL    HW218306   4.061   2.379   8.220 -1.1118  0.1743  1.4957
 2282SOL     OW18307   2.271   1.612   5.566  0.4519 -0.3296  0.8016
 2282SOL    HW118308   2.291   1.559   5.490  1.7691  1.8314 -0.3525
 2282SOL    HW218309   2.201   1.675   5.550 -0.0179 -1.0400  0.0961
 2283SOL     OW18310   3.852   2.519   4.034 -0.0727  0.1904  0.2034
 2283SOL    HW118311   3.879   2.610   4.051  0.8235  0.1821 -1.0997
 2283SOL    HW218312   3.759   2.526   4.054  0.0111  3.1830 -0.4334
 2284SOL     OW18313   0.461   4.498  14.076 -0.6066 -0.5033 -0.5614
 2284SOL    HW118314   0.438   4.591  14.066  1.0469 -0.1615 -1.2676
 2284SOL    HW218315   0.555   4.502  14.058 -0.5367  0.9073  0.0457
 2285SOL     OW18316   1.209   0.377   0.514 -0.5553 -0.0542 -0.3674
 2285SOL    HW118317   1.186   0.332   0.432 -2.0020  1.4520 -0.8094
 2285SOL    HW218318   1.219   0.469   0.488  0.9468 -0.1106  0.0380
 2286SOL     OW18319   2.955   2.738   9.468  0.4481  0.5291 -0.1680
 2286SOL    HW118320   3.025   2.704   9.524 -1.6630 -2.2193  0.7633
 2286SOL    HW218321   3.005   2.750   9.387  0.4334 -0.3738 -0.3120
 2287SOL     OW18322   1.906   4.547   4.646  0.8106  0.1502  0.0757
 2287SOL    HW118323   1.843   4.544   4.718 -1.3882 -0.2124 -1.8631
 2287SOL    HW218324   1.848   4.542   4.569 -0.8979  1.8628  1.2740
 2288SOL     OW18325   3.560   4.281  12.403  0.1618 -0.5198  0.0356
 2288SOL    HW118326   3.512   4.220  12.347  0.4677 -0.3302 -0.4270
 2288SOL    HW218327   3.639   4.231  12.419  0.9818  1.4905  2.3327
 2289SOL     OW18328   0.961   1.037   7.795  0.3479  0.2021 -0.9257
 2289SOL    HW118329   1.057   1.028   7.798  0.3167  0.2365  0.0178
 2289SOL    HW218330   0.954   1.067   7.704  0.7552  1.7620 -0.4491
 2290SOL     OW18331   1.700   4.012   8.112 -0.1665 -0.1913  0.3898
 2290SOL    HW118332   1.665   4.041   8.197 -1.1621  0.3321 -0.1999
 2290SOL    HW218333   1.762   4.081   8.090 -0.6723  0.2222  0.2406
 2291SOL     OW18334   0.913   3.983  11.227 -0.5626 -0.0660 -0.0455
 2291SOL    HW118335   0.935   4.063  11.180 -0.9348  0.7456  1.1536
 2291SOL    HW218336   0.989   3.929  11.205 -0.3198  0.2459  0.0286
 2292SOL     OW18337   1.311   2.668   3.957 -0.3691 -0.0247  0.3842
 2292SOL    HW118338   1.348   2.660   4.045 -0.3369  0.1759  0.3884
 2292SOL    HW218339   1.350   2.587   3.922 -1.1149 -0.8471  1.4912
 2293SOL     OW18340   4.617   3.842   0.693  0.2036 -0.5259 -0.3475
 2293SOL    HW118341   4.695   3.862   0.746 -0.5033  0.8161  0.1853
 2293SOL    HW218342   4.608   3.748   0.705  1.3126 -0.9593 -2.9643
 2294SOL     OW18343   2.188   3.499   8.988 -0.0807 -1.0921 -0.2329
 2294SOL    HW118344   2.107   3.447   8.981 -2.0017  1.8288  0.5171
 2294SOL    HW218345   2.152   3.586   9.002  1.5471 -0.8093  2.2690
 2295SOL     OW18346   3.626   1.310   4.101  0.3996  0.1123 -0.1233
 2295SOL    HW118347   3.567   1.264   4.042 -1.3484  1.4821  0.5523
 2295SOL    HW218348   3.587   1.294   4.187  0.7720  1.8915  0.3814
 2296SOL     OW18349   3.261   2.229   6.118  0.8664  0.0669 -0.0080
 2296SOL    HW118350   3.294   2.212   6.030  1.1137 -2.7782  0.6421
 2296SOL    HW218351   3.170   2.254   6.102  0.4069 -0.7592  1.2861
 2297SOL     OW18352   1.289   2.588   9.026 -0.0957 -0.2861  0.2427
 2297SOL    HW118353   1.275   2.522   9.094 -0.5766  1.5488  1.9257
 2297SOL    HW218354   1.219   2.651   9.042 -0.2664  0.5442 -3.7957
 2298SOL     OW18355   4.230   1.971   2.989  0.2157  0.4589  0.5813
 2298SOL    HW118356   4.173   1.913   2.940 -1.1479  2.3768 -0.1040
 2298SOL    HW218357   4.290   2.004   2.922 -0.6156 -0.1894 -0.4766
 2299SOL     OW18358   3.354   0.300   8.177 -0.5327  0.3376 -0.6205
 2299SOL    HW118359   3.427   0.238   8.185 -0.2815  0.6832 -0.2292
 2299SOL    HW218360   3.398   0.370   8.128  0.4803 -1.3207 -2.0773
 2300SOL     OW18361   3.680   0.347   3.787 -0.1450  0.4667  0.0253
 2300SOL    HW118362   3.602   0.363   3.839 -0.5500  1.8247 -0.9962
 2300SOL    HW218363   3.714   0.437   3.781  1.6525 -0.2823 -1.0696
 2301SOL     OW18364   1.842   2.344   9.588 -0.1244 -0.0170 -0.0809
 2301SOL    HW118365   1.822   2.279   9.655  1.3760  0.5770  0.9541
 2301SOL    HW218366   1.753   2.371   9.566 -0.2463  0.6457  1.2264
 2302SOL     OW18367   4.045   1.870   3.851 -0.2169 -0.2544  0.1308
 2302SOL    HW118368   3.951   1.860   3.866 -0.3396 -2.2488 -2.0004
 2302SOL    HW218369   4.051   1.947   3.907  1.5465 -1.1545  1.1699
 2303SOL     OW18370   4.219   1.737  13.959 -0.2936 -0.0513 -0.8204
 2303SOL    HW118371   4.205   1.806  14.024  2.1600 -1.3716  1.0893
 2303SOL    HW218372   4.187   1.784  13.882 -1.0878  1.6679  0.5464
 2304SOL     OW18373   1.761   4.430  13.779 -0.8282  0.1087 -0.1216
 2304SOL    HW118374   1.742   4.419  13.686  0.6847  1.8747 -0.6468
 2304SOL    HW218375   1.821   4.357  13.796 -0.1339  0.5723 -0.5769
 2305SOL     OW18376   2.358   3.141   8.896  0.7333  0.1005 -0.8519
 2305SOL    HW118377   2.369   3.078   8.825 -0.6771 -1.9124  0.7102
 2305SOL    HW218378   2.268   3.123   8.924  1.3151  1.7466  2.1387
 2306SOL     OW18379   1.731   3.825   4.113 -0.0754 -0.4215 -0.5490
 2306SOL    HW118380   1.741   3.774   4.033 -1.4826  2.0411 -2.2844
 2306SOL    HW218381   1.822   3.855   4.116 -0.5367  1.1815 -2.5187
 2307SOL     OW18382   3.452   0.745  13.014  0.8640  0.1515  0.5329
 2307SOL    HW118383   3.372   0.790  12.987  1.2484 -0.0822 -0.9883
 2307SOL    HW218384   3.415   0.694  13.086  2.2787  1.7545  2.4006
 2308SOL     OW18385   4.289   4.032   3.538  0.1792  0.3062 -0.3308
 2308SOL    HW118386   4.315   3.987   3.618  3.6819  2.0366 -0.4808
 2308SOL    HW218387   4.358   4.012   3.475  1.8915  0.5697  1.4672
 2309SOL     OW18388   3.270   3.743   3.602 -0.4384 -0.3884 -0.2220
 2309SOL    HW118389   3.362   3.766   3.589 -0.2246 -2.9623 -3.5045
 2309SOL    HW218390   3.235   3.763   3.515  0.6695 -2.0271 -1.0450
 2310SOL     OW18391   2.802   2.374   1.312 -0.7129  0.0787  0.1852
 2310SOL    HW118392   2.813   2.320   1.233 -0.4146  1.9583 -1.0694
 2310SOL    HW218393   2.890   2.386   1.345 -0.8008  1.7367 -0.1780
 2311SOL     OW18394   2.648   3.709  13.081  0.3981  0.7710 -0.7665
 2311SOL    HW118395   2.561   3.696  13.117  1.4462 -2.9575  0.4674
 2311SOL    HW218396   2.640   3.664  12.997 -0.4597 -2.0048  0.8051
 2312SOL     OW18397   1.649   3.007   5.173 -0.6783  0.8260  0.1075
 2312SOL    HW118398   1.637   2.912   5.179 -0.1705  0.6845 -1.1225
 2312SOL    HW218399   1.716   3.012   5.105  0.8584 -0.5189  1.4972
 2313SOL     OW18400   0.953   0.898   9.431 -0.4166 -0.0344  0.3089
 2313SOL    HW118401   0.893   0.940   9.369  0.5558 -2.2921 -2.1868
 2313SOL    HW218402   1.034   0.895   9.381 -0.3620 -0.1505  0.4045
 2314SOL     OW18403   3.845   4.592  15.540 -0.4069  0.5775 -0.3386
 2314SOL    HW118404   3.853   4.687  15.541 -0.4986  0.5622  1.9757
 2314SOL    HW218405   3.902   4.558  15.610 -0.4605  1.6748  0.2316
 2315SOL     OW18406   0.410   2.378  14.583  0.0919  0.1076  0.2160
 2315SOL    HW118407   0.361   2.323  14.644 -0.7107  1.0733  0.4620
 2315SOL    HW218408   0.401   2.331  14.501  1.0856 -0.1323  0.2490
 2316SOL     OW18409   1.092   1.194   2.907  1.1143  0.7779 -0.5164
 2316SOL    HW118410   1.131   1.210   2.821  0.6560 -0.8938 -1.0401
 2316SOL    HW218411   1.002   1.223   2.893  1.4599  0.8981 -2.4839
 2317SOL     OW18412   3.992   2.636   5.001 -0.2711  0.1792  0.1766
 2317SOL    HW118413   4.082   2.641   5.033  0.1414  3.1999 -1.5167
 2317SOL    HW218414   3.983   2.541   4.994  3.1305 -0.1876  0.8448
 2318SOL     OW18415   4.533   3.843   3.533  0.2172  0.0821  0.8719
 2318SOL    HW118416   4.480   3.781   3.482 -1.0159 -0.1078  2.3712
 2318SOL    HW218417   4.549   3.793   3.614 -0.4585 -0.8194  0.4504
 2319SOL     OW18418   4.403   3.606   0.652 -0.7254  0.1046  0.2224
 2319SOL    HW118419   4.398   3.632   0.560 -2.0527 -0.4222  0.1467
 2319SOL    HW218420   4.380   3.513   0.643 -0.6465  0.2309 -1.3984
 2320SOL     OW18421   1.920   0.099   4.593  0.5947 -0.8171 -0.5013
 2320SOL    HW118422   1.846   0.144   4.553  0.7287 -1.3189 -1.3217
 2320SOL    HW218423   1.902   0.007   4.570  2.5848 -0.6497 -2.7687
 2321SOL     OW18424   1.371   4.399   4.016  0.2655  0.0702  0.1711
 2321SOL    HW118425   1.382   4.453   4.094  0.8129  0.4830 -0.1911
 2321SOL    HW218426   1.362   4.468   3.950 -1.7087 -1.2941 -0.9863
 2322SOL     OW18427   2.301   0.738   4.391  0.0604 -0.5666 -0.1126
 2322SOL    HW118428   2.249   0.658   4.383 -1.0781  0.3584 -1.8703
 2322SOL    HW218429   2.347   0.720   4.474 -0.1516  0.0177  0.1313
 2323SOL     OW18430   3.951   1.987   6.340 -0.0632 -0.1813 -0.1107
 2323SOL    HW118431   3.964   1.949   6.426 -0.6354 -0.2753 -0.0662
 2323SOL    HW218432   3.903   1.911   6.308  0.1334 -0.1429 -0.4988
 2324SOL     OW18433   1.916   3.563   4.460 -0.2109  0.7300 -0.4094
 2324SOL    HW118434   1.949   3.633   4.404 -2.4802 -0.7590 -3.6545
 2324SOL    HW218435   1.933   3.590   4.550  0.3228 -0.9176 -0.0112
 2325SOL     OW18436   3.270   3.868  12.147  0.1858  0.3146  0.1412
 2325SOL    HW118437   3.325   3.916  12.209  0.6522  0.8029 -0.6449
 2325SOL    HW218438   3.191   3.881  12.200  0.0413  3.4526 -0.8174
 2326SOL     OW18439   4.617   3.952  15.429  0.1131  0.2439  0.3976
 2326SOL    HW118440   4.605   4.018  15.360 -2.0547  0.2966  0.8080
 2326SOL    HW218441   4.528   3.948  15.464  0.3668 -1.4457  0.8231
 2327SOL     OW18442   3.065   2.436   4.524 -0.4816  0.0787 -0.4197
 2327SOL    HW118443   3.153   2.463   4.548 -1.0690  3.6295 -2.2033
 2327SOL    HW218444   3.043   2.388   4.604 -0.7825 -1.1030 -1.2171
 2328SOL     OW18445   1.143   2.349   5.477 -0.1458  0.5597 -0.5007
 2328SOL    HW118446   1.189   2.344   5.392 -0.8811 -1.5987 -0.7593
 2328SOL    HW218447   1.141   2.256   5.497  0.7612  0.6039 -0.2054
 2329SOL     OW18448   0.120   4.659   9.219 -0.0970 -0.2733 -0.3970
 2329SOL    HW118449   0.037   4.639   9.175 -1.4712  1.4022  1.4310
 2329SOL    HW218450   0.166   4.579   9.195 -0.5835 -0.9920  1.0756
 2330SOL     OW18451   0.653   1.315  11.164 -0.4162 -0.4566 -0.1992
 2330SOL    HW118452   0.658   1.261  11.243  0.2057 -0.0579  0.0307
 2330SOL    HW218453   0.578   1.372  11.181 -1.4387 -1.5735 -0.9139
 2331SOL     OW18454   0.807   0.705  10.020  0.1525  0.1628  0.7838
 2331SOL    HW118455   0.755   0.764  10.076 -0.1951 -0.8109  1.4774
 2331SOL    HW218456   0.812   0.628  10.077 -0.8058  0.0379  0.7082
 2332SOL     OW18457   1.917   3.124   7.960 -0.3776 -0.5164  0.6818
 2332SOL    HW118458   1.954   3.181   7.893  2.3090 -0.1906  2.4568
 2332SOL    HW218459   1.986   3.059   7.967 -1.5878 -2.0905 -1.7718
 2333SOL     OW18460   0.810   4.666  14.612 -0.3490 -0.1414 -0.0860
 2333SOL    HW118461   0.764   4.590  14.647  1.1740 -0.3757  1.4302
 2333SOL    HW218462   0.732   4.715  14.587  0.7493  0.4451 -2.3086
 2334SOL     OW18463   4.106   0.968   4.537 -0.1444  0.2081  0.0097
 2334SOL    HW118464   4.041   0.911   4.577  0.5747  0.0323  0.9374
 2334SOL    HW218465   4.189   0.938   4.573  0.3117  2.8929  1.1976
 2335SOL     OW18466   4.116   3.526   5.540  0.1703  0.1957  0.6097
 2335SOL    HW118467   4.052   3.529   5.469 -0.5139 -2.1702  1.1523
 2335SOL    HW218468   4.192   3.567   5.499 -1.0093  2.0909  0.3191
 2336SOL     OW18469   3.172   3.050   3.372  0.1622  0.2118  0.1480
 2336SOL    HW118470   3.229   2.987   3.327  2.0238  2.4107 -0.5479
 2336SOL    HW218471   3.236   3.116   3.399 -0.5970  0.8289  0.4237
 2337SOL     OW18472   1.578   1.056  16.589  0.9131  0.1302  0.1159
 2337SOL    HW118473   1.527   1.055  16.670  1.2141 -0.4219  0.2995
 2337SOL    HW218474   1.563   1.146  16.559 -0.9081  0.0327  0.7569
 2338SOL     OW18475   3.182   2.802  12.013  0.6527 -0.6179  0.0871
 2338SOL    HW118476   3.149   2.714  12.033  0.6368 -0.8452 -0.9459
 2338SOL    HW218477   3.274   2.804  12.038  0.2682 -3.9865  1.8937
 2339SOL     OW18478   2.623   2.513   1.599  0.5634  0.5942  0.3128
 2339SOL    HW118479   2.569   2.581   1.639 -0.6142  0.7138 -1.4977
 2339SOL    HW218480   2.693   2.569   1.564  1.6263 -0.8620  0.0603
 2340SOL     OW18481   3.863   0.792   5.924  0.4178  0.5787 -0.1203
 2340SOL    HW118482   3.897   0.726   5.864  1.9312  2.0613 -0.8856
 2340SOL    HW218483   3.768   0.776   5.922  0.5670 -0.3210  0.0498
 2341SOL     OW18484   1.024   0.014   5.853 -0.4218 -0.1525 -0.2252
 2341SOL    HW118485   1.086   4.666   5.836 -0.8762 -0.6562  0.2249
 2341SOL    HW218486   0.979   0.016   5.769 -0.0107  1.5189 -0.4019
 2342SOL     OW18487   3.913   4.065   9.613 -0.4469  1.0050 -0.4436
 2342SOL    HW118488   3.929   3.989   9.558 -1.5732  1.0286 -0.8086
 2342SOL    HW218489   3.824   4.045   9.641 -1.3613  1.0191 -3.3534
 2343SOL     OW18490   0.274   2.066   5.435  0.1022  0.3955  0.2001
 2343SOL    HW118491   0.208   2.129   5.466 -0.2310 -1.2870  2.9566
 2343SOL    HW218492   0.271   2.006   5.510 -0.7390  1.9850  1.4326
 2344SOL     OW18493   3.431   2.369   1.387 -0.5049  0.0975  0.3589
 2344SOL    HW118494   3.499   2.304   1.373  0.1202  0.8384 -0.0897
 2344SOL    HW218495   3.385   2.315   1.450 -1.8239  1.1988  0.3593
 2345SOL     OW18496   2.870   3.588  10.593 -0.0303  0.1365  0.0864
 2345SOL    HW118497   2.812   3.568  10.667 -1.5185  0.8043 -0.8979
 2345SOL    HW218498   2.891   3.679  10.614 -1.2341  0.0350  1.7735
 2346SOL     OW18499   0.878   1.331   9.732  0.0286 -0.3414 -0.5936
 2346SOL    HW118500   0.938   1.292   9.669  0.5150  0.4736 -0.6445
 2346SOL    HW218501   0.926   1.338   9.815  2.3584  0.2549 -1.9792
 2347SOL     OW18502   0.017   3.753  13.930 -0.1297  0.4215  0.6358
 2347SOL    HW118503   0.079   3.711  13.989 -0.3337 -0.8894 -0.0906
 2347SOL    HW218504   0.054   3.717  13.850 -0.0342 -1.4689  1.5179
 2348SOL     OW18505   2.069   1.597  10.709  0.0265  0.3194 -0.3240
 2348SOL    HW118506   1.979   1.617  10.737 -0.3656 -2.4050  0.3919
 2348SOL    HW218507   2.109   1.670  10.663  1.0024 -0.4182 -0.6462
 2349SOL     OW18508   1.382   3.899  12.125  0.7091  0.0683 -0.5906
 2349SOL    HW118509   1.346   3.817  12.091 -0.6431  0.5336 -0.2776
 2349SOL    HW218510   1.450   3.912  12.058  2.5431  0.4666  1.3796
 2350SOL     OW18511   1.186   0.862   3.361 -0.5224 -0.1662 -0.2633
 2350SOL    HW118512   1.177   0.925   3.290 -4.1686 -1.5224 -1.0303
 2350SOL    HW218513   1.160   0.784   3.311  0.9646 -0.8783  0.0692
 2351SOL     OW18514   2.445   2.602   8.487 -0.3043  0.1656  0.1670
 2351SOL    HW118515   2.352   2.618   8.504 -0.2760  1.3931 -0.8545
 2351SOL    HW218516   2.483   2.593   8.575  1.6480 -0.4296 -0.7305
 2352SOL     OW18517   1.754   1.618   5.361  0.5574 -0.2923  0.3956
 2352SOL    HW118518   1.744   1.643   5.269  2.8856 -1.5991 -0.2174
 2352SOL    HW218519   1.694   1.676   5.406  1.1927  0.0957  0.7464
 2353SOL     OW18520   2.189   4.403   5.512 -0.4209  0.2442 -0.3216
 2353SOL    HW118521   2.255   4.334   5.510 -1.7879 -1.0427 -0.2073
 2353SOL    HW218522   2.141   4.362   5.584 -2.4068  0.1200 -1.7131
 2354SOL     OW18523   3.165   1.722   6.391 -0.0622 -0.3684 -0.0366
 2354SOL    HW118524   3.081   1.676   6.393  0.0746 -0.7577 -2.5600
 2354SOL    HW218525   3.136   1.812   6.408 -0.4309 -0.4351 -0.3136
 2355SOL     OW18526   2.444   4.475   7.685  0.5147 -0.0141  0.1739
 2355SOL    HW118527   2.533   4.501   7.709  1.4116 -1.7732 -1.2846
 2355SOL    HW218528   2.459   4.421   7.607 -1.9598 -2.2264  1.2015
 2356SOL     OW18529   0.722   3.328   1.728  0.3490  0.9058 -0.1047
 2356SOL    HW118530   0.695   3.236   1.738 -0.6471  1.2436  0.2412
 2356SOL    HW218531   0.798   3.309   1.673  0.7702  1.6399  0.2297
 2357SOL     OW18532   1.914   4.193   1.753 -0.0222 -0.0974  0.4356
 2357SOL    HW118533   2.009   4.192   1.736  0.1716 -0.7038  1.5368
 2357SOL    HW218534   1.899   4.108   1.795  1.2411  0.2614  1.6197
 2358SOL     OW18535   1.218   0.243   8.062 -0.0748 -0.1857  0.5487
 2358SOL    HW118536   1.155   0.184   8.021  0.8593  0.1594 -1.3868
 2358SOL    HW218537   1.227   0.195   8.144  2.2103 -1.1230 -0.2701
 2359SOL     OW18538   1.216   3.325  10.812 -0.0522 -0.0100  0.4273
 2359SOL    HW118539   1.233   3.410  10.770 -2.0446  0.4218  0.5217
 2359SOL    HW218540   1.146   3.298  10.752  0.0782  2.5525 -0.8902
 2360SOL     OW18541   1.627   1.393   3.993 -0.1839 -0.1752  0.5788
 2360SOL    HW118542   1.586   1.326   3.939  1.4037 -0.4782 -0.2480
 2360SOL    HW218543   1.716   1.388   3.958 -0.7253 -0.8047 -0.7056
 2361SOL     OW18544   1.482   0.463   1.476 -0.2535 -0.2312  0.7540
 2361SOL    HW118545   1.402   0.430   1.436  0.1726 -0.8282  0.3911
 2361SOL    HW218546   1.482   0.550   1.435  4.7746 -0.3318  0.5139
 2362SOL     OW18547   2.682   0.692   8.133 -0.6994  0.6167  0.0769
 2362SOL    HW118548   2.655   0.742   8.056 -2.8028 -0.4729  0.1403
 2362SOL    HW218549   2.678   0.762   8.199  0.2889  0.3337  0.4387
 2363SOL     OW18550   4.576   3.148  12.944  0.7368 -0.2142 -0.1045
 2363SOL    HW118551   4.515   3.198  12.998  2.3264  0.1451  1.3673
 2363SOL    HW218552   4.565   3.060  12.980 -3.0484 -0.7247 -2.5190
 2364SOL     OW18553   2.173   0.402   8.900 -0.3459 -0.0813  0.1788
 2364SOL    HW118554   2.266   0.390   8.918 -0.6208 -0.1461  1.5663
 2364SOL    HW218555   2.179   0.472   8.835  0.9276  0.5910  1.0098
 2365SOL     OW18556   3.910   2.435   3.241 -0.1289  0.0563 -0.1940
 2365SOL    HW118557   3.836   2.402   3.291  0.5998 -1.6812 -0.2506
 2365SOL    HW218558   3.924   2.377   3.166  1.5136 -0.4471  0.5046
 2366SOL     OW18559   4.547   4.598   0.512 -0.3471 -0.1692  0.1137
 2366SOL    HW118560   4.572   4.535   0.580 -0.3905  0.7463  0.9744
 2366SOL    HW218561   4.545   4.548   0.430 -0.3140 -0.1318  0.0900
 2367SOL     OW18562   3.312   4.268   9.796 -0.0952 -0.0156  0.4461
 2367SOL    HW118563   3.287   4.242   9.885  1.5672 -0.6652  0.7190
 2367SOL    HW218564   3.231   4.263   9.746 -0.6775 -2.0556  1.6220
 2368SOL     OW18565   2.677   3.174   2.814 -0.2533  0.4713 -0.3848
 2368SOL    HW118566   2.638   3.255   2.847 -0.0425  0.7645 -0.8560
 2368SOL    HW218567   2.612   3.142   2.752 -0.0900 -1.9578  0.6973
 2369SOL     OW18568   4.506   3.265   6.939 -0.7238 -0.3997 -0.3531
 2369SOL    HW118569   4.553   3.294   6.862  0.1543 -1.4179 -0.1976
 2369SOL    HW218570   4.576   3.256   7.004  0.7083 -0.3108 -1.8904
 2370SOL     OW18571   3.202   2.595   8.915 -0.2177 -0.5918  0.6168
 2370SOL    HW118572   3.161   2.574   8.998  0.4831 -1.7141  0.6897
 2370SOL    HW218573   3.285   2.636   8.938 -2.0497  2.5264  1.5411
 2371SOL     OW18574   4.638   4.321   4.304 -0.0585  0.2659 -0.2082
 2371SOL    HW118575   4.555   4.293   4.266 -0.9190  2.9115 -0.3099
 2371SOL    HW218576   4.610   4.358   4.387  0.0176  0.9620 -0.4909
 2372SOL     OW18577   3.482   1.301   2.168 -0.2437 -0.1384 -0.0591
 2372SOL    HW118578   3.567   1.258   2.165  0.8601  1.9986  0.9711
 2372SOL    HW218579   3.422   1.227   2.156  0.5660 -0.5920 -1.4097
 2373SOL     OW18580   3.971   0.368  14.141  0.2605  0.0398 -0.0255
 2373SOL    HW118581   3.951   0.397  14.230  0.4405  2.6499 -0.8455
 2373SOL    HW218582   4.065   0.352  14.149  0.2049 -0.3441 -0.1515
 2374SOL     OW18583   2.619   0.682   6.242  0.3395 -0.0366 -0.0842
 2374SOL    HW118584   2.598   0.768   6.279 -2.9631 -0.6955 -0.4165
 2374SOL    HW218585   2.531   0.649   6.223 -0.7560  2.6630  0.2977
 2375SOL     OW18586   2.004   0.716   2.557  0.0233 -0.4048 -0.3143
 2375SOL    HW118587   2.020   0.638   2.503  0.3361 -0.4760 -0.1149
 2375SOL    HW218588   1.922   0.736   2.512  0.5535  0.1648 -1.0410
 2376SOL     OW18589   1.904   2.637   6.220  0.8532 -0.0175  0.3750
 2376SOL    HW118590   1.908   2.653   6.125  0.5726 -0.5597  0.2720
 2376SOL    HW218591   1.849   2.705   6.258  0.3430  0.3347 -0.9836
 2377SOL     OW18592   4.199   3.297  10.122  0.5068  0.2303  0.2829
 2377SOL    HW118593   4.200   3.389  10.096  1.6462 -0.0915 -0.8333
 2377SOL    HW218594   4.257   3.255  10.058 -2.5076 -1.7672 -1.1503
 2378SOL     OW18595   1.056   0.373   5.300  0.1730 -0.0859  0.2441
 2378SOL    HW118596   1.081   0.315   5.227 -1.6713  1.8007 -1.8918
 2378SOL    HW218597   1.147   0.401   5.314  0.8679  0.2644 -4.9242
 2379SOL     OW18598   4.365   4.468   8.440  0.3026 -0.8108 -0.4110
 2379SOL    HW118599   4.357   4.477   8.345 -0.8620 -3.0441 -0.5194
 2379SOL    HW218600   4.415   4.387   8.442 -0.7080 -1.4678 -1.8837
 2380SOL     OW18601   3.554   1.514  15.730  0.1109 -0.4721 -0.3091
 2380SOL    HW118602   3.520   1.431  15.761 -1.0788 -0.4965 -1.6794
 2380SOL    HW218603   3.514   1.530  15.645  1.2657 -0.1592 -0.7992
 2381SOL     OW18604   4.333   2.180   1.178 -0.8321 -0.1819  0.1107
 2381SOL    HW118605   4.317   2.141   1.092 -1.0334  1.5015 -0.6042
 2381SOL    HW218606   4.256   2.140   1.217 -0.8722  0.7415  0.9800
 2382SOL     OW18607   2.542   3.039   5.525 -0.0535 -0.4470  0.4877
 2382SOL    HW118608   2.485   3.086   5.465  1.2515  0.0697 -0.3464
 2382SOL    HW218609   2.580   2.975   5.466  1.7657  1.7536 -0.7284
 2383SOL     OW18610   3.785   2.710   8.966 -0.1490 -0.4490 -0.2440
 2383SOL    HW118611   3.830   2.686   9.047 -0.5535 -0.6157 -0.0668
 2383SOL    HW218612   3.851   2.691   8.900  2.3701 -1.1426  2.4846
 2384SOL     OW18613   0.530   1.365  12.953  0.3623  0.0120 -0.0913
 2384SOL    HW118614   0.572   1.379  12.868  0.7480  4.3541  0.7879
 2384SOL    HW218615   0.530   1.270  12.955 -0.6401 -0.0345 -3.3984
 2385SOL     OW18616   3.185   4.438   8.142 -0.3587  0.6862  0.6507
 2385SOL    HW118617   3.264   4.399   8.179  0.4908  0.2558 -1.6030
 2385SOL    HW218618   3.174   4.502   8.212  1.6733 -0.9414  2.4517
 2386SOL     OW18619   4.476   4.471   4.803  0.5801 -0.0592  0.5460
 2386SOL    HW118620   4.449   4.379   4.813  0.6022 -0.2278 -1.0135
 2386SOL    HW218621   4.539   4.489   4.873  2.6165  0.1505 -1.3364
 2387SOL     OW18622   0.347   2.574  17.434 -0.0590  0.6063 -0.1225
 2387SOL    HW118623   0.371   2.643  17.496  0.5060 -0.5103  0.9101
 2387SOL    HW218624   0.290   2.523  17.491  1.5473 -0.6258  0.4015
 2388SOL     OW18625   1.246   2.738   0.753  0.0297 -0.6144 -0.8748
 2388SOL    HW118626   1.328   2.705   0.789  1.0044  2.6900 -0.0126
 2388SOL    HW218627   1.184   2.693   0.810  2.7567 -1.4597  1.4307
 2389SOL     OW18628   4.052   2.082  11.196  0.0758 -0.3687 -0.2135
 2389SOL    HW118629   4.047   2.014  11.264  1.2579 -0.5454 -0.3021
 2389SOL    HW218630   4.146   2.097  11.206  0.1115 -0.9710  0.4039
 2390SOL     OW18631   3.363   4.371   6.380 -0.9490 -0.0764 -0.4067
 2390SOL    HW118632   3.276   4.397   6.350 -0.9958  1.1774  0.8073
 2390SOL    HW218633   3.408   4.363   6.296  0.6012 -0.1112  0.4264
 2391SOL     OW18634   1.237   4.487   5.009 -0.4921  0.0346 -0.0408
 2391SOL    HW118635   1.180   4.557   5.041  0.8673  0.7824  0.7660
 2391SOL    HW218636   1.183   4.408   5.009  0.5266 -0.6781  1.9505
 2392SOL     OW18637   3.928   0.274   1.171 -0.5052  0.0988  0.1500
 2392SOL    HW118638   3.988   0.341   1.137 -1.2693  1.1873  0.9473
 2392SOL    HW218639   3.865   0.317   1.228  1.2669  0.0240  2.1930
 2393SOL     OW18640   1.219   1.254  11.622  0.4223  0.2513  0.0612
 2393SOL    HW118641   1.292   1.196  11.644 -0.2129 -0.3853  0.4858
 2393SOL    HW218642   1.179   1.267  11.708 -1.9279  0.0388 -1.0107
 2394SOL     OW18643   1.900   4.305   6.177 -0.2819  0.0648 -0.3247
 2394SOL    HW118644   1.885   4.266   6.263 -1.4622  1.6481  0.1781
 2394SOL    HW218645   1.900   4.400   6.188 -1.6206 -0.0043  0.3112
 2395SOL     OW18646   1.148   3.799   1.947  0.1074  0.0469 -0.0440
 2395SOL    HW118647   1.170   3.830   1.859  2.9956 -1.5603  0.1193
 2395SOL    HW218648   1.113   3.717   1.913  0.3945  0.0478 -0.3447
 2396SOL     OW18649   0.182   3.396  13.581 -0.3017 -0.1828  0.2071
 2396SOL    HW118650   0.263   3.371  13.537 -0.5922 -1.4593  0.3964
 2396SOL    HW218651   0.126   3.413  13.506  1.5385  1.8867 -0.6865
 2397SOL     OW18652   3.263   0.260   7.014 -0.1462  0.1750 -0.0455
 2397SOL    HW118653   3.314   0.262   7.095  0.0368  2.6296 -0.2272
 2397SOL    HW218654   3.240   0.167   7.011  1.7046 -0.2988  0.8995
 2398SOL     OW18655   0.053   4.461   5.210 -0.4099  0.1552 -0.4184
 2398SOL    HW118656   4.707   4.448   5.274 -0.6411  2.8604 -0.1099
 2398SOL    HW218657   0.091   4.542   5.246 -0.7827  0.0158  0.2998
 2399SOL     OW18658   0.302   0.144   7.096 -0.8173  0.0701 -0.6318
 2399SOL    HW118659   0.253   0.125   7.016  1.2916 -0.1163 -1.8876
 2399SOL    HW218660   0.241   0.100   7.155 -2.1053  0.2633 -1.8238
 2400SOL     OW18661   2.578   1.596   5.453 -0.0623 -0.9188  0.1655
 2400SOL    HW118662   2.491   1.565   5.427 -1.9912  3.4524  1.4557
 2400SOL    HW218663   2.585   1.673   5.396  1.1592 -1.0509  0.1387
 2401SOL     OW18664   4.286   4.038   3.862 -0.0324 -0.5325 -0.4440
 2401SOL    HW118665   4.321   4.024   3.950 -0.9357  1.9232  0.3030
 2401SOL    HW218666   4.320   4.126   3.845  0.3190 -0.7038 -0.6210
 2402SOL     OW18667   1.734   2.050   0.638 -1.0702  0.3838 -0.5285
 2402SOL    HW118668   1.785   2.101   0.701 -1.5788 -0.4096  0.5268
 2402SOL    HW218669   1.718   1.969   0.687 -0.0754 -1.3404 -3.0848
 2403SOL     OW18670   0.755   1.222   3.906  0.1571  0.7136 -0.1843
 2403SOL    HW118671   0.764   1.282   3.981  1.2678 -1.0632  1.0923
 2403SOL    HW218672   0.842   1.242   3.871  0.5883  1.0616  1.0663
 2404SOL     OW18673   4.089   1.841   8.226  0.4637 -0.5034 -0.7491
 2404SOL    HW118674   4.040   1.842   8.144 -0.3013  2.0695 -0.2676
 2404SOL    HW218675   4.026   1.895   8.274  0.3225 -0.3633 -1.0972
 2405SOL     OW18676   0.380   3.263  16.243  0.6383  0.1334 -0.3195
 2405SOL    HW118677   0.336   3.178  16.240  0.9164  0.0371 -1.6603
 2405SOL    HW218678   0.441   3.254  16.170  0.4420 -0.1417 -0.4493
 2406SOL     OW18679   2.369   2.113   3.513  0.4551 -0.1177  0.0696
 2406SOL    HW118680   2.318   2.161   3.448  2.1805  1.4681 -0.1291
 2406SOL    HW218681   2.309   2.042   3.535  0.8570  0.0700  1.7476
 2407SOL     OW18682   4.295   3.268   6.709  0.3717 -0.4031  0.6282
 2407SOL    HW118683   4.355   3.255   6.783 -0.9107  0.1942  1.7703
 2407SOL    HW218684   4.211   3.274   6.754  0.5514  2.5460  0.5811
 2408SOL     OW18685   3.807   0.914  13.410  0.0906  0.0268 -0.8273
 2408SOL    HW118686   3.755   0.841  13.445 -0.0421  0.8399  0.6678
 2408SOL    HW218687   3.735   0.958  13.365 -0.1556  1.1097  0.6411
 2409SOL     OW18688   0.890   2.228   4.374  0.5614 -0.2364  0.2367
 2409SOL    HW118689   0.906   2.232   4.280  0.5135 -2.4099  0.1244
 2409SOL    HW218690   0.806   2.274   4.375  0.6702 -0.0269 -0.5415
 2410SOL     OW18691   2.892   4.333   0.409 -0.3645  0.1489 -0.8867
 2410SOL    HW118692   2.930   4.322   0.322  2.4220  0.1432  0.3366
 2410SOL    HW218693   2.840   4.410   0.385 -2.6367 -1.2253 -0.4295
 2411SOL     OW18694   2.242   3.879   9.240  0.4475  0.1672 -0.0578
 2411SOL    HW118695   2.214   3.939   9.309  0.3171  1.3146 -1.0927
 2411SOL    HW218696   2.337   3.885   9.238  0.3937  1.0899 -0.0402
 2412SOL     OW18697   4.270   0.959   3.435  0.6885 -0.5665 -0.7364
 2412SOL    HW118698   4.305   0.882   3.389  1.4588 -1.8606  2.0521
 2412SOL    HW218699   4.249   1.022   3.366  0.2588 -1.4030 -1.3667
 2413SOL     OW18700   1.909   2.082   3.901 -0.8199 -0.8008 -0.8580
 2413SOL    HW118701   1.947   2.061   3.986  0.5203  3.4424 -0.4407
 2413SOL    HW218702   1.963   2.155   3.872 -0.2861 -0.8184  0.1029
 2414SOL     OW18703   0.671   3.822  12.114 -0.4263  0.2919  0.0140
 2414SOL    HW118704   0.669   3.917  12.127  2.4143  0.2538  0.7045
 2414SOL    HW218705   0.577   3.804  12.110 -0.7399  2.0349 -0.4579
 2415SOL     OW18706   2.043   3.425  13.783  0.1017 -0.5865 -0.1437
 2415SOL    HW118707   1.948   3.425  13.782  0.0961  2.3712  0.6211
 2415SOL    HW218708   2.058   3.488  13.853 -1.2847  0.0926 -0.4639
 2416SOL     OW18709   0.597   4.640   3.380  0.1075  0.1018  0.9480
 2416SOL    HW118710   0.691   4.659   3.378  0.5277 -1.8991  2.0214
 2416SOL    HW218711   0.593   4.599   3.466  0.1195  0.2665  1.0263
 2417SOL     OW18712   0.320   4.223   3.087 -0.0399  0.3300  0.3488
 2417SOL    HW118713   0.327   4.301   3.142 -1.4648 -0.9999  2.4397
 2417SOL    HW218714   0.406   4.184   3.101 -0.1470  0.5484  1.5708
 2418SOL     OW18715   0.080   3.422  17.277 -0.3467 -0.1337  0.1204
 2418SOL    HW118716   0.038   3.431  17.191  0.2689  3.2761  0.1614
 2418SOL    HW218717   0.010   3.462  17.329 -2.6138 -4.6904  0.5152
 2419SOL     OW18718   4.421   0.886   2.619 -0.1502  0.4688 -0.4884
 2419SOL    HW118719   4.391   0.852   2.703 -0.8084  0.3587 -0.7721
 2419SOL    HW218720   4.344   0.936   2.592  0.8238  1.3854 -1.5922
 2420SOL     OW18721   3.573   1.619   2.282 -0.7579 -0.2189  0.2585
 2420SOL    HW118722   3.575   1.639   2.188 -1.5034 -2.8040 -0.3002
 2420SOL    HW218723   3.526   1.536   2.274 -1.2600  0.1573 -0.7935
 2421SOL     OW18724   4.604   1.936   8.091  0.3818 -0.9826 -0.1478
 2421SOL    HW118725   4.623   1.850   8.054  0.9265  0.1838 -2.5836
 2421SOL    HW218726   4.584   1.988   8.013 -0.0699 -4.6396 -2.4797
 2422SOL     OW18727   0.308   2.917   6.251 -0.0236 -0.3592  0.1254
 2422SOL    HW118728   0.367   2.865   6.197  0.8292  0.1653  0.5537
 2422SOL    HW218729   0.251   2.856   6.298 -0.2486  0.2275  0.6109
 2423SOL     OW18730   2.170   4.543  15.254  0.4232 -0.0951  0.3328
 2423SOL    HW118731   2.195   4.635  15.263 -1.8367  0.1901  3.4498
 2423SOL    HW218732   2.077   4.539  15.274  0.8002 -2.3327  1.6120
 2424SOL     OW18733   0.282   1.938   4.687  0.5709  0.4158  0.4723
 2424SOL    HW118734   0.261   1.912   4.598  2.0981  0.4109  0.1257
 2424SOL    HW218735   0.282   1.851   4.727  1.2492  0.4220  0.4802
 2425SOL     OW18736   2.839   3.977  12.147 -0.0862  0.2814 -0.2402
 2425SOL    HW118737   2.781   3.935  12.082  0.4673 -0.9183  0.0318
 2425SOL    HW218738   2.843   4.067  12.116  1.3441 -0.0613 -1.0559
 2426SOL     OW18739   0.291   3.190   7.654  0.4693  0.6826 -0.3048
 2426SOL    HW118740   0.212   3.180   7.602  2.2586 -0.0647 -2.8708
 2426SOL    HW218741   0.275   3.254   7.723 -1.5754 -0.1408 -0.0239
 2427SOL     OW18742   0.583   2.420   0.733  0.1176  0.1353  0.1191
 2427SOL    HW118743   0.557   2.454   0.819  0.3975  1.7661 -0.4426
 2427SOL    HW218744   0.646   2.487   0.707 -0.6154  1.1283  0.8645
 2428SOL     OW18745   1.148   2.265   6.392  0.3022 -0.3687 -0.4011
 2428SOL    HW118746   1.225   2.312   6.422  0.5356 -1.4113  0.6413
 2428SOL    HW218747   1.196   2.193   6.350 -0.0628 -0.0694 -1.3251
 2429SOL     OW18748   0.638   3.302   5.394  0.2953 -0.3226  0.2818
 2429SOL    HW118749   0.560   3.272   5.441  0.2540 -0.6553 -0.0033
 2429SOL    HW218750   0.611   3.392   5.373  2.2899  0.5074  1.2937
 2430SOL     OW18751   3.612   1.779   2.512  0.3325 -0.3621  0.3066
 2430SOL    HW118752   3.596   1.742   2.426  0.1376  0.9700 -0.2247
 2430SOL    HW218753   3.559   1.857   2.497  0.9355 -0.0595 -0.2404
 2431SOL     OW18754   1.160   4.560   0.735  0.5323  0.2591 -0.3123
 2431SOL    HW118755   1.093   4.613   0.778 -0.4500 -1.4352  0.2589
 2431SOL    HW218756   1.170   4.597   0.648 -0.3330  0.2355 -0.4158
 2432SOL     OW18757   2.082   2.772  12.641 -0.1783 -0.1068  0.3450
 2432SOL    HW118758   2.035   2.706  12.692  0.4304  1.1419  2.5380
 2432SOL    HW218759   2.010   2.813  12.593 -1.0303  0.2594  1.9488
 2433SOL     OW18760   3.612   1.476   1.347  0.2810 -0.1135 -0.1975
 2433SOL    HW118761   3.603   1.385   1.375  1.8656  0.4469  2.0973
 2433SOL    HW218762   3.673   1.461   1.275 -0.2065 -0.4259 -0.5474
 2434SOL     OW18763   3.234   1.369  15.431  0.3814 -0.0090  0.1392
 2434SOL    HW118764   3.139   1.365  15.436  0.5363 -2.8501  0.7358
 2434SOL    HW218765   3.263   1.278  15.428 -0.1781 -0.1743 -0.1342
 2435SOL     OW18766   0.873   1.778   9.367 -0.1586  0.0636  0.1235
 2435SOL    HW118767   0.791   1.821   9.394  0.9539  2.0563  0.3150
 2435SOL    HW218768   0.925   1.828   9.430  0.3375 -0.3166  0.0083
 2436SOL     OW18769   0.411   0.762   4.736 -0.2331  0.5952  0.4285
 2436SOL    HW118770   0.347   0.692   4.728  0.3188  0.1018  0.3623
 2436SOL    HW218771   0.366   0.830   4.787 -0.0961  0.4931  0.6845
 2437SOL     OW18772   2.040   4.411   7.273 -0.0895  0.2924  0.0253
 2437SOL    HW118773   1.948   4.392   7.257  0.6805 -2.8702 -0.6454
 2437SOL    HW218774   2.039   4.503   7.248  0.0847 -0.4073 -2.5261
 2438SOL     OW18775   2.969   0.932  11.465  0.8004  0.7599  0.2463
 2438SOL    HW118776   2.960   0.865  11.532  3.8358 -0.1188 -0.2236
 2438SOL    HW218777   3.064   0.938  11.457  0.7528 -0.6414 -1.4101
 2439SOL     OW18778   1.594   0.462  14.749  0.0367 -0.6223  0.0315
 2439SOL    HW118779   1.674   0.495  14.707 -0.0630 -0.4992 -0.0618
 2439SOL    HW218780   1.525   0.494  14.692 -0.3526 -2.0579 -0.2813
 2440SOL     OW18781   0.784   1.893   0.101 -0.3651 -0.3082  0.2452
 2440SOL    HW118782   0.701   1.911   0.058  0.0545  0.7667 -0.1374
 2440SOL    HW218783   0.799   1.800   0.087  1.3094  0.2818 -1.9739
 2441SOL     OW18784   1.392   0.511  14.559  0.2228 -0.7476 -0.3948
 2441SOL    HW118785   1.386   0.497  14.464  0.0191  0.6087 -0.5752
 2441SOL    HW218786   1.366   0.602  14.573 -0.3526 -0.8621 -0.7416
 2442SOL     OW18787   2.757   4.382   2.159 -0.0249 -0.0458  0.1297
 2442SOL    HW118788   2.742   4.430   2.078  0.1304 -3.8152 -2.1758
 2442SOL    HW218789   2.677   4.329   2.165  1.4229 -2.2253  0.5354
 2443SOL     OW18790   2.838   1.878   8.360 -0.7059 -0.5166  0.1458
 2443SOL    HW118791   2.865   1.809   8.300  1.7477 -1.7362  2.5872
 2443SOL    HW218792   2.743   1.875   8.353 -0.5863 -1.4267 -0.9731
 2444SOL     OW18793   2.410   3.307  17.128 -0.0299 -0.0500 -0.2082
 2444SOL    HW118794   2.417   3.288  17.222  0.5296 -4.1774 -1.0920
 2444SOL    HW218795   2.501   3.324  17.105  0.2974 -2.5008 -0.6902
 2445SOL     OW18796   3.745   2.062   9.148  0.0798 -0.0613  0.3396
 2445SOL    HW118797   3.835   2.097   9.148  0.2197 -0.3593 -2.6400
 2445SOL    HW218798   3.742   2.047   9.242  1.1367 -0.4619  0.3196
 2446SOL     OW18799   0.950   2.317   5.103  0.1723 -0.1821 -0.3711
 2446SOL    HW118800   0.864   2.321   5.060  0.8346  1.2459 -1.5971
 2446SOL    HW218801   0.920   2.318   5.193 -0.5517 -1.5938 -0.6021
 2447SOL     OW18802   2.666   0.301   4.262  0.2127  0.5123  0.3502
 2447SOL    HW118803   2.629   0.214   4.244  0.1765  0.0994  2.3430
 2447SOL    HW218804   2.676   0.335   4.173 -0.7448  1.5606  0.6494
 2448SOL     OW18805   2.487   2.770   4.084  0.3165 -0.5912  0.3603
 2448SOL    HW118806   2.434   2.691   4.079 -0.4758 -0.0661  0.3849
 2448SOL    HW218807   2.550   2.760   4.014  0.9096  1.5567  0.5759
 2449SOL     OW18808   0.264   1.699   8.274 -0.0130  0.0431  0.1116
 2449SOL    HW118809   0.225   1.660   8.196 -1.4861  0.6949  0.5210
 2449SOL    HW218810   0.262   1.791   8.245 -0.7058  1.2029  3.9001
 2450SOL     OW18811   4.448   4.163   6.185  0.0049 -0.6131  0.0013
 2450SOL    HW118812   4.387   4.128   6.120 -0.8368 -1.3304  1.1622
 2450SOL    HW218813   4.471   4.083   6.232  1.2599 -0.3046 -0.0954
 2451SOL     OW18814   3.522   2.661  16.222 -0.9010 -0.0037  0.0336
 2451SOL    HW118815   3.562   2.574  16.219  0.1619  0.5391 -1.8253
 2451SOL    HW218816   3.435   2.650  16.259 -1.7314  0.5668 -1.7065
 2452SOL     OW18817   2.404   4.688   6.414 -0.0433  0.1009  0.3028
 2452SOL    HW118818   2.328   4.634   6.392 -0.2654  0.8788 -0.7855
 2452SOL    HW218819   2.420   0.015   6.334  0.5606  0.0072  0.3611
 2453SOL     OW18820   4.718   0.355  11.291  0.6441  0.0955  0.8303
 2453SOL    HW118821   0.088   0.367  11.307  0.4646  3.5543 -0.5814
 2453SOL    HW218822   4.722   0.339  11.196 -2.0229  3.3292  0.1621
 2454SOL     OW18823   1.707   0.440   8.862 -0.2438  0.5652 -0.1202
 2454SOL    HW118824   1.788   0.466   8.906 -0.2379  1.7323 -0.8202
 2454SOL    HW218825   1.729   0.450   8.770  0.5357 -0.0047 -0.0028
 2455SOL     OW18826   3.843   3.191  10.353 -0.2644  0.2029 -0.0432
 2455SOL    HW118827   3.916   3.232  10.401 -0.8133  1.8897 -0.6626
 2455SOL    HW218828   3.888   3.129  10.295 -0.8504  0.9329 -1.2778
 2456SOL     OW18829   1.970   2.320   1.513 -0.9743 -0.4030 -0.3024
 2456SOL    HW118830   2.043   2.325   1.451 -1.4346 -1.2562 -0.8962
 2456SOL    HW218831   1.950   2.413   1.527 -2.7112 -0.4405 -2.6295
 2457SOL     OW18832   0.026   2.922   5.867  0.4342  0.0360 -0.0221
 2457SOL    HW118833   0.095   2.969   5.915  0.3000  0.6941 -0.4630
 2457SOL    HW218834   4.668   2.960   5.900  0.2218 -1.8173  1.5427
 2458SOL     OW18835   4.509   4.257   5.870  0.6750 -0.2484 -0.3210
 2458SOL    HW118836   4.502   4.162   5.862  0.4668 -0.3478  1.0916
 2458SOL    HW218837   4.442   4.287   5.809  1.3446 -0.3365 -1.1152
 2459SOL     OW18838   0.894   2.778   8.588  0.2103 -0.2192  0.2155
 2459SOL    HW118839   0.969   2.825   8.626 -0.3852 -0.4619  1.7153
 2459SOL    HW218840   0.828   2.843   8.612  0.5043  0.4276 -0.7268
 2460SOL     OW18841   0.283   0.955   3.421  0.3505  0.1776  0.4479
 2460SOL    HW118842   0.189   0.950   3.406  0.6699  1.8053 -2.3257
 2460SOL    HW218843   0.303   0.877   3.472  0.0963 -1.5509 -2.0812
 2461SOL     OW18844   0.597   2.468   8.594  0.2984 -0.0847  0.0065
 2461SOL    HW118845   0.541   2.528   8.642  1.9138  1.1149  0.4026
 2461SOL    HW218846   0.543   2.389   8.600 -0.3353  0.4472  1.1976
 2462SOL     OW18847   4.700   3.046   7.860  0.6264 -0.1836  0.5450
 2462SOL    HW118848   0.025   3.004   7.789 -0.2441 -0.5014  0.1420
 2462SOL    HW218849   4.609   3.030   7.837  0.5657 -0.3454  0.8799
 2463SOL     OW18850   0.726   2.974   7.981 -0.5426  0.7263 -0.2043
 2463SOL    HW118851   0.810   2.997   7.941  0.1321 -1.5136 -0.0606
 2463SOL    HW218852   0.717   3.059   8.025 -1.0771  1.9562 -2.6787
 2464SOL     OW18853   3.478   1.853  17.363 -0.1900  0.1814  0.7993
 2464SOL    HW118854   3.396   1.863  17.411  0.0931 -4.0241  2.1883
 2464SOL    HW218855   3.454   1.868  17.271 -0.1503 -0.0076  0.7574
 2465SOL     OW18856   3.633   0.875  16.702  0.7572  0.2018  0.4130
 2465SOL    HW118857   3.573   0.943  16.733 -0.5146 -0.3036 -0.9548
 2465SOL    HW218858   3.559   0.825  16.669  0.1623  0.1310  1.8762
 2466SOL     OW18859   4.557   3.346  13.470  0.1730  0.1369 -0.3722
 2466SOL    HW118860   4.629   3.370  13.412 -2.0687 -0.0007 -3.2832
 2466SOL    HW218861   4.506   3.283  13.418 -0.9925 -0.6474  1.7090
 2467SOL     OW18862   4.086   0.138  13.140  0.7748  0.6927  0.1512
 2467SOL    HW118863   4.030   0.142  13.218  1.5083  2.9247  0.5427
 2467SOL    HW218864   4.108   0.230  13.134  1.2600  0.4959 -1.1235
 2468SOL     OW18865   4.215   3.326   8.758  0.1763  0.8469 -0.0833
 2468SOL    HW118866   4.265   3.376   8.822 -0.0818 -0.7232  1.3248
 2468SOL    HW218867   4.196   3.251   8.814 -1.9450  0.1280 -1.7694
 2469SOL     OW18868   0.840   2.257   8.092 -1.0490  0.2974  0.4730
 2469SOL    HW118869   0.768   2.248   8.154  0.5158 -0.1495  2.2605
 2469SOL    HW218870   0.818   2.326   8.030 -2.2753  0.5939  1.2532
 2470SOL     OW18871   4.448   3.058   8.852 -0.5556  0.6009 -0.3940
 2470SOL    HW118872   4.518   3.006   8.892 -0.3012  2.5411  1.7268
 2470SOL    HW218873   4.386   3.059   8.926  1.6918  0.2682  1.4966
 2471SOL     OW18874   4.721   1.445   8.401  0.4263  0.2448  0.1162
 2471SOL    HW118875   4.647   1.392   8.370  0.4470  0.9122 -1.0920
 2471SOL    HW218876   0.048   1.376   8.443  1.8422  0.2365 -1.6184
 2472SOL     OW18877   2.803   0.058  10.279  0.3090 -0.5127  0.0370
 2472SOL    HW118878   2.775   0.149  10.264  0.5903 -0.5926 -1.0123
 2472SOL    HW218879   2.848   0.052  10.362  0.3832  0.4356  0.0666
 2473SOL     OW18880   0.108   1.285   4.934 -0.3561  0.8341 -0.4480
 2473SOL    HW118881   0.176   1.338   4.891  1.5699 -1.0992  0.2220
 2473SOL    HW218882   0.124   1.203   4.886 -0.7681  0.4413  0.0937
 2474SOL     OW18883   1.649   2.203   8.498 -0.0718  0.1665  0.4648
 2474SOL    HW118884   1.598   2.126   8.473 -1.7759  1.9491 -1.5917
 2474SOL    HW218885   1.693   2.187   8.581 -0.8740 -1.0521  0.6640
 2475SOL     OW18886   0.208   4.430  10.187 -0.1306  0.2273  0.3013
 2475SOL    HW118887   0.152   4.479  10.248  1.3554  0.8680  1.1537
 2475SOL    HW218888   0.296   4.453  10.217 -0.5519  2.1666  0.0532
 2476SOL     OW18889   3.071   1.511   3.076  0.3504 -0.2020 -0.0228
 2476SOL    HW118890   3.073   1.521   3.171  0.2350 -0.3953  0.0002
 2476SOL    HW218891   3.108   1.594   3.046  1.3015 -0.6318 -0.0353
 2477SOL     OW18892   3.920   1.441  12.926 -0.0598 -0.0179  0.2847
 2477SOL    HW118893   4.011   1.428  12.898 -0.1851  1.5765 -0.8055
 2477SOL    HW218894   3.903   1.523  12.881  0.7841  0.3595  0.6398
 2478SOL     OW18895   1.925   2.970  12.549 -0.0441  0.1186  0.3767
 2478SOL    HW118896   1.832   2.986  12.564 -0.1174  0.5456 -0.5043
 2478SOL    HW218897   1.948   3.019  12.470  0.9992  1.0038  1.2450
 2479SOL     OW18898   0.007   0.620   4.140 -0.2080  0.6638  0.5450
 2479SOL    HW118899   4.708   0.610   4.233  1.0876 -2.4405  0.5077
 2479SOL    HW218900   0.101   0.602   4.144  0.0179  1.9016  1.0659
 2480SOL     OW18901   0.571   2.885   6.978  0.0564 -0.5006 -0.3068
 2480SOL    HW118902   0.490   2.889   7.028  1.1356 -1.1323  1.5264
 2480SOL    HW218903   0.584   2.791   6.966  2.3638 -0.6266  3.0857
 2481SOL     OW18904   0.919   4.000   0.786 -0.2358 -0.4472 -0.7081
 2481SOL    HW118905   0.884   3.912   0.769 -0.5214 -0.4984  0.1194
 2481SOL    HW218906   1.006   3.974   0.815 -0.4190 -2.8872 -2.2871
 2482SOL     OW18907   1.782   3.441  13.592 -0.0402  0.3915  0.1022
 2482SOL    HW118908   1.733   3.514  13.552 -0.8358 -0.2586 -0.1108
 2482SOL    HW218909   1.708   3.389  13.625 -0.6118  0.5327 -0.9674
 2483SOL     OW18910   2.807   2.274  12.370 -0.1277 -0.4321  0.0590
 2483SOL    HW118911   2.788   2.271  12.276  0.2647  0.4594 -0.0556
 2483SOL    HW218912   2.903   2.265  12.366 -0.0922 -0.4400  0.8731
 2484SOL     OW18913   1.166   0.034   5.082 -0.4875 -0.6282  0.1281
 2484SOL    HW118914   1.256   0.035   5.115 -0.1234  0.4942 -0.8975
 2484SOL    HW218915   1.156   0.128   5.064 -4.5573 -1.2027 -0.4242
 2485SOL     OW18916   4.119   2.920   1.658 -0.5594  0.1757 -0.3129
 2485SOL    HW118917   4.199   2.935   1.708 -1.0572 -1.0352  0.8512
 2485SOL    HW218918   4.119   2.987   1.589 -1.2037  0.3123 -0.1887
 2486SOL     OW18919   2.190   0.768  10.756  0.2390  0.1361  0.8848
 2486SOL    HW118920   2.205   0.694  10.696 -0.4931  0.8499 -0.1853
 2486SOL    HW218921   2.097   0.754  10.774 -0.0711 -1.6637 -2.0614
 2487SOL     OW18922   2.102   2.559   8.107 -0.4148  0.3528 -0.3152
 2487SOL    HW118923   2.025   2.506   8.087 -1.1611  1.1074  0.5492
 2487SOL    HW218924   2.058   2.625   8.161  0.7463  0.0846  0.9505
 2488SOL     OW18925   0.898   0.954  13.850  0.7937 -0.3003  0.4805
 2488SOL    HW118926   0.990   0.934  13.867  1.0481  1.8935  1.6928
 2488SOL    HW218927   0.885   1.043  13.883 -1.3179 -0.7135  0.8173
 2489SOL     OW18928   4.504   1.287  12.083  0.1118  0.5374 -0.3753
 2489SOL    HW118929   4.529   1.350  12.015  4.0553 -1.5742 -0.8623
 2489SOL    HW218930   4.567   1.219  12.060 -1.2892 -0.6392 -0.7236
 2490SOL     OW18931   1.391   4.459   8.844  0.0011 -0.0367 -0.1264
 2490SOL    HW118932   1.335   4.498   8.911 -0.5882  2.0266 -1.8134
 2490SOL    HW218933   1.421   4.535   8.793  2.1739 -1.7856 -1.4632
 2491SOL     OW18934   0.561   1.601  15.963 -0.2726  0.0185  0.1740
 2491SOL    HW118935   0.610   1.598  15.881 -0.8156 -2.0590 -0.0629
 2491SOL    HW218936   0.633   1.565  16.015 -0.3394  0.1737  0.3765
 2492SOL     OW18937   3.433   1.689   6.432  0.4252 -0.0076  0.5240
 2492SOL    HW118938   3.361   1.661   6.375 -0.6495 -1.0434  2.3997
 2492SOL    HW218939   3.388   1.759   6.479 -1.3225 -0.7454 -0.0415
 2493SOL     OW18940   2.943   1.665   8.999  0.2701 -0.4434  0.4087
 2493SOL    HW118941   2.949   1.570   8.987  0.9611 -0.2177 -1.0834
 2493SOL    HW218942   2.854   1.668   8.965  0.6613  1.9642 -0.3626
 2494SOL     OW18943   3.195   4.489   0.475 -0.0928  0.4499 -0.1656
 2494SOL    HW118944   3.251   4.474   0.400  2.5294  0.0803  1.8592
 2494SOL    HW218945   3.119   4.435   0.453 -1.1180  1.4666  0.8424
 2495SOL     OW18946   1.657   4.056   3.267  0.1798 -0.2589  0.4988
 2495SOL    HW118947   1.583   3.994   3.272 -1.2975  1.7211  3.0742
 2495SOL    HW218948   1.693   4.025   3.183 -1.8862  2.0870 -1.2678
 2496SOL     OW18949   3.321   0.718  14.292 -0.1655  0.0058 -0.3651
 2496SOL    HW118950   3.261   0.671  14.349  0.0626 -0.2904 -0.3671
 2496SOL    HW218951   3.350   0.786  14.354 -1.7301  0.5975 -0.2830
 2497SOL     OW18952   2.123   3.097   2.274  0.3348 -0.3946 -0.1749
 2497SOL    HW118953   2.072   3.141   2.206 -0.5697  0.8328  1.3196
 2497SOL    HW218954   2.053   3.064   2.330 -0.1855  1.5928  0.3235
 2498SOL     OW18955   3.825   0.086  12.689  0.0682  0.0760  0.2238
 2498SOL    HW118956   3.906   0.063  12.734 -0.7272 -0.7277  1.2516
 2498SOL    HW218957   3.760   0.059  12.754 -1.0049  4.6045  1.0372
 2499SOL     OW18958   0.518   3.260   9.730 -0.4905  0.1968  0.2222
 2499SOL    HW118959   0.583   3.202   9.769  0.8280  1.5194  0.0071
 2499SOL    HW218960   0.476   3.292   9.810  0.2369 -0.8972  1.0360
 2500SOL     OW18961   1.438   2.532   3.069  0.4578  0.3058  0.8545
 2500SOL    HW118962   1.394   2.518   2.985  0.3428  1.0445  0.7960
 2500SOL    HW218963   1.423   2.448   3.113  0.2715 -0.3631 -0.4940
 2501SOL     OW18964   4.131   0.919  16.189  0.3395 -0.0982  0.3285
 2501SOL    HW118965   4.109   0.981  16.119 -0.5751 -2.6807 -1.6544
 2501SOL    HW218966   4.094   0.962  16.267 -2.5700  2.1345 -2.2684
 2502SOL     OW18967   2.120   4.593   0.142 -0.3567  0.4396 -0.5837
 2502SOL    HW118968   2.125   4.609   0.236  0.4806  0.8525 -0.6926
 2502SOL    HW218969   2.209   4.560   0.133 -0.3212  0.0682  1.0566
 2503SOL     OW18970   0.958   3.644   0.984 -0.5084 -0.5218 -0.1173
 2503SOL    HW118971   0.902   3.722   0.977 -1.3832 -1.1624 -0.2566
 2503SOL    HW218972   0.989   3.673   1.070 -0.6540  0.6367 -0.4571
 2504SOL     OW18973   0.916   3.850   7.622 -0.4460 -0.6352  0.1426
 2504SOL    HW118974   0.941   3.900   7.545  0.4978 -1.6801 -0.2294
 2504SOL    HW218975   0.912   3.766   7.577  2.3646 -1.2351  1.0254
 2505SOL     OW18976   0.705   3.523   9.121  0.2239 -0.2890  0.0491
 2505SOL    HW118977   0.782   3.481   9.159  1.2284 -1.2878 -3.1288
 2505SOL    HW218978   0.632   3.473   9.158 -0.4552  2.2149  2.1126
 2506SOL     OW18979   1.928   0.450   7.916  0.2102  0.2182 -0.0315
 2506SOL    HW118980   1.949   0.379   7.977  0.2284  0.7575  0.5841
 2506SOL    HW218981   1.931   0.392   7.840  0.2901  0.0663  0.0870
 2507SOL     OW18982   4.586   1.298   6.485  0.3724  0.3731  0.3742
 2507SOL    HW118983   4.599   1.385   6.446  0.2693  0.6168  0.8848
 2507SOL    HW218984   4.612   1.318   6.575  1.3113  0.0844  0.1687
 2508SOL     OW18985   0.688   1.183  12.737  0.1246 -0.6451 -0.4473
 2508SOL    HW118986   0.614   1.122  12.746 -1.7971  2.1630  2.7879
 2508SOL    HW218987   0.753   1.149  12.798 -0.8708 -1.2162  0.2915
 2509SOL     OW18988   2.743   2.333   4.712  0.6133 -0.2248  0.4133
 2509SOL    HW118989   2.832   2.314   4.742  0.2339 -1.9313  0.4423
 2509SOL    HW218990   2.757   2.400   4.644 -2.0952 -0.1871 -0.1047
 2510SOL     OW18991   1.820   1.716  14.399 -1.0546 -0.1359  0.1965
 2510SOL    HW118992   1.806   1.631  14.359  2.1771 -1.3561  1.6761
 2510SOL    HW218993   1.916   1.722  14.396 -1.0746  0.3162  0.4186
 2511SOL     OW18994   2.033   0.746   9.028  0.2968  0.7879  0.5127
 2511SOL    HW118995   2.121   0.776   9.048 -0.4591  0.6368  4.0406
 2511SOL    HW218996   2.043   0.727   8.934 -2.5245 -3.2501  0.9958
 2512SOL     OW18997   2.940   1.027   3.960 -0.4340  0.2231 -0.4093
 2512SOL    HW118998   2.990   1.050   4.039 -0.6023  1.3990 -0.6387
 2512SOL    HW218999   2.996   1.071   3.896  0.7729 -0.1696  0.3585
 2513SOL     OW19000   1.599   2.230  17.285 -0.5337 -0.4335  0.3435
 2513SOL    HW119001   1.583   2.137  17.269 -0.3670 -0.3815 -0.1367
 2513SOL    HW219002   1.666   2.224  17.352  0.4420 -3.9784 -0.9336
 2514SOL     OW19003   3.412   1.068   4.901  0.2409 -0.0430 -0.3673
 2514SOL    HW119004   3.326   1.031   4.884  0.1985 -0.0039 -0.2372
 2514SOL    HW219005   3.442   1.101   4.816 -0.5150  0.3703 -0.4764
 2515SOL     OW19006   3.439   0.653   5.586  0.4867  0.4916 -0.1906
 2515SOL    HW119007   3.455   0.574   5.637  1.7351  0.8431 -0.0307
 2515SOL    HW219008   3.383   0.689   5.655 -1.2893  1.7381 -2.2838
 2516SOL     OW19009   2.258   3.922   7.532 -0.1689 -0.0185  0.3907
 2516SOL    HW119010   2.310   3.872   7.594  1.6665  0.6708 -0.5811
 2516SOL    HW219011   2.324   3.926   7.462 -0.1196 -0.7102  0.3951
 2517SOL     OW19012   4.421   0.242   5.040  0.3887 -0.0067  0.3070
 2517SOL    HW119013   4.426   0.165   5.098  0.1665 -0.3835 -0.1712
 2517SOL    HW219014   4.328   0.266   5.044  0.1103 -1.1700  0.9683
 2518SOL     OW19015   4.599   1.401   2.728  0.8160  0.0172  0.3928
 2518SOL    HW119016   4.642   1.351   2.798 -0.5205  0.1850  1.3353
 2518SOL    HW219017   4.584   1.485   2.771 -0.1578  0.2027 -0.3052
 2519SOL     OW19018   3.953   0.217  11.691 -0.4018 -0.5610  0.3375
 2519SOL    HW119019   4.000   0.295  11.720 -2.9698  0.7684  0.9046
 2519SOL    HW219020   3.889   0.196  11.759 -0.0595 -0.3229  0.7348
 2520SOL     OW19021   3.039   1.067   2.934  1.0080 -0.1030  0.0042
 2520SOL    HW119022   3.096   1.142   2.950  1.4949 -0.3198 -0.6747
 2520SOL    HW219023   3.079   1.018   2.862 -1.1798 -3.5518  1.1248
 2521SOL     OW19024   3.987   1.653  17.380  0.6185 -0.2144  0.3916
 2521SOL    HW119025   4.005   1.647  17.474  3.0393 -0.7794 -0.1101
 2521SOL    HW219026   4.069   1.633  17.335  1.7476  3.0131  1.0392
 2522SOL     OW19027   4.481   0.196  15.992  0.1010 -0.2760 -0.0588
 2522SOL    HW119028   4.464   0.284  15.958 -1.3474 -1.0616 -1.3672
 2522SOL    HW219029   4.485   0.154  15.906 -1.9382 -0.7721  0.0759
 2523SOL     OW19030   3.763   0.488  12.493  0.0332 -0.4610 -0.4198
 2523SOL    HW119031   3.675   0.483  12.457  0.3238 -0.4896 -1.1343
 2523SOL    HW219032   3.808   0.524  12.416 -2.0781  0.9255 -0.9977
 2524SOL     OW19033   3.831   2.751  10.365  0.3374  0.0296  0.6835
 2524SOL    HW119034   3.746   2.767  10.407  0.2410  1.6744 -0.1484
 2524SOL    HW219035   3.880   2.808  10.423  1.1943 -2.2244  2.1488
 2525SOL     OW19036   0.811   1.549   5.662 -0.1223  0.6001  0.4121
 2525SOL    HW119037   0.869   1.505   5.599  1.0403  1.5411  0.8249
 2525SOL    HW219038   0.791   1.623   5.606  1.6769  1.2181  0.5796
 2526SOL     OW19039   2.612   0.404  11.426  0.0765 -0.3305 -0.1042
 2526SOL    HW119040   2.615   0.314  11.394 -0.7627  0.0523 -1.2688
 2526SOL    HW219041   2.698   0.441  11.403 -0.1513  0.1034 -0.2530
 2527SOL     OW19042   2.959   3.522   5.069 -0.1378  0.2958 -0.3517
 2527SOL    HW119043   2.964   3.437   5.113  1.9552  0.1042 -0.9770
 2527SOL    HW219044   2.906   3.571   5.131  3.2105  0.9925  1.9562
 2528SOL     OW19045   2.885   4.229   4.625  0.5331  0.0581 -0.3849
 2528SOL    HW119046   2.875   4.217   4.530  0.4502  0.3625 -0.4163
 2528SOL    HW219047   2.881   4.135   4.644  1.0726  0.8395  3.6277
 2529SOL     OW19048   3.786   0.321   5.116 -0.6752 -0.2508 -0.1053
 2529SOL    HW119049   3.734   0.355   5.044  0.2798  0.3812 -0.4900
 2529SOL    HW219050   3.780   0.382   5.190  0.8590 -0.5342  0.2588
 2530SOL     OW19051   3.387   2.652  17.107  0.0698 -0.0308 -0.2700
 2530SOL    HW119052   3.297   2.622  17.091  0.8306 -2.5063  0.2055
 2530SOL    HW219053   3.374   2.689  17.194  0.9232 -1.2888  0.3867
 2531SOL     OW19054   0.486   2.224   7.715  0.2114 -0.2024  0.8182
 2531SOL    HW119055   0.513   2.313   7.692  0.9546 -0.6175  0.0761
 2531SOL    HW219056   0.528   2.165   7.654  0.6379  1.0970 -0.1565
 2532SOL     OW19057   0.193   2.036   2.401  0.3662  0.3008  0.0419
 2532SOL    HW119058   0.193   1.971   2.331  1.1920  3.3382 -2.7909
 2532SOL    HW219059   0.106   2.077   2.400  0.5077  0.5109 -3.3617
 2533SOL     OW19060   4.515   1.247   8.336  0.2189  0.3168  0.3718
 2533SOL    HW119061   4.433   1.242   8.385  0.4562  1.5521  0.8752
 2533SOL    HW219062   4.488   1.268   8.247  1.2973  0.1057 -0.0087
 2534SOL     OW19063   0.951   1.416   5.396 -0.6685 -0.9127 -0.1806
 2534SOL    HW119064   0.858   1.392   5.396 -0.9654  0.2272 -1.9232
 2534SOL    HW219065   0.956   1.440   5.303  1.4785 -1.3607 -0.1822
 2535SOL     OW19066   4.424   1.505   4.244  0.0840 -0.0574 -0.0776
 2535SOL    HW119067   4.328   1.506   4.245  0.0928  0.4438 -0.0697
 2535SOL    HW219068   4.433   1.455   4.162  1.7763 -1.3887  0.9105
 2536SOL     OW19069   0.773   3.390   5.790  0.0343  0.4021 -0.5371
 2536SOL    HW119070   0.747   3.445   5.864  0.4388  1.6623 -1.3234
 2536SOL    HW219071   0.724   3.315   5.824  1.5891 -0.7831 -0.8840
 2537SOL     OW19072   4.344   4.370   2.692  0.2919 -0.4869  0.5171
 2537SOL    HW119073   4.288   4.380   2.615  1.3663  0.4794 -0.1287
 2537SOL    HW219074   4.378   4.458   2.708 -1.0854  0.0160  0.6370
 2538SOL     OW19075   3.524   1.232   5.777  0.6023  0.0664  0.0230
 2538SOL    HW119076   3.550   1.195   5.862 -0.1348  0.3094  0.3487
 2538SOL    HW219077   3.589   1.302   5.778  1.0701 -0.3470 -0.9696
 2539SOL     OW19078   3.384   0.083   8.863  0.0005  0.0678 -0.2663
 2539SOL    HW119079   3.342   0.076   8.949  0.4243 -0.0551 -0.0657
 2539SOL    HW219080   3.476   0.072   8.888  0.0673 -1.3913 -1.1321
 2540SOL     OW19081   3.426   0.133   5.234 -0.4456 -0.1072 -0.1382
 2540SOL    HW119082   3.386   0.063   5.183 -0.8431  1.2324 -1.6619
 2540SOL    HW219083   3.392   0.210   5.187 -1.8416 -1.1623 -0.8497
 2541SOL     OW19084   1.052   4.114   9.483  0.3875  0.4440 -0.2613
 2541SOL    HW119085   1.126   4.164   9.516 -2.1307  1.2068  4.1829
 2541SOL    HW219086   1.045   4.039   9.542  0.2682 -1.3607 -2.5656
 2542SOL     OW19087   3.730   3.127   9.035  0.4150  0.3826 -0.0702
 2542SOL    HW119088   3.650   3.179   9.049  1.8983  2.7266 -0.2453
 2542SOL    HW219089   3.765   3.173   8.959  1.3266 -0.5874 -0.2371
 2543SOL     OW19090   4.710   1.682  11.064  0.1692 -0.1792 -0.4138
 2543SOL    HW119091   4.629   1.732  11.063  0.1137 -0.2153  1.0421
 2543SOL    HW219092   4.676   1.595  11.043  1.2604 -0.9676  1.0585
 2544SOL     OW19093   4.035   2.538   4.246  0.2866 -0.0410 -0.4377
 2544SOL    HW119094   4.086   2.576   4.174  0.5938 -2.4359 -1.4979
 2544SOL    HW219095   3.955   2.511   4.200  0.3513 -0.9339 -0.0289
 2545SOL     OW19096   4.502   4.667   8.565  0.7257  0.1595  0.3469
 2545SOL    HW119097   4.456   4.587   8.542  0.1243  0.3152  0.9928
 2545SOL    HW219098   4.498   4.669   8.661 -1.2399 -1.7950  0.2976
 2546SOL     OW19099   2.794   3.762   8.151  0.3741 -0.6463  0.1132
 2546SOL    HW119100   2.878   3.802   8.127 -0.1620 -1.0141 -2.3567
 2546SOL    HW219101   2.780   3.715   8.069  2.4126 -0.1730 -0.4992
 2547SOL     OW19102   0.605   2.170   8.239  0.7460 -0.1192  0.0794
 2547SOL    HW119103   0.528   2.194   8.290 -0.6175 -1.2052 -1.5006
 2547SOL    HW219104   0.563   2.144   8.157 -0.2430  1.2197  0.1666
 2548SOL     OW19105   4.405   2.508   5.386 -0.5595 -0.0825  0.4361
 2548SOL    HW119106   4.429   2.581   5.443  0.0236  0.2039 -0.1712
 2548SOL    HW219107   4.323   2.479   5.425 -0.5178 -1.5839 -0.5993
 2549SOL     OW19108   4.404   2.936  12.120 -0.2282  0.1039  0.2711
 2549SOL    HW119109   4.408   3.025  12.084  1.8916  0.2728  0.9234
 2549SOL    HW219110   4.309   2.941  12.128 -0.2899  1.0537 -1.1503
 2550SOL     OW19111   4.709   1.986   4.335 -0.5500 -0.1401  0.8162
 2550SOL    HW119112   4.667   1.908   4.300 -0.1369 -0.0147  0.0436
 2550SOL    HW219113   4.638   2.048   4.352  0.9356  2.2525 -1.6612
 2551SOL     OW19114   1.616   1.413   5.126  0.0185 -0.2291 -0.1359
 2551SOL    HW119115   1.616   1.508   5.137 -1.8721 -0.1692 -0.6136
 2551SOL    HW219116   1.561   1.396   5.049 -0.2360  0.2991 -0.0722
 2552SOL     OW19117   4.397   3.375   7.976  0.4452 -0.6678 -0.2963
 2552SOL    HW119118   4.348   3.387   7.895  1.9550  1.6988 -0.8741
 2552SOL    HW219119   4.335   3.426   8.029  1.5039 -1.5093  1.7668
 2553SOL     OW19120   1.059   2.903  12.268  0.1759  0.3296  0.3971
 2553SOL    HW119121   1.012   2.864  12.195 -1.3575  1.9464  0.5374
 2553SOL    HW219122   0.989   2.945  12.317 -0.1121  0.2282  0.0740
 2554SOL     OW19123   0.739   3.609  11.317 -0.1761 -0.2039 -0.6936
 2554SOL    HW119124   0.691   3.690  11.337 -1.6860 -1.5473  1.1250
 2554SOL    HW219125   0.781   3.585  11.399 -2.4999  1.3103  0.9432
 2555SOL     OW19126   4.699   4.616   3.504 -0.2008  0.1871  0.3094
 2555SOL    HW119127   4.687   4.711   3.509  1.4730  0.5141 -1.4059
 2555SOL    HW219128   4.627   4.594   3.445  0.9918 -0.3989 -0.9420
 2556SOL     OW19129   1.455   3.005   3.944 -0.2124 -0.7458 -0.1389
 2556SOL    HW119130   1.445   3.070   3.875 -2.4727 -0.2285  0.6904
 2556SOL    HW219131   1.368   2.966   3.939 -0.2154 -0.7939  0.3076
 2557SOL     OW19132   2.698   4.518   9.500  0.0777 -0.9597 -0.2487
 2557SOL    HW119133   2.630   4.551   9.441  0.3294  0.8571  0.4989
 2557SOL    HW219134   2.768   4.483   9.445  1.4879  1.8430 -0.2030
 2558SOL     OW19135   3.974   3.258   1.341  0.0755  0.4264 -0.0029
 2558SOL    HW119136   3.938   3.181   1.297  0.6370  0.0734  0.1551
 2558SOL    HW219137   3.910   3.323   1.312  0.9186  0.9686 -0.6563
 2559SOL     OW19138   3.910   1.483  10.395  0.0026  0.0322  0.4679
 2559SOL    HW119139   3.852   1.521  10.462  0.5061 -0.9259  1.4485
 2559SOL    HW219140   3.893   1.390  10.410 -0.7915 -0.2150 -2.0595
 2560SOL     OW19141   4.463   3.051   7.459 -0.0680  0.2493 -0.3540
 2560SOL    HW119142   4.391   3.016   7.406 -1.5356  0.9146  1.1886
 2560SOL    HW219143   4.545   3.017   7.424  0.2507  0.1987  0.4578
 2561SOL     OW19144   3.012   2.047   4.270  0.3092 -0.6957 -0.6535
 2561SOL    HW119145   3.013   2.143   4.267  2.8425 -0.6419  2.0449
 2561SOL    HW219146   3.011   2.035   4.175 -3.5457  4.4702 -1.3194
 2562SOL     OW19147   3.574   0.681   6.213 -0.2609 -0.2152  0.0375
 2562SOL    HW119148   3.606   0.678   6.303 -0.5588 -1.4830  0.1130
 2562SOL    HW219149   3.507   0.612   6.212  1.9181 -2.3378 -0.3348
 2563SOL     OW19150   4.025   3.871   5.057 -0.2874  0.0631  0.2423
 2563SOL    HW119151   4.078   3.888   4.979 -0.8737  0.5138 -0.0576
 2563SOL    HW219152   3.944   3.919   5.040 -0.3420  0.1865  0.8389
 2564SOL     OW19153   3.155   4.642  10.349  0.0250  0.9612  0.0200
 2564SOL    HW119154   3.115   4.566  10.390  1.1980  0.5275  0.3817
 2564SOL    HW219155   3.243   4.608  10.335 -1.1467 -1.7257 -0.6749
 2565SOL     OW19156   0.164   0.620   4.425 -0.4197 -0.2799  0.0894
 2565SOL    HW119157   0.110   0.542   4.442 -1.3489  0.4369  0.3959
 2565SOL    HW219158   0.225   0.602   4.497 -1.6783 -0.8322  1.0197
 2566SOL     OW19159   4.405   3.306  13.197 -0.8742 -0.1984  0.1816
 2566SOL    HW119160   4.321   3.281  13.234 -0.2482 -1.4920  0.6999
 2566SOL    HW219161   4.409   3.400  13.216  0.2271 -0.3658  0.7906
 2567SOL     OW19162   3.808   3.776  14.377 -0.1366 -0.1840 -0.3437
 2567SOL    HW119163   3.880   3.801  14.319  0.4562  1.0387  0.9110
 2567SOL    HW219164   3.854   3.780  14.461  0.6470 -1.2458 -0.7204
 2568SOL     OW19165   4.318   2.769   4.639 -0.1568  0.2002 -0.1617
 2568SOL    HW119166   4.283   2.708   4.704 -0.9441  0.2169 -0.5777
 2568SOL    HW219167   4.395   2.810   4.679 -2.1392  0.0088  3.8215
 2569SOL     OW19168   3.691   3.227   1.974 -0.1643  0.1237  0.5429
 2569SOL    HW119169   3.779   3.191   1.960 -0.8831 -1.3030 -0.3050
 2569SOL    HW219170   3.719   3.279   2.049 -1.7797  0.6288  0.7853
 2570SOL     OW19171   2.923   3.432   5.516 -0.3555  0.2074 -0.0116
 2570SOL    HW119172   2.989   3.483   5.562  2.2084 -2.2190 -0.9711
 2570SOL    HW219173   2.954   3.345   5.541  1.6376  1.2828  1.2706
 2571SOL     OW19174   4.593   3.786   7.791  0.5767 -0.3133  0.2021
 2571SOL    HW119175   4.565   3.862   7.741 -0.2124 -3.3516 -3.9852
 2571SOL    HW219176   4.565   3.709   7.740  0.7219  1.6144 -2.7799
 2572SOL     OW19177   0.146   0.903   2.586  0.5503  0.5160  0.3927
 2572SOL    HW119178   0.189   0.870   2.665  0.2581  0.8615  0.6962
 2572SOL    HW219179   0.203   0.972   2.553 -1.2625  0.9640 -1.8199
 2573SOL     OW19180   3.499   4.510  12.544  0.3300  0.3439  0.3258
 2573SOL    HW119181   3.527   4.439  12.486 -1.7214  0.1618 -0.4545
 2573SOL    HW219182   3.541   4.483  12.625 -1.6128 -2.8842  0.2655
 2574SOL     OW19183   1.445   2.375  12.423  0.2990 -0.5148  0.3888
 2574SOL    HW119184   1.506   2.325  12.368 -0.5776 -1.1461 -0.0263
 2574SOL    HW219185   1.411   2.304  12.478  1.0068 -0.9927  0.2102
 2575SOL     OW19186   4.464   2.706  11.887  0.3578  0.5750  0.0602
 2575SOL    HW119187   4.405   2.764  11.935 -0.7342 -0.1599 -0.3903
 2575SOL    HW219188   4.483   2.764  11.813 -0.2261  1.3091  0.4841
 2576SOL     OW19189   1.938   2.791   8.166 -0.0265  0.3018  0.1409
 2576SOL    HW119190   1.948   2.778   8.071  0.6286  0.8150  0.1439
 2576SOL    HW219191   1.895   2.876   8.176 -0.8352  0.1998 -2.4525
 2577SOL     OW19192   3.716   0.561  17.206 -0.1774 -0.3297  0.0137
 2577SOL    HW119193   3.765   0.524  17.133  1.0734  1.1252  0.1021
 2577SOL    HW219194   3.699   0.483  17.259 -0.2345 -1.6046 -1.9014
 2578SOL     OW19195   2.837   0.442   2.689  0.3928 -0.1445  0.3268
 2578SOL    HW119196   2.919   0.396   2.672  0.2205 -0.4731  0.3848
 2578SOL    HW219197   2.768   0.377   2.674  0.8685 -0.8600  1.2415
 2579SOL     OW19198   2.610   4.477   8.732 -0.3513  0.5119 -0.0315
 2579SOL    HW119199   2.682   4.516   8.683 -1.0429  0.9697 -0.6848
 2579SOL    HW219200   2.546   4.544   8.710  1.1972  1.3167 -1.9995
 2580SOL     OW19201   3.421   4.186   3.672  0.8473  0.7206  0.1000
 2580SOL    HW119202   3.457   4.142   3.595 -2.7824 -1.9000 -0.1173
 2580SOL    HW219203   3.392   4.266   3.628  1.5545 -0.5481 -2.6228
 2581SOL     OW19204   0.780   2.887  17.671  0.1652 -0.0085 -0.1821
 2581SOL    HW119205   0.853   2.827  17.654  0.7757  0.4288  0.8921
 2581SOL    HW219206   0.774   2.887   0.070  1.3179  1.3541 -0.1061
 2582SOL     OW19207   2.598   3.087   8.506 -0.3807 -0.8937 -0.0369
 2582SOL    HW119208   2.583   3.039   8.425 -0.3139  0.2863 -0.7612
 2582SOL    HW219209   2.621   3.177   8.480  0.3616 -1.3358 -0.8976
 2583SOL     OW19210   1.797   0.909   0.770  0.1219  0.2549 -0.6283
 2583SOL    HW119211   1.789   0.818   0.798 -1.8824  0.8298  0.7632
 2583SOL    HW219212   1.717   0.916   0.717 -1.4399 -1.1373  1.5026
 2584SOL     OW19213   2.497   2.476  14.890  0.2581 -0.2201 -0.4138
 2584SOL    HW119214   2.471   2.409  14.827 -1.9242 -0.4316  0.7292
 2584SOL    HW219215   2.423   2.533  14.867  1.8035  1.6248 -0.8748
 2585SOL     OW19216   4.647   4.099   8.657 -0.3971 -0.6114  0.0091
 2585SOL    HW119217   4.672   4.006   8.656  0.1607 -0.4797  1.6092
 2585SOL    HW219218   4.636   4.126   8.748 -0.2887  0.7377 -0.3840
 2586SOL     OW19219   3.335   0.228   6.656  0.1735 -0.0113 -0.6495
 2586SOL    HW119220   3.368   0.305   6.703  1.1992 -0.9087  0.0865
 2586SOL    HW219221   3.259   0.200   6.707  0.4986  0.8261  0.2940
 2587SOL     OW19222   4.251   3.515   7.320  0.1787 -0.0966 -0.4240
 2587SOL    HW119223   4.193   3.453   7.275 -0.5751 -1.0497  1.8723
 2587SOL    HW219224   4.264   3.472   7.405 -0.7325 -0.9341 -0.7053
 2588SOL     OW19225   2.706   3.422  10.411 -0.4125  0.1464 -0.0266
 2588SOL    HW119226   2.749   3.338  10.431 -0.1390 -0.0765 -1.5433
 2588SOL    HW219227   2.768   3.487  10.444  0.3182 -0.2298 -0.6346
 2589SOL     OW19228   1.589   1.837   8.771 -0.4437  0.6934  0.4311
 2589SOL    HW119229   1.538   1.839   8.690  0.6549 -2.9043 -0.3360
 2589SOL    HW219230   1.676   1.856   8.734 -1.0034 -1.3006 -1.9279
 2590SOL     OW19231   2.796   2.572   8.582  0.1005  0.6418  0.1649
 2590SOL    HW119232   2.875   2.525   8.610 -1.0118 -1.1386  0.3340
 2590SOL    HW219233   2.731   2.526   8.635  0.3786  1.7092  1.4204
 2591SOL     OW19234   1.402   4.473  14.225  0.0556 -0.7421 -0.2029
 2591SOL    HW119235   1.487   4.444  14.193 -0.4271 -1.1829 -1.0715
 2591SOL    HW219236   1.421   4.489  14.318 -0.3040  1.0967 -0.4439
 2592SOL     OW19237   3.111   0.020   4.773  0.2049 -0.4716  0.4608
 2592SOL    HW119238   3.177   4.689   4.730 -0.1247 -0.9022  0.5084
 2592SOL    HW219239   3.088   4.672   4.832  0.4322 -0.3875  0.6517
 2593SOL     OW19240   2.741   0.058  17.094  0.1963  0.5490  0.7070
 2593SOL    HW119241   2.678   0.128  17.111 -1.4189 -0.1426 -2.4250
 2593SOL    HW219242   2.713   0.048  17.003  0.2247  0.6321  0.6895
 2594SOL     OW19243   2.683   4.235  13.071 -0.7703 -0.2175 -0.2082
 2594SOL    HW119244   2.735   4.262  12.996 -1.8615 -1.6704 -1.4935
 2594SOL    HW219245   2.700   4.141  13.071  1.5959  0.2207  0.4735
 2595SOL     OW19246   0.088   2.443   7.407 -0.5821  0.0587  0.4983
 2595SOL    HW119247   0.019   2.381   7.432 -1.3940  1.0782  0.8008
 2595SOL    HW219248   0.066   2.441   7.314  0.7122  1.3049  0.1661
 2596SOL     OW19249   3.646   3.985  16.451 -0.6417 -0.4728 -0.0137
 2596SOL    HW119250   3.670   4.077  16.460 -2.5732  0.0800 -0.5514
 2596SOL    HW219251   3.570   3.994  16.508 -0.4017 -0.6023  0.3235
 2597SOL     OW19252   2.854   2.722  12.644  0.3280  0.3342  0.3700
 2597SOL    HW119253   2.916   2.729  12.717 -0.9590 -1.8626  1.6544
 2597SOL    HW219254   2.824   2.812  12.631 -1.7101 -0.3518  0.2832
 2598SOL     OW19255   4.150   1.667  13.007  0.2193 -0.0084  0.0763
 2598SOL    HW119256   4.220   1.614  13.046  0.8135 -0.5251 -1.6912
 2598SOL    HW219257   4.161   1.640  12.916  3.6070 -0.4680  0.6007
 2599SOL     OW19258   1.013   1.943   3.886  0.5425 -0.6612 -0.0252
 2599SOL    HW119259   0.970   2.026   3.865  3.6830  0.5047 -1.7768
 2599SOL    HW219260   0.941   1.898   3.932 -0.8828  1.6277 -0.0050
 2600SOL     OW19261   0.335   3.819   0.180  0.3673 -0.5549 -0.0320
 2600SOL    HW119262   0.391   3.772   0.119 -0.2584  2.6609 -3.1004
 2600SOL    HW219263   0.254   3.811   0.130  0.9043 -1.6668 -0.7033
 2601SOL     OW19264   0.776   1.898   5.235  0.0668 -0.8513  0.0402
 2601SOL    HW119265   0.856   1.866   5.194 -0.7275 -2.1099 -0.5205
 2601SOL    HW219266   0.773   1.993   5.220 -0.1746 -0.8978 -0.2056
 2602SOL     OW19267   3.723   1.251  10.661 -0.4631  0.0786  0.3450
 2602SOL    HW119268   3.802   1.203  10.684 -1.6868 -1.3463  1.5763
 2602SOL    HW219269   3.718   1.312  10.735 -1.8606  1.6474 -1.0532
 2603SOL     OW19270   3.758   3.713   3.205  0.6711 -0.4030 -0.2549
 2603SOL    HW119271   3.768   3.656   3.128  1.3552  1.5136 -1.5947
 2603SOL    HW219272   3.678   3.678   3.243 -0.0255 -1.3578 -2.6048
 2604SOL     OW19273   1.248   3.927  13.337 -0.2583 -0.6449  0.4718
 2604SOL    HW119274   1.338   3.920  13.370 -0.5244 -0.2813  1.2755
 2604SOL    HW219275   1.277   3.914  13.247 -1.8331  0.9089 -0.2492
 2605SOL     OW19276   3.918   0.647   6.922  0.2327  0.0662  0.1814
 2605SOL    HW119277   3.931   0.694   7.004  0.0334 -0.0225  0.2640
 2605SOL    HW219278   3.977   0.692   6.862  1.0694 -0.0618  0.8983
 2606SOL     OW19279   3.987   0.872   1.444  0.2395 -0.2328 -0.7196
 2606SOL    HW119280   4.082   0.887   1.440  0.3386 -0.5275  0.3639
 2606SOL    HW219281   3.964   0.918   1.525  2.2755 -1.1213  0.3730
 2607SOL     OW19282   1.964   3.183   3.940 -0.3643  0.7646 -0.6167
 2607SOL    HW119283   2.024   3.124   3.985 -1.7629  1.0299  1.6004
 2607SOL    HW219284   1.942   3.137   3.859  1.5820  0.0427 -0.7241
 2608SOL     OW19285   4.014   1.802   2.315 -0.7555  0.2564  0.1002
 2608SOL    HW119286   3.969   1.812   2.231  0.8418 -1.0152 -0.9056
 2608SOL    HW219287   4.072   1.729   2.293 -0.2897  0.2311  1.4521
 2609SOL     OW19288   1.988   0.392   0.884 -0.6354 -0.3945  0.8912
 2609SOL    HW119289   2.048   0.466   0.886 -0.3931 -0.5553 -0.7579
 2609SOL    HW219290   1.965   0.382   0.977 -0.3891  0.9177  1.0831
 2610SOL     OW19291   1.175   0.938  13.859 -0.0080  0.2651 -0.0157
 2610SOL    HW119292   1.247   0.878  13.879  1.1095  1.4517 -0.4568
 2610SOL    HW219293   1.225   1.019  13.874 -1.8174  1.1939  1.0122
 2611SOL     OW19294   4.166   3.269   9.246  0.0446  0.2041  0.6945
 2611SOL    HW119295   4.117   3.346   9.218 -0.0541 -0.3151 -0.5241
 2611SOL    HW219296   4.175   3.288   9.340  1.7410 -1.0973  0.7886
 2612SOL     OW19297   2.033   2.402   2.426 -0.5246  0.3726  0.5203
 2612SOL    HW119298   1.947   2.430   2.395 -0.2544  2.7830  1.9499
 2612SOL    HW219299   2.029   2.307   2.444  0.5535 -0.1181 -1.8603
 2613SOL     OW19300   2.848   4.270  12.858  0.9010 -0.3600  0.3036
 2613SOL    HW119301   2.812   4.248  12.772 -1.0685 -0.9487  1.2748
 2613SOL    HW219302   2.938   4.290  12.832  0.2118  0.5635 -1.3201
 2614SOL     OW19303   1.529   2.881   2.449  0.2192 -0.5033 -0.0548
 2614SOL    HW119304   1.465   2.918   2.509 -3.1716 -0.8002 -3.5195
 2614SOL    HW219305   1.501   2.912   2.363  1.3815  0.5723 -0.0472
 2615SOL     OW19306   3.692   4.333   8.993  0.1641 -0.0060 -0.2019
 2615SOL    HW119307   3.662   4.250   9.029  0.8832  0.3324  1.1658
 2615SOL    HW219308   3.657   4.327   8.904  2.6146  2.0475 -1.3109
 2616SOL     OW19309   0.738   3.800   7.831 -0.3049  0.1057 -0.1369
 2616SOL    HW119310   0.766   3.711   7.852  0.4129  0.9000  2.2430
 2616SOL    HW219311   0.808   3.831   7.774 -0.4295  1.5414  0.4954
 2617SOL     OW19312   4.000   1.528  11.978 -0.0480  0.0674  0.0068
 2617SOL    HW119313   3.998   1.590  12.050  0.9988 -0.0789  0.1581
 2617SOL    HW219314   4.081   1.478  11.981 -0.9448 -1.4250 -0.4453
 2618SOL     OW19315   3.622   0.905   1.736  0.1692 -0.0851 -0.5439
 2618SOL    HW119316   3.558   0.838   1.760  0.6127 -0.4989 -0.5126
 2618SOL    HW219317   3.607   0.887   1.643 -2.3425  1.3681 -0.4378
 2619SOL     OW19318   0.339   3.379   5.323 -0.0827  0.1656 -0.6414
 2619SOL    HW119319   0.387   3.395   5.242  2.3803 -1.0826  0.5592
 2619SOL    HW219320   0.377   3.298   5.357 -0.0119 -0.0853 -1.3142
 2620SOL     OW19321   2.141   3.625   8.183 -0.3597  0.3851 -0.1337
 2620SOL    HW119322   2.098   3.711   8.179 -0.7788  0.1429 -0.8084
 2620SOL    HW219323   2.063   3.571   8.196 -0.0492  0.5296  2.2939
 2621SOL     OW19324   0.003   3.267   7.101  0.0307 -0.4087 -0.0209
 2621SOL    HW119325   0.056   3.343   7.075 -1.8310  1.6300  2.1275
 2621SOL    HW219326   0.064   3.210   7.147 -0.2668 -0.3924  0.3901
 2622SOL     OW19327   3.979   4.305  12.033 -0.0841 -0.3505 -0.0376
 2622SOL    HW119328   4.068   4.270  12.035  0.0824  0.0970  0.4268
 2622SOL    HW219329   3.956   4.281  11.943  0.3407  0.0874 -0.2594
 2623SOL     OW19330   1.662   1.049   1.807 -0.2157  0.3630  0.5082
 2623SOL    HW119331   1.689   1.108   1.877 -1.0997 -0.7599  1.8084
 2623SOL    HW219332   1.647   1.112   1.737 -0.1096 -0.8701 -0.6136
 2624SOL     OW19333   2.192   3.514   9.848  0.1190 -0.6862  0.2066
 2624SOL    HW119334   2.263   3.576   9.861  0.7200 -0.8268 -2.4095
 2624SOL    HW219335   2.121   3.570   9.879 -1.1971 -2.4516  0.4492
 2625SOL     OW19336   3.433   2.968   9.169 -0.1618 -0.7207 -0.3393
 2625SOL    HW119337   3.455   3.058   9.147 -0.3604 -0.3968  0.7790
 2625SOL    HW219338   3.440   2.967   9.265 -0.7315 -2.7694 -0.3031
 2626SOL     OW19339   2.819   2.283   8.773  0.2489  0.2850 -0.3453
 2626SOL    HW119340   2.728   2.293   8.800  0.8425 -0.3616  1.8689
 2626SOL    HW219341   2.860   2.322   8.851 -1.5898  1.0572  0.2225
 2627SOL     OW19342   2.086   1.774   1.291 -0.0293  0.1845 -0.4722
 2627SOL    HW119343   2.001   1.733   1.275  0.3930 -0.8417 -0.0938
 2627SOL    HW219344   2.059   1.863   1.313  1.0409  0.7823 -1.6301
 2628SOL     OW19345   2.658   0.821   9.808  0.1998 -0.0744 -0.2296
 2628SOL    HW119346   2.638   0.766   9.884 -2.3878 -2.8308 -2.9385
 2628SOL    HW219347   2.754   0.822   9.815  0.0464  0.2154  1.8438
 2629SOL     OW19348   0.347   0.922   8.269 -0.2420 -0.7356 -0.0086
 2629SOL    HW119349   0.413   0.861   8.302  2.1318  1.4771 -0.7237
 2629SOL    HW219350   0.404   0.994   8.241 -0.6832 -0.1957  0.4610
 2630SOL     OW19351   1.669   3.153   3.187 -0.2202 -0.3830  1.0744
 2630SOL    HW119352   1.640   3.063   3.200 -1.0446 -0.3224 -0.3989
 2630SOL    HW219353   1.720   3.145   3.107  0.0693  3.0265  0.8804
 2631SOL     OW19354   4.360   3.411   5.043 -0.1248 -0.6981 -0.1559
 2631SOL    HW119355   4.436   3.468   5.052  0.0581 -0.7811 -1.1336
 2631SOL    HW219356   4.305   3.483   5.014  1.3369  0.7512  0.6796
 2632SOL     OW19357   2.645   1.086   9.805  0.1684 -0.4220 -0.5311
 2632SOL    HW119358   2.630   0.991   9.812 -0.5120 -0.2939 -0.3108
 2632SOL    HW219359   2.598   1.095   9.722  3.0673  0.1315 -2.1269
 2633SOL     OW19360   2.249   0.676   7.954 -0.2675  0.6486 -0.3530
 2633SOL    HW119361   2.164   0.693   7.996 -0.5362 -3.5109  0.7984
 2633SOL    HW219362   2.271   0.594   7.999 -0.8887  1.0944  0.7670
 2634SOL     OW19363   3.280   4.132   3.111  0.0107  0.0078 -0.0144
 2634SOL    HW119364   3.200   4.093   3.148  0.8805 -0.9669  0.8848
 2634SOL    HW219365   3.320   4.049   3.085 -0.0069 -0.5335  1.6367
 2635SOL     OW19366   1.642   2.675   3.511  0.5200  0.2665 -0.0286
 2635SOL    HW119367   1.695   2.660   3.589 -1.6926 -0.3357  1.3588
 2635SOL    HW219368   1.663   2.767   3.493 -0.4796  0.4002 -0.5032
 2636SOL     OW19369   0.120   4.186   6.277  0.8353  0.1648 -0.2364
 2636SOL    HW119370   0.052   4.222   6.220  0.1446  0.1223  0.5471
 2636SOL    HW219371   0.177   4.258   6.303  2.0801  0.0226 -2.5947
 2637SOL     OW19372   4.342   4.354   3.921 -0.5837  0.2391 -0.0747
 2637SOL    HW119373   4.284   4.369   3.995  2.1474  0.9488  1.9196
 2637SOL    HW219374   4.286   4.368   3.845 -0.8564  2.1733  0.4919
 2638SOL     OW19375   1.541   2.297   4.684 -0.5971 -0.1762  0.8066
 2638SOL    HW119376   1.485   2.226   4.714 -0.0427 -0.1877  1.7890
 2638SOL    HW219377   1.582   2.323   4.766  2.1628  1.3134 -1.0242
 2639SOL     OW19378   2.994   2.508   8.757  0.0214 -0.1605 -0.0316
 2639SOL    HW119379   3.067   2.563   8.786  0.1666 -0.1241 -0.4708
 2639SOL    HW219380   2.969   2.464   8.839  1.2211 -0.9825 -0.1072
 2640SOL     OW19381   4.380   3.017   3.987  0.8030 -0.8318 -0.0052
 2640SOL    HW119382   4.344   3.010   3.898 -1.3350 -0.6254  0.8280
 2640SOL    HW219383   4.471   2.990   3.979  0.5939 -1.8454  1.0250
 2641SOL     OW19384   3.443   1.853   2.179 -0.0359  0.1699  0.3750
 2641SOL    HW119385   3.401   1.775   2.214  2.3677  0.0831  3.0520
 2641SOL    HW219386   3.412   1.839   2.089  0.5174  1.9821 -0.1017
 2642SOL     OW19387   3.587   4.091   9.109 -0.0485 -0.2782  0.6617
 2642SOL    HW119388   3.587   3.995   9.105 -2.3282 -0.3015  1.2938
 2642SOL    HW219389   3.529   4.092   9.185 -1.3177  0.9614 -0.3130
 2643SOL     OW19390   0.983   3.134   7.147 -0.1009  0.2798  0.4066
 2643SOL    HW119391   0.966   3.224   7.177 -0.7380 -0.4335  2.2125
 2643SOL    HW219392   1.057   3.148   7.089  0.0904  1.6830  0.9892
 2644SOL     OW19393   1.556   2.844   8.051 -0.2631 -0.6995  0.3332
 2644SOL    HW119394   1.569   2.835   8.145 -0.1232  0.0901  0.3874
 2644SOL    HW219395   1.598   2.766   8.014 -0.2446 -0.0862 -0.9495
 2645SOL     OW19396   0.343   4.217   4.771 -0.0594  0.0092 -0.2466
 2645SOL    HW119397   0.374   4.295   4.725  0.1035 -1.0364 -1.8954
 2645SOL    HW219398   0.369   4.147   4.712 -0.4033  0.1924 -0.6129
 2646SOL     OW19399   3.714   4.398   2.015  0.6111  0.4762 -0.0274
 2646SOL    HW119400   3.780   4.358   2.072 -2.0770 -3.6193  0.1763
 2646SOL    HW219401   3.721   4.488   2.047  3.4842  0.7158 -1.3282
 2647SOL     OW19402   0.219   3.959   8.255  0.5864 -0.7074 -0.2629
 2647SOL    HW119403   0.277   3.976   8.329  0.6285  0.5881 -0.5859
 2647SOL    HW219404   0.260   4.007   8.183 -1.5762 -1.9922 -2.3464
 2648SOL     OW19405   0.889   0.624   9.200  0.1296 -0.1223 -0.6918
 2648SOL    HW119406   0.802   0.606   9.165  0.0795 -2.5748  0.7065
 2648SOL    HW219407   0.877   0.629   9.295 -1.0059  0.4878 -0.8743
 2649SOL     OW19408   2.013   2.985   3.513  0.2736 -0.0634 -0.6717
 2649SOL    HW119409   2.054   3.014   3.431  0.1684 -0.3758 -0.8330
 2649SOL    HW219410   2.071   2.915   3.541  2.0403  0.6117 -2.6672
 2650SOL     OW19411   4.274   3.106   7.949 -0.1129  0.0574 -0.3245
 2650SOL    HW119412   4.287   3.201   7.945 -0.1252  0.0659 -0.1450
 2650SOL    HW219413   4.334   3.067   7.885 -1.1286 -1.6669 -0.2253
 2651SOL     OW19414   0.085   3.233  11.590  0.6657 -0.0846  0.3625
 2651SOL    HW119415   0.067   3.327  11.579 -2.7396 -0.9105 -1.1046
 2651SOL    HW219416   0.041   3.207  11.671 -0.9267  0.0657 -0.4461
 2652SOL     OW19417   3.892   3.463   0.474  0.1365  0.0549  0.2265
 2652SOL    HW119418   3.975   3.504   0.499 -0.2189  0.3834  0.8748
 2652SOL    HW219419   3.834   3.492   0.544  0.1495 -0.4378  0.4416
 2653SOL     OW19420   2.760   4.488  10.257  0.5905 -0.3157 -0.2442
 2653SOL    HW119421   2.768   4.581  10.276 -1.8386  0.2009 -1.7549
 2653SOL    HW219422   2.845   4.486  10.214  0.1400  2.7331 -1.2670
 2654SOL     OW19423   1.369   2.752   6.255 -0.5118 -0.1771 -1.1542
 2654SOL    HW119424   1.412   2.818   6.308  0.1847  0.1077 -2.0720
 2654SOL    HW219425   1.438   2.685   6.260  1.2707  1.8302  1.0300
 2655SOL     OW19426   3.627   3.453   8.202  0.3064  0.5573  0.3936
 2655SOL    HW119427   3.696   3.504   8.244 -0.1826  0.8175  0.8800
 2655SOL    HW219428   3.636   3.459   8.107 -2.1532 -2.6621 -0.0283
 2656SOL     OW19429   3.512   4.136   0.333 -0.2569  0.1855 -0.0711
 2656SOL    HW119430   3.593   4.108   0.290  0.4094  3.2870 -0.7888
 2656SOL    HW219431   3.520   4.103   0.423 -1.8954  1.2423  0.4693
 2657SOL     OW19432   1.552   0.707   4.332 -0.2305 -0.1106  0.2801
 2657SOL    HW119433   1.639   0.749   4.335  0.4041 -1.4093 -0.1306
 2657SOL    HW219434   1.495   0.784   4.331  0.8987  0.7001 -2.7270
 2658SOL     OW19435   0.046   2.539   5.005  0.5949  0.1517 -1.0100
 2658SOL    HW119436   0.098   2.531   4.925  0.0805 -3.3375 -1.0003
 2658SOL    HW219437   0.011   2.452   5.024 -1.0950  1.3252  1.2139
 2659SOL     OW19438   0.486   0.724   3.545 -1.0423  0.1193 -0.2458
 2659SOL    HW119439   0.525   0.725   3.632 -0.7815 -1.4765 -0.3471
 2659SOL    HW219440   0.396   0.695   3.556 -1.5042  1.9072  0.7752
 2660SOL     OW19441   2.964   3.065   1.310  0.2651  1.1606 -0.3446
 2660SOL    HW119442   3.043   3.111   1.283  1.1842 -0.0910  0.1788
 2660SOL    HW219443   2.921   3.047   1.226  1.1458 -1.0339 -0.3383
 2661SOL     OW19444   0.486   0.718   7.867  0.0609 -0.0306 -0.2262
 2661SOL    HW119445   0.420   0.748   7.929 -0.6403 -1.0118 -0.5064
 2661SOL    HW219446   0.564   0.768   7.893  0.9926 -1.0171 -1.1573
 2662SOL     OW19447   3.790   2.547  10.879  0.0008  0.3638 -0.2214
 2662SOL    HW119448   3.759   2.477  10.822  0.3577  1.1463 -1.3800
 2662SOL    HW219449   3.841   2.594  10.813 -0.1168 -2.4189 -2.2863
 2663SOL     OW19450   4.686   0.239   5.091 -0.4407  0.0568  1.1932
 2663SOL    HW119451   4.593   0.258   5.103 -0.6073 -0.3561  0.5558
 2663SOL    HW219452   4.690   0.165   5.030 -1.1809  0.5263  0.5743
 2664SOL     OW19453   3.119   2.300  10.452  0.2232  0.1990 -0.0252
 2664SOL    HW119454   3.059   2.251  10.509 -0.4737 -1.6051 -2.2988
 2664SOL    HW219455   3.083   2.386  10.473 -1.9101 -0.4204 -1.1491
 2665SOL     OW19456   2.853   1.751   5.261  0.1826  0.1754 -0.4461
 2665SOL    HW119457   2.802   1.807   5.319  0.8308  1.0654 -0.7336
 2665SOL    HW219458   2.845   1.805   5.183 -0.8838  2.4974  1.2619
 2666SOL     OW19459   3.479   0.956   1.104 -0.4826 -0.5473  0.3954
 2666SOL    HW119460   3.396   0.921   1.137 -0.3772  0.5229  1.8141
 2666SOL    HW219461   3.529   0.879   1.131  0.2845  0.1119  0.8377
 2667SOL     OW19462   4.114   2.867   6.749  0.5321  0.3963  0.6045
 2667SOL    HW119463   4.109   2.772   6.748 -3.0464  0.5485  1.7100
 2667SOL    HW219464   4.139   2.875   6.841  1.4560  1.3498  0.2733
 2668SOL     OW19465   0.859   2.225   6.469  0.0219  0.3553 -0.5163
 2668SOL    HW119466   0.862   2.147   6.415 -0.5497  0.0131 -0.0542
 2668SOL    HW219467   0.949   2.252   6.449 -0.1227  1.6929  0.6546
 2669SOL     OW19468   1.521   4.707   8.108 -0.5915 -0.5410  0.3037
 2669SOL    HW119469   1.503   0.069   8.145  1.3764 -0.6883  1.5570
 2669SOL    HW219470   1.502   0.005   8.017 -2.2625  1.0119  1.0260
 2670SOL     OW19471   3.021   1.492   7.987  0.0669  0.1416 -0.3130
 2670SOL    HW119472   3.053   1.483   7.897  1.2135 -0.7905  0.1903
 2670SOL    HW219473   3.004   1.402   8.015  2.3073 -0.7939 -1.9635
 2671SOL     OW19474   1.003   1.642  10.624 -0.0421 -0.2642  0.4550
 2671SOL    HW119475   1.096   1.621  10.616 -0.2728 -0.7097 -1.2201
 2671SOL    HW219476   0.988   1.626  10.717 -0.0808  0.3209  0.5475
 2672SOL     OW19477   4.185   0.329  16.199 -0.0372 -0.7683 -0.3958
 2672SOL    HW119478   4.262   0.375  16.165  0.0067 -1.3091 -1.0372
 2672SOL    HW219479   4.212   0.310  16.289  1.0016 -1.4102 -0.8414
 2673SOL     OW19480   2.454   1.331   7.050  0.1885  0.4025  0.4081
 2673SOL    HW119481   2.362   1.344   7.074 -0.0324 -0.7300  0.1594
 2673SOL    HW219482   2.474   1.402   6.989  0.2856 -1.5993 -1.8798
 2674SOL     OW19483   0.202   3.378  15.796  0.2853  0.2666 -0.3971
 2674SOL    HW119484   0.162   3.291  15.792 -0.7561  0.7678 -0.8292
 2674SOL    HW219485   0.196   3.405  15.704  2.4966  0.9340 -0.3330
 2675SOL     OW19486   4.318   4.499   8.174  0.1653  0.0567 -0.1375
 2675SOL    HW119487   4.230   4.463   8.161  0.4636 -1.1569  1.2219
 2675SOL    HW219488   4.369   4.436   8.122 -0.0529 -0.2901  0.0758
 2676SOL     OW19489   4.693   0.019   4.925  1.0324 -0.6920  0.1599
 2676SOL    HW119490   4.694   4.646   4.927 -1.5151 -0.7027  0.3840
 2676SOL    HW219491   0.007   0.030   4.837  0.7945 -1.0366  0.0137
 2677SOL     OW19492   3.423   4.045   8.889 -0.0718 -0.4453 -0.0871
 2677SOL    HW119493   3.458   4.089   8.812 -0.2846 -0.8999 -0.4430
 2677SOL    HW219494   3.500   4.042   8.946  0.3454 -0.4842 -0.6598
 2678SOL     OW19495   1.906   4.011  11.224 -1.0132 -0.0456 -0.6318
 2678SOL    HW119496   1.901   4.095  11.270  1.5018 -0.0669 -0.2695
 2678SOL    HW219497   2.000   4.001  11.207 -0.7527  0.7682  0.3066
 2679SOL     OW19498   0.393   0.107   3.256  0.0285  0.4339  0.1457
 2679SOL    HW119499   0.420   0.030   3.306 -0.7503  0.6325  0.8832
 2679SOL    HW219500   0.477   0.130   3.218  0.9044 -0.0650  1.7610
 2680SOL     OW19501   2.638   1.268   5.364 -0.2528 -0.2973  0.2407
 2680SOL    HW119502   2.687   1.185   5.365  1.9561  0.9951 -0.4687
 2680SOL    HW219503   2.689   1.330   5.313 -2.6467  0.6937 -0.9183
 2681SOL     OW19504   1.094   1.351  10.511  0.2293 -0.5024 -0.1376
 2681SOL    HW119505   1.107   1.294  10.587 -0.7069 -1.8387 -0.9844
 2681SOL    HW219506   1.153   1.425  10.520 -0.9228  0.2687  1.2414
 2682SOL     OW19507   1.210   4.394   3.077  0.2783 -0.8696  0.7182
 2682SOL    HW119508   1.201   4.368   2.986 -0.0569 -2.9821  1.3623
 2682SOL    HW219509   1.299   4.427   3.084 -0.9468  2.5976 -0.0757
 2683SOL     OW19510   3.998   2.124  10.236  0.0459 -0.6885  0.2001
 2683SOL    HW119511   3.991   2.084  10.149 -0.5665  2.9296 -1.4167
 2683SOL    HW219512   3.948   2.059  10.286  0.9807 -0.1689  1.7942
 2684SOL     OW19513   3.613   4.412  12.781  0.1757 -0.0957 -0.1512
 2684SOL    HW119514   3.650   4.342  12.835  0.9149 -0.3976 -1.0365
 2684SOL    HW219515   3.696   4.442  12.742 -0.4417 -0.6205 -1.8698
 2685SOL     OW19516   4.499   2.246   2.875  0.7103  0.3257  0.4881
 2685SOL    HW119517   4.503   2.172   2.936 -0.8555  0.1403  0.3778
 2685SOL    HW219518   4.426   2.233   2.813  1.1162  1.2382 -0.1873
 2686SOL     OW19519   4.184   0.505   8.367 -0.3253  0.2773 -0.2095
 2686SOL    HW119520   4.091   0.521   8.381 -0.6887 -0.5596 -1.6158
 2686SOL    HW219521   4.219   0.587   8.402 -1.6004  0.7731 -0.1175
 2687SOL     OW19522   0.837   4.534   3.475 -0.5965  0.2536  0.2977
 2687SOL    HW119523   0.806   4.444   3.467 -0.1578  0.0554  0.8091
 2687SOL    HW219524   0.922   4.517   3.433 -0.7409 -1.1169  0.5721
 2688SOL     OW19525   3.629   2.986   6.763 -0.6543 -0.2388 -0.7991
 2688SOL    HW119526   3.683   3.048   6.715  1.6657 -2.1194 -0.6146
 2688SOL    HW219527   3.546   3.015   6.725  0.9473  1.5436 -2.9085
 2689SOL     OW19528   2.935   3.445   9.262 -0.3708 -0.3779  0.2423
 2689SOL    HW119529   2.940   3.424   9.355 -2.8207 -2.4623 -0.0991
 2689SOL    HW219530   2.876   3.519   9.252 -0.6208 -0.4504  1.2452
 2690SOL     OW19531   1.508   3.898   4.705  0.2215 -0.6468  0.2357
 2690SOL    HW119532   1.531   3.967   4.767 -1.1743 -1.4966  1.6851
 2690SOL    HW219533   1.594   3.854   4.705  1.6878  2.1963 -1.6272
 2691SOL     OW19534   3.364   4.303  12.858 -0.0004 -0.0681 -0.5785
 2691SOL    HW119535   3.441   4.351  12.827  1.1216 -1.7734 -0.4206
 2691SOL    HW219536   3.400   4.256  12.934  4.6054 -1.2922 -3.5116
 2692SOL     OW19537   1.772   2.180   8.753 -0.6499 -0.2033 -0.2522
 2692SOL    HW119538   1.848   2.128   8.728 -1.1593 -0.8219 -0.4852
 2692SOL    HW219539   1.798   2.190   8.845 -1.1408 -1.1787 -0.0108
 2693SOL     OW19540   4.323   4.619  15.120 -0.2441 -0.5386  0.1983
 2693SOL    HW119541   4.371   4.547  15.160  1.3164  0.0309 -0.6661
 2693SOL    HW219542   4.247   4.569  15.090 -0.9736 -0.3253  1.6433
 2694SOL     OW19543   3.202   3.922   5.165 -0.6811 -0.0519 -0.0157
 2694SOL    HW119544   3.176   3.831   5.180 -0.4639 -0.2388 -0.7778
 2694SOL    HW219545   3.154   3.938   5.084 -0.6585 -2.3552 -0.4685
 2695SOL     OW19546   3.847   0.075   8.808 -0.7114 -0.1354  0.5044
 2695SOL    HW119547   3.919   0.013   8.803 -3.1671 -2.7942 -2.1328
 2695SOL    HW219548   3.895   0.157   8.818 -2.1341  0.7527  0.0639
 2696SOL     OW19549   4.406   0.409   8.537  0.2035  1.1007 -0.6683
 2696SOL    HW119550   4.431   0.347   8.468 -1.1793 -1.2500  0.9295
 2696SOL    HW219551   4.334   0.464   8.507 -3.1161 -2.9167 -0.1040
 2697SOL     OW19552   0.142   3.652  12.442  0.4175 -0.0281 -0.4468
 2697SOL    HW119553   0.055   3.684  12.417  0.9934  1.2670 -0.8179
 2697SOL    HW219554   0.204   3.717  12.408  1.6482 -0.3848  1.1230
 2698SOL     OW19555   2.906   2.641   7.727  0.1742 -0.1351  0.1768
 2698SOL    HW119556   2.977   2.702   7.744  0.3987 -0.3906  0.1428
 2698SOL    HW219557   2.961   2.564   7.733  0.3539 -0.1092 -1.1619
 2699SOL     OW19558   0.704   3.995  15.330 -0.6515 -0.4930  0.0507
 2699SOL    HW119559   0.790   3.955  15.318  0.2059  1.1938  0.6200
 2699SOL    HW219560   0.728   4.078  15.370  0.2392 -0.8942  0.3608
 2700SOL     OW19561   1.276   3.770   6.256 -0.7661  0.2304  0.6636
 2700SOL    HW119562   1.314   3.790   6.170  1.5285  2.7862  2.2920
 2700SOL    HW219563   1.183   3.782   6.234 -0.5207  1.1874  0.1119
 2701SOL     OW19564   1.435   4.618   6.958  0.6557 -0.5329 -0.3472
 2701SOL    HW119565   1.417   4.710   6.944  0.6765 -0.1501  2.1472
 2701SOL    HW219566   1.370   4.563   6.913  0.3371 -1.5123  1.2952
 2702SOL     OW19567   0.577   3.884   6.516  0.3461  0.4633  0.2526
 2702SOL    HW119568   0.512   3.851   6.455  1.3458 -1.0392  0.0024
 2702SOL    HW219569   0.546   3.854   6.601  0.4000  2.0617  0.8423
 2703SOL     OW19570   3.540   0.862   0.411 -0.0611 -0.1285  0.1483
 2703SOL    HW119571   3.579   0.876   0.324  0.5182 -2.6592 -0.0196
 2703SOL    HW219572   3.478   0.793   0.389  0.8846 -0.2461 -2.2091
 2704SOL     OW19573   0.875   0.272   4.963 -0.2460  0.1532  0.6633
 2704SOL    HW119574   0.890   0.332   5.036  1.9809 -1.8713  1.8616
 2704SOL    HW219575   0.816   0.212   5.009 -0.7398 -0.9943 -1.4687
 2705SOL     OW19576   3.081   0.929   8.472 -0.1834  0.6328  0.2033
 2705SOL    HW119577   3.036   0.957   8.552  0.6406 -0.5374  1.0710
 2705SOL    HW219578   3.011   0.899   8.414 -0.2376 -1.0865  1.1351
 2706SOL     OW19579   3.451   0.947   7.965 -0.2493 -0.0695  0.1293
 2706SOL    HW119580   3.400   1.022   7.993 -0.6301 -0.9469  1.8437
 2706SOL    HW219581   3.522   0.992   7.920 -0.5688 -0.9265 -1.2319
 2707SOL     OW19582   1.297   3.759   4.598  0.8194 -0.6270  0.4752
 2707SOL    HW119583   1.364   3.803   4.651 -0.7583  1.5667  0.6344
 2707SOL    HW219584   1.256   3.834   4.555 -1.8114 -0.9377  2.4355
 2708SOL     OW19585   4.032   1.388   8.471  0.7455 -0.2848  0.4395
 2708SOL    HW119586   3.937   1.395   8.465  0.4966 -1.8223  2.2267
 2708SOL    HW219587   4.067   1.474   8.449 -1.9122  0.7953  0.5513
 2709SOL     OW19588   0.853   0.563   7.426  0.0808 -0.3021 -0.4948
 2709SOL    HW119589   0.777   0.511   7.452  0.1533 -0.0056  0.2974
 2709SOL    HW219590   0.808   0.626   7.369  0.4506 -0.6906 -1.2230
 2710SOL     OW19591   4.386   0.255   2.342 -0.0459  0.4028 -0.2442
 2710SOL    HW119592   4.411   0.214   2.259 -1.1641 -1.2381  0.2269
 2710SOL    HW219593   4.318   0.321   2.325  0.9225  0.7664 -2.7283
 2711SOL     OW19594   2.255   2.539  11.390  0.0637 -0.0658  0.4147
 2711SOL    HW119595   2.341   2.579  11.379  0.1403 -0.6073 -0.8619
 2711SOL    HW219596   2.268   2.445  11.396 -2.1472 -0.4216 -0.2823
 2712SOL     OW19597   2.614   4.610   6.866  0.4048 -0.4164  0.0362
 2712SOL    HW119598   2.634   4.517   6.854  2.0356 -0.1053  0.4229
 2712SOL    HW219599   2.542   4.633   6.808 -1.6756  1.2399  3.2421
 2713SOL     OW19600   0.807   1.257   5.646 -0.4741  0.0246 -0.2030
 2713SOL    HW119601   0.831   1.202   5.571  1.0179  0.7400 -0.2518
 2713SOL    HW219602   0.712   1.242   5.650 -0.6909  1.0938 -1.7629
 2714SOL     OW19603   3.061   1.803   9.602  0.0361 -0.1637  0.0609
 2714SOL    HW119604   3.150   1.838   9.600 -0.6887  1.7019 -0.0603
 2714SOL    HW219605   3.056   1.734   9.668 -4.0966  0.3980  0.3719
 2715SOL     OW19606   2.125   1.827   2.348  0.0213  0.1304 -0.2101
 2715SOL    HW119607   2.060   1.797   2.412  1.6595 -2.4895  0.2154
 2715SOL    HW219608   2.071   1.858   2.275  0.4557  0.2136 -0.4960
 2716SOL     OW19609   3.222   3.440   8.119  0.2613 -0.4699 -0.0744
 2716SOL    HW119610   3.145   3.398   8.080 -1.9379  2.2201  1.4310
 2716SOL    HW219611   3.195   3.525   8.151  1.5820  0.1549 -0.6292
 2717SOL     OW19612   0.254   2.401   5.842 -0.0010  0.6646  0.4485
 2717SOL    HW119613   0.337   2.433   5.876 -1.2164  3.3629  0.8406
 2717SOL    HW219614   0.279   2.400   5.750 -2.3976 -0.2508 -0.1944
 2718SOL     OW19615   1.985   3.187   9.980  0.9029  0.0544  0.3523
 2718SOL    HW119616   2.013   3.205   9.891 -1.4932  0.1651 -0.4015
 2718SOL    HW219617   2.031   3.258  10.025 -1.0623  0.3501  1.9464
 2719SOL     OW19618   3.329   4.707   5.618  0.4682  0.2288  0.4473
 2719SOL    HW119619   3.259   0.004   5.681 -0.8960 -0.4609 -0.8736
 2719SOL    HW219620   3.285   4.640   5.567 -1.7481  1.3207  0.9090
 2720SOL     OW19621   1.327   2.856  10.381 -0.4502 -0.3962 -0.0941
 2720SOL    HW119622   1.356   2.910  10.455 -0.4291  1.2300 -1.2725
 2720SOL    HW219623   1.325   2.774  10.430 -0.1088  0.8763  2.0287
 2721SOL     OW19624   3.662   4.506  14.279  0.1123 -0.1727  0.4003
 2721SOL    HW119625   3.736   4.500  14.338 -0.4068  0.2698  1.0901
 2721SOL    HW219626   3.655   4.418  14.242 -1.8746 -0.0803  0.5439
 2722SOL     OW19627   4.237   1.962   2.654 -0.3061 -0.1300 -0.1874
 2722SOL    HW119628   4.149   1.927   2.637 -0.9885  1.2071  0.5485
 2722SOL    HW219629   4.293   1.885   2.660 -1.2860 -1.0006 -2.2995
 2723SOL     OW19630   0.099   3.103  15.765 -0.0738  0.3773  0.0809
 2723SOL    HW119631   0.166   3.092  15.698  0.7952  2.6724  0.5684
 2723SOL    HW219632   0.030   3.044  15.733  2.5770 -2.8178  0.3366
 2724SOL     OW19633   1.909   0.087  15.464 -0.7678  0.5950 -0.3723
 2724SOL    HW119634   1.973   0.085  15.535 -2.4289  0.7052  1.1180
 2724SOL    HW219635   1.931   0.009  15.412  0.1810  0.4091  0.3235
 2725SOL     OW19636   1.550   2.485  16.602  0.2470  0.4759  0.3869
 2725SOL    HW119637   1.636   2.493  16.643  0.3571  1.5254 -0.0450
 2725SOL    HW219638   1.503   2.443  16.674 -2.0053  0.6376 -1.0039
 2726SOL     OW19639   4.390   1.573  10.320  0.1402 -0.5921  0.1511
 2726SOL    HW119640   4.381   1.602  10.229 -1.6423 -1.8483 -0.0692
 2726SOL    HW219641   4.324   1.617  10.373 -1.1088 -0.7798 -1.2285
 2727SOL     OW19642   1.785   2.679   9.729 -0.1031 -0.8271  0.0925
 2727SOL    HW119643   1.764   2.611   9.665  1.3259 -0.2325 -1.0294
 2727SOL    HW219644   1.859   2.644   9.778  1.9832  1.8100 -1.1886
 2728SOL     OW19645   1.715   2.125   9.753 -0.4660  0.0228 -0.1045
 2728SOL    HW119646   1.799   2.083   9.772 -1.6425 -1.9390  0.8020
 2728SOL    HW219647   1.693   2.162   9.838 -0.5047  0.5534 -0.3523
 2729SOL     OW19648   0.677   4.461   2.533  0.1889 -0.0411  0.5333
 2729SOL    HW119649   0.757   4.481   2.484 -1.0604  0.9070 -1.0992
 2729SOL    HW219650   0.702   4.492   2.620  2.4398  0.0088 -0.1256
 2730SOL     OW19651   3.189   3.102   4.537 -0.1029 -0.5684  0.5892
 2730SOL    HW119652   3.282   3.082   4.542  0.4416  1.7815  0.0421
 2730SOL    HW219653   3.145   3.018   4.526  0.9421 -0.8035 -1.6717
 2731SOL     OW19654   2.898   3.897   5.261 -0.4275 -0.0162 -0.4123
 2731SOL    HW119655   2.953   3.927   5.333  0.9936 -1.1494 -1.0077
 2731SOL    HW219656   2.868   3.983   5.233 -1.7273 -0.1140  0.7024
 2732SOL     OW19657   0.572   3.145   3.558  0.6464  0.2675  0.4809
 2732SOL    HW119658   0.562   3.087   3.482 -1.2993 -0.0291  0.9551
 2732SOL    HW219659   0.667   3.141   3.564  0.6555 -1.2575 -0.4924
 2733SOL     OW19660   3.449   4.404   2.810 -0.1961 -0.2510  0.0757
 2733SOL    HW119661   3.527   4.420   2.863 -0.7382 -0.1089  0.8240
 2733SOL    HW219662   3.484   4.451   2.734 -0.8120  0.3063  0.1392
 2734SOL     OW19663   0.450   0.147  10.320 -0.2546 -0.1037  0.1641
 2734SOL    HW119664   0.525   0.205  10.304 -0.8643  0.3703 -0.9591
 2734SOL    HW219665   0.483   0.061  10.293  0.9683  0.8386 -1.3339
 2735SOL     OW19666   3.960   4.654   6.811  0.9990  0.2903  0.0862
 2735SOL    HW119667   4.006   4.713   6.750  0.1658  0.7292 -0.1218
 2735SOL    HW219668   3.933   4.584   6.752  0.2184 -0.2641  1.1122
 2736SOL     OW19669   2.171   4.485   4.234  0.5853  0.3815  0.6909
 2736SOL    HW119670   2.252   4.504   4.185 -0.8405 -1.2706 -2.3292
 2736SOL    HW219671   2.164   4.390   4.219 -2.1859  0.8113 -0.5687
 2737SOL     OW19672   1.671   1.047  11.322  0.0566 -0.7210 -0.0286
 2737SOL    HW119673   1.687   0.953  11.337 -0.1182 -0.6757  0.4572
 2737SOL    HW219674   1.758   1.064  11.286  0.4943 -2.0233  0.3976
 2738SOL     OW19675   1.063   0.593  14.337  0.3139  0.3821  0.2459
 2738SOL    HW119676   1.142   0.646  14.325 -0.5805  1.0690 -2.5263
 2738SOL    HW219677   1.096   0.503  14.331  2.2130  1.2125 -1.7756
 2739SOL     OW19678   3.168   0.189   8.708  0.0516 -0.5017  0.3427
 2739SOL    HW119679   3.186   0.280   8.733 -1.0991 -0.4692  1.0193
 2739SOL    HW219680   3.228   0.134   8.758 -0.0881 -1.0090 -0.0513
 2740SOL     OW19681   1.720   3.808   0.575  0.3598  0.1840  0.0736
 2740SOL    HW119682   1.764   3.732   0.612  3.3324  2.0090  0.2523
 2740SOL    HW219683   1.714   3.774   0.485 -0.1209 -1.0084  0.5535
 2741SOL     OW19684   3.414   1.665  16.490 -0.2658 -0.1847 -0.2064
 2741SOL    HW119685   3.403   1.756  16.460  0.0078  0.5802  2.0083
 2741SOL    HW219686   3.414   1.622  16.405 -1.3127 -0.0351 -0.2901
 2742SOL     OW19687   2.093   3.205   5.852 -0.0891 -0.1872 -0.1590
 2742SOL    HW119688   2.035   3.143   5.810 -0.0688 -0.7107  0.5855
 2742SOL    HW219689   2.062   3.202   5.943 -0.3364  1.4842 -0.1817
 2743SOL     OW19690   4.403   1.844   2.042 -0.2961 -0.0870 -0.0135
 2743SOL    HW119691   4.458   1.846   2.120 -0.4849  0.1101  0.1151
 2743SOL    HW219692   4.382   1.937   2.034  1.3066  0.3352  0.8450
 2744SOL     OW19693   2.685   3.972  11.584  0.5524  0.0952  0.1367
 2744SOL    HW119694   2.697   4.050  11.637  1.1299 -0.4148  0.7649
 2744SOL    HW219695   2.770   3.967  11.539  0.7921 -1.9210  0.8160
 2745SOL     OW19696   2.836   0.676  13.490  0.1297  0.1873 -0.2658
 2745SOL    HW119697   2.908   0.623  13.525 -1.0900  0.5309  2.6808
 2745SOL    HW219698   2.763   0.617  13.506 -0.5948  1.5115  1.3029
 2746SOL     OW19699   1.445   1.350  10.654  0.0422 -0.0162 -0.1121
 2746SOL    HW119700   1.529   1.389  10.677 -1.0283  1.3620  1.5200
 2746SOL    HW219701   1.464   1.264  10.691  1.9490 -0.7564 -2.8772
 2747SOL     OW19702   2.017   3.081  15.295  0.2617 -0.6638 -0.1002
 2747SOL    HW119703   1.983   3.100  15.207 -1.0309  2.2367  1.0172
 2747SOL    HW219704   1.948   3.113  15.353 -0.7109 -1.8643 -0.5904
 2748SOL     OW19705   0.570   2.661   0.985  0.5951  0.1693  0.1823
 2748SOL    HW119706   0.510   2.678   0.913 -0.0590 -0.1116  0.6506
 2748SOL    HW219707   0.510   2.654   1.059  0.0002 -0.4108 -0.3569
 2749SOL     OW19708   3.829   4.308   6.986  0.4046 -0.5567  0.1115
 2749SOL    HW119709   3.793   4.348   6.907 -0.9700 -1.6250  0.1928
 2749SOL    HW219710   3.867   4.224   6.960 -1.3261 -1.1849 -0.3497
 2750SOL     OW19711   3.203   0.701   1.355 -0.1042 -0.4301 -0.5437
 2750SOL    HW119712   3.250   0.743   1.428 -0.1014  0.4030 -1.0286
 2750SOL    HW219713   3.208   0.778   1.299 -0.5104  1.1779  1.6143
 2751SOL     OW19714   0.778   0.159   0.008 -0.0303  0.1662  0.0891
 2751SOL    HW119715   0.760   0.123  17.617 -1.4329 -0.1098  0.4956
 2751SOL    HW219716   0.827   0.082   0.036 -2.0065 -0.2951  2.2704
 2752SOL     OW19717   3.755   0.786   3.209  0.2865  0.1361  0.5539
 2752SOL    HW119718   3.801   0.859   3.168 -0.0730 -0.2300 -0.4969
 2752SOL    HW219719   3.819   0.717   3.188  0.9306  0.8033  0.3528
 2753SOL     OW19720   1.009   2.299   6.097  0.3291 -0.1098  0.6106
 2753SOL    HW119721   1.069   2.373   6.109  1.0717 -0.6685  0.4105
 2753SOL    HW219722   1.046   2.236   6.159  1.7187 -0.9474 -1.0396
 2754SOL     OW19723   2.464   2.387   6.432 -0.1851 -0.0060 -0.4095
 2754SOL    HW119724   2.409   2.463   6.448  0.6223  0.5032 -0.0281
 2754SOL    HW219725   2.406   2.319   6.467  0.3763  0.8172  2.0682
 2755SOL     OW19726   0.491   0.088   2.632 -0.0473 -0.3310 -0.0194
 2755SOL    HW119727   0.503   0.009   2.685 -1.2412 -0.9100 -0.6151
 2755SOL    HW219728   0.398   0.077   2.610 -0.6077 -0.9603  2.6059
 2756SOL     OW19729   3.141   3.179  13.361 -0.0223 -0.1569  0.3981
 2756SOL    HW119730   3.173   3.265  13.336  4.1436 -2.4389 -2.2151
 2756SOL    HW219731   3.046   3.184  13.349 -0.0535 -1.3656  0.0527
 2757SOL     OW19732   3.720   4.127   1.656  0.0247  0.2166  0.2134
 2757SOL    HW119733   3.691   4.080   1.735  1.8417  0.2204  0.8846
 2757SOL    HW219734   3.778   4.060   1.620  0.7717  0.8805  0.1914
 2758SOL     OW19735   3.581   2.656   8.693  0.0550  0.0367 -0.4071
 2758SOL    HW119736   3.486   2.667   8.698  0.2109  2.0314 -1.8708
 2758SOL    HW219737   3.605   2.675   8.784 -0.1283 -0.0455 -0.3415
 2759SOL     OW19738   3.620   2.579   1.111  0.3917  0.0960 -0.4071
 2759SOL    HW119739   3.681   2.505   1.117  1.2577  0.8548  0.1444
 2759SOL    HW219740   3.682   2.651   1.125 -0.3756  0.3183  1.8433
 2760SOL     OW19741   0.635   3.163  12.661  0.1812  0.4043  0.0434
 2760SOL    HW119742   0.716   3.202  12.694  1.1170 -1.8161  0.3611
 2760SOL    HW219743   0.671   3.133  12.577 -2.0006 -0.2684 -0.6293
 2761SOL     OW19744   1.927   3.521   7.854 -0.4615 -0.1555 -0.6934
 2761SOL    HW119745   1.954   3.437   7.816  0.7741 -0.4478  0.8026
 2761SOL    HW219746   1.855   3.551   7.799 -0.0405  1.6069 -0.2644
 2762SOL     OW19747   2.782   1.950   5.457 -0.0416  0.1072  0.8393
 2762SOL    HW119748   2.830   2.023   5.496  2.2145 -1.8591  1.8268
 2762SOL    HW219749   2.692   1.979   5.443 -0.0107 -0.4495 -0.5405
 2763SOL     OW19750   0.045   2.652  16.030 -0.1278  0.2086 -0.0707
 2763SOL    HW119751   4.711   2.700  15.969  0.5772 -0.3025 -1.1305
 2763SOL    HW219752   0.083   2.588  15.971  0.6080 -1.2531  1.9973
 2764SOL     OW19753   1.406   1.247  10.305  0.3850 -0.0044 -0.1319
 2764SOL    HW119754   1.463   1.213  10.374 -0.4112  2.3578  1.6796
 2764SOL    HW219755   1.451   1.330  10.289 -1.5001  0.7624 -1.3575
 2765SOL     OW19756   3.507   0.623   7.269 -0.2959 -0.3915 -0.4320
 2765SOL    HW119757   3.555   0.698   7.233 -0.7457 -0.6928 -1.6443
 2765SOL    HW219758   3.461   0.659   7.345  2.1055 -0.0306  0.8345
 2766SOL     OW19759   2.759   3.326   3.964  0.1624  0.0960  0.4690
 2766SOL    HW119760   2.759   3.410   3.917 -1.6388 -0.3108 -0.2344
 2766SOL    HW219761   2.836   3.348   4.017  0.1986  0.1009  0.4145
 2767SOL     OW19762   2.588   1.036   3.363  0.2745  0.1457  0.0305
 2767SOL    HW119763   2.566   1.098   3.433 -3.1677 -0.9617 -0.0710
 2767SOL    HW219764   2.497   1.006   3.355  0.4691 -0.4728  0.1525
 2768SOL     OW19765   3.232   3.278  17.030  0.1736  0.3608  0.4412
 2768SOL    HW119766   3.321   3.312  17.019  0.3757 -0.2871  0.0779
 2768SOL    HW219767   3.244   3.200  17.084 -1.2881  0.4536  0.8940
 2769SOL     OW19768   3.371   3.693   0.996  0.2348  0.4596 -1.2681
 2769SOL    HW119769   3.372   3.718   0.903 -1.0680 -0.7691 -1.6172
 2769SOL    HW219770   3.426   3.763   1.030  2.0133 -1.4784 -0.1674
 2770SOL     OW19771   3.637   0.136   7.941  0.1016  0.0067  0.3547
 2770SOL    HW119772   3.622   0.151   8.035  0.5787  0.8526  0.2921
 2770SOL    HW219773   3.605   0.214   7.895 -0.4091 -0.4515 -0.0679
 2771SOL     OW19774   0.314   0.578   1.288  0.2434 -0.7288 -0.0944
 2771SOL    HW119775   0.304   0.483   1.289  1.8553 -0.8968  0.5474
 2771SOL    HW219776   0.310   0.597   1.382 -2.7538  1.1889 -0.5922
 2772SOL     OW19777   2.878   1.859   2.156 -0.1643 -0.3587  0.1669
 2772SOL    HW119778   2.863   1.765   2.141  1.0951 -0.6039  0.4663
 2772SOL    HW219779   2.787   1.886   2.153 -0.1863 -0.1434  2.7221
 2773SOL     OW19780   1.756   3.752   5.311  0.3470 -0.2947  0.0077
 2773SOL    HW119781   1.774   3.802   5.231  0.2517 -0.0629  0.1324
 2773SOL    HW219782   1.819   3.788   5.374 -1.4689  3.6026 -0.4253
 2774SOL     OW19783   1.936   0.496   3.512  0.2762  0.3169 -0.0705
 2774SOL    HW119784   1.972   0.496   3.424 -0.9955  1.6185 -0.5925
 2774SOL    HW219785   2.000   0.551   3.558  0.8124 -0.9367  0.6985
 2775SOL     OW19786   4.467   2.294   8.198  0.4295  0.0565  0.5754
 2775SOL    HW119787   4.450   2.381   8.161 -0.2765  0.1161  1.0469
 2775SOL    HW219788   4.400   2.306   8.265 -0.5018 -1.4659 -0.0753
 2776SOL     OW19789   0.595   3.456   3.525  0.5545  0.2430  0.2047
 2776SOL    HW119790   0.607   3.361   3.533 -0.4606  0.0806 -0.1493
 2776SOL    HW219791   0.620   3.477   3.615  0.9933  2.2735 -0.3858
 2777SOL     OW19792   3.720   4.007  12.125 -0.7174  0.5899 -0.2760
 2777SOL    HW119793   3.668   3.926  12.126 -0.7696  0.6256  0.0428
 2777SOL    HW219794   3.730   4.021  12.031  0.7701 -1.1776 -0.3854
 2778SOL     OW19795   2.213   3.310   4.599 -0.1473 -0.0536  0.1196
 2778SOL    HW119796   2.152   3.238   4.583 -0.7225  0.8489 -1.8457
 2778SOL    HW219797   2.229   3.301   4.693 -0.6031 -2.7066 -0.0403
 2779SOL     OW19798   0.227   0.556   4.697  0.0327 -0.1980 -0.6518
 2779SOL    HW119799   0.135   0.529   4.697  0.2681 -0.9940 -0.9975
 2779SOL    HW219800   0.265   0.494   4.759  1.1048  1.8259  0.7138
 2780SOL     OW19801   1.625   1.017   3.470 -0.3972  0.3008 -0.1051
 2780SOL    HW119802   1.558   0.966   3.423  1.2892 -0.9519 -1.1551
 2780SOL    HW219803   1.642   0.957   3.543 -0.6035  0.4503  0.0666
 2781SOL     OW19804   3.280   0.921  12.892  0.0480  0.2028 -0.1340
 2781SOL    HW119805   3.357   0.975  12.909  1.0596 -1.6667  1.1748
 2781SOL    HW219806   3.258   0.927  12.799  0.7730  0.6511 -0.2759
 2782SOL     OW19807   4.457   3.533  11.659  0.1425 -0.1159  0.8527
 2782SOL    HW119808   4.380   3.541  11.603  2.5393 -2.9803 -2.9037
 2782SOL    HW219809   4.524   3.508  11.595 -1.0580 -0.8965 -0.1108
 2783SOL     OW19810   2.686   0.301   6.067 -0.0104  0.0704 -0.6456
 2783SOL    HW119811   2.741   0.276   6.141 -0.4470 -0.0945 -0.3802
 2783SOL    HW219812   2.714   0.393   6.067 -1.2040  0.4213  1.1237
 2784SOL     OW19813   4.712   4.635   7.577 -0.2730  0.4194  0.4987
 2784SOL    HW119814   4.658   4.581   7.635 -0.5293 -0.9001 -0.9911
 2784SOL    HW219815   0.071   4.626   7.624 -0.9848 -1.6354  1.3435
 2785SOL     OW19816   2.430   3.036  13.288 -0.6630  0.0239 -0.1893
 2785SOL    HW119817   2.515   3.016  13.249  0.2370  1.1546  1.2039
 2785SOL    HW219818   2.435   3.130  13.306  0.8300  0.1615 -1.3427
 2786SOL     OW19819   4.049   0.463   4.523  0.1006 -0.7080 -0.3310
 2786SOL    HW119820   4.101   0.391   4.487  0.2389 -0.7873  0.0237
 2786SOL    HW219821   4.002   0.505   4.451 -0.1360  0.4667  0.5087
 2787SOL     OW19822   4.691   2.112   8.756  0.0198 -0.2568  0.8462
 2787SOL    HW119823   4.604   2.075   8.741  0.0542 -0.1855  0.4551
 2787SOL    HW219824   0.008   2.037   8.800 -2.4128 -1.4548  1.0347
 2788SOL     OW19825   1.786   4.395  17.123  0.1728 -0.2506  0.2885
 2788SOL    HW119826   1.792   4.490  17.109 -0.1034  0.0785  2.3456
 2788SOL    HW219827   1.828   4.377  17.207 -0.6414  0.1130  0.7823
 2789SOL     OW19828   0.570   4.362  10.394 -0.1303  0.4422 -0.4667
 2789SOL    HW119829   0.484   4.321  10.401 -0.0024  0.1843 -0.4132
 2789SOL    HW219830   0.596   4.330  10.307  3.8868  2.6591 -0.0897
 2790SOL     OW19831   2.770   1.933   7.915 -0.3106  0.2057 -0.1886
 2790SOL    HW119832   2.842   1.987   7.948  0.6156 -1.1832  0.0472
 2790SOL    HW219833   2.704   1.951   7.982  1.2681  0.2678  1.3558
 2791SOL     OW19834   4.593   1.894   5.711 -0.1909  0.0720  0.3254
 2791SOL    HW119835   4.534   1.823   5.688 -1.8842  1.8334 -0.7514
 2791SOL    HW219836   4.543   1.961   5.666 -0.8482 -0.7348 -0.1319
 2792SOL     OW19837   3.961   1.750   8.850 -0.6856  0.2555  0.0120
 2792SOL    HW119838   3.913   1.675   8.885  1.6507 -0.9586  0.5878
 2792SOL    HW219839   4.039   1.707   8.816 -1.1696 -0.5546 -0.0880
 2793SOL     OW19840   3.686   0.983   2.725  0.4698 -0.0976  0.6308
 2793SOL    HW119841   3.599   1.016   2.746  1.0128  1.0469  1.0501
 2793SOL    HW219842   3.697   0.978   2.630 -0.9661 -0.5120  0.4812
 2794SOL     OW19843   3.120   0.321   3.771  0.1063 -0.1214  0.7030
 2794SOL    HW119844   3.112   0.416   3.759 -1.8861 -0.3653  0.1437
 2794SOL    HW219845   3.101   0.282   3.686 -2.3614 -1.0802  1.6814
 2795SOL     OW19846   4.244   2.741   8.839 -0.5608 -0.7616 -0.3902
 2795SOL    HW119847   4.312   2.680   8.869  0.1324  0.3127  0.1817
 2795SOL    HW219848   4.228   2.785   8.922 -0.4134  2.2800 -1.9720
 2796SOL     OW19849   0.902   0.653   6.404 -0.3277  0.5076 -0.2299
 2796SOL    HW119850   0.840   0.636   6.333  1.5756 -0.1707 -1.7085
 2796SOL    HW219851   0.847   0.650   6.482  1.7410 -0.6044  1.1573
 2797SOL     OW19852   1.610   1.281   6.878  0.3980  0.1089  0.5718
 2797SOL    HW119853   1.630   1.371   6.853  0.8030 -0.3657 -0.8266
 2797SOL    HW219854   1.629   1.236   6.795  0.5220  1.6929 -0.2583
 2798SOL     OW19855   2.221   3.263   2.806  0.0382  0.4665 -0.3657
 2798SOL    HW119856   2.307   3.251   2.847 -0.3194  1.9109  0.7879
 2798SOL    HW219857   2.156   3.277   2.875 -0.3929  0.7616 -0.8304
 2799SOL     OW19858   3.854   2.443   5.537 -0.1589 -0.4229  0.0497
 2799SOL    HW119859   3.905   2.363   5.551  0.1039  0.2704  3.0466
 2799SOL    HW219860   3.876   2.497   5.613 -1.1429  2.0351 -1.4109
 2800SOL     OW19861   2.000   3.238   2.071 -0.0287  0.5010  0.5269
 2800SOL    HW119862   1.995   3.170   2.004 -1.2983  1.3428 -0.2326
 2800SOL    HW219863   2.075   3.285   2.034 -0.5653  0.2113 -0.9207
 2801SOL     OW19864   4.557   4.565  17.140 -0.1183 -0.1252 -0.4751
 2801SOL    HW119865   4.628   4.504  17.121 -2.8184 -2.9485 -1.4774
 2801SOL    HW219866   4.572   4.576  17.234 -1.1244 -0.4341 -0.2779
 2802SOL     OW19867   1.159   2.453  15.289 -0.1232  0.0074 -0.1567
 2802SOL    HW119868   1.172   2.504  15.369  1.4565 -0.1284 -0.3185
 2802SOL    HW219869   1.080   2.403  15.309  0.5407 -1.5240 -1.3723
 2803SOL     OW19870   2.502   2.790   1.426  0.9825  0.3166 -0.4800
 2803SOL    HW119871   2.588   2.770   1.462  2.1224  0.8767 -2.8894
 2803SOL    HW219872   2.526   2.854   1.359 -0.0768 -1.2361 -2.3641
 2804SOL     OW19873   3.449   3.098   7.793  0.9264 -0.2639  0.1251
 2804SOL    HW119874   3.457   3.053   7.876  2.0161 -0.0974  0.1146
 2804SOL    HW219875   3.372   3.154   7.802  0.9670 -0.3408  0.9354
 2805SOL     OW19876   1.165   0.634   6.402  0.4304 -0.0546 -0.1583
 2805SOL    HW119877   1.073   0.659   6.415 -0.0350 -1.9638  0.2381
 2805SOL    HW219878   1.160   0.562   6.339 -4.9416  0.4850 -0.3413
 2806SOL     OW19879   1.640   2.490   5.546 -0.0459 -0.6351  0.1151
 2806SOL    HW119880   1.689   2.497   5.464  1.5114 -0.2157  1.0939
 2806SOL    HW219881   1.605   2.402   5.536 -0.0969 -0.5817 -0.1765
 2807SOL     OW19882   1.915   3.223   5.153  0.3234 -0.2988 -0.1461
 2807SOL    HW119883   1.957   3.144   5.186 -0.9761 -1.1373 -0.4587
 2807SOL    HW219884   1.876   3.272   5.225 -1.1405  0.0879 -1.1927
 2808SOL     OW19885   4.537   0.361   7.921  0.3469  0.0740 -0.1004
 2808SOL    HW119886   4.562   0.400   8.005 -3.7390  2.7376 -0.1363
 2808SOL    HW219887   4.447   0.391   7.915  0.3524  0.1481  0.1632
 2809SOL     OW19888   4.010   4.464  16.634 -0.3912  0.9463  0.3454
 2809SOL    HW119889   3.972   4.550  16.618 -0.3865  0.9548  0.3797
 2809SOL    HW219890   3.998   4.465  16.729  1.1128 -3.5106  0.6024
 2810SOL     OW19891   2.728   0.924   4.552 -0.2813 -0.0945 -0.7368
 2810SOL    HW119892   2.772   0.957   4.630 -0.0509 -1.4927 -0.2680
 2810SOL    HW219893   2.705   0.835   4.579  2.0324 -0.2066  0.9200
 2811SOL     OW19894   4.207   2.984   6.310 -0.3638  0.0794  0.2521
 2811SOL    HW119895   4.254   2.978   6.393  0.0243  0.2124  0.0428
 2811SOL    HW219896   4.164   3.067   6.329  0.9182  0.6635  0.6247
 2812SOL     OW19897   2.883   0.700   6.370 -0.1736 -0.0849  0.2818
 2812SOL    HW119898   2.966   0.733   6.402 -0.5686 -0.1754  1.3917
 2812SOL    HW219899   2.826   0.776   6.375 -1.5013 -0.9812 -1.1135
 2813SOL     OW19900   1.157   1.522   7.146 -0.5602 -0.3930 -0.2558
 2813SOL    HW119901   1.088   1.564   7.197 -1.6561 -1.8390 -0.5216
 2813SOL    HW219902   1.219   1.493   7.213  1.1927  1.3401 -1.1472
 2814SOL     OW19903   0.676   3.066   6.238 -0.4374 -0.0258 -0.2102
 2814SOL    HW119904   0.619   2.994   6.265 -0.6147  0.6302  1.1407
 2814SOL    HW219905   0.745   3.008   6.206  0.7460  1.4126 -0.2792
 2815SOL     OW19906   1.844   4.257   6.431  0.1074  0.4382 -0.4561
 2815SOL    HW119907   1.768   4.315   6.428 -0.5139 -0.4392 -1.7649
 2815SOL    HW219908   1.864   4.254   6.524 -0.6869 -1.2574 -0.3390
 2816SOL     OW19909   1.199   2.417  16.953 -0.4898  0.2995  0.1329
 2816SOL    HW119910   1.122   2.427  17.009 -1.1039  1.8246 -0.9774
 2816SOL    HW219911   1.260   2.415  17.027 -0.3263 -4.5784 -0.1510
 2817SOL     OW19912   2.522   1.442   3.824  0.1340  0.0052  0.0173
 2817SOL    HW119913   2.575   1.437   3.745 -0.8624 -1.4822 -0.5422
 2817SOL    HW219914   2.567   1.381   3.883 -1.9042 -3.1215 -1.6811
 2818SOL     OW19915   2.247   0.182   3.339  0.9091 -0.0766  0.2490
 2818SOL    HW119916   2.295   0.219   3.413  1.2560 -1.1410  0.5541
 2818SOL    HW219917   2.231   0.263   3.291 -0.2986  0.7543  2.0588
 2819SOL     OW19918   0.170   0.416   5.091 -0.2042 -0.4862 -0.3640
 2819SOL    HW119919   0.100   0.351   5.102  1.1975 -1.7552  0.9987
 2819SOL    HW219920   0.129   0.492   5.133  3.2044  1.8245 -1.1918
 2820SOL     OW19921   3.864   1.962   0.162 -0.3386  0.4246 -0.1465
 2820SOL    HW119922   3.950   2.004   0.155 -1.8084  2.9961 -2.4194
 2820SOL    HW219923   3.802   2.025   0.196 -1.5300 -1.3127  0.9129
 2821SOL     OW19924   0.464   3.785   8.219 -0.6162  0.0740 -0.1011
 2821SOL    HW119925   0.472   3.715   8.155 -0.1334 -0.3476  0.4293
 2821SOL    HW219926   0.554   3.787   8.250 -0.6253 -0.3082 -0.0499
 2822SOL     OW19927   3.752   1.902   5.729  0.7891  0.1004  0.1897
 2822SOL    HW119928   3.719   1.869   5.812  0.2546 -0.3459 -0.2002
 2822SOL    HW219929   3.687   1.850   5.681  2.1770 -1.7016  0.2526
 2823SOL     OW19930   1.362   3.246   6.596 -0.3339  0.2429 -0.3013
 2823SOL    HW119931   1.361   3.335   6.561  0.0345  0.1560 -0.5208
 2823SOL    HW219932   1.353   3.191   6.519 -3.3042  2.6227 -1.6454
 2824SOL     OW19933   0.776   0.223   8.129  0.1518  0.0461 -0.4142
 2824SOL    HW119934   0.789   0.145   8.075 -0.6203 -1.0908  1.0296
 2824SOL    HW219935   0.865   0.240   8.161 -0.0158  0.6823 -0.2886
 2825SOL     OW19936   3.070   4.281   7.181 -0.2681  0.4598 -0.0393
 2825SOL    HW119937   3.046   4.211   7.120 -0.9505 -0.2417  1.0405
 2825SOL    HW219938   3.058   4.238   7.265 -0.9363 -0.2280 -0.4864
 2826SOL     OW19939   4.154   0.558   5.883 -0.4237  0.2279  0.5249
 2826SOL    HW119940   4.104   0.499   5.826 -1.8341  2.2104 -0.2906
 2826SOL    HW219941   4.167   0.504   5.961 -0.8307  0.6624  0.8954
 2827SOL     OW19942   2.165   2.343   4.091 -1.0152 -0.2755 -0.4032
 2827SOL    HW119943   2.236   2.309   4.036 -0.6810  0.7405 -0.6036
 2827SOL    HW219944   2.218   2.388   4.157  0.4643 -0.7576 -1.2643
 2828SOL     OW19945   0.394   4.257   7.953 -0.4875 -0.1219  0.6458
 2828SOL    HW119946   0.477   4.222   7.984 -0.4216  0.2759  0.9143
 2828SOL    HW219947   0.420   4.287   7.866 -1.9134  0.1068  0.2993
 2829SOL     OW19948   2.648   3.354  12.958  0.2534  1.2972 -0.1172
 2829SOL    HW119949   2.583   3.298  12.915 -0.3418  0.0638  2.3805
 2829SOL    HW219950   2.720   3.293  12.939  0.3149  1.1774  0.5139
 2830SOL     OW19951   2.675   1.690   5.711  0.3427  0.3225  0.3066
 2830SOL    HW119952   2.700   1.598   5.703 -1.1050 -0.0156 -0.4276
 2830SOL    HW219953   2.679   1.728   5.623  1.0937 -1.5722 -0.4813
 2831SOL     OW19954   0.437   3.190   4.708  0.1333  0.3794 -0.2262
 2831SOL    HW119955   0.387   3.261   4.749  0.1715 -0.3837  1.1540
 2831SOL    HW219956   0.521   3.232   4.688  1.3819 -0.8689  2.4289
 2832SOL     OW19957   2.185   3.886  16.789 -0.1490  0.4571 -0.0941
 2832SOL    HW119958   2.182   3.981  16.797 -0.8962  0.5487 -1.5798
 2832SOL    HW219959   2.113   3.859  16.732 -0.1458  1.1747 -0.4347
 2833SOL     OW19960   1.222   0.059   4.393 -0.4994 -0.4408 -0.0860
 2833SOL    HW119961   1.143   0.004   4.396 -0.6324 -0.2258  0.2733
 2833SOL    HW219962   1.288   0.004   4.435 -0.7200 -1.0759 -0.5714
 2834SOL     OW19963   0.078   4.156   4.655 -0.1237 -0.0457 -0.5180
 2834SOL    HW119964   0.113   4.232   4.608  2.1180  0.1942  1.5539
 2834SOL    HW219965   0.090   4.196   4.741 -0.3828  0.1173 -0.5580
 2835SOL     OW19966   3.338   3.512   8.543  0.0330  0.5012  0.7819
 2835SOL    HW119967   3.395   3.489   8.469 -0.7383 -1.8969  0.9505
 2835SOL    HW219968   3.263   3.455   8.524  0.8115 -0.7049  1.3371
 2836SOL     OW19969   3.656   1.003   6.579  0.3405 -0.1992  0.1851
 2836SOL    HW119970   3.720   0.960   6.636  2.3605  1.1578 -1.0528
 2836SOL    HW219971   3.617   1.048   6.653  0.0265  1.2530 -0.8705
 2837SOL     OW19972   4.343   3.590   5.728 -0.0328  0.6640  0.7236
 2837SOL    HW119973   4.432   3.590   5.762  0.7558 -4.0300 -1.3404
 2837SOL    HW219974   4.361   3.582   5.634 -1.2845 -0.7605  0.6195
 2838SOL     OW19975   1.047   1.994   6.626  0.5228 -0.0225  0.6327
 2838SOL    HW119976   1.055   2.077   6.674  0.2335  0.3991 -0.0488
 2838SOL    HW219977   1.093   1.923   6.671  0.5618  0.2306  0.9958
 2839SOL     OW19978   0.597   2.945  16.168 -0.2002  0.4356  0.1119
 2839SOL    HW119979   0.609   2.924  16.075  3.6960  1.2028  0.4360
 2839SOL    HW219980   0.504   2.966  16.169 -0.0178  1.2748 -0.3949
 2840SOL     OW19981   0.972   0.230   1.946  0.2544  0.1982  0.5108
 2840SOL    HW119982   1.032   0.269   1.883  0.6046 -1.3653 -0.1157
 2840SOL    HW219983   0.883   0.262   1.933  0.2349 -0.0804 -0.0453
 2841SOL     OW19984   1.557   2.507   7.584  0.4505  0.0437 -0.0625
 2841SOL    HW119985   1.552   2.411   7.589  2.3978 -0.0849 -0.3921
 2841SOL    HW219986   1.467   2.527   7.610 -0.0020 -0.3573 -1.3341
 2842SOL     OW19987   4.683   0.814   5.411 -0.3607  0.0260 -0.0526
 2842SOL    HW119988   0.029   0.867   5.372 -0.8385  1.9417  1.6688
 2842SOL    HW219989   4.701   0.729   5.371  2.4467  0.9851 -0.8378
 2843SOL     OW19990   1.402   3.265  12.861 -0.1111 -0.0049 -0.3928
 2843SOL    HW119991   1.442   3.247  12.776 -0.2911  0.8153 -0.6453
 2843SOL    HW219992   1.345   3.189  12.872  0.0685 -0.3859 -2.1373
 2844SOL     OW19993   1.757   2.292   3.703 -0.1257  0.1581 -0.3324
 2844SOL    HW119994   1.805   2.299   3.786  0.0648  0.9326 -0.5075
 2844SOL    HW219995   1.740   2.386   3.696  0.9745  0.2500 -1.7855
 2845SOL     OW19996   3.136   0.168   6.224 -0.0358 -0.4086 -0.2905
 2845SOL    HW119997   3.154   0.246   6.276  1.5831 -0.0033 -1.4527
 2845SOL    HW219998   3.096   0.215   6.151  0.2401 -0.8009 -0.6984
 2846SOL     OW19999   3.407   0.244  14.712 -0.1015 -0.0848  0.2617
 2846SOL    HW120000   3.434   0.275  14.625 -2.4685  1.3455  0.0372
 2846SOL    HW220001   3.473   0.180  14.738 -2.5775 -2.2128  1.3682
 2847SOL     OW20002   0.981   1.802  13.715 -0.1858  0.4756 -0.0692
 2847SOL    HW120003   1.063   1.782  13.671  0.1125  0.5685  0.4546
 2847SOL    HW220004   0.998   1.875  13.774  1.9224 -1.3724  1.5616
 2848SOL     OW20005   1.347   3.113   6.338  0.0007 -0.2162 -0.0310
 2848SOL    HW120006   1.385   3.184   6.286  0.8633 -0.7119 -0.0874
 2848SOL    HW220007   1.313   3.055   6.270  0.1600  0.3679 -0.5951
 2849SOL     OW20008   3.247   3.528   5.019 -0.0802  0.3183  0.1892
 2849SOL    HW120009   3.264   3.553   4.928 -1.2571  0.4089 -0.0043
 2849SOL    HW220010   3.152   3.536   5.016 -0.1862 -1.2264 -0.4524
 2850SOL     OW20011   3.886   1.290   7.797 -0.3174  0.0911  0.1872
 2850SOL    HW120012   3.942   1.233   7.850 -0.9087 -1.7531 -1.2000
 2850SOL    HW220013   3.894   1.369   7.851 -0.7387  0.3551 -0.1313
 2851SOL     OW20014   1.968   2.772  14.402  0.9412  0.2464 -0.3930
 2851SOL    HW120015   2.040   2.826  14.434  0.7640 -0.3393  1.0056
 2851SOL    HW220016   1.904   2.805  14.465  0.9553  0.0500 -0.2778
 2852SOL     OW20017   0.024   2.501  14.889  0.2187  0.1309 -0.0272
 2852SOL    HW120018   0.050   2.528  14.801 -1.8901 -1.4275 -1.1325
 2852SOL    HW220019   4.711   2.414  14.873 -1.6156  0.5380  1.8399
 2853SOL     OW20020   1.861   2.320   6.713 -0.5753 -0.7692  0.5240
 2853SOL    HW120021   1.852   2.225   6.721 -1.9523 -0.8680 -2.5109
 2853SOL    HW220022   1.922   2.347   6.782  0.9267 -2.2876 -0.2001
 2854SOL     OW20023   4.253   1.451   4.678 -0.4028  0.2837  0.0130
 2854SOL    HW120024   4.223   1.499   4.600  1.9010 -2.1793 -2.3800
 2854SOL    HW220025   4.253   1.364   4.638  1.3176  0.5631 -0.5756
 2855SOL     OW20026   3.489   1.398   4.994 -0.2591  0.5203 -0.6157
 2855SOL    HW120027   3.449   1.311   4.993 -0.0748  0.4219  1.5147
 2855SOL    HW220028   3.581   1.374   4.991 -0.0625  1.3929 -1.7641
 2856SOL     OW20029   1.018   4.063   1.912  0.9447  0.7057 -0.5875
 2856SOL    HW120030   0.990   4.001   1.845 -0.1247 -1.5171  1.9536
 2856SOL    HW220031   1.041   4.005   1.984 -1.7347  2.1456  1.3921
 2857SOL     OW20032   4.706   1.674   3.223 -0.6292  0.1010 -0.5912
 2857SOL    HW120033   0.038   1.603   3.192  1.5705  0.9151  1.4200
 2857SOL    HW220034   0.044   1.745   3.242  0.8799 -1.7380  1.3767
 2858SOL     OW20035   0.718   3.874  15.641  0.0545  0.2911  0.5898
 2858SOL    HW120036   0.656   3.908  15.576  1.0218 -1.1005 -1.0473
 2858SOL    HW220037   0.731   3.787  15.603 -1.0213  0.2778  0.2442
 2859SOL     OW20038   3.604   2.975   1.235  0.3271  0.1415 -0.0376
 2859SOL    HW120039   3.537   3.021   1.185  0.7726  1.0203  0.1639
 2859SOL    HW220040   3.687   3.023   1.231 -0.9412  2.2126 -1.2386
 2860SOL     OW20041   2.297   2.755   3.259  0.0297  0.3715 -0.0883
 2860SOL    HW120042   2.324   2.727   3.171 -0.2262  0.3804 -0.1694
 2860SOL    HW220043   2.205   2.730   3.269  0.3819 -1.4480 -1.4639
 2861SOL     OW20044   0.723   3.917  11.685 -0.3276  0.1512  0.9319
 2861SOL    HW120045   0.807   3.918  11.639 -1.5311  0.7920 -1.2675
 2861SOL    HW220046   0.709   3.826  11.711  2.0810 -1.0794 -2.1344
 2862SOL     OW20047   2.450   0.740   2.589  0.2606 -0.0208  0.3147
 2862SOL    HW120048   2.545   0.736   2.575  0.3236 -0.6540  0.9275
 2862SOL    HW220049   2.417   0.710   2.505  1.0256 -0.9748  0.3524
 2863SOL     OW20050   1.503   2.182   3.952 -0.6169 -0.0041 -0.2487
 2863SOL    HW120051   1.567   2.136   3.898 -0.8195 -0.0436 -0.4542
 2863SOL    HW220052   1.541   2.173   4.040 -0.2782 -0.3325 -0.4298
 2864SOL     OW20053   0.175   3.504   4.697  0.1372  0.1585 -0.3368
 2864SOL    HW120054   0.134   3.566   4.758 -0.6988 -1.6890  0.9686
 2864SOL    HW220055   0.144   3.540   4.613 -0.2767  0.4205 -0.0726
 2865SOL     OW20056   1.187   0.975   4.588  0.0020  0.3105  0.3851
 2865SOL    HW120057   1.269   0.945   4.627 -1.3209  0.7473  3.5081
 2865SOL    HW220058   1.229   1.050   4.545  0.1909  0.0339  0.0878
 2866SOL     OW20059   2.742   1.645   4.067 -0.4101  0.4091 -0.2013
 2866SOL    HW120060   2.790   1.716   4.110  1.5961 -1.0717 -0.0057
 2866SOL    HW220061   2.653   1.679   4.078 -0.6606 -0.8202  1.6740
 2867SOL     OW20062   2.879   3.967   4.700 -0.3834  0.0171  0.2564
 2867SOL    HW120063   2.871   3.921   4.784 -1.0980  0.6950  0.5601
 2867SOL    HW220064   2.910   3.895   4.645 -3.5463  0.0203 -1.5783
 2868SOL     OW20065   4.105   2.943  13.243  0.1029  0.0480  0.3975
 2868SOL    HW120066   4.154   3.022  13.264 -0.8427  0.3793  1.3744
 2868SOL    HW220067   4.153   2.867  13.275  0.5302  0.0229 -0.3009
 2869SOL     OW20068   1.861   0.973   4.630 -0.5428  0.0306 -0.6814
 2869SOL    HW120069   1.872   1.011   4.717  0.3756  0.8698 -1.1675
 2869SOL    HW220070   1.792   0.910   4.649 -1.4191  0.3160 -2.9819
 2870SOL     OW20071   1.027   2.360   8.301 -0.4775 -0.1872  0.3765
 2870SOL    HW120072   1.016   2.372   8.207 -0.7777 -3.7657 -0.0623
 2870SOL    HW220073   0.987   2.441   8.334  1.1307  1.1981 -1.1149
 2871SOL     OW20074   2.626   3.759   9.817 -0.3779  0.2936 -0.1481
 2871SOL    HW120075   2.532   3.764   9.798 -0.0841 -1.2968 -1.9967
 2871SOL    HW220076   2.657   3.848   9.833  4.3432 -1.3511 -0.0142
 2872SOL     OW20077   1.106   4.514  14.567  0.8747  0.1663 -0.0172
 2872SOL    HW120078   1.109   4.490  14.474  0.8523 -0.6120  0.1836
 2872SOL    HW220079   1.021   4.560  14.568 -0.0752 -1.5934  0.0097
 2873SOL     OW20080   1.227   1.024   7.780  0.3065 -0.0610 -0.3245
 2873SOL    HW120081   1.309   1.072   7.791  0.5921 -0.8421  0.9898
 2873SOL    HW220082   1.258   0.948   7.731  1.5283  0.8256 -0.9268
 2874SOL     OW20083   1.518   4.645   8.620  1.0285  0.3734  0.1391
 2874SOL    HW120084   1.601   4.681   8.651  0.4210  1.5562  0.3970
 2874SOL    HW220085   1.466   0.000   8.632  1.6107  0.7719  0.0360
 2875SOL     OW20086   2.727   4.486   7.735 -0.3548 -0.2180 -0.6691
 2875SOL    HW120087   2.781   4.558   7.703  0.6321 -0.9050 -0.5456
 2875SOL    HW220088   2.771   4.410   7.696 -0.6730 -2.1343  2.7167
 2876SOL     OW20089   4.335   1.927   9.995  0.4433  0.3095 -0.2223
 2876SOL    HW120090   4.430   1.921   9.992  0.5624  2.3960 -0.7182
 2876SOL    HW220091   4.309   1.997  10.056  0.0982  0.2891 -0.3432
 2877SOL     OW20092   1.583   3.044   1.934 -0.3280  0.1107  0.0887
 2877SOL    HW120093   1.583   3.136   1.958  1.4633  0.5782 -1.8147
 2877SOL    HW220094   1.490   3.025   1.947 -0.0917  1.5749  4.1407
 2878SOL     OW20095   1.973   2.241  10.079 -0.3885 -0.1603 -0.2361
 2878SOL    HW120096   1.889   2.248  10.034  0.9100 -1.1958 -2.7847
 2878SOL    HW220097   2.038   2.272  10.016  0.1986  2.2871  1.5894
 2879SOL     OW20098   2.692   0.728  12.702  0.3988  0.5433  0.2522
 2879SOL    HW120099   2.620   0.681  12.744 -0.2533 -0.8510 -2.4739
 2879SOL    HW220100   2.759   0.661  12.686  0.4127  0.3079  1.3103
 2880SOL     OW20101   0.353   1.923  14.456 -0.2619 -0.1460  0.2335
 2880SOL    HW120102   0.344   1.828  14.464  0.7254 -0.1504  1.3243
 2880SOL    HW220103   0.318   1.953  14.372 -1.3506  0.2285  0.8160
 2881SOL     OW20104   3.586   2.183   1.009  0.5724 -0.1389 -0.2293
 2881SOL    HW120105   3.510   2.238   1.028  2.2003  1.9571  0.1220
 2881SOL    HW220106   3.653   2.244   1.039  1.5019 -1.5945  0.6421
 2882SOL     OW20107   0.990   4.058  13.720 -0.0311 -0.1358 -0.0959
 2882SOL    HW120108   1.018   4.033  13.632  1.9420  1.0300  0.2155
 2882SOL    HW220109   0.899   4.027  13.712  0.5765 -2.3293  1.4941
 2883SOL     OW20110   3.869   3.922   9.354  0.2498  0.0137  0.4541
 2883SOL    HW120111   3.924   3.993   9.320 -0.5174 -0.1807 -1.1628
 2883SOL    HW220112   3.790   3.970   9.379 -0.6895 -1.0718 -0.4242
 2884SOL     OW20113   2.495   1.258   0.845  0.0916 -0.6642 -0.5426
 2884SOL    HW120114   2.538   1.205   0.912  0.2714  1.5739  1.1192
 2884SOL    HW220115   2.412   1.212   0.832  0.0663 -0.8973  0.4377
 2885SOL     OW20116   2.922   1.207   3.361  0.6740 -0.0414 -0.2569
 2885SOL    HW120117   2.951   1.125   3.323 -0.3076  0.0171 -1.1493
 2885SOL    HW220118   2.885   1.264   3.293 -0.7902 -2.7715 -1.7643
 2886SOL     OW20119   0.301   4.544   1.359 -0.1543  0.0526 -0.1102
 2886SOL    HW120120   0.341   4.540   1.445 -0.5215  1.5265  0.1383
 2886SOL    HW220121   0.243   4.620   1.371  2.3199  1.7004  1.3387
 2887SOL     OW20122   3.244   0.970   5.193 -0.1525 -0.3832 -0.1933
 2887SOL    HW120123   3.255   0.923   5.275 -0.4719  0.7027  0.4741
 2887SOL    HW220124   3.223   0.896   5.137  1.1159  0.4640 -1.8094
 2888SOL     OW20125   3.672   1.068  10.465  0.7194  0.2285 -0.6320
 2888SOL    HW120126   3.662   1.146  10.519 -1.4828 -1.4196  1.3501
 2888SOL    HW220127   3.758   1.086  10.428  0.9362 -3.3069 -1.8077
 2889SOL     OW20128   2.812   1.175   1.529 -0.4478 -0.1796  0.4178
 2889SOL    HW120129   2.815   1.168   1.625  1.1398 -1.5276  0.2723
 2889SOL    HW220130   2.752   1.249   1.522 -0.7916 -0.4772  0.2159
 2890SOL     OW20131   2.467   3.058   6.999  0.5341  0.0824 -0.0080
 2890SOL    HW120132   2.380   3.028   7.025  0.6362  0.2755  0.5602
 2890SOL    HW220133   2.478   3.135   7.055  3.0433 -0.1328 -0.1822
 2891SOL     OW20134   1.385   2.858   2.894 -0.8068 -0.1731 -0.2781
 2891SOL    HW120135   1.304   2.889   2.933 -0.8485  0.8771 -1.1942
 2891SOL    HW220136   1.418   2.786   2.948 -2.1267 -0.1354  0.5704
 2892SOL     OW20137   1.031   0.861   8.796  0.4652 -0.2916  0.2008
 2892SOL    HW120138   1.075   0.802   8.735  0.6606 -2.1730  2.2003
 2892SOL    HW220139   0.942   0.851   8.762 -0.2380  1.5884  1.5075
 2893SOL     OW20140   3.282   0.203   5.963 -0.5767 -0.1321  0.2545
 2893SOL    HW120141   3.199   0.248   5.979  0.7308  2.2325  0.3457
 2893SOL    HW220142   3.325   0.215   6.047  1.8669  1.3100 -1.1816
 2894SOL     OW20143   4.506   3.847  13.866  0.1783  0.1364  0.1496
 2894SOL    HW120144   4.589   3.834  13.912 -0.2836 -0.7801  0.7363
 2894SOL    HW220145   4.519   3.790  13.791  1.3631  0.6876 -0.0572
 2895SOL     OW20146   3.466   2.509   5.599  0.0508  0.4747  0.9239
 2895SOL    HW120147   3.531   2.566   5.557  0.1031  0.0694  0.4611
 2895SOL    HW220148   3.513   2.433   5.632 -0.5995 -0.9498 -1.4511
 2896SOL     OW20149   3.115   2.589  17.068  0.3343  0.1948  0.0414
 2896SOL    HW120150   3.072   2.661  17.021  1.8820 -0.2464 -2.0553
 2896SOL    HW220151   3.046   2.527  17.088 -2.2253  3.2718  0.8345
 2897SOL     OW20152   1.079   2.449  13.872  0.3901 -0.2456  0.1808
 2897SOL    HW120153   1.103   2.478  13.784  0.9667  1.4700  0.9135
 2897SOL    HW220154   1.053   2.529  13.918  0.6947  0.8613 -1.5881
 2898SOL     OW20155   1.509   2.755   9.358  0.0076  0.8351 -0.7877
 2898SOL    HW120156   1.467   2.840   9.342 -1.2421  0.2601 -0.5120
 2898SOL    HW220157   1.478   2.728   9.444 -0.2093  0.1148 -1.0969
 2899SOL     OW20158   0.817   2.316  16.446  0.4766  0.1227  0.0626
 2899SOL    HW120159   0.897   2.294  16.398  0.2339 -1.1065  0.2215
 2899SOL    HW220160   0.839   2.286  16.535 -1.3285  1.5521  0.9954
 2900SOL     OW20161   1.803   2.232   5.947  0.1334 -0.3169 -0.5508
 2900SOL    HW120162   1.842   2.218   5.861  2.0286  3.1747 -0.2710
 2900SOL    HW220163   1.856   2.304   5.981  1.7412 -1.0078 -1.6312
 2901SOL     OW20164   1.500   3.047   4.213  0.0760 -0.1068  0.6007
 2901SOL    HW120165   1.512   3.007   4.127 -0.9385 -2.2515  1.4730
 2901SOL    HW220166   1.516   3.139   4.190 -0.9998  0.1619  0.9318
 2902SOL     OW20167   2.284   3.383   4.855 -0.1918 -0.0123 -0.0083
 2902SOL    HW120168   2.295   3.429   4.938 -1.4077  0.0645  0.1141
 2902SOL    HW220169   2.227   3.447   4.811 -0.1317  0.3992  0.5135
 2903SOL     OW20170   3.426   2.449  11.455  0.2023 -0.0821 -0.1560
 2903SOL    HW120171   3.347   2.396  11.467 -0.1244  0.5061  0.2517
 2903SOL    HW220172   3.489   2.389  11.494 -1.2366 -1.2327  0.4396
 2904SOL     OW20173   0.865   4.042  12.078 -0.3472 -0.1725 -0.0756
 2904SOL    HW120174   0.800   4.075  12.016  0.2354  1.5963  0.2571
 2904SOL    HW220175   0.940   4.090  12.043  1.4560 -3.2599 -0.4696
 2905SOL     OW20176   0.476   1.427   7.235  0.1151  0.2365  0.3024
 2905SOL    HW120177   0.442   1.484   7.304  0.1986  2.2347 -1.2745
 2905SOL    HW220178   0.442   1.340   7.255  1.3014 -0.2015  0.4002
 2906SOL     OW20179   1.240   0.007   2.296 -0.6430  0.4166  0.1583
 2906SOL    HW120180   1.224   4.696   2.384  0.4988 -1.0655 -0.2147
 2906SOL    HW220181   1.326   0.049   2.304 -0.6746  0.7585 -1.3549
 2907SOL     OW20182   2.639   4.044  16.151  0.1544 -0.1769 -0.3503
 2907SOL    HW120183   2.609   4.095  16.226  3.6744  0.9456  0.3178
 2907SOL    HW220184   2.612   4.097  16.077 -1.5710 -1.4009 -0.6093
 2908SOL     OW20185   3.614   0.340   6.651  0.1228 -0.2141 -0.2988
 2908SOL    HW120186   3.670   0.387   6.713  0.5072 -0.6545 -0.3101
 2908SOL    HW220187   3.533   0.373   6.689 -0.1298 -0.6033 -0.4997
 2909SOL     OW20188   0.721   2.272  15.817 -0.4165  0.5875  0.5164
 2909SOL    HW120189   0.701   2.342  15.754 -0.7787 -0.3072 -0.3719
 2909SOL    HW220190   0.815   2.286  15.816 -0.3663  0.2552  0.8606
 2910SOL     OW20191   1.644   0.322  14.978 -0.4087 -0.1522  0.3303
 2910SOL    HW120192   1.573   0.263  14.951  2.1145 -2.2072 -1.8545
 2910SOL    HW220193   1.641   0.391  14.912  0.3309 -1.7549 -1.3744
 2911SOL     OW20194   1.461   0.664   3.131 -0.2421  0.1524  0.3426
 2911SOL    HW120195   1.536   0.625   3.175  1.2295  0.7305 -1.6428
 2911SOL    HW220196   1.395   0.623   3.186  0.3171 -0.3911  0.5973
 2912SOL     OW20197   4.366   0.877  13.850 -0.0581 -0.3863 -0.7695
 2912SOL    HW120198   4.319   0.926  13.918 -0.3804 -1.4990 -0.1871
 2912SOL    HW220199   4.292   0.833  13.809 -0.3872 -0.7977  0.2726
 2913SOL     OW20200   2.518   1.182   3.614  0.3971  0.2985 -0.4087
 2913SOL    HW120201   2.426   1.196   3.636 -0.0694 -1.6640 -1.0533
 2913SOL    HW220202   2.542   1.274   3.608  0.3902  0.4817  2.4548
 2914SOL     OW20203   3.052   1.346   3.755 -0.0582 -0.0029 -0.1859
 2914SOL    HW120204   3.079   1.268   3.804  0.5514  1.2552  1.5053
 2914SOL    HW220205   2.985   1.373   3.818  0.5783  0.4941  0.2843
 2915SOL     OW20206   4.093   4.209   5.465 -0.8356 -0.2744 -0.3690
 2915SOL    HW120207   4.036   4.153   5.517  0.1213  1.2691  2.3789
 2915SOL    HW220208   4.185   4.191   5.487 -0.9690  0.0002  0.4311
 2916SOL     OW20209   1.123   1.337   9.570  0.0079  0.1158 -0.2477
 2916SOL    HW120210   1.054   1.403   9.560 -1.5517 -1.5027 -0.2273
 2916SOL    HW220211   1.193   1.401   9.556 -1.0612  1.5128  0.8895
 2917SOL     OW20212   4.551   1.347  12.343  0.6311 -0.3207  0.2177
 2917SOL    HW120213   4.524   1.322  12.255  1.6743  0.0058 -0.1857
 2917SOL    HW220214   4.635   1.302  12.342  1.7077  1.7296 -0.2235
 2918SOL     OW20215   0.272   3.872  12.298  0.4145  0.7910 -0.3151
 2918SOL    HW120216   0.323   3.929  12.355 -1.2214  0.7630  1.1856
 2918SOL    HW220217   0.330   3.854  12.225 -1.0434  0.0211 -1.2961
 2919SOL     OW20218   3.273   0.185  16.305 -0.1342  0.2892 -0.1830
 2919SOL    HW120219   3.257   0.241  16.229  1.2470  2.5059  1.1511
 2919SOL    HW220220   3.353   0.139  16.278  0.0715 -1.0711  2.7593
 2920SOL     OW20221   2.399   4.449   4.109  0.0449  0.5061 -0.7531
 2920SOL    HW120222   2.446   4.419   4.031 -1.7523 -1.0328 -1.2790
 2920SOL    HW220223   2.392   4.539   4.077 -0.4441 -0.2301 -2.7233
 2921SOL     OW20224   2.102   1.607   9.452  0.2223 -0.3887  0.1140
 2921SOL    HW120225   2.102   1.700   9.429  0.5325 -0.0832  1.3088
 2921SOL    HW220226   2.197   1.601   9.444  0.1236  0.3951 -1.6341
 2922SOL     OW20227   3.804   0.932   6.308  0.1912 -0.3921  0.6043
 2922SOL    HW120228   3.777   0.910   6.397  0.3288 -0.2765  0.6735
 2922SOL    HW220229   3.857   1.011   6.320 -0.7967  0.0874  1.7689
 2923SOL     OW20230   4.490   3.765   4.048  0.2125 -0.1816 -0.2223
 2923SOL    HW120231   4.579   3.794   4.031  0.0041  0.2365 -0.6117
 2923SOL    HW220232   4.442   3.844   4.023  1.4733  0.7726  0.4023
 2924SOL     OW20233   2.078   2.369   2.015  0.7195  0.8226 -0.1953
 2924SOL    HW120234   2.014   2.421   2.062  2.1500 -0.5234  3.2201
 2924SOL    HW220235   2.047   2.280   2.033  0.4758  0.6500 -1.4162
 2925SOL     OW20236   0.124   2.718   5.187  0.4503  0.6560  0.8071
 2925SOL    HW120237   0.156   2.769   5.112  5.0243 -2.3096  0.7650
 2925SOL    HW220238   0.099   2.636   5.147 -0.8116  1.2153  0.4636
 2926SOL     OW20239   2.765   3.305   8.968  0.2507  0.1538 -0.1130
 2926SOL    HW120240   2.813   3.257   9.035  1.2240  1.3334  0.0303
 2926SOL    HW220241   2.838   3.315   8.907  1.8479 -0.9578  1.6188
 2927SOL     OW20242   1.553   3.014   2.765 -0.3902  0.0430  0.2616
 2927SOL    HW120243   1.488   2.974   2.823  0.3187 -1.9320 -0.2775
 2927SOL    HW220244   1.626   2.952   2.774  1.0996  1.6031 -1.2155
 2928SOL     OW20245   2.347   0.080  14.292 -0.1458  0.1384 -0.2780
 2928SOL    HW120246   2.443   0.080  14.287 -0.1983  3.2222 -0.9381
 2928SOL    HW220247   2.338   0.040  14.379 -2.0426 -1.1643 -1.0683
 2929SOL     OW20248   1.895   3.769  10.763  0.1303 -0.4890 -0.7320
 2929SOL    HW120249   1.871   3.790  10.853  1.9489 -1.7137  0.0423
 2929SOL    HW220250   1.989   3.759  10.778  0.1240  0.7941  0.1856
 2930SOL     OW20251   4.050   3.188   7.179 -0.1367 -0.0956 -0.8449
 2930SOL    HW120252   3.966   3.232   7.163  1.2855  3.1425  0.5358
 2930SOL    HW220253   4.049   3.193   7.274 -0.6874 -0.1202 -0.8508
 2931SOL     OW20254   3.754   4.350   2.392 -0.4243  0.0826 -0.6417
 2931SOL    HW120255   3.829   4.377   2.340  1.0710 -2.3097  0.3117
 2931SOL    HW220256   3.707   4.290   2.335  1.9219 -1.9902 -0.3690
 2932SOL     OW20257   4.704   4.112  11.903  0.4462  0.1673 -0.3216
 2932SOL    HW120258   0.041   4.184  11.883  1.3436  0.0689  2.0626
 2932SOL    HW220259   0.030   4.075  11.976 -0.7997  0.7908  0.8402
 2933SOL     OW20260   3.688   0.324   4.114  0.5922 -0.0656  0.3392
 2933SOL    HW120261   3.614   0.263   4.118 -0.0092  0.6702  0.4250
 2933SOL    HW220262   3.652   0.393   4.057 -0.0315  0.1259  0.9652
 2934SOL     OW20263   0.071   2.244   4.675  0.3741  0.3413  0.3743
 2934SOL    HW120264   0.022   2.165   4.694  0.3458  0.6306  1.4985
 2934SOL    HW220265   0.160   2.209   4.679  0.6290  0.9770  0.2759
 2935SOL     OW20266   3.666   4.007   2.961  0.4569 -0.3063 -0.1683
 2935SOL    HW120267   3.684   4.095   2.929  1.7931 -0.7936 -0.7580
 2935SOL    HW220268   3.731   3.960   2.909 -2.0477 -2.4877 -1.3318
 2936SOL     OW20269   0.345   0.022   5.524 -0.5085 -0.1907  0.0653
 2936SOL    HW120270   0.438   0.001   5.526  0.0247  2.1586 -0.9584
 2936SOL    HW220271   0.352   0.117   5.527  1.6749 -0.3014 -1.0812
 2937SOL     OW20272   3.272   1.468   2.279  0.7936 -0.2169  0.4204
 2937SOL    HW120273   3.320   1.395   2.319  0.2193 -1.9781 -2.0797
 2937SOL    HW220274   3.192   1.431   2.242 -0.2492  1.2681  1.2006
 2938SOL     OW20275   4.007   2.669   3.126  0.4688  0.4334 -0.0288
 2938SOL    HW120276   3.974   2.584   3.154  0.3846 -0.1792 -1.9923
 2938SOL    HW220277   3.954   2.724   3.184 -0.4442 -2.0123  1.4723
 2939SOL     OW20278   1.168   3.973   1.010 -0.1448  0.3349  0.1077
 2939SOL    HW120279   1.123   4.057   1.010 -0.9377 -0.0895  0.1935
 2939SOL    HW220280   1.247   3.994   0.960 -0.4469  1.5433  0.1573
 2940SOL     OW20281   1.736   0.023   3.667  0.0394 -0.2680 -0.3002
 2940SOL    HW120282   1.671   0.062   3.608  0.4774  1.0128  0.0502
 2940SOL    HW220283   1.804   0.091   3.670 -1.4652  1.2786 -1.0014
 2941SOL     OW20284   0.197   3.749   4.473  0.1025  0.3314 -0.2021
 2941SOL    HW120285   0.274   3.802   4.491 -0.1517  0.2277  1.1346
 2941SOL    HW220286   0.126   3.798   4.515 -1.4769 -1.9774 -0.1675
 2942SOL     OW20287   0.401   1.202   6.419 -0.0293 -0.2740 -0.4385
 2942SOL    HW120288   0.392   1.297   6.428  1.0788 -0.1074 -1.1217
 2942SOL    HW220289   0.493   1.204   6.393 -0.2645  2.5825 -1.0594
 2943SOL     OW20290   3.035   2.014   2.655 -0.1129  0.1644 -0.0317
 2943SOL    HW120291   2.975   1.970   2.596  0.6284  0.3258 -0.8998
 2943SOL    HW220292   3.081   2.072   2.594  1.1443 -0.1236  0.6297
 2944SOL     OW20293   2.449   4.311   4.783 -0.3200  0.2721 -0.5214
 2944SOL    HW120294   2.420   4.221   4.795  1.1701  0.0421  1.2598
 2944SOL    HW220295   2.388   4.341   4.715 -1.8629  0.8785  1.1244
 2945SOL     OW20296   2.201   2.973  13.440 -0.1714 -0.5372  0.4352
 2945SOL    HW120297   2.275   2.992  13.382 -1.2187 -0.5798 -0.9132
 2945SOL    HW220298   2.180   3.060  13.473 -0.6591 -1.5259  2.7483
 2946SOL     OW20299   2.246   1.564   2.114  0.4834 -0.0117 -0.2911
 2946SOL    HW120300   2.178   1.626   2.137  1.7052  0.2807  2.5583
 2946SOL    HW220301   2.215   1.533   2.029 -2.5701  0.7744  0.5306
 2947SOL     OW20302   0.612   4.227  10.132 -0.3545  0.0142 -0.4920
 2947SOL    HW120303   0.631   4.152  10.076 -0.8473 -1.6021  1.5366
 2947SOL    HW220304   0.520   4.225  10.106 -0.3665 -0.1508 -0.4380
 2948SOL     OW20305   2.980   0.866  14.900  0.6724 -0.4238  0.1527
 2948SOL    HW120306   2.949   0.956  14.899 -0.3585 -0.7796  0.5158
 2948SOL    HW220307   2.916   0.823  14.844  0.1261  0.6124 -0.0111
 2949SOL     OW20308   3.027   1.321   6.649  0.0192 -0.5588 -0.2209
 2949SOL    HW120309   3.049   1.363   6.566  0.0631  1.9402  1.0774
 2949SOL    HW220310   2.931   1.316   6.643  0.3183 -2.7476 -3.0950
 2950SOL     OW20311   2.710   4.717   5.686 -0.5951 -0.0863 -0.1186
 2950SOL    HW120312   2.760   4.723   5.604 -0.0190  0.3276  0.2649
 2950SOL    HW220313   2.745   0.063   5.741 -0.2828 -1.7054  1.7537
 2951SOL     OW20314   3.565   3.024  16.617  0.1943 -0.4289  0.0808
 2951SOL    HW120315   3.566   2.934  16.585  1.1659 -0.4269  0.0857
 2951SOL    HW220316   3.573   3.012  16.711 -6.0352  0.4132  0.6944
 2952SOL     OW20317   1.765   3.696   8.326  0.4349 -0.0199  0.3486
 2952SOL    HW120318   1.675   3.717   8.299  0.4655 -2.1444 -1.4370
 2952SOL    HW220319   1.788   3.640   8.252 -3.1022  0.6986 -1.3198
 2953SOL     OW20320   3.810   2.715   7.228  0.6201 -0.2775 -0.2803
 2953SOL    HW120321   3.789   2.665   7.306  0.1712  0.1564 -0.1238
 2953SOL    HW220322   3.720   2.735   7.202  0.0879  0.7949  2.4736
 2954SOL     OW20323   0.321   2.198   7.221 -0.0396 -0.0716 -0.0456
 2954SOL    HW120324   0.405   2.156   7.243 -0.4985 -0.7433  0.4288
 2954SOL    HW220325   0.333   2.283   7.264 -0.7196  0.6947 -1.4020
 2955SOL     OW20326   4.406   1.395   2.506  0.5165 -0.1187  0.1881
 2955SOL    HW120327   4.459   1.413   2.584 -0.8211  0.5056  0.9357
 2955SOL    HW220328   4.432   1.305   2.484  1.2256 -0.0017  0.5516
 2956SOL     OW20329   3.314   2.323   8.669 -0.0688  0.4086  0.1862
 2956SOL    HW120330   3.252   2.297   8.737  0.3956 -0.7743  0.1563
 2956SOL    HW220331   3.345   2.239   8.635  0.1229 -0.0585  1.5238
 2957SOL     OW20332   3.905   2.824   3.599  0.0293 -0.2378 -0.2268
 2957SOL    HW120333   3.837   2.812   3.533  0.9581 -1.4985 -0.9527
 2957SOL    HW220334   3.897   2.747   3.655  2.0255 -1.0235 -1.0158
 2958SOL     OW20335   2.804   0.566   7.321 -0.4736 -0.1166  0.0288
 2958SOL    HW120336   2.752   0.565   7.241 -0.7134  0.1301  0.1845
 2958SOL    HW220337   2.891   0.563   7.282 -0.5930 -1.2369 -0.1622
 2959SOL     OW20338   1.905   4.050   0.941 -0.2903  0.3450  0.1767
 2959SOL    HW120339   1.937   3.962   0.920  1.2895  0.8004  0.6239
 2959SOL    HW220340   1.843   4.031   1.011 -2.0320  0.3987 -1.3746
 2960SOL     OW20341   3.443   4.403   1.609 -0.2408  0.9405 -0.0867
 2960SOL    HW120342   3.399   4.486   1.626 -1.1123  0.5096 -0.2475
 2960SOL    HW220343   3.418   4.345   1.680  2.0790 -0.4256 -0.3893
 2961SOL     OW20344   0.611   0.300  15.493 -0.1613  0.3527  0.9218
 2961SOL    HW120345   0.535   0.256  15.455 -0.7412  2.5975 -0.4994
 2961SOL    HW220346   0.591   0.281  15.585  0.4338  3.0021  1.5952
 2962SOL     OW20347   3.289   4.181   2.727  0.3860 -0.2707 -0.2924
 2962SOL    HW120348   3.361   4.241   2.708  0.5098  0.0867  1.3400
 2962SOL    HW220349   3.258   4.221   2.808 -1.1819  2.4668 -2.2518
 2963SOL     OW20350   0.586   1.211   8.907 -0.2115 -0.2631 -0.4356
 2963SOL    HW120351   0.618   1.299   8.928 -3.3556  1.5176 -3.0856
 2963SOL    HW220352   0.666   1.159   8.914 -0.3536 -0.4015  0.1441
 2964SOL     OW20353   3.699   2.273   1.333 -0.0694 -0.2151  0.3155
 2964SOL    HW120354   3.756   2.199   1.350 -0.8497 -1.4870 -2.6023
 2964SOL    HW220355   3.760   2.317   1.273  1.6501 -1.9109  0.8148
 2965SOL     OW20356   4.645   3.111   3.068  0.3065 -0.3586 -0.5504
 2965SOL    HW120357   4.593   3.070   2.999  0.0100 -1.1608  0.1457
 2965SOL    HW220358   4.658   3.039   3.131 -2.4648  1.2094  1.7888
 2966SOL     OW20359   4.563   1.160  12.977 -0.2660 -0.5024 -0.0524
 2966SOL    HW120360   4.535   1.189  12.890 -0.0599 -0.8344 -0.2303
 2966SOL    HW220361   4.528   1.224  13.038 -0.9814 -0.3832 -0.5921
 2967SOL     OW20362   3.128   0.950   7.801 -0.5027  0.0096  0.4719
 2967SOL    HW120363   3.147   0.996   7.719  0.6530  0.2169  0.8570
 2967SOL    HW220364   3.048   0.903   7.777 -0.0617 -0.4953  0.0154
 2968SOL     OW20365   2.055   3.562  15.698  0.2634  0.1717 -0.2486
 2968SOL    HW120366   1.980   3.574  15.641  0.2489  0.3157 -0.2005
 2968SOL    HW220367   2.077   3.654  15.716  1.1192 -0.4145  1.7280
 2969SOL     OW20368   2.564   0.294   7.872 -0.0503 -0.2329 -0.4602
 2969SOL    HW120369   2.514   0.226   7.827 -0.8311 -0.1147  0.2225
 2969SOL    HW220370   2.610   0.250   7.943  1.5481 -0.9910 -1.9908
 2970SOL     OW20371   4.229   4.141   0.376 -0.4143 -0.0672  0.1511
 2970SOL    HW120372   4.302   4.081   0.364  0.3664  0.3140  3.0954
 2970SOL    HW220373   4.266   4.224   0.343  1.0301 -0.2587  1.3115
 2971SOL     OW20374   1.793   1.730  10.564  0.2760 -0.0462 -0.0877
 2971SOL    HW120375   1.825   1.803  10.617  1.2895 -1.3336  1.0831
 2971SOL    HW220376   1.806   1.655  10.622  2.2340  0.1599 -0.2381
 2972SOL     OW20377   0.167   2.751   8.001  0.5038 -0.0907 -0.1639
 2972SOL    HW120378   0.138   2.831   8.044 -2.6110 -1.9886  1.2504
 2972SOL    HW220379   0.244   2.787   7.956 -1.6277 -0.3769 -4.0369
 2973SOL     OW20380   0.748   2.436   8.907 -0.3645  0.2331  0.2583
 2973SOL    HW120381   0.687   2.370   8.876 -0.7239 -0.2754  2.0380
 2973SOL    HW220382   0.815   2.435   8.839  1.1845  1.6052  1.7510
 2974SOL     OW20383   1.825   3.117  10.842  0.3460 -0.1466  0.6151
 2974SOL    HW120384   1.822   3.210  10.865 -1.0809  0.3183 -1.4520
 2974SOL    HW220385   1.812   3.081  10.930 -2.7683 -1.7804 -0.4933
 2975SOL     OW20386   2.207   3.884   6.711  0.4754  0.2294  0.7708
 2975SOL    HW120387   2.130   3.940   6.722  0.9972  1.2262 -0.5696
 2975SOL    HW220388   2.199   3.858   6.619 -1.1537  1.7102  0.4791
 2976SOL     OW20389   1.192   4.584   8.973 -0.0674 -0.2610  0.3911
 2976SOL    HW120390   1.121   4.525   8.998 -0.2221 -0.3567 -0.2671
 2976SOL    HW220391   1.163   4.596   8.882  0.2348 -0.1408  0.3105
 2977SOL     OW20392   4.313   0.796   3.234  0.2799  0.3328  0.7266
 2977SOL    HW120393   4.379   0.731   3.259  0.2471  0.9369  2.3911
 2977SOL    HW220394   4.245   0.743   3.193 -1.2125  3.1427 -0.3693
 2978SOL     OW20395   3.127   3.954   4.910 -0.8813  0.8003  0.4013
 2978SOL    HW120396   3.126   4.017   4.838  0.9653 -0.8969 -1.0668
 2978SOL    HW220397   3.032   3.938   4.914 -0.6732 -0.4971 -0.1767
 2979SOL     OW20398   1.890   0.239  17.414 -0.7563 -0.3200  0.1553
 2979SOL    HW120399   1.954   0.181  17.372  0.1985 -0.7335  2.1789
 2979SOL    HW220400   1.875   0.187  17.493 -0.3911 -1.3227 -0.4300
 2980SOL     OW20401   3.593   0.514   1.330 -0.0630 -0.1205 -0.3501
 2980SOL    HW120402   3.651   0.581   1.366 -0.3647 -1.8701  3.4979
 2980SOL    HW220403   3.526   0.518   1.398 -1.5140  0.4506 -1.8255
 2981SOL     OW20404   0.960   2.000  15.646  0.0564  0.8487 -0.4544
 2981SOL    HW120405   0.998   2.059  15.581  1.1441 -0.8636 -1.3491
 2981SOL    HW220406   0.943   1.941  15.573 -0.5331  2.5621 -1.7219
 2982SOL     OW20407   3.154   1.659   8.687  0.7528  0.3756  0.7240
 2982SOL    HW120408   3.178   1.622   8.772 -0.8120  0.5556  1.2330
 2982SOL    HW220409   3.076   1.707   8.712 -0.0264  0.9273 -2.6830
 2983SOL     OW20410   3.508   1.065   9.489  0.4312  0.4836 -0.4637
 2983SOL    HW120411   3.537   1.023   9.408  0.3890  0.3263 -0.3979
 2983SOL    HW220412   3.508   1.157   9.463  0.0317  0.6173  0.0012
 2984SOL     OW20413   1.351   2.365   9.477 -0.3545  0.2281  0.1864
 2984SOL    HW120414   1.285   2.324   9.534 -1.5841 -0.7230 -1.9319
 2984SOL    HW220415   1.422   2.315   9.518 -0.5794 -0.7913 -0.6663
 2985SOL     OW20416   3.424   0.635   3.185  0.2119  0.0587  0.2203
 2985SOL    HW120417   3.492   0.574   3.156 -1.7444 -1.9027 -0.2328
 2985SOL    HW220418   3.343   0.586   3.200  0.4623  0.3956  2.7363
 2986SOL     OW20419   2.046   3.814   4.291 -0.3229  0.2798  0.2154
 2986SOL    HW120420   1.955   3.829   4.318 -0.7271 -0.0533 -0.9100
 2986SOL    HW220421   2.044   3.833   4.197  0.7337 -0.4527  0.0450
 2987SOL     OW20422   0.593   0.754   8.369 -0.1116 -0.2948 -0.0603
 2987SOL    HW120423   0.516   0.698   8.377  0.6156 -1.1380  1.0715
 2987SOL    HW220424   0.661   0.686   8.371  0.2562  0.0491 -0.9158
 2988SOL     OW20425   3.348   3.033   1.162  0.1457 -0.0332 -0.4560
 2988SOL    HW120426   3.297   2.962   1.121  0.8193  0.0303 -1.3918
 2988SOL    HW220427   3.298   3.113   1.146  0.5667  0.2828 -0.1767
 2989SOL     OW20428   3.032   2.636   3.142 -0.1022  0.2670  0.1939
 2989SOL    HW120429   3.040   2.642   3.047 -0.4955 -2.8081 -0.0399
 2989SOL    HW220430   2.981   2.555   3.137  2.5368 -1.4067  0.5241
 2990SOL     OW20431   2.191   2.955   0.027 -0.5500  0.0461  0.1709
 2990SOL    HW120432   2.168   2.891  17.656 -0.8609 -0.5504  0.8592
 2990SOL    HW220433   2.118   2.993   0.074 -0.3653 -1.5032  1.6995
 2991SOL     OW20434   3.450   0.498   2.515 -0.4933  0.4751  0.3262
 2991SOL    HW120435   3.532   0.547   2.525 -1.5846  2.3739 -0.1314
 2991SOL    HW220436   3.401   0.537   2.443 -1.3608 -0.3103  0.4880
 2992SOL     OW20437   3.706   2.811   8.231  0.2781 -0.4906  0.3780
 2992SOL    HW120438   3.801   2.808   8.221  0.2504 -0.9248  0.2268
 2992SOL    HW220439   3.684   2.835   8.321 -0.5297 -0.6083  0.2156
 2993SOL     OW20440   1.890   2.920  10.239  0.3314 -0.0428  0.4134
 2993SOL    HW120441   1.966   2.975  10.259 -0.4785 -0.0849  3.4852
 2993SOL    HW220442   1.834   2.934  10.315 -1.1038  0.1224 -0.6806
 2994SOL     OW20443   0.081   1.664   9.698 -0.7104 -0.2343 -0.1720
 2994SOL    HW120444   0.124   1.582   9.721  1.7019  0.8308 -0.9184
 2994SOL    HW220445   0.016   1.661   9.769  0.6487 -1.2219  1.0214
 2995SOL     OW20446   3.425   2.358   6.625 -0.1129 -0.1295  0.1779
 2995SOL    HW120447   3.383   2.320   6.547  0.5558 -1.4224  0.4352
 2995SOL    HW220448   3.439   2.443   6.583 -0.0729 -1.3795 -2.3784
 2996SOL     OW20449   1.944   1.982   8.279  0.3085  0.2421  0.0964
 2996SOL    HW120450   1.935   2.075   8.260 -0.0368  0.4656  1.3625
 2996SOL    HW220451   1.858   1.942   8.286  0.9719 -1.0352  1.0033
 2997SOL     OW20452   3.897   1.030   5.462  0.1972  0.2897  0.2956
 2997SOL    HW120453   3.812   1.068   5.441  0.2156  1.0685  1.6158
 2997SOL    HW220454   3.891   1.049   5.556  1.0330 -0.3444  0.4759
 2998SOL     OW20455   3.351   1.731  13.753  0.0113  0.3247 -0.0188
 2998SOL    HW120456   3.307   1.737  13.837  1.5193  1.8489  0.6591
 2998SOL    HW220457   3.429   1.679  13.769  0.6729  0.7695 -1.7551
 2999SOL     OW20458   3.114   3.905   7.568 -0.7456  0.4345  0.4497
 2999SOL    HW120459   3.197   3.912   7.522 -2.6248  3.2113 -2.5519
 2999SOL    HW220460   3.128   3.822   7.614 -0.6044  1.6489  2.5733
 3000SOL     OW20461   3.481   2.711   3.676  0.5469  0.4121  0.2598
 3000SOL    HW120462   3.393   2.748   3.666 -0.4155 -1.6654  1.0396
 3000SOL    HW220463   3.518   2.772   3.740 -0.7836 -1.4987  2.8527
 3001SOL     OW20464   0.288   0.567  16.446  0.2011 -0.4559  0.1138
 3001SOL    HW120465   0.246   0.579  16.360 -1.0127  0.3319  0.8120
 3001SOL    HW220466   0.307   0.657  16.470  2.7735 -1.0090  0.1859
 3002SOL     OW20467   0.137   1.302   0.208  0.0920 -0.2011 -0.1347
 3002SOL    HW120468   0.096   1.292   0.294 -2.4945  0.0049 -1.3468
 3002SOL    HW220469   0.123   1.212   0.177  2.8629 -0.0850 -1.7265
 3003SOL     OW20470   0.287   0.190   9.542  0.2090 -0.4330 -0.5644
 3003SOL    HW120471   0.333   0.213   9.623  0.8184 -0.2187 -0.9756
 3003SOL    HW220472   0.318   0.244   9.470  0.3293  0.1962 -0.0342
 3004SOL     OW20473   1.673   3.908  11.329 -0.0456  0.5788  0.1624
 3004SOL    HW120474   1.712   3.824  11.305  1.8707  0.9325  2.0157
 3004SOL    HW220475   1.738   3.971  11.297  1.3355 -0.3106  1.2477
 3005SOL     OW20476   4.018   0.330   6.856  0.1947 -0.0778  0.3581
 3005SOL    HW120477   4.001   0.236   6.858 -1.6778  0.2612  0.6327
 3005SOL    HW220478   3.958   0.354   6.927 -0.2970  0.0018 -0.0825
 3006SOL     OW20479   2.643   1.743   3.491 -0.1156  0.3198 -0.0547
 3006SOL    HW120480   2.667   1.824   3.446  1.7243  0.7918  1.7974
 3006SOL    HW220481   2.662   1.763   3.583 -0.5123  0.8004 -0.0751
 3007SOL     OW20482   1.143   0.235   0.286  0.1310 -0.7694 -0.3133
 3007SOL    HW120483   1.158   0.201   0.198 -2.3256 -3.6746  0.4019
 3007SOL    HW220484   1.053   0.268   0.285  0.4625  0.1954  0.5544
 3008SOL     OW20485   0.911   0.697   4.347 -0.2284  0.2207 -1.1325
 3008SOL    HW120486   0.865   0.657   4.273  0.4412  0.3454 -1.6121
 3008SOL    HW220487   0.844   0.678   4.413  0.2064  0.4619 -0.6156
 3009SOL     OW20488   0.058   4.225   2.588  0.9044 -0.1122 -0.2747
 3009SOL    HW120489   4.714   4.194   2.648  0.3317 -0.0125 -0.8713
 3009SOL    HW220490   0.134   4.228   2.646  2.5419 -0.7372 -2.3797
 3010SOL     OW20491   3.896   2.031   9.836 -0.4455 -0.3721  0.2371
 3010SOL    HW120492   3.843   2.080   9.899 -1.5304 -2.1899  0.7464
 3010SOL    HW220493   3.842   1.952   9.829 -1.2878  0.2617 -0.3409
 3011SOL     OW20494   3.567   3.362   4.725  0.6400 -0.0714 -0.1420
 3011SOL    HW120495   3.658   3.381   4.703  0.6174 -0.4536 -0.5660
 3011SOL    HW220496   3.547   3.430   4.789  2.3583 -0.8300  1.2017
 3012SOL     OW20497   3.522   1.129  11.404  0.4178  0.2006 -0.2912
 3012SOL    HW120498   3.469   1.133  11.484 -0.1279 -0.2624 -0.6281
 3012SOL    HW220499   3.525   1.034  11.396 -1.0406  0.1789 -0.6194
 3013SOL     OW20500   1.429   4.078   3.015  0.3267 -0.8763  0.2561
 3013SOL    HW120501   1.494   4.020   2.974 -0.1671 -0.0506 -1.6668
 3013SOL    HW220502   1.351   4.062   2.962  0.3595  0.7552 -0.2576
 3014SOL     OW20503   4.100   4.472  10.351 -0.8760  0.2495  0.5375
 3014SOL    HW120504   4.137   4.392  10.390  0.3285 -1.5015 -4.2073
 3014SOL    HW220505   4.060   4.429  10.276 -2.3238  1.6051  0.5317
 3015SOL     OW20506   4.149   0.921   9.055 -0.7954  0.0761  0.3474
 3015SOL    HW120507   4.115   0.930   9.144 -1.4457  1.5654 -0.0496
 3015SOL    HW220508   4.069   0.942   9.007 -0.3609  1.0691  0.0493
 3016SOL     OW20509   0.801   1.506  16.082 -1.0162 -0.8937  0.4832
 3016SOL    HW120510   0.845   1.508  16.166 -1.2162 -2.2251  0.6251
 3016SOL    HW220511   0.837   1.582  16.037 -1.8228 -0.3202  0.7953
 3017SOL     OW20512   3.507   2.823   2.930  0.1182 -0.6577 -0.0050
 3017SOL    HW120513   3.559   2.786   2.859 -0.1881 -1.7839  0.3533
 3017SOL    HW220514   3.575   2.870   2.979 -1.8499  2.2766 -0.1195
 3018SOL     OW20515   2.010   1.778   7.346  0.1052 -0.2146  0.8451
 3018SOL    HW120516   1.973   1.856   7.304  0.5975 -0.0021  0.8141
 3018SOL    HW220517   1.936   1.721   7.364  1.3561 -2.1218 -0.1432
 3019SOL     OW20518   3.416   4.240   5.024 -0.4341  0.2272 -0.3803
 3019SOL    HW120519   3.432   4.257   4.932 -2.0519  3.0601 -0.1485
 3019SOL    HW220520   3.506   4.223   5.050 -0.8342 -2.4529 -0.6918
 3020SOL     OW20521   1.997   0.421  17.691 -0.4916 -0.2598  0.8229
 3020SOL    HW120522   1.930   0.353   0.001 -1.5913  0.7120 -0.2926
 3020SOL    HW220523   1.956   0.464  17.616 -1.4838  0.0756  1.5551
 3021SOL     OW20524   0.733   4.149   2.835  0.1267  0.2513  0.0465
 3021SOL    HW120525   0.771   4.091   2.769 -1.0196  0.7637 -1.0534
 3021SOL    HW220526   0.686   4.094   2.898  0.4608 -2.6574 -2.2174
 3022SOL     OW20527   1.920   3.863  17.696 -0.0313  0.4346 -0.1634
 3022SOL    HW120528   1.862   3.933   0.031  1.3132  1.0456  0.9553
 3022SOL    HW220529   1.875   3.841  17.614  0.2244 -0.9331  0.0562
 3023SOL     OW20530   4.401   2.079   3.550 -0.2956 -0.0334  1.0573
 3023SOL    HW120531   4.309   2.104   3.539  0.6231  1.2065 -3.6343
 3023SOL    HW220532   4.429   2.096   3.461  0.3684  0.9213  1.4466
 3024SOL     OW20533   3.998   4.175   8.741  0.3681 -0.3622  0.5890
 3024SOL    HW120534   3.991   4.247   8.804 -2.0727 -0.7270  0.7267
 3024SOL    HW220535   4.037   4.224   8.668  2.0294  0.7348  2.1765
 3025SOL     OW20536   0.920   1.691   7.212 -0.4214 -0.2599 -0.6520
 3025SOL    HW120537   0.963   1.773   7.236  0.1981 -0.5194 -0.8484
 3025SOL    HW220538   0.861   1.685   7.287 -1.0305 -0.9967 -1.1882
 3026SOL     OW20539   4.325   4.151  17.508 -0.5034  0.3608  0.3072
 3026SOL    HW120540   4.329   4.154  17.413 -1.6668 -0.7337  0.2182
 3026SOL    HW220541   4.418   4.141  17.528 -0.4457 -0.7761 -0.5414
 3027SOL     OW20542   2.556   2.642   5.139  0.3882  0.3976 -0.2094
 3027SOL    HW120543   2.603   2.722   5.115  0.9082  0.1889  0.1218
 3027SOL    HW220544   2.624   2.588   5.180 -1.0574  0.3452  2.1476
 3028SOL     OW20545   3.602   3.360   4.358  0.1533  0.1247  0.4583
 3028SOL    HW120546   3.685   3.351   4.405  0.2864 -0.8170  0.0441
 3028SOL    HW220547   3.548   3.298   4.407  2.1670 -1.2713  0.9143
 3029SOL     OW20548   1.211   4.305   0.848 -0.3543  0.0290  0.4906
 3029SOL    HW120549   1.212   4.230   0.789 -1.1517  0.5035 -0.1423
 3029SOL    HW220550   1.175   4.373   0.791  1.8206 -0.2893 -1.2365
 3030SOL     OW20551   4.206   4.711   9.441 -0.0340 -0.1927 -0.3662
 3030SOL    HW120552   4.121   4.687   9.479  0.1127 -0.1914 -0.0371
 3030SOL    HW220553   4.210   0.082   9.434 -0.2054  0.0132  2.3914
 3031SOL     OW20554   1.799   0.610   6.075 -0.2802  0.1091  0.2935
 3031SOL    HW120555   1.888   0.644   6.059 -0.1200 -0.9244 -1.0352
 3031SOL    HW220556   1.755   0.631   5.993 -2.2459  0.5161  1.4595
 3032SOL     OW20557   2.716   1.484   7.199 -0.0370 -0.0992  0.2764
 3032SOL    HW120558   2.701   1.479   7.294 -1.8309 -0.7820 -0.0322
 3032SOL    HW220559   2.744   1.396   7.173 -1.2106 -0.9087  1.7024
 3033SOL     OW20560   3.210   3.250   9.017 -0.1755  0.1263  0.2376
 3033SOL    HW120561   3.152   3.177   9.041  0.8664 -0.6901  0.2851
 3033SOL    HW220562   3.183   3.261   8.926  1.7575  0.5314 -0.2873
 3034SOL     OW20563   0.042   4.109   9.360  0.1000  0.3355 -0.4838
 3034SOL    HW120564   0.025   4.119   9.454 -1.7265  1.5592 -0.9374
 3034SOL    HW220565   4.688   4.061   9.331 -0.9876  0.7392  1.7444
 3035SOL     OW20566   0.936   1.266  13.106  0.7581 -0.4135  0.6013
 3035SOL    HW120567   0.922   1.181  13.147  1.2186 -0.2020  1.2012
 3035SOL    HW220568   0.910   1.322  13.179  0.9872 -0.9291  1.0762
 3036SOL     OW20569   0.259   1.769   7.531 -0.4533  0.9445  0.1615
 3036SOL    HW120570   0.181   1.824   7.525  0.6504  2.5476  0.5293
 3036SOL    HW220571   0.292   1.800   7.616  1.6844 -2.3536  0.5727
 3037SOL     OW20572   3.197   0.764  11.008 -0.5346 -0.5739  0.0076
 3037SOL    HW120573   3.150   0.713  11.074  0.2173 -0.3266  0.7193
 3037SOL    HW220574   3.125   0.809  10.963  1.4841  2.6522  0.0393
 3038SOL     OW20575   0.407   4.297   7.427 -0.0558  0.2111 -0.1827
 3038SOL    HW120576   0.459   4.230   7.381  2.8042  1.8958  0.5574
 3038SOL    HW220577   0.321   4.279   7.389  0.5587  2.2304 -2.5093
 3039SOL     OW20578   2.219   1.175   2.923 -0.1222 -0.7591 -0.3721
 3039SOL    HW120579   2.171   1.255   2.945  0.2730 -0.4592 -0.6157
 3039SOL    HW220580   2.270   1.177   3.004 -2.2043  1.0852  0.9171
 3040SOL     OW20581   2.637   1.767  15.367 -0.0789 -0.5306 -1.0857
 3040SOL    HW120582   2.585   1.690  15.387  1.2002 -0.2371  3.4081
 3040SOL    HW220583   2.655   1.748  15.275  1.2808  1.1977 -1.1929
 3041SOL     OW20584   4.704   2.178   6.936  0.1280 -0.0676  0.0364
 3041SOL    HW120585   4.610   2.167   6.923  0.1372 -1.9134  1.5820
 3041SOL    HW220586   4.721   2.086   6.956  0.8555 -0.2483 -1.4217
 3042SOL     OW20587   0.499   1.474   8.827 -0.0136  0.2415  0.7127
 3042SOL    HW120588   0.452   1.487   8.910 -2.0126  2.5978 -0.8030
 3042SOL    HW220589   0.552   1.554   8.827 -0.5986  0.6311  1.2101
 3043SOL     OW20590   3.775   3.822  10.126  0.3296 -0.1425 -0.0621
 3043SOL    HW120591   3.839   3.894  10.131  0.1566  0.1138 -1.4375
 3043SOL    HW220592   3.757   3.826  10.032 -0.5212  1.3345  0.1643
 3044SOL     OW20593   0.596   0.667   9.826  0.1225  0.0035  0.0761
 3044SOL    HW120594   0.660   0.676   9.897  0.4821 -0.5689 -0.1802
 3044SOL    HW220595   0.553   0.751   9.814  0.5260  0.0110 -1.2772
 3045SOL     OW20596   0.536   3.919   0.661 -0.1321  0.2618 -0.1023
 3045SOL    HW120597   0.605   3.985   0.663 -0.6467  0.8539 -2.0016
 3045SOL    HW220598   0.560   3.889   0.749 -2.1212  1.5689  0.8845
 3046SOL     OW20599   0.951   4.161   1.141  0.6290  0.0020 -0.7229
 3046SOL    HW120600   0.916   4.224   1.078  2.1974  0.3737 -1.2197
 3046SOL    HW220601   0.936   4.203   1.225  0.5097 -0.5894 -0.4473
 3047SOL     OW20602   0.264   0.595   1.548  0.0165 -0.7949 -0.3020
 3047SOL    HW120603   0.259   0.563   1.638  0.4254  1.2313  0.4218
 3047SOL    HW220604   0.276   0.689   1.557  1.2538 -0.7491 -2.3552
 3048SOL     OW20605   4.679   1.278   5.931  0.1757 -0.1727  0.2025
 3048SOL    HW120606   0.037   1.281   5.980  0.2094 -0.7058  0.1706
 3048SOL    HW220607   4.668   1.370   5.904  1.9701  0.0541  0.2687
 3049SOL     OW20608   3.160   2.246   3.491  0.3258 -0.1159 -0.0026
 3049SOL    HW120609   3.135   2.331   3.455 -0.4182 -1.1544 -1.9625
 3049SOL    HW220610   3.198   2.265   3.576 -2.5053  0.6178  1.1114
 3050SOL     OW20611   3.749   1.275   5.072 -0.5574 -0.1774  0.1865
 3050SOL    HW120612   3.813   1.207   5.091 -0.1562  0.6281  1.7215
 3050SOL    HW220613   3.766   1.335   5.145  1.1465 -0.3692 -0.0721
 3051SOL     OW20614   4.036   3.587  11.392  1.2083  0.2498 -0.1984
 3051SOL    HW120615   3.944   3.612  11.403  1.0485 -0.1899 -0.5187
 3051SOL    HW220616   4.044   3.492  11.402 -3.0425 -0.2850 -1.7033
 3052SOL     OW20617   3.767   1.784   4.295  0.0759 -0.0224  0.3487
 3052SOL    HW120618   3.708   1.736   4.353  0.1553  1.1417  1.3947
 3052SOL    HW220619   3.850   1.777   4.341  0.6425  1.9314 -0.3508
 3053SOL     OW20620   2.994   0.862  13.374  0.6162 -0.1882  0.0857
 3053SOL    HW120621   2.929   0.932  13.366 -0.4571 -1.3672 -1.5229
 3053SOL    HW220622   2.929   0.793  13.391  4.9731 -4.2352  0.2373
 3054SOL     OW20623   1.357   4.213   1.902  0.4047  0.1887 -0.1152
 3054SOL    HW120624   1.336   4.125   1.934  3.5456 -0.5402 -0.0498
 3054SOL    HW220625   1.307   4.204   1.822  0.6562  0.3469 -0.2890
 3055SOL     OW20626   4.200   1.489  16.898  0.3077 -0.4010 -0.1047
 3055SOL    HW120627   4.164   1.501  16.810  2.8461  0.6232 -1.0067
 3055SOL    HW220628   4.129   1.530  16.948  0.2144  1.4522 -1.7624
 3056SOL     OW20629   0.250   2.366  17.285  0.1881 -0.0793  0.2718
 3056SOL    HW120630   0.181   2.412  17.237  0.2952  0.2727  0.4571
 3056SOL    HW220631   0.305   2.437  17.318 -0.2069  0.4418 -0.1845
 3057SOL     OW20632   3.747   1.179   9.370 -0.4642 -0.4608  0.1083
 3057SOL    HW120633   3.693   1.257   9.376 -0.3331 -0.3881  0.3520
 3057SOL    HW220634   3.834   1.217   9.385 -0.2767 -0.8690  0.0750
 3058SOL     OW20635   0.773   2.568   3.773 -0.4934 -0.1350  0.3788
 3058SOL    HW120636   0.764   2.663   3.784  1.1725  0.1099 -0.3775
 3058SOL    HW220637   0.848   2.542   3.826 -1.4362 -1.9414  0.8247
 3059SOL     OW20638   1.567   0.653   5.619 -0.0300 -0.3100 -0.0101
 3059SOL    HW120639   1.542   0.714   5.550 -1.2750 -0.9537 -0.1282
 3059SOL    HW220640   1.588   0.572   5.574  0.3285  0.0456 -0.4756
 3060SOL     OW20641   0.479   0.487   6.770  0.3205  0.1677 -0.5580
 3060SOL    HW120642   0.471   0.541   6.691 -2.3166 -1.8446 -1.6416
 3060SOL    HW220643   0.436   0.405   6.747  1.5016 -1.0583  1.5776
 3061SOL     OW20644   3.831   3.286  11.899 -0.0471 -0.6970  0.3510
 3061SOL    HW120645   3.890   3.315  11.968  0.4483 -0.2099 -0.2836
 3061SOL    HW220646   3.882   3.294  11.818  1.5128 -3.1804  1.1220
 3062SOL     OW20647   0.718   0.354   6.848 -0.0640 -0.2067  0.5403
 3062SOL    HW120648   0.696   0.267   6.881 -1.4584 -0.5428 -1.2476
 3062SOL    HW220649   0.635   0.395   6.823 -0.8948 -0.9766  1.9979
 3063SOL     OW20650   3.576   3.104  11.610 -0.5126 -0.2337  0.5435
 3063SOL    HW120651   3.517   3.096  11.685  0.7570  0.0789  1.5673
 3063SOL    HW220652   3.616   3.017  11.617 -0.1375 -0.2410 -1.5010
 3064SOL     OW20653   1.577   4.572   6.069  0.1587 -0.2776 -0.5489
 3064SOL    HW120654   1.575   4.496   6.010  1.6521 -0.3568 -0.5003
 3064SOL    HW220655   1.516   4.634   6.028 -0.4366 -1.7524 -1.8982
 3065SOL     OW20656   3.127   1.806   3.471  0.2911  0.2258  0.2147
 3065SOL    HW120657   3.218   1.776   3.469  0.1393 -0.2426  0.2203
 3065SOL    HW220658   3.124   1.894   3.435 -0.3544  1.1829  2.6583
 3066SOL     OW20659   2.381   1.766  16.213 -0.3791  0.3895 -0.2452
 3066SOL    HW120660   2.344   1.801  16.132 -1.6912  0.8005  0.5298
 3066SOL    HW220661   2.355   1.845  16.261 -0.3298  0.6731 -0.6863
 3067SOL     OW20662   1.250   1.905   6.828 -0.5725 -0.2648 -0.0942
 3067SOL    HW120663   1.179   1.873   6.884 -0.4452  3.5077  2.2436
 3067SOL    HW220664   1.330   1.866   6.862 -0.1615 -0.2153 -0.9859
 3068SOL     OW20665   4.481   1.957   2.384 -0.4022  0.4306 -0.0908
 3068SOL    HW120666   4.556   2.018   2.381  0.1444 -0.3442 -1.8512
 3068SOL    HW220667   4.519   1.877   2.347 -0.5556 -0.9996  2.8159
 3069SOL     OW20668   1.355   1.487   4.030 -0.5626  0.0928 -0.2981
 3069SOL    HW120669   1.332   1.572   4.068  1.1289  0.7074 -0.6234
 3069SOL    HW220670   1.449   1.505   4.020 -0.1464 -1.7639  0.3016
 3070SOL     OW20671   3.886   2.880  16.055 -0.6055 -0.1059  0.1481
 3070SOL    HW120672   3.930   2.946  16.002 -2.6310  0.1890 -1.1731
 3070SOL    HW220673   3.947   2.809  16.073 -0.3584 -0.2518 -1.2872
 3071SOL     OW20674   2.876   0.649   3.154 -0.8639  0.2642 -0.3364
 3071SOL    HW120675   2.809   0.712   3.179  0.3888  0.8659  1.5271
 3071SOL    HW220676   2.873   0.658   3.059 -2.3478  0.1378 -0.2935
 3072SOL     OW20677   0.568   0.343   6.418 -0.1631  0.2055  0.4675
 3072SOL    HW120678   0.539   0.428   6.451  0.2952  1.5121 -2.4919
 3072SOL    HW220679   0.638   0.317   6.477 -0.8658 -0.7009  0.8947
 3073SOL     OW20680   2.248   0.846  14.232  0.4781  0.2495 -0.2500
 3073SOL    HW120681   2.274   0.767  14.280  2.7271 -0.0323 -1.9099
 3073SOL    HW220682   2.160   0.854  14.269  0.6069  1.0725 -0.1105
 3074SOL     OW20683   4.600   4.358   0.644 -0.7117  0.1032 -0.0500
 3074SOL    HW120684   4.672   4.312   0.687 -0.2990  0.2104 -0.6291
 3074SOL    HW220685   4.533   4.293   0.667 -0.4730 -0.1845 -0.1673
 3075SOL     OW20686   2.473   2.947  10.249  0.2014  0.3503  0.3561
 3075SOL    HW120687   2.410   2.963  10.178 -0.9985  0.3587  1.4123
 3075SOL    HW220688   2.461   3.022  10.307 -1.7570 -0.8865  1.5555
 3076SOL     OW20689   2.778   4.437  11.223  0.0948 -0.3047 -0.0693
 3076SOL    HW120690   2.870   4.464  11.230 -0.6589  2.8160 -2.2038
 3076SOL    HW220691   2.781   4.411  11.131 -1.9438 -0.3094 -0.1304
 3077SOL     OW20692   1.028   0.256   7.347 -0.2090  0.0604  0.0551
 3077SOL    HW120693   1.033   0.227   7.256 -1.4019  0.0408 -0.0087
 3077SOL    HW220694   0.933   0.263   7.357 -0.4606 -0.4108 -2.1201
 3078SOL     OW20695   3.598   0.873   2.206 -0.2106  0.2442 -0.5982
 3078SOL    HW120696   3.660   0.919   2.148  0.7113 -0.2653  0.0012
 3078SOL    HW220697   3.532   0.943   2.203 -2.5913 -1.9363  1.2958
 3079SOL     OW20698   4.507   2.052   7.428  0.0175  0.8200 -0.1471
 3079SOL    HW120699   4.440   2.001   7.381  0.3248 -1.1103  1.5016
 3079SOL    HW220700   4.571   1.981   7.427  1.7634  2.4192 -1.8939
 3080SOL     OW20701   0.728   4.653  17.546 -0.1478 -0.0085  0.2304
 3080SOL    HW120702   0.685   4.576  17.509 -0.4555 -1.1586  3.0141
 3080SOL    HW220703   0.718   4.723  17.481  2.3128  0.9265  0.8710
 3081SOL     OW20704   2.691   2.624   7.496 -0.2126 -0.5087  0.0894
 3081SOL    HW120705   2.767   2.682   7.502 -0.1992 -0.2312 -2.7402
 3081SOL    HW220706   2.707   2.576   7.577 -1.9336 -2.1502 -0.5481
 3082SOL     OW20707   0.974   3.511   8.603  0.1296 -0.0590  0.1228
 3082SOL    HW120708   0.906   3.577   8.588  0.2865 -0.0564 -0.5419
 3082SOL    HW220709   0.923   3.432   8.621  3.2126 -1.9010  0.8772
 3083SOL     OW20710   2.768   1.428   8.131 -0.1325 -0.2828 -0.1084
 3083SOL    HW120711   2.767   1.335   8.154 -1.0635 -0.7991 -2.1806
 3083SOL    HW220712   2.778   1.428   8.035 -0.0912  0.7536 -0.1085
 3084SOL     OW20713   0.749   1.406   8.010  0.0321 -0.3527 -0.2978
 3084SOL    HW120714   0.792   1.322   8.028  3.7086  1.8684  1.3546
 3084SOL    HW220715   0.662   1.388   8.046  1.0913 -3.0939  0.9276
 3085SOL     OW20716   0.840   1.785   8.939 -0.0602  0.7901  0.2174
 3085SOL    HW120717   0.756   1.754   8.905  0.0674 -1.3262  1.8175
 3085SOL    HW220718   0.818   1.875   8.963  0.5068  0.9770  0.0473
 3086SOL     OW20719   0.392   3.367  17.317 -0.6429 -0.1080 -0.0464
 3086SOL    HW120720   0.448   3.304  17.362 -0.0350  0.3807 -0.1275
 3086SOL    HW220721   0.453   3.390  17.247  1.2721 -0.0916  1.6492
 3087SOL     OW20722   0.737   3.452   2.292 -0.6540 -0.0628  0.3512
 3087SOL    HW120723   0.687   3.385   2.339 -0.0220 -1.3294 -0.7951
 3087SOL    HW220724   0.698   3.435   2.207  0.5208 -0.2304 -0.1455
 3088SOL     OW20725   0.397   0.392   2.044  0.2031  0.6531  0.2614
 3088SOL    HW120726   0.319   0.341   2.065 -1.9838  3.6324 -0.4545
 3088SOL    HW220727   0.420   0.418   2.133 -1.5002  1.5516  0.4350
 3089SOL     OW20728   2.955   1.523  12.430  0.4574  0.1746 -0.1184
 3089SOL    HW120729   3.007   1.566  12.498 -0.5191 -0.6804  1.1656
 3089SOL    HW220730   2.869   1.551  12.461  0.9585  1.0473  0.4937
 3090SOL     OW20731   0.832   4.322   8.476  0.1653  0.2624 -0.1137
 3090SOL    HW120732   0.848   4.409   8.514 -0.9284  0.0286  0.8795
 3090SOL    HW220733   0.916   4.280   8.495 -0.9389 -1.8732  0.1182
 3091SOL     OW20734   4.104   3.586   2.066 -0.8884 -0.6399 -0.4760
 3091SOL    HW120735   4.027   3.549   2.022 -1.4424 -0.6133  0.4579
 3091SOL    HW220736   4.148   3.511   2.105 -0.3211  0.0654  0.2505
 3092SOL     OW20737   1.813   1.768   3.827 -0.3801 -0.3787  0.2529
 3092SOL    HW120738   1.902   1.794   3.803 -0.5496 -1.6823 -1.7260
 3092SOL    HW220739   1.824   1.767   3.923 -1.8433  1.8946  0.4502
 3093SOL     OW20740   2.223   2.753   2.768  0.0886 -0.0928  0.3567
 3093SOL    HW120741   2.318   2.751   2.753 -0.2078 -2.3780 -1.2911
 3093SOL    HW220742   2.181   2.760   2.682  0.1228  2.6831  0.5829
 3094SOL     OW20743   2.625   0.322   5.009 -0.4189  0.5541 -0.5259
 3094SOL    HW120744   2.596   0.299   4.920 -1.6289  0.2392 -0.0422
 3094SOL    HW220745   2.670   0.239   5.026 -4.0598 -1.5093 -0.9719
 3095SOL     OW20746   2.178   3.204  13.588 -0.2799  0.3302  0.7275
 3095SOL    HW120747   2.216   3.209  13.675  0.1865  2.2500  0.3974
 3095SOL    HW220748   2.104   3.264  13.592  0.9111  1.4621  4.9763
 3096SOL     OW20749   2.796   4.453   9.216  0.5931  0.3815 -0.0038
 3096SOL    HW120750   2.801   4.362   9.246  2.7280  0.3142 -0.5246
 3096SOL    HW220751   2.881   4.468   9.175  0.0899 -2.9565 -2.2424
 3097SOL     OW20752   1.571   3.629   8.741 -0.4131 -0.4592  0.2586
 3097SOL    HW120753   1.640   3.663   8.798 -1.6344  2.4818 -0.0466
 3097SOL    HW220754   1.592   3.536   8.754 -1.3143 -0.9087 -1.4442
 3098SOL     OW20755   0.339   2.786   7.755 -0.1828 -0.0474 -0.1437
 3098SOL    HW120756   0.390   2.865   7.737 -2.8664  1.8837  0.6918
 3098SOL    HW220757   0.252   2.818   7.732 -0.4983  0.5223  1.7731
 3099SOL     OW20758   2.397   2.488   2.435  0.0773  0.6435 -0.3030
 3099SOL    HW120759   2.355   2.404   2.416 -0.8512  0.8611  0.7482
 3099SOL    HW220760   2.441   2.467   2.518  0.0729  2.9908  0.3052
 3100SOL     OW20761   3.691   0.747   5.198 -0.5397  0.6280  1.1170
 3100SOL    HW120762   3.722   0.757   5.288 -0.5899  1.0841  1.0812
 3100SOL    HW220763   3.653   0.832   5.176  0.3359  1.2644  2.1113
 3101SOL     OW20764   1.775   4.565   4.416  0.6358  0.5083  0.3432
 3101SOL    HW120765   1.811   4.633   4.360  0.3937  2.4370  2.5637
 3101SOL    HW220766   1.758   4.492   4.355  0.2670 -0.2230  1.3157
 3102SOL     OW20767   1.826   3.542  12.905  0.2258  0.4635 -0.2558
 3102SOL    HW120768   1.740   3.519  12.869  0.2251 -1.6045  1.0511
 3102SOL    HW220769   1.803   3.567  12.995 -0.6646  0.8170 -0.5787
 3103SOL     OW20770   2.338   2.409   7.316 -0.2445  0.3898 -0.7340
 3103SOL    HW120771   2.414   2.406   7.257 -0.3245  2.7121 -0.9758
 3103SOL    HW220772   2.383   2.365   7.388  1.0538 -1.2969 -2.5774
 3104SOL     OW20773   2.289   2.640  14.812 -0.2263  0.3037  0.5228
 3104SOL    HW120774   2.269   2.726  14.848 -0.0137  0.1549  1.0021
 3104SOL    HW220775   2.234   2.582  14.864 -1.4045  2.9224  2.1804
 3105SOL     OW20776   2.174   1.026   0.024 -0.3183  0.5292 -0.7086
 3105SOL    HW120777   2.201   0.997   0.111  1.3789 -0.9803 -1.7517
 3105SOL    HW220778   2.143   0.944  17.682  0.5176 -1.0969  2.1392
 3106SOL     OW20779   3.542   3.264   3.061 -0.2016  0.6581  0.6658
 3106SOL    HW120780   3.546   3.235   2.970  1.0167 -0.2574  1.0190
 3106SOL    HW220781   3.524   3.355   3.037  1.6194  0.7190 -0.4561
 3107SOL     OW20782   4.501   3.270  15.707  0.0450 -0.0327  0.1976
 3107SOL    HW120783   4.436   3.298  15.643  0.1373 -1.3250 -0.4653
 3107SOL    HW220784   4.572   3.239  15.651 -0.7307  0.3503 -1.0006
 3108SOL     OW20785   1.435   1.636   0.440  0.1404 -0.0089  0.3121
 3108SOL    HW120786   1.349   1.596   0.452  0.0437  0.3092  0.6886
 3108SOL    HW220787   1.472   1.582   0.370  0.7801  1.8730 -0.7947
 3109SOL     OW20788   0.018   3.889  11.599 -0.2479  0.0625 -0.0382
 3109SOL    HW120789   4.713   3.808  11.641 -0.2891  0.6504  1.0433
 3109SOL    HW220790   4.668   3.907  11.540  0.3470 -1.0710 -1.1409
 3110SOL     OW20791   3.167   3.457  10.082 -0.2363  0.5894  0.1242
 3110SOL    HW120792   3.155   3.363  10.092  0.2738  0.7974  2.7549
 3110SOL    HW220793   3.094   3.471  10.022 -1.1180  1.4841  1.3846
 3111SOL     OW20794   3.392   0.461   2.919 -0.3739  0.2151 -0.1833
 3111SOL    HW120795   3.485   0.468   2.940 -0.2473 -0.6601 -0.4232
 3111SOL    HW220796   3.376   0.541   2.869  0.1155  0.5999  0.2725
 3112SOL     OW20797   4.291   1.746   0.242 -0.4529 -0.9366  0.2535
 3112SOL    HW120798   4.384   1.730   0.255 -0.0778 -0.2858 -1.5294
 3112SOL    HW220799   4.266   1.662   0.204 -2.2138 -0.0149 -0.6312
 3113SOL     OW20800   2.607   3.448   2.806  0.1789 -0.8995  0.1867
 3113SOL    HW120801   2.663   3.479   2.877  0.8363  1.8661 -1.5375
 3113SOL    HW220802   2.527   3.493   2.833  1.2700  0.4352  1.1681
 3114SOL     OW20803   0.673   3.998   3.495  0.1230 -0.5721 -0.0833
 3114SOL    HW120804   0.745   4.061   3.485 -0.9002  0.6347  0.1268
 3114SOL    HW220805   0.679   3.973   3.403  0.4454  2.2939 -0.8457
 3115SOL     OW20806   3.935   3.739   1.410 -0.1492  0.0096  0.4025
 3115SOL    HW120807   3.851   3.774   1.380  0.3061  0.6644 -0.0813
 3115SOL    HW220808   4.000   3.801   1.378 -1.1088  1.2156  0.7787
 3116SOL     OW20809   3.529   0.751  17.181  0.5053 -0.2232  0.3647
 3116SOL    HW120810   3.558   0.797  17.260  0.6632  0.0335  0.1579
 3116SOL    HW220811   3.585   0.673  17.184  0.4344 -0.4241 -3.5979
 3117SOL     OW20812   1.766   0.241   7.199  0.2585  0.1395  0.3573
 3117SOL    HW120813   1.677   0.239   7.235 -0.3246  2.2918 -0.9711
 3117SOL    HW220814   1.754   0.253   7.105 -1.9493  0.3610  0.6691
 3118SOL     OW20815   2.685   0.455  16.106 -0.0491  0.0408  0.3995
 3118SOL    HW120816   2.695   0.550  16.113 -0.4934  0.3398 -3.0523
 3118SOL    HW220817   2.600   0.434  16.146 -0.2662 -0.1147 -0.1522
 3119SOL     OW20818   3.882   3.660  12.172  0.1531  0.1438 -0.0110
 3119SOL    HW120819   3.837   3.610  12.240  1.3959 -0.5648  0.2851
 3119SOL    HW220820   3.967   3.646  12.213 -0.6597 -0.7424  1.3628
 3120SOL     OW20821   2.144   2.357   9.894 -0.2129  0.1297  0.5839
 3120SOL    HW120822   2.133   2.366   9.800 -1.9081 -1.2759  0.6542
 3120SOL    HW220823   2.234   2.324   9.899  0.6954  2.4006 -1.0532
 3121SOL     OW20824   1.478   1.844   2.565 -0.4376  0.1039 -0.1147
 3121SOL    HW120825   1.385   1.829   2.584  0.0940 -0.8987  1.7515
 3121SOL    HW220826   1.504   1.931   2.595  1.7831 -0.8399  0.7052
 3122SOL     OW20827   4.499   0.416   2.523  0.0212 -0.7404 -0.0609
 3122SOL    HW120828   4.429   0.460   2.572 -0.1177  0.3888 -1.2587
 3122SOL    HW220829   4.450   0.352   2.470 -0.9715 -0.3821  0.4131
 3123SOL     OW20830   2.130   0.272   5.182 -0.0591  0.2746  0.2555
 3123SOL    HW120831   2.216   0.255   5.221  0.7332  2.0420 -0.7275
 3123SOL    HW220832   2.141   0.358   5.142 -0.4818 -0.2599 -1.0261
 3124SOL     OW20833   3.102   0.837   6.460  0.4261  0.0750  0.0973
 3124SOL    HW120834   3.062   0.849   6.546  0.5896 -0.2840  0.2197
 3124SOL    HW220835   3.194   0.841   6.485  1.5047 -1.9533 -3.5186
 3125SOL     OW20836   3.067   0.551  14.135 -0.5315 -0.0179 -0.1166
 3125SOL    HW120837   3.022   0.636  14.137 -0.4532 -0.0437  1.9547
 3125SOL    HW220838   3.039   0.504  14.213  0.2740  0.8987  0.7360
 3126SOL     OW20839   2.238   1.561   7.088 -0.8156 -0.0795 -0.1044
 3126SOL    HW120840   2.244   1.505   7.010  0.1087 -0.0412 -0.0682
 3126SOL    HW220841   2.187   1.506   7.147  0.3769 -0.5901  0.4503
 3127SOL     OW20842   1.696   2.770   1.634 -0.1847  0.0597  0.5311
 3127SOL    HW120843   1.755   2.839   1.666  2.2910  0.3893 -4.6078
 3127SOL    HW220844   1.610   2.804   1.659 -0.3791 -0.9798  1.2563
 3128SOL     OW20845   1.847   0.742   6.978  0.1447  0.2968  0.2083
 3128SOL    HW120846   1.913   0.784   6.923  0.7958 -0.7423  0.1898
 3128SOL    HW220847   1.802   0.684   6.917 -0.2769 -1.8101  2.5433
 3129SOL     OW20848   3.566   4.134   3.423 -0.4080  0.0223 -0.4962
 3129SOL    HW120849   3.584   4.045   3.392  1.1898 -0.5357  2.0326
 3129SOL    HW220850   3.655   4.167   3.406 -0.8520  1.0940 -0.7271
 3130SOL     OW20851   0.867   3.662   7.191  0.2810  0.3468 -1.0938
 3130SOL    HW120852   0.782   3.625   7.167 -0.2051  0.6245  0.1494
 3130SOL    HW220853   0.872   3.642   7.285  0.7370 -1.9181 -1.6108
 3131SOL     OW20854   4.566   4.419   9.280 -0.2573 -0.7730 -0.1754
 3131SOL    HW120855   4.562   4.514   9.267 -1.5922 -1.3746 -4.0478
 3131SOL    HW220856   4.544   4.418   9.373  1.0905  0.6887  0.1666
 3132SOL     OW20857   2.521   0.173  11.714  0.3934 -0.0645  0.1208
 3132SOL    HW120858   2.590   0.118  11.750  0.0017  0.2021  1.2542
 3132SOL    HW220859   2.533   0.137  11.626 -0.7047  1.0487 -0.4772
 3133SOL     OW20860   1.486   1.952   2.884 -0.3994 -0.3335 -0.5333
 3133SOL    HW120861   1.482   2.038   2.842 -0.1401  0.0948  0.3072
 3133SOL    HW220862   1.397   1.918   2.869 -1.0969  1.3828 -0.2777
 3134SOL     OW20863   3.009   4.536  17.383  0.0308  0.1593  0.7130
 3134SOL    HW120864   3.096   4.521  17.345 -0.8043 -0.0221 -1.1184
 3134SOL    HW220865   2.980   4.620  17.347  0.6069 -0.5657 -1.3941
 3135SOL     OW20866   1.183   1.065  15.223  0.3920  0.1667  0.3223
 3135SOL    HW120867   1.125   0.989  15.216 -0.0751  0.3917  1.7751
 3135SOL    HW220868   1.267   1.023  15.206 -0.7523 -1.1908 -2.0955
 3136SOL     OW20869   2.565   0.747  13.780  0.3433  0.3464 -0.1348
 3136SOL    HW120870   2.504   0.818  13.758  0.3429  0.7838  1.2735
 3136SOL    HW220871   2.649   0.786  13.757  0.0091  1.3758  0.3828
 3137SOL     OW20872   0.457   3.718   2.170 -0.5876  0.1483  0.0786
 3137SOL    HW120873   0.510   3.750   2.098  1.4752 -0.3973  1.3305
 3137SOL    HW220874   0.448   3.793   2.228  2.8353  0.9791 -0.4579
 3138SOL     OW20875   0.358   1.632   5.054  0.1272  0.7009  0.4968
 3138SOL    HW120876   0.318   1.674   5.129 -1.3969 -0.4257  0.3307
 3138SOL    HW220877   0.427   1.695   5.033  0.7997  0.0000  0.5973
 3139SOL     OW20878   0.433   3.353   8.421  0.6395  0.2599  0.3141
 3139SOL    HW120879   0.444   3.341   8.327  0.3448  0.5408  0.2460
 3139SOL    HW220880   0.427   3.263   8.454 -2.7297  0.5379  0.4703
 3140SOL     OW20881   1.600   2.113  11.313 -0.0187  0.1147  0.1835
 3140SOL    HW120882   1.666   2.174  11.347  0.3801  0.1078 -0.5676
 3140SOL    HW220883   1.645   2.093  11.231 -2.3260 -1.9647 -0.5459
 3141SOL     OW20884   1.620   3.063  14.197  0.7181 -0.3420  0.8027
 3141SOL    HW120885   1.590   3.025  14.279 -1.2594 -0.4394  0.0387
 3141SOL    HW220886   1.609   3.157  14.212 -1.4471 -0.3020 -0.9190
 3142SOL     OW20887   0.332   2.301  14.948 -0.1746 -0.2519  0.7385
 3142SOL    HW120888   0.271   2.274  15.016 -0.8144  2.1867  1.1263
 3142SOL    HW220889   0.400   2.235  14.967  1.0380  0.8070  0.1052
 3143SOL     OW20890   3.879   3.662   9.841  0.0231 -0.0358  0.5301
 3143SOL    HW120891   3.808   3.726   9.848 -0.8835 -0.9958  0.0278
 3143SOL    HW220892   3.908   3.687   9.753  0.0996 -0.9728  0.2897
 3144SOL     OW20893   1.212   2.589  14.473  0.3250  0.3876  0.9381
 3144SOL    HW120894   1.118   2.605  14.468  0.0766 -1.7995 -1.5665
 3144SOL    HW220895   1.237   2.662  14.529 -0.1432  0.6639  0.7875
 3145SOL     OW20896   2.239   1.706  14.827  0.3958 -0.5271  0.5290
 3145SOL    HW120897   2.190   1.671  14.901 -0.2242  0.3125  0.5187
 3145SOL    HW220898   2.315   1.735  14.877  0.2848 -0.3203  0.5769
 3146SOL     OW20899   1.590   3.062  10.638 -0.3250 -0.2862 -0.5623
 3146SOL    HW120900   1.664   3.090  10.693 -1.1153  0.6723  0.0126
 3146SOL    HW220901   1.621   3.096  10.554 -0.1540 -1.5594 -1.0259
 3147SOL     OW20902   4.545   1.809  14.999  0.7815  0.7033  1.0073
 3147SOL    HW120903   4.491   1.784  15.073  0.2012 -0.9347  0.0288
 3147SOL    HW220904   4.562   1.726  14.955 -1.0614  0.9700 -0.1987
 3148SOL     OW20905   1.982   0.317   6.847  0.2311  0.1154 -0.6763
 3148SOL    HW120906   1.900   0.329   6.896  1.8650  1.7185  1.6941
 3148SOL    HW220907   2.011   0.241   6.899  2.0454  1.0829 -0.2908
 3149SOL     OW20908   1.025   1.326  16.289 -0.1269 -0.1767  0.1957
 3149SOL    HW120909   1.016   1.421  16.277  1.2087 -0.3202 -1.8844
 3149SOL    HW220910   0.967   1.277  16.232  0.6076 -1.3343  0.4348
 3150SOL     OW20911   1.734   1.102   9.109 -0.1412  0.0055 -0.2057
 3150SOL    HW120912   1.825   1.077   9.094 -0.6590 -1.2890 -1.2280
 3150SOL    HW220913   1.741   1.096   9.204 -1.1532  1.3114 -0.0436
 3151SOL     OW20914   3.201   0.540   8.585  0.8480 -0.1020 -0.3513
 3151SOL    HW120915   3.219   0.449   8.564 -0.0038 -0.8478  2.1928
 3151SOL    HW220916   3.283   0.565   8.627  1.1551 -0.8599 -0.4971
 3152SOL     OW20917   3.067   3.973   9.613  0.2751  0.4328  0.2740
 3152SOL    HW120918   2.979   3.940   9.592 -1.0805  2.2929  3.0447
 3152SOL    HW220919   3.067   3.954   9.707 -2.5114  0.9664  0.4075
 3153SOL     OW20920   1.501   3.730   8.207 -0.0399  0.1488 -0.1262
 3153SOL    HW120921   1.476   3.742   8.115  2.6557 -3.1164 -1.3019
 3153SOL    HW220922   1.459   3.647   8.228 -0.6696  0.2424 -1.0605
 3154SOL     OW20923   3.298   0.248   3.350  0.6726 -0.0824 -0.2010
 3154SOL    HW120924   3.242   0.179   3.314  2.0895 -1.1789 -0.3100
 3154SOL    HW220925   3.339   0.283   3.271  1.7958 -2.2749 -0.6009
 3155SOL     OW20926   3.946   0.359   0.337  0.2398  0.1239 -0.0325
 3155SOL    HW120927   3.929   0.437   0.389  0.1403 -1.0311  1.6626
 3155SOL    HW220928   3.998   0.402   0.270 -1.1535  2.6758  0.5415
 3156SOL     OW20929   2.684   1.701   9.174  0.4616  0.2399  0.0544
 3156SOL    HW120930   2.642   1.694   9.259 -0.8194  1.2008 -0.5059
 3156SOL    HW220931   2.629   1.770   9.136  0.5021  0.6613  0.7706
 3157SOL     OW20932   0.693   2.598   6.226  0.5621 -0.7122 -0.4446
 3157SOL    HW120933   0.771   2.618   6.175  2.1038 -0.5713  1.9518
 3157SOL    HW220934   0.670   2.514   6.187 -1.2554  0.4946 -1.9478
 3158SOL     OW20935   2.969   2.410   5.657  0.0140 -0.2545 -0.4453
 3158SOL    HW120936   3.061   2.391   5.641  0.4691  2.2999 -0.9550
 3158SOL    HW220937   2.954   2.475   5.587 -0.5635  0.0905 -0.0046
 3159SOL     OW20938   3.949   4.169   4.990 -0.5271 -0.2693 -0.2192
 3159SOL    HW120939   3.993   4.168   4.905 -0.8050  2.1375 -0.3840
 3159SOL    HW220940   4.021   4.178   5.051 -1.3459  1.5864  0.4760
 3160SOL     OW20941   4.613   3.506   5.276  0.5214  0.0881 -0.3211
 3160SOL    HW120942   4.615   3.526   5.370 -1.8466 -0.3433 -0.1700
 3160SOL    HW220943   4.642   3.416   5.261  0.0322 -0.2943  0.9532
 3161SOL     OW20944   3.366   2.264   0.341 -0.2576  0.6631  0.1857
 3161SOL    HW120945   3.429   2.332   0.318 -0.3675  0.9051  0.6021
 3161SOL    HW220946   3.317   2.310   0.409  0.4936  0.3155  0.9611
 3162SOL     OW20947   4.437   2.522   6.309 -0.0969  0.2265  0.2621
 3162SOL    HW120948   4.417   2.439   6.264  0.1209 -0.3212  1.1725
 3162SOL    HW220949   4.498   2.481   6.371 -1.1584 -1.1760  0.3881
 3163SOL     OW20950   0.191   1.236   6.049 -0.2238  0.1823  0.2842
 3163SOL    HW120951   0.280   1.263   6.030 -0.2869 -0.2973 -0.6818
 3163SOL    HW220952   0.179   1.168   5.983  3.5866 -0.4794  0.2884
 3164SOL     OW20953   0.957   2.304  15.367  0.1753  0.2939 -0.2187
 3164SOL    HW120954   0.942   2.212  15.348  0.5209  0.0128  0.8326
 3164SOL    HW220955   0.886   2.340  15.314 -0.1990 -0.6735 -0.3654
 3165SOL     OW20956   0.826   3.569   4.477  0.3871 -0.2855  0.4389
 3165SOL    HW120957   0.894   3.596   4.538  0.6115  0.5941 -0.2049
 3165SOL    HW220958   0.775   3.650   4.485  0.7092 -0.1492  1.1226
 3166SOL     OW20959   0.344   1.206   7.313  0.0076  0.3586 -0.3319
 3166SOL    HW120960   0.251   1.200   7.333 -0.1076 -0.1069 -0.9950
 3166SOL    HW220961   0.380   1.122   7.340 -1.4118 -1.4797 -4.1011
 3167SOL     OW20962   4.280   2.092   8.102 -0.6610 -0.2557  0.4259
 3167SOL    HW120963   4.323   2.006   8.100  1.6461  1.0394 -4.6051
 3167SOL    HW220964   4.332   2.127   8.175  1.6594 -0.7842 -0.9807
 3168SOL     OW20965   3.244   3.340  11.120 -0.5957  0.2657  0.0911
 3168SOL    HW120966   3.272   3.344  11.028 -0.0276  0.9180  0.2928
 3168SOL    HW220967   3.234   3.245  11.128  2.5102  0.1242  2.1835
 3169SOL     OW20968   0.291   2.260   0.538  0.1543 -0.0059  0.2149
 3169SOL    HW120969   0.258   2.178   0.573  0.6680 -0.4358 -0.3048
 3169SOL    HW220970   0.385   2.240   0.539  0.2532  0.5060  1.4467
 3170SOL     OW20971   3.628   3.155   8.490 -0.3511  0.3811 -0.2648
 3170SOL    HW120972   3.612   3.189   8.402 -2.1709 -1.1328 -0.5349
 3170SOL    HW220973   3.570   3.079   8.481  0.8561 -0.1839 -3.2209
 3171SOL     OW20974   3.268   2.966   6.218 -0.3034  0.1264 -0.3580
 3171SOL    HW120975   3.252   2.958   6.124  1.6555 -1.2675 -0.5774
 3171SOL    HW220976   3.354   2.924   6.217 -1.0048 -1.3688  2.1825
 3172SOL     OW20977   0.681   4.353  15.773  0.1575  0.6125 -0.6527
 3172SOL    HW120978   0.773   4.371  15.755  0.0870  1.4150 -0.1956
 3172SOL    HW220979   0.658   4.294  15.702  0.4627 -1.4608  0.9683
 3173SOL     OW20980   1.437   0.384   8.747 -0.9282  0.4174  0.3167
 3173SOL    HW120981   1.351   0.417   8.773 -2.1309 -1.9376 -0.6551
 3173SOL    HW220982   1.489   0.463   8.731  0.4333 -0.7984 -1.2220
 3174SOL     OW20983   3.683   2.638   5.461  0.4905  0.6667 -0.4155
 3174SOL    HW120984   3.664   2.628   5.368  3.5015 -0.6049 -0.8837
 3174SOL    HW220985   3.768   2.595   5.472  0.2085  0.5312  1.2195
 3175SOL     OW20986   3.159   2.235  12.878 -0.3425 -0.4525 -0.5450
 3175SOL    HW120987   3.137   2.238  12.971  1.6162  1.2428 -0.1599
 3175SOL    HW220988   3.240   2.185  12.890  0.0461  0.2799 -0.1466
 3176SOL     OW20989   4.676   3.770  11.870  0.7598  0.6321 -0.2508
 3176SOL    HW120990   4.607   3.807  11.815  0.0672 -0.5386 -0.1680
 3176SOL    HW220991   4.708   3.847  11.918 -0.6006 -0.5010  2.4890
 3177SOL     OW20992   2.840   1.354   3.123 -0.1993 -0.5071 -0.2630
 3177SOL    HW120993   2.926   1.390   3.104 -0.4400  0.7959  1.0977
 3177SOL    HW220994   2.786   1.430   3.102  2.4813  1.5912  0.4178
 3178SOL     OW20995   4.454   2.671   3.552 -0.3337  0.0217  0.1347
 3178SOL    HW120996   4.438   2.700   3.462  2.4925  1.9716  0.2552
 3178SOL    HW220997   4.510   2.593   3.548  0.8894  0.7568  2.6330
 3179SOL     OW20998   3.564   1.781   6.908 -0.0179 -0.3988 -0.0847
 3179SOL    HW120999   3.506   1.771   6.984 -0.9665  0.1461 -0.7311
 3179SOL    HW221000   3.504   1.759   6.837 -2.2194 -0.8759  1.9107
 3180SOL     OW21001   2.096   2.478  13.431  0.0717  0.2925  0.0303
 3180SOL    HW121002   2.165   2.519  13.380 -0.5089 -0.2523 -1.1792
 3180SOL    HW221003   2.086   2.543  13.501 -0.3145 -0.3940  0.6113
 3181SOL     OW21004   1.220   0.819   6.601  0.5975  0.8808 -0.1663
 3181SOL    HW121005   1.197   0.881   6.532  1.6702  0.7503 -0.6354
 3181SOL    HW221006   1.198   0.739   6.553 -0.4508 -0.0033  1.7477
 3182SOL     OW21007   1.954   0.375   4.361  0.5716 -0.5428  0.2023
 3182SOL    HW121008   2.021   0.440   4.338  1.4471 -0.7915  2.0015
 3182SOL    HW221009   1.882   0.397   4.302  1.4729  2.5496  0.2062
 3183SOL     OW21010   2.926   2.291  15.465  0.4155 -0.0345  0.0370
 3183SOL    HW121011   2.993   2.226  15.489  1.7892  0.8812 -1.3105
 3183SOL    HW221012   2.974   2.373  15.457  1.8515 -0.9388 -0.6868
 3184SOL     OW21013   0.435   4.245   1.360 -0.0176  0.0654  0.2101
 3184SOL    HW121014   0.414   4.207   1.446 -0.9379 -1.9965 -0.9350
 3184SOL    HW221015   0.473   4.173   1.310  0.8193  0.5459  0.1536
 3185SOL     OW21016   1.445   3.691   7.531  0.3849 -0.7232 -0.0176
 3185SOL    HW121017   1.458   3.784   7.511  0.5521 -0.7984 -0.2450
 3185SOL    HW221018   1.533   3.661   7.552  0.4179 -0.6125  0.0044
 3186SOL     OW21019   1.434   1.536  14.404  0.4419  0.1830 -0.3851
 3186SOL    HW121020   1.431   1.522  14.498  1.9311  0.7062 -0.2646
 3186SOL    HW221021   1.524   1.568  14.398  0.3315  0.7090  0.8932
 3187SOL     OW21022   4.225   3.015   0.763 -0.2607 -0.3002 -0.3333
 3187SOL    HW121023   4.252   2.992   0.853  1.1678 -1.7382 -1.1144
 3187SOL    HW221024   4.303   2.988   0.715  0.5207  0.9946  0.2015
 3188SOL     OW21025   1.369   2.409  14.333  0.1551  0.2389 -0.0430
 3188SOL    HW121026   1.327   2.455  14.405 -2.5291 -2.3913  0.0599
 3188SOL    HW221027   1.301   2.386  14.270 -0.6694  0.7295  0.6693
 3189SOL     OW21028   0.038   0.033   3.012  0.4108  0.0070 -0.0828
 3189SOL    HW121029   0.092   0.088   2.955  1.5395 -1.6029 -0.5508
 3189SOL    HW221030   0.105   0.002   3.072  0.2242 -2.5126 -1.1992
 3190SOL     OW21031   0.512   1.205  14.299 -0.1567 -0.0180 -0.1545
 3190SOL    HW121032   0.562   1.177  14.376  3.2506  0.2750 -2.2540
 3190SOL    HW221033   0.566   1.175  14.225  0.8057  0.7105  0.2540
 3191SOL     OW21034   3.466   4.660   6.178  0.0349  0.2417 -0.4722
 3191SOL    HW121035   3.512   0.016   6.154  1.8783 -0.4679  0.7090
 3191SOL    HW221036   3.449   4.676   6.271 -0.0314 -1.9725 -0.0899
 3192SOL     OW21037   4.058   2.553   3.493 -0.0959  0.3899 -0.6929
 3192SOL    HW121038   4.142   2.509   3.477  0.8610  1.1780  2.1286
 3192SOL    HW221039   4.006   2.549   3.413 -0.3795 -2.1744 -0.3712
 3193SOL     OW21040   2.964   1.664  14.798  0.0051  0.5785 -0.3899
 3193SOL    HW121041   2.949   1.750  14.759 -1.4098 -0.1261 -1.4056
 3193SOL    HW221042   2.879   1.647  14.838 -0.0825 -2.0918 -1.7440
 3194SOL     OW21043   3.409   2.665   0.935 -0.4749 -0.1806 -0.1489
 3194SOL    HW121044   3.354   2.588   0.924 -2.0682  0.9146  0.1055
 3194SOL    HW221045   3.477   2.631   0.992  0.1648  0.5530 -0.4718
 3195SOL     OW21046   2.902   3.212  15.566 -0.1872 -0.2910  0.5991
 3195SOL    HW121047   2.846   3.138  15.541  1.9089 -1.9261  0.6709
 3195SOL    HW221048   2.928   3.237  15.478  0.2630  0.0183  0.8160
 3196SOL     OW21049   3.476   3.386   6.930  0.7012 -0.5341 -0.0483
 3196SOL    HW121050   3.431   3.469   6.913 -0.3943 -1.2954 -0.8998
 3196SOL    HW221051   3.434   3.338   6.859  0.6604  0.4031 -0.6570
 3197SOL     OW21052   2.533   0.508   3.124 -0.1211 -0.2757  0.7519
 3197SOL    HW121053   2.445   0.534   3.095  0.7235  1.7920  0.0512
 3197SOL    HW221054   2.578   0.539   3.045  2.2895 -2.8529  1.0873
 3198SOL     OW21055   4.000   4.101   2.574  0.2056 -0.2504 -0.4992
 3198SOL    HW121056   4.070   4.067   2.630  0.6535  2.3593  0.5055
 3198SOL    HW221057   3.964   4.172   2.628  1.6185  0.1954 -0.1503
 3199SOL     OW21058   0.246   3.464   3.842 -0.1866 -0.0217 -0.1558
 3199SOL    HW121059   0.333   3.477   3.881 -1.5879  0.5100  2.8166
 3199SOL    HW221060   0.255   3.398   3.774  0.8275  0.8681 -0.8894
 3200SOL     OW21061   2.800   1.150   8.575  0.2659 -0.0136  0.3546
 3200SOL    HW121062   2.857   1.074   8.589 -0.5024 -0.8822 -1.2024
 3200SOL    HW221063   2.864   1.196   8.520 -0.5119 -1.6267 -1.8993
 3201SOL     OW21064   0.194   2.882   4.974 -0.4839 -0.5546  0.2795
 3201SOL    HW121065   0.206   2.841   4.889  0.5845 -2.9109  1.5698
 3201SOL    HW221066   0.285   2.909   4.988 -0.4508 -0.8945  0.7084
 3202SOL     OW21067   0.508   2.375  13.502  0.0692  0.6129  0.1079
 3202SOL    HW121068   0.477   2.311  13.437 -0.4754  2.2068 -1.1867
 3202SOL    HW221069   0.597   2.342  13.512  0.3528  1.4414  0.2809
 3203SOL     OW21070   1.512   1.825  14.051  0.8878 -0.5937 -0.7272
 3203SOL    HW121071   1.469   1.824  14.137 -4.1465 -1.6004 -3.2467
 3203SOL    HW221072   1.600   1.807  14.084  0.6144 -0.5922  0.0165
 3204SOL     OW21073   0.229   0.415  16.645  0.5239  0.2132 -0.5892
 3204SOL    HW121074   0.243   0.478  16.575 -1.6930  0.9874 -0.3467
 3204SOL    HW221075   0.133   0.405  16.647  0.2319  3.7175  2.1708
 3205SOL     OW21076   2.925   2.805   7.465  0.2215  0.2532  0.4200
 3205SOL    HW121077   2.996   2.779   7.406 -0.3743  0.6244 -0.4709
 3205SOL    HW221078   2.956   2.883   7.510 -3.0074  1.8998 -0.1409
 3206SOL     OW21079   2.416   4.522  16.065 -0.0748 -0.2466  0.3165
 3206SOL    HW121080   2.481   4.567  16.120  0.3193  0.8798 -1.0526
 3206SOL    HW221081   2.380   4.591  16.009  1.9348 -0.5455 -1.3506
 3207SOL     OW21082   4.517   2.264  14.602 -0.1493 -0.8776  0.0899
 3207SOL    HW121083   4.551   2.269  14.513  1.5985  3.4394  1.0202
 3207SOL    HW221084   4.598   2.263  14.653 -0.4664 -0.6778  0.5969
 3208SOL     OW21085   4.656   4.322   6.130  0.7096 -0.1587 -0.4826
 3208SOL    HW121086   4.648   4.312   6.035  1.7150 -1.3911 -0.4380
 3208SOL    HW221087   4.583   4.266   6.154 -2.1275  3.0599 -1.5760
 3209SOL     OW21088   4.287   1.828  17.209  0.8368 -0.1440  0.0589
 3209SOL    HW121089   4.273   1.920  17.229 -0.0210 -0.6235  1.6394
 3209SOL    HW221090   4.221   1.811  17.142  0.6392  0.1648  0.1745
 3210SOL     OW21091   1.551   4.607   7.544  0.1536  0.3470 -0.5771
 3210SOL    HW121092   1.488   4.638   7.608  1.0542  2.8322 -0.8992
 3210SOL    HW221093   1.634   4.600   7.592 -0.7144 -2.2066  0.5498
 3211SOL     OW21094   2.337   3.523  13.394  0.3132 -0.2640 -0.1179
 3211SOL    HW121095   2.244   3.533  13.409  0.1655 -0.0619 -1.1531
 3211SOL    HW221096   2.350   3.595  13.333 -2.2291  0.9194  0.7740
 3212SOL     OW21097   4.529   2.260   0.769 -0.0180  0.0682 -0.5086
 3212SOL    HW121098   4.565   2.203   0.701  2.6262  0.1290  0.8527
 3212SOL    HW221099   4.507   2.190   0.830  2.4585  0.0999  0.3949
 3213SOL     OW21100   0.446   3.631   4.173 -0.5455 -0.2027 -0.1589
 3213SOL    HW121101   0.464   3.716   4.133  1.0361  0.1597  1.3281
 3213SOL    HW221102   0.490   3.584   4.103  1.9578 -0.0661  1.3386
 3214SOL     OW21103   2.127   0.294   3.852 -0.5080 -0.3320 -0.6605
 3214SOL    HW121104   2.092   0.379   3.879 -1.4991 -0.8428 -0.3070
 3214SOL    HW221105   2.192   0.278   3.920 -0.5351  3.3152  0.2073
 3215SOL     OW21106   0.017   1.118   5.522  0.4335 -0.3559  0.3577
 3215SOL    HW121107   0.079   1.131   5.450  1.0859 -0.9013  0.8193
 3215SOL    HW221108   4.671   1.167   5.477  0.8843 -0.7020 -0.7052
 3216SOL     OW21109   2.713   0.593   4.645 -0.2850 -0.2810  0.0596
 3216SOL    HW121110   2.666   0.566   4.724  0.2559 -1.1359  0.0836
 3216SOL    HW221111   2.649   0.558   4.583  1.3407  0.0645 -1.7947
 3217SOL     OW21112   1.331   1.503   1.540 -0.1054 -0.0504  0.3071
 3217SOL    HW121113   1.386   1.570   1.581 -0.9037  0.3449  0.7337
 3217SOL    HW221114   1.318   1.543   1.454 -1.2467 -0.7165  0.1689
 3218SOL     OW21115   2.884   0.952  16.541 -0.1284  0.1046  0.0024
 3218SOL    HW121116   2.805   0.989  16.503 -0.7093 -0.9098  0.2346
 3218SOL    HW221117   2.861   0.861  16.559  1.6813 -0.3492  0.0264
 3219SOL     OW21118   0.178   4.539   5.672 -0.3233 -0.3910  0.3300
 3219SOL    HW121119   0.225   4.607   5.624  1.6320 -1.5050  0.6637
 3219SOL    HW221120   0.218   4.543   5.759 -0.8830 -1.3801  0.6397
 3220SOL     OW21121   3.069   4.483   9.102 -0.4316 -0.2817  0.2049
 3220SOL    HW121122   3.155   4.522   9.120 -1.7648  2.4031  0.8527
 3220SOL    HW221123   3.102   4.396   9.125 -0.0815  0.1841  1.4465
 3221SOL     OW21124   1.090   0.502   9.453 -0.6119 -0.5033 -0.4024
 3221SOL    HW121125   1.077   0.418   9.409 -1.5647 -0.6792  0.2236
 3221SOL    HW221126   1.003   0.537   9.469 -0.1314  0.3224  0.4698
 3222SOL     OW21127   2.177   2.092   5.306  0.2952 -0.2344  0.7177
 3222SOL    HW121128   2.181   2.164   5.242  1.4044 -0.0189  1.0291
 3222SOL    HW221129   2.145   2.138   5.383  1.3820  2.1791 -0.2750
 3223SOL     OW21130   1.565   2.070  10.226  0.1228 -0.7243  0.3034
 3223SOL    HW121131   1.591   1.987  10.186  0.7636 -0.3417 -0.0601
 3223SOL    HW221132   1.470   2.057  10.216  0.1653  0.6799 -1.8884
 3224SOL     OW21133   0.982   2.324  15.925 -0.2886 -0.1056 -0.0767
 3224SOL    HW121134   1.004   2.340  15.833  2.0129  1.0547  0.6771
 3224SOL    HW221135   0.958   2.414  15.949  0.7517  0.1604 -0.0407
 3225SOL     OW21136   0.779   1.981  14.622  0.1089  0.3617  0.0850
 3225SOL    HW121137   0.788   2.063  14.670  0.8881  0.2313  0.1635
 3225SOL    HW221138   0.706   1.998  14.562  1.5113  1.9230 -1.1726
 3226SOL     OW21139   0.087   3.088  10.879  0.2484 -0.4446 -0.0034
 3226SOL    HW121140   4.719   3.084  10.853  0.4619  0.8708 -0.9394
 3226SOL    HW221141   0.066   3.031  10.952  1.7206 -0.1251  0.6780
 3227SOL     OW21142   1.003   0.279   8.291 -0.1710  0.1728  0.3728
 3227SOL    HW121143   1.046   0.331   8.359 -0.3227  0.4186  0.2803
 3227SOL    HW221144   1.046   0.198   8.319  1.2349  0.0889 -2.0426
 3228SOL     OW21145   4.631   3.196   6.489 -0.1564 -0.4318 -0.3175
 3228SOL    HW121146   4.652   3.204   6.396 -2.5290 -1.1566 -0.9145
 3228SOL    HW221147   4.687   3.124   6.518 -0.7739 -0.4702  0.7473
 3229SOL     OW21148   4.085   4.661   5.391 -0.2283  0.2249  0.2034
 3229SOL    HW121149   4.045   0.020   5.365 -0.2901 -0.3271 -1.5183
 3229SOL    HW221150   4.164   4.693   5.435  1.0629 -2.1156 -0.3929
 3230SOL     OW21151   3.339   3.808   4.552 -0.1261  0.0575  0.3721
 3230SOL    HW121152   3.389   3.890   4.550 -0.3009  0.1837  1.6300
 3230SOL    HW221153   3.403   3.738   4.537  0.7442  0.7989  0.6240
 3231SOL     OW21154   3.545   0.622   6.610 -0.7736  0.1113 -0.2063
 3231SOL    HW121155   3.603   0.570   6.555  0.7834 -2.2770  3.7208
 3231SOL    HW221156   3.586   0.635   6.696 -1.2177  0.4995 -0.0507
 3232SOL     OW21157   0.796   2.331  10.005 -0.2577  0.6636  0.2242
 3232SOL    HW121158   0.885   2.325   9.971 -0.4563  1.1170 -0.3857
 3232SOL    HW221159   0.813   2.411  10.055  1.0329  0.9194 -0.6191
 3233SOL     OW21160   4.557   2.701   5.072  0.2525  0.4396 -0.2347
 3233SOL    HW121161   4.520   2.614   5.056  0.6865  0.0039  1.0902
 3233SOL    HW221162   4.650   2.681   5.056 -0.0033 -0.5422 -0.5032
 3234SOL     OW21163   3.037   3.811   7.170 -0.0063 -0.4331 -0.0786
 3234SOL    HW121164   2.982   3.740   7.137  0.8732 -1.3275  0.3970
 3234SOL    HW221165   3.083   3.758   7.235  0.0386  0.8202  0.9280
 3235SOL     OW21166   2.828   1.645  16.113  0.1407 -0.0750  0.5037
 3235SOL    HW121167   2.888   1.699  16.062  0.1488  0.7522  1.3840
 3235SOL    HW221168   2.881   1.566  16.124 -1.2381 -0.8910  1.3590
 3236SOL     OW21169   0.317   3.014   6.805 -0.3166  0.0037 -0.1868
 3236SOL    HW121170   0.375   2.976   6.739  2.0679  2.8235  0.2918
 3236SOL    HW221171   0.383   3.072   6.843  0.8730 -1.0469 -0.6853
 3237SOL     OW21172   4.199   4.155  12.059  0.1972  0.1306 -0.0118
 3237SOL    HW121173   4.250   4.149  11.978  0.7727 -0.6059  0.4069
 3237SOL    HW221174   4.174   4.063  12.067  0.1738  0.0408 -1.0765
 3238SOL     OW21175   0.791   4.579   2.780  0.7650  0.0876  0.1196
 3238SOL    HW121176   0.792   4.660   2.832 -0.2542 -1.8019  3.1136
 3238SOL    HW221177   0.863   4.601   2.721  0.7354  0.1544  0.1084
 3239SOL     OW21178   3.050   4.540   6.906  0.2088 -0.2032 -0.2241
 3239SOL    HW121179   2.986   4.604   6.875 -1.5512 -1.6170  0.4423
 3239SOL    HW221180   3.056   4.480   6.831 -0.6634 -0.8336  0.2042
 3240SOL     OW21181   1.975   1.905   6.226  0.3220  0.0438  0.4903
 3240SOL    HW121182   1.967   1.818   6.265 -0.5961 -0.3853 -0.6912
 3240SOL    HW221183   1.940   1.963   6.294  2.3705  0.4622  1.1779
 3241SOL     OW21184   2.856   3.793   9.600 -0.1425  0.0972  0.0843
 3241SOL    HW121185   2.884   3.712   9.641 -0.5428 -0.7491 -1.3331
 3241SOL    HW221186   2.814   3.842   9.671  2.8227  1.1883  1.0573
 3242SOL     OW21187   1.220   3.626   3.873  0.6852  0.0125 -0.3773
 3242SOL    HW121188   1.261   3.547   3.907  0.6214  0.0785 -0.1482
 3242SOL    HW221189   1.174   3.662   3.949 -0.0586  1.2186 -1.3976
 3243SOL     OW21190   2.309   0.871   5.979  0.0165 -0.1110 -0.0459
 3243SOL    HW121191   2.335   0.815   5.905  1.8614  1.0523 -0.2877
 3243SOL    HW221192   2.226   0.906   5.948 -0.1454 -1.0716 -0.6929
 3244SOL     OW21193   0.454   3.318  13.360  0.5151 -0.4180  0.0760
 3244SOL    HW121194   0.548   3.334  13.371  0.6415 -0.1192 -1.4420
 3244SOL    HW221195   0.427   3.402  13.322 -1.6167  0.0300  2.6230
 3245SOL     OW21196   1.655   4.122   1.130  0.1660 -0.2307  0.2575
 3245SOL    HW121197   1.723   4.188   1.142 -0.3653  0.6974 -1.8516
 3245SOL    HW221198   1.580   4.180   1.122 -0.5107 -0.8564  1.9633
 3246SOL     OW21199   0.682   2.755  10.980 -0.3200 -0.0842 -0.9879
 3246SOL    HW121200   0.639   2.728  10.899 -0.3869 -2.0173 -0.3140
 3246SOL    HW221201   0.758   2.779  10.928  0.0681 -0.2270 -0.4872
 3247SOL     OW21202   2.178   1.622  14.571 -0.3459 -0.3341 -0.4710
 3247SOL    HW121203   2.193   1.643  14.664  0.3271 -3.9532  0.2342
 3247SOL    HW221204   2.103   1.562  14.575  0.5724 -1.5364 -1.6323
 3248SOL     OW21205   1.383   3.455   6.240 -0.1565 -0.1818 -0.1387
 3248SOL    HW121206   1.349   3.445   6.329 -1.8454  0.6207 -0.6976
 3248SOL    HW221207   1.396   3.549   6.250  1.0225 -0.4286  0.6942
 3249SOL     OW21208   1.942   0.505   3.175  0.5986  0.3640  0.0839
 3249SOL    HW121209   1.933   0.570   3.106  0.8325  0.3318  0.0209
 3249SOL    HW221210   1.927   0.426   3.123 -1.0723 -0.5845  2.0477
 3250SOL     OW21211   1.934   2.915   9.730  0.0757 -0.4299 -0.5396
 3250SOL    HW121212   1.899   2.934   9.817 -0.3178  0.5824 -0.9201
 3250SOL    HW221213   1.892   2.831   9.715  0.5994 -0.0350 -4.2982
 3251SOL     OW21214   1.910   0.444   6.331 -0.1599 -0.1044 -0.0522
 3251SOL    HW121215   1.876   0.517   6.280  0.4200  1.6575  2.0501
 3251SOL    HW221216   1.913   0.376   6.264  0.7905 -0.4402  0.3242
 3252SOL     OW21217   3.472   2.443   8.207 -0.1878  0.2269  0.2776
 3252SOL    HW121218   3.416   2.480   8.276  0.3179  0.0152  0.8007
 3252SOL    HW221219   3.549   2.428   8.262  0.0191 -1.6990 -0.5374
 3253SOL     OW21220   1.490   2.256  15.293  0.2534  0.1358 -0.6996
 3253SOL    HW121221   1.553   2.186  15.309 -0.2932  0.4700  2.7696
 3253SOL    HW221222   1.502   2.314  15.368 -2.7329 -0.8815  0.5542
 3254SOL     OW21223   3.969   2.282   4.543  0.3294  0.0755  0.1204
 3254SOL    HW121224   4.047   2.234   4.570 -0.5197 -1.7014 -0.5543
 3254SOL    HW221225   3.911   2.285   4.620 -0.5879  1.5044 -0.6337
 3255SOL     OW21226   2.692   3.249   4.356 -0.2651 -0.6982 -0.8013
 3255SOL    HW121227   2.766   3.285   4.405 -1.8411  0.4887  0.7536
 3255SOL    HW221228   2.621   3.303   4.394  1.4137  0.0598  1.2505
 3256SOL     OW21229   0.727   3.731   8.321  0.1731 -0.3082  0.1390
 3256SOL    HW121230   0.724   3.750   8.415 -0.2030  0.6300 -0.0625
 3256SOL    HW221231   0.789   3.658   8.323  0.5782  0.0116 -1.1704
 3257SOL     OW21232   2.342   1.160  10.448 -0.1961 -1.0295  0.2074
 3257SOL    HW121233   2.400   1.190  10.378 -0.1184 -1.4577  0.0852
 3257SOL    HW221234   2.292   1.238  10.472  0.0278 -1.0471  0.7136
 3258SOL     OW21235   1.158   1.967   7.480  0.0273 -0.2477  0.2556
 3258SOL    HW121236   1.201   2.050   7.499 -1.0733  0.8423 -2.0071
 3258SOL    HW221237   1.222   1.925   7.421 -0.9783 -0.4102 -0.7135
 3259SOL     OW21238   0.283   0.740   5.836 -0.0046  0.7749 -0.3951
 3259SOL    HW121239   0.258   0.711   5.923 -0.4231 -0.8130 -1.0398
 3259SOL    HW221240   0.208   0.703   5.789  0.7364 -0.4297 -0.6249
 3260SOL     OW21241   2.062   1.640   1.872 -0.2209  0.0574  0.1604
 3260SOL    HW121242   2.083   1.649   1.779  3.3904 -0.9426  0.8797
 3260SOL    HW221243   2.022   1.554   1.875  0.8976 -0.4919 -0.4963
 3261SOL     OW21244   3.761   0.906  13.138 -0.2016 -0.4495 -0.3376
 3261SOL    HW121245   3.830   0.963  13.104  0.2549 -1.1355 -0.5608
 3261SOL    HW221246   3.810   0.870  13.212 -0.0133 -0.9756 -0.7150
 3262SOL     OW21247   2.412   3.617   6.335  0.1104  0.3004 -0.4469
 3262SOL    HW121248   2.477   3.563   6.290  1.6253  0.8436  1.0907
 3262SOL    HW221249   2.338   3.557   6.328  0.0467 -0.0507  2.9693
 3263SOL     OW21250   2.386   1.415   1.563 -0.1177 -0.5452 -0.1220
 3263SOL    HW121251   2.331   1.474   1.511 -0.6400 -0.2202  0.7985
 3263SOL    HW221252   2.449   1.387   1.497 -0.4713 -1.0177 -0.2642
 3264SOL     OW21253   3.406   2.572  15.039 -0.3093 -0.4245  0.2088
 3264SOL    HW121254   3.372   2.576  14.950 -1.0181  0.5581  0.5240
 3264SOL    HW221255   3.369   2.492  15.076 -0.0706 -0.7208 -0.2034
 3265SOL     OW21256   3.594   3.721   2.770 -0.1412 -0.2329  0.0860
 3265SOL    HW121257   3.681   3.760   2.780  0.5157 -1.6742  0.0708
 3265SOL    HW221258   3.585   3.737   2.676 -0.8285  0.0095  0.1962
 3266SOL     OW21259   1.955   3.933  16.470  0.1910  0.2423 -0.2328
 3266SOL    HW121260   1.969   3.844  16.504 -0.7946 -0.3588 -1.4019
 3266SOL    HW221261   1.943   3.922  16.376  0.0424 -1.3296 -0.0430
 3267SOL     OW21262   2.757   2.238   5.617 -0.1677 -0.7232 -0.1992
 3267SOL    HW121263   2.730   2.278   5.535 -0.4559 -0.0103  0.2479
 3267SOL    HW221264   2.830   2.298   5.633  0.4156 -0.5117 -3.7267
 3268SOL     OW21265   3.889   3.870   0.646 -0.4009  0.5315 -0.2001
 3268SOL    HW121266   3.840   3.893   0.566 -0.5626 -0.1504 -0.2933
 3268SOL    HW221267   3.858   3.938   0.706 -1.4823  0.4391 -0.6372
 3269SOL     OW21268   2.784   1.494   7.477 -0.0231 -0.0755  0.4413
 3269SOL    HW121269   2.833   1.418   7.509  1.2223 -0.3448 -2.1003
 3269SOL    HW221270   2.851   1.550   7.437  0.3924  0.0411  1.2905
 3270SOL     OW21271   0.460   4.588  10.249 -0.1323  0.6112  0.0100
 3270SOL    HW121272   0.526   4.525  10.278 -2.1154 -0.3709  2.4297
 3270SOL    HW221273   0.501   4.616  10.167  1.2796  2.0318  1.2117
 3271SOL     OW21274   3.170   2.882   7.555 -0.6123  0.7511  0.1486
 3271SOL    HW121275   3.176   2.789   7.535  0.8305  0.7102  0.8085
 3271SOL    HW221276   3.132   2.876   7.643  0.6153  2.1578  0.7869
 3272SOL     OW21277   0.207   1.596   3.908  1.2276  0.0841 -0.1310
 3272SOL    HW121278   0.217   1.558   3.821  0.4488  2.4061 -1.2189
 3272SOL    HW221279   0.274   1.664   3.896  1.1030 -0.1520 -2.1046
 3273SOL     OW21280   0.329   3.374  10.790 -0.0997 -0.0427 -0.1243
 3273SOL    HW121281   0.380   3.322  10.852  1.8223  0.0083 -1.6387
 3273SOL    HW221282   0.392   3.412  10.728 -0.5186  1.0464  0.1119
 3274SOL     OW21283   0.855   2.650   0.925 -0.0484  0.0800 -0.8422
 3274SOL    HW121284   0.892   2.661   1.012 -0.9042  4.1867 -1.0097
 3274SOL    HW221285   0.763   2.657   0.951  0.4495  0.6747  0.7225
 3275SOL     OW21286   0.791   1.341  10.923  0.0318  0.7302  0.5853
 3275SOL    HW121287   0.757   1.283  10.991  0.5901 -3.1731 -2.4263
 3275SOL    HW221288   0.747   1.425  10.933  0.7061  1.2963 -1.1666
 3276SOL     OW21289   4.196   3.068   5.905  0.4820  0.2473 -0.2822
 3276SOL    HW121290   4.138   3.030   5.972  0.2133  0.4805 -0.3815
 3276SOL    HW221291   4.193   3.161   5.925 -1.5663  0.0458  0.3866
 3277SOL     OW21292   0.341   2.887  12.565  0.4891  0.5052 -0.9267
 3277SOL    HW121293   0.319   2.836  12.488 -0.5304  0.9936 -0.9555
 3277SOL    HW221294   0.256   2.931  12.568  0.5688  0.6270 -0.3170
 3278SOL     OW21295   2.465   4.036   8.559  0.0216 -0.0313  0.5541
 3278SOL    HW121296   2.463   3.952   8.514 -0.4363  0.3447 -0.1343
 3278SOL    HW221297   2.509   4.089   8.493  1.1654 -3.0292 -1.1003
 3279SOL     OW21298   0.943   2.086   1.670  0.5728  0.1990 -0.2051
 3279SOL    HW121299   1.005   2.121   1.733  3.2010 -0.7945 -2.2698
 3279SOL    HW221300   0.869   2.145   1.686  0.1148 -0.6831  1.0030
 3280SOL     OW21301   4.483   2.323  10.080  0.2139 -0.4903 -0.2763
 3280SOL    HW121302   4.415   2.281  10.134 -0.4452  2.2466  1.0144
 3280SOL    HW221303   4.439   2.343   9.998  1.1158 -1.1297 -0.9117
 3281SOL     OW21304   2.280   1.973   8.039 -0.2383  0.5618 -0.2553
 3281SOL    HW121305   2.195   1.928   8.038  1.1427 -1.9936 -0.6679
 3281SOL    HW221306   2.252   2.057   8.076  0.5889  0.4408  0.6509
 3282SOL     OW21307   2.061   0.910   0.722  0.0952  1.0849  0.3294
 3282SOL    HW121308   2.053   0.952   0.637  0.7712  1.1963  0.3229
 3282SOL    HW221309   1.970   0.906   0.750  0.0665 -2.2848 -0.1756
 3283SOL     OW21310   2.830   2.817   8.695 -0.5731  0.6462 -0.5564
 3283SOL    HW121311   2.821   2.724   8.672 -1.3619  0.0929  1.9733
 3283SOL    HW221312   2.887   2.840   8.621  0.9549 -0.9100  0.1270
 3284SOL     OW21313   3.056   2.670   6.017  0.6997  0.0117  0.1243
 3284SOL    HW121314   3.054   2.760   5.982 -0.2166  0.0032  0.1445
 3284SOL    HW221315   2.975   2.634   5.980  1.8715 -1.4634 -1.0353
 3285SOL     OW21316   1.386   1.285   7.041  0.5429 -0.0468  0.5194
 3285SOL    HW121317   1.476   1.290   7.010  0.1241  3.0309 -0.2407
 3285SOL    HW221318   1.345   1.364   7.006  2.7804 -0.3618 -2.8549
 3286SOL     OW21319   2.080   0.959   9.397  0.3268  0.5561  0.8481
 3286SOL    HW121320   2.161   0.961   9.347  0.1421  1.4601  0.5769
 3286SOL    HW221321   2.043   1.045   9.373  1.0137  0.4033 -0.7673
 3287SOL     OW21322   1.430   1.097  14.224  0.2072  0.2329  0.0776
 3287SOL    HW121323   1.349   1.105  14.275 -0.0761 -1.6888 -0.0559
 3287SOL    HW221324   1.486   1.112  14.300 -0.4060 -2.7249  1.1037
 3288SOL     OW21325   2.876   0.978   8.075 -0.1770 -0.0039 -0.0571
 3288SOL    HW121326   2.826   0.913   8.124  0.2078 -1.0941 -1.0972
 3288SOL    HW221327   2.803   1.025   8.037  0.2167 -0.0978 -0.9386
 3289SOL     OW21328   2.750   0.364  14.722  0.2880 -0.4937 -0.2510
 3289SOL    HW121329   2.744   0.296  14.654  0.7848  2.6258 -3.4256
 3289SOL    HW221330   2.821   0.345  14.783 -0.2149  0.7373  0.7155
 3290SOL     OW21331   0.696   4.142   0.682 -0.7596 -0.0938 -0.2903
 3290SOL    HW121332   0.775   4.099   0.715  0.5064  1.0480 -1.8389
 3290SOL    HW221333   0.727   4.228   0.654 -0.9426  0.5355  1.3903
 3291SOL     OW21334   2.354   1.556  11.423  0.0165 -0.4940  0.3180
 3291SOL    HW121335   2.282   1.619  11.430 -1.2226 -1.7837 -1.0166
 3291SOL    HW221336   2.411   1.597  11.358 -0.3923 -0.8700 -0.2718
 3292SOL     OW21337   4.046   4.535   2.305  0.5312  0.5738 -0.3105
 3292SOL    HW121338   4.035   4.527   2.211  1.6950 -1.6393 -0.2543
 3292SOL    HW221339   3.955   4.556   2.326  0.5382  0.8841 -0.5825
 3293SOL     OW21340   1.701   1.808  10.989  0.0456 -0.2269  0.2911
 3293SOL    HW121341   1.747   1.875  11.039 -0.2680  1.0179 -1.1036
 3293SOL    HW221342   1.645   1.779  11.061  1.8992 -2.4746  0.8574
 3294SOL     OW21343   1.624   3.095  13.144  0.2632 -0.2724 -0.1708
 3294SOL    HW121344   1.569   3.039  13.090 -1.2715  0.5912  0.4941
 3294SOL    HW221345   1.661   3.043  13.215 -0.3020 -0.4747 -0.0279
 3295SOL     OW21346   0.974   4.693   2.090 -0.6653 -0.1042 -0.2528
 3295SOL    HW121347   1.033   0.014   2.151 -1.0093  1.4150 -1.0262
 3295SOL    HW221348   0.991   0.026   2.014  2.3215 -0.8162 -0.1221
 3296SOL     OW21349   0.901   4.576   4.858  0.2102 -0.2734  0.2061
 3296SOL    HW121350   0.883   4.485   4.835  0.8993 -0.0702 -1.1401
 3296SOL    HW221351   0.991   4.577   4.827 -0.7009 -0.9237 -2.4430
 3297SOL     OW21352   2.808   1.462  12.972 -0.2812  0.1905  0.2094
 3297SOL    HW121353   2.893   1.462  12.928 -0.3631 -0.5399  0.0438
 3297SOL    HW221354   2.828   1.381  13.019 -0.0147  0.8853  1.2935
 3298SOL     OW21355   3.682   0.687  12.203 -0.3172 -0.2425  0.6532
 3298SOL    HW121356   3.748   0.638  12.153 -0.8426  0.7791 -1.0594
 3298SOL    HW221357   3.745   0.735  12.256  0.5534 -1.2466  0.5472
 3299SOL     OW21358   2.892   0.490  11.436  0.2016 -0.0295  0.0223
 3299SOL    HW121359   2.921   0.536  11.515  2.4292  3.7735 -3.0432
 3299SOL    HW221360   2.968   0.432  11.438 -1.2553 -1.9155  1.1232
 3300SOL     OW21361   4.643   1.848   3.952  0.3463  0.0910 -0.1531
 3300SOL    HW121362   4.563   1.898   3.941  0.8793  1.1553  0.8763
 3300SOL    HW221363   4.673   1.855   3.861  1.5141  0.4732  0.2620
 3301SOL     OW21364   2.815   3.334   6.874 -0.3752  0.0421  0.0153
 3301SOL    HW121365   2.735   3.308   6.828 -0.6261  1.4221 -0.3320
 3301SOL    HW221366   2.844   3.244   6.891 -3.3126 -1.0137 -0.4646
 3302SOL     OW21367   1.138   4.511  14.285 -0.3156 -0.1404 -0.3853
 3302SOL    HW121368   1.228   4.482  14.269 -0.2386 -0.3910  0.4744
 3302SOL    HW221369   1.074   4.468  14.229 -0.5070 -0.9990  0.4878
 3303SOL     OW21370   0.488   3.451   9.241 -0.1388  0.5558 -0.0215
 3303SOL    HW121371   0.425   3.520   9.265 -1.2824 -0.6751  0.5375
 3303SOL    HW221372   0.459   3.377   9.293 -2.7075 -1.0484 -3.7184
 3304SOL     OW21373   0.932   2.042   6.232 -0.4399 -0.8554 -0.0351
 3304SOL    HW121374   1.001   1.982   6.262 -0.7254 -1.6303 -0.9397
 3304SOL    HW221375   0.940   2.030   6.137 -2.2016 -0.0746 -0.2779
 3305SOL     OW21376   2.314   3.411  13.725 -0.2742 -0.1914 -0.2491
 3305SOL    HW121377   2.231   3.459  13.727 -1.1247 -1.8127  2.3486
 3305SOL    HW221378   2.298   3.357  13.802 -0.4508 -3.8784 -2.8587
 3306SOL     OW21379   0.392   3.771   7.550 -0.8640 -0.2854 -0.1840
 3306SOL    HW121380   0.340   3.850   7.562 -0.5580 -0.6010  3.1632
 3306SOL    HW221381   0.449   3.795   7.477 -0.6295 -2.3281 -0.6778
 3307SOL     OW21382   4.710   2.400   8.237  0.1062 -0.0789 -0.0149
 3307SOL    HW121383   0.044   2.325   8.247  0.5038  0.1364 -0.6897
 3307SOL    HW221384   4.627   2.355   8.224  0.0014  0.4149 -1.0393
 3308SOL     OW21385   4.487   1.706   9.041  0.4754 -0.2855  0.4300
 3308SOL    HW121386   4.440   1.756   8.974  0.9142  0.3513  0.5942
 3308SOL    HW221387   4.549   1.659   8.985 -2.1737 -1.4186 -1.5746
 3309SOL     OW21388   2.974   3.026   3.773  0.3576 -0.0594 -0.4449
 3309SOL    HW121389   3.054   3.077   3.782 -1.1993  1.9015  2.1607
 3309SOL    HW221390   2.937   3.074   3.698 -1.0798  0.5132  0.6288
 3310SOL     OW21391   4.118   3.427  12.433 -0.1695 -0.1796 -0.0638
 3310SOL    HW121392   4.095   3.472  12.514  2.1036 -0.7274  0.8920
 3310SOL    HW221393   4.122   3.506  12.380 -0.5513 -0.8854 -1.1578
 3311SOL     OW21394   2.326   2.786  15.609 -0.0156 -0.2723  0.2899
 3311SOL    HW121395   2.359   2.737  15.534  1.7297  2.2077 -0.5535
 3311SOL    HW221396   2.292   2.716  15.665 -0.7230 -0.2234 -0.0863
 3312SOL     OW21397   4.716   0.597   5.220  0.0420  0.6966 -0.0083
 3312SOL    HW121398   4.645   0.545   5.184 -1.7060  2.2293  1.2791
 3312SOL    HW221399   4.708   0.669   5.158  2.9392  0.2834 -0.8934
 3313SOL     OW21400   0.969   3.759   9.384 -0.3205  0.0961  0.3248
 3313SOL    HW121401   0.995   3.711   9.463 -1.1938 -1.4018 -0.2868
 3313SOL    HW221402   0.875   3.743   9.380 -0.1748 -0.0483 -2.2190
 3314SOL     OW21403   3.544   1.799  13.091 -0.4068 -0.2682  0.1685
 3314SOL    HW121404   3.548   1.833  13.181  1.1899  0.2695 -0.1119
 3314SOL    HW221405   3.598   1.722  13.109  2.4869  1.8389  0.6067
 3315SOL     OW21406   0.020   1.103   8.271  0.0738 -0.7272 -0.2731
 3315SOL    HW121407   0.017   1.054   8.353 -1.3152 -0.2908 -0.0563
 3315SOL    HW221408   4.657   1.144   8.274  0.0062 -0.8513 -0.4576
 3316SOL     OW21409   3.641   2.314   7.098  0.2235 -0.0086  0.4160
 3316SOL    HW121410   3.627   2.349   7.010 -0.8931  2.0508  1.4180
 3316SOL    HW221411   3.588   2.234   7.095  0.9556 -0.4912  0.6166
 3317SOL     OW21412   0.987   4.463   7.565  0.1694  0.1756 -0.3028
 3317SOL    HW121413   1.043   4.385   7.574  0.3519  0.2499 -0.7793
 3317SOL    HW221414   0.918   4.415   7.520  1.4863  0.1864 -2.3423
 3318SOL     OW21415   0.317   2.526  14.807  0.0155 -0.0100 -0.9252
 3318SOL    HW121416   0.322   2.450  14.865 -0.6769  1.9156  1.6868
 3318SOL    HW221417   0.238   2.515  14.754 -0.2748 -1.8691 -0.0944
 3319SOL     OW21418   2.988   4.065  11.808 -0.2144 -0.3786 -0.4619
 3319SOL    HW121419   2.904   4.108  11.792  0.6956  1.2601 -0.8820
 3319SOL    HW221420   2.983   4.003  11.735  1.0637 -1.0497  0.0121
 3320SOL     OW21421   0.761   0.472   3.645 -0.5221 -0.8121  0.4430
 3320SOL    HW121422   0.773   0.540   3.579  0.9960 -1.9327 -0.4270
 3320SOL    HW221423   0.828   0.410   3.614  0.7206  0.0853  1.3505
 3321SOL     OW21424   1.556   0.088  11.726 -0.3766 -0.1950 -0.3025
 3321SOL    HW121425   1.535   0.181  11.737 -0.5521  0.0064 -2.4955
 3321SOL    HW221426   1.525   0.049  11.808 -1.0688  2.1690  0.5615
 3322SOL     OW21427   4.612   1.366   6.776  0.4850  0.7295  0.3702
 3322SOL    HW121428   4.668   1.410   6.840  2.9912 -1.9453 -0.0158
 3322SOL    HW221429   4.553   1.439   6.758  0.1720  0.4169  0.1247
 3323SOL     OW21430   0.632   1.295   7.605  0.7810 -0.3188 -0.0763
 3323SOL    HW121431   0.710   1.319   7.554 -1.2057  1.4763 -2.3083
 3323SOL    HW221432   0.587   1.379   7.619  1.4631  0.0179  0.0869
 3324SOL     OW21433   4.017   4.159  17.036 -0.6151 -0.3782  0.0604
 3324SOL    HW121434   3.978   4.108  16.964 -1.6762 -1.4628  1.3972
 3324SOL    HW221435   4.032   4.242  16.992  1.5968 -0.5680  0.4616
 3325SOL     OW21436   3.846   3.574  17.647 -0.4048  0.2504  0.7277
 3325SOL    HW121437   3.754   3.556  17.625  0.4731 -0.6091 -2.1791
 3325SOL    HW221438   3.853   3.522   0.031 -0.0075  0.1863  0.6511
 3326SOL     OW21439   3.716   4.718  17.117  0.1793 -0.7611  0.5869
 3326SOL    HW121440   3.747   0.014  17.029 -1.4763 -0.2695  0.1133
 3326SOL    HW221441   3.640   4.663  17.099 -1.9039  3.1566 -2.6939
 3327SOL     OW21442   3.186   0.010   3.335  0.5892  0.2183  0.0971
 3327SOL    HW121443   3.110   0.042   3.286  1.0160  0.7768 -0.2018
 3327SOL    HW221444   3.223   4.679   3.265  0.9665  1.7456 -0.9036
 3328SOL     OW21445   1.543   0.187   6.095 -0.2449  0.0868  0.3430
 3328SOL    HW121446   1.629   0.145   6.086 -0.6596 -1.1270  1.9154
 3328SOL    HW221447   1.561   0.245   6.169 -0.7499  0.1109  0.4449
 3329SOL     OW21448   1.912   0.476   8.278 -0.3412 -0.3425  0.8713
 3329SOL    HW121449   2.003   0.449   8.289 -1.0881 -2.5163  1.7822
 3329SOL    HW221450   1.873   0.426   8.349 -0.9409 -0.5503  0.3988
 3330SOL     OW21451   3.273   0.053   2.945 -0.1241 -0.5385 -0.0952
 3330SOL    HW121452   3.181   0.075   2.956 -0.8718 -1.8342 -3.5762
 3330SOL    HW221453   3.289   0.081   2.855  0.5716 -2.5356 -0.5975
 3331SOL     OW21454   3.567   3.029  10.601  0.1323 -0.3938 -0.0632
 3331SOL    HW121455   3.559   2.934  10.597 -2.1581 -0.1810 -0.5279
 3331SOL    HW221456   3.571   3.035  10.696  1.5768  0.0041 -0.1460
 3332SOL     OW21457   1.756   2.949   3.847 -0.3616 -0.3542  0.2183
 3332SOL    HW121458   1.786   3.029   3.803 -3.2765 -0.3751 -1.7726
 3332SOL    HW221459   1.662   2.943   3.832 -0.7077  0.5612  1.9906
 3333SOL     OW21460   0.346   4.213  10.344 -0.6060  0.0007 -0.2351
 3333SOL    HW121461   0.306   4.153  10.408  0.2008 -0.2011  0.0748
 3333SOL    HW221462   0.410   4.160  10.297 -0.4331 -0.8627  0.9676
 3334SOL     OW21463   0.223   2.339   4.270  0.2232 -0.1160 -0.0865
 3334SOL    HW121464   0.267   2.394   4.334  0.0465  0.4832 -0.4830
 3334SOL    HW221465   0.133   2.338   4.304 -0.4400 -2.4420 -1.9110
 3335SOL     OW21466   1.856   4.533   0.110 -0.4693  0.2089 -0.4152
 3335SOL    HW121467   1.849   4.453   0.162  0.8759  1.8105  2.2342
 3335SOL    HW221468   1.948   4.558   0.116  0.1519 -1.9002 -1.1096
 3336SOL     OW21469   2.146   3.544  16.710  0.2622  0.5218  0.0947
 3336SOL    HW121470   2.063   3.530  16.755  1.3174 -0.3019  1.7766
 3336SOL    HW221471   2.202   3.484  16.760 -0.3899  0.2581  0.5026
 3337SOL     OW21472   2.458   0.178  10.644 -0.3632  0.0072  0.3969
 3337SOL    HW121473   2.455   0.153  10.737  1.5263  0.3500  0.5642
 3337SOL    HW221474   2.364   0.177  10.631 -0.5609  0.2174  1.8292
 3338SOL     OW21475   2.670   2.773  15.392 -0.2551  0.4225  0.5967
 3338SOL    HW121476   2.576   2.760  15.382  0.8129 -4.5505 -2.3867
 3338SOL    HW221477   2.697   2.694  15.346 -1.1659 -1.0672  2.5881
 3339SOL     OW21478   1.081   3.458   0.537  0.0395 -0.1014 -0.0912
 3339SOL    HW121479   1.030   3.385   0.569  0.9098  0.1958  1.9557
 3339SOL    HW221480   1.093   3.504   0.620 -0.7269 -1.7832  0.9502
 3340SOL     OW21481   2.048   0.001   3.323  0.5505  0.1173 -0.1071
 3340SOL    HW121482   2.119   0.053   3.360 -0.4020  1.4158 -0.1205
 3340SOL    HW221483   2.091   4.720   3.237 -0.6002  1.5576 -0.7512
 3341SOL     OW21484   2.681   3.017  13.141  0.1680  0.1704 -0.1628
 3341SOL    HW121485   2.731   3.073  13.081 -1.3963 -0.8957 -2.4783
 3341SOL    HW221486   2.676   2.941  13.082 -0.0938 -0.1631  0.2883
 3342SOL     OW21487   3.169   0.804   2.564  0.2159  0.0207 -0.2821
 3342SOL    HW121488   3.144   0.809   2.656 -1.3227 -3.0125 -0.5523
 3342SOL    HW221489   3.083   0.791   2.524  0.2479  1.1458 -0.7366
 3343SOL     OW21490   1.426   1.544  11.853  0.0928 -0.1695  0.1209
 3343SOL    HW121491   1.492   1.613  11.859  0.6141 -0.8235  1.8457
 3343SOL    HW221492   1.400   1.547  11.761 -0.4741 -1.5008  0.2409
 3344SOL     OW21493   0.826   2.059   9.020  0.0160 -0.3027  0.2302
 3344SOL    HW121494   0.818   2.096   8.932  2.0002 -0.7925 -0.1595
 3344SOL    HW221495   0.757   2.106   9.066  0.4174 -0.3022  0.8352
 3345SOL     OW21496   3.698   3.456   6.023  0.3931 -0.0109 -0.3182
 3345SOL    HW121497   3.744   3.478   6.104 -1.8519  2.1298  0.3654
 3345SOL    HW221498   3.730   3.513   5.953  2.0247  0.1734  0.5851
 3346SOL     OW21499   1.496   0.207   3.204 -0.0019 -0.1403 -0.2787
 3346SOL    HW121500   1.489   0.203   3.109  1.3058 -2.7735 -0.2629
 3346SOL    HW221501   1.585   0.175   3.214  0.2307  0.5920 -0.0473
 3347SOL     OW21502   2.615   1.703   2.634  0.1649 -0.0180 -0.2709
 3347SOL    HW121503   2.618   1.638   2.704 -0.1592 -0.5551 -0.7512
 3347SOL    HW221504   2.544   1.761   2.658 -0.2688 -0.5270 -0.3287
 3348SOL     OW21505   3.991   3.024   0.913  0.0541 -0.1022  0.0281
 3348SOL    HW121506   3.943   2.944   0.893 -1.7861  1.0337 -0.1603
 3348SOL    HW221507   4.072   3.008   0.865  0.5210  1.6724  0.2027
 3349SOL     OW21508   4.333   0.288  11.738 -0.0634 -0.1320 -0.5286
 3349SOL    HW121509   4.293   0.254  11.658 -0.0965  1.7637 -1.3162
 3349SOL    HW221510   4.417   0.306  11.697 -0.6867  2.9270 -0.4326
 3350SOL     OW21511   0.917   3.358   7.272 -0.5221  0.3198 -0.0139
 3350SOL    HW121512   0.965   3.330   7.350 -0.3706 -0.7399 -0.4878
 3350SOL    HW221513   0.847   3.407   7.315 -1.3504 -2.7751  2.1003
 3351SOL     OW21514   2.948   0.392   8.209 -0.6285 -0.0920 -0.1764
 3351SOL    HW121515   2.988   0.477   8.229 -2.4587  0.9140 -0.8160
 3351SOL    HW221516   2.856   0.403   8.231 -0.8323 -0.6133 -0.7878
 3352SOL     OW21517   0.646   3.753   9.796  0.4986  0.0231 -0.0029
 3352SOL    HW121518   0.704   3.697   9.848  1.2296  0.7977  0.0214
 3352SOL    HW221519   0.570   3.720   9.843  0.7282 -0.9572 -0.3241
 3353SOL     OW21520   1.887   1.978  13.393 -0.3049  0.0569  0.3263
 3353SOL    HW121521   1.875   2.067  13.427 -2.3922 -0.2390  0.3732
 3353SOL    HW221522   1.935   1.938  13.466  3.0866  0.8540 -1.4376
 3354SOL     OW21523   3.803   1.781   6.254 -0.1993 -0.2390  0.0533
 3354SOL    HW121524   3.764   1.698   6.282  1.3880 -1.2486 -0.7480
 3354SOL    HW221525   3.721   1.827   6.236 -0.8699 -0.8853  1.4259
 3355SOL     OW21526   2.345   1.628   2.883 -0.5077  0.3284  0.0399
 3355SOL    HW121527   2.332   1.723   2.872  0.3511  0.4323 -0.1453
 3355SOL    HW221528   2.366   1.617   2.975  0.8060 -2.8164 -0.6502
 3356SOL     OW21529   0.501   0.925   2.840  0.6543 -0.1676 -0.1963
 3356SOL    HW121530   0.481   1.003   2.787  0.6078  0.0950  0.2105
 3356SOL    HW221531   0.547   0.969   2.912 -1.2613 -0.9415  1.4892
 3357SOL     OW21532   3.921   2.447   0.200  0.2676 -0.6812  0.2606
 3357SOL    HW121533   4.008   2.425   0.235  0.0093 -0.7563  0.8680
 3357SOL    HW221534   3.865   2.398   0.260  2.5371 -0.8537  2.2730
 3358SOL     OW21535   4.563   3.442  12.858  0.3809 -0.2017 -0.2613
 3358SOL    HW121536   4.610   3.361  12.877  1.1700  0.3215 -0.0041
 3358SOL    HW221537   4.633   3.489  12.813  0.7455  0.5666  1.1102
 3359SOL     OW21538   0.498   3.383   7.616 -0.3953  0.3917  1.0202
 3359SOL    HW121539   0.444   3.420   7.685  0.8739 -0.8411  2.6795
 3359SOL    HW221540   0.442   3.305   7.607 -0.4615  0.7637 -1.7374
 3360SOL     OW21541   3.107   1.290  11.300  0.5191  0.6989 -0.5925
 3360SOL    HW121542   3.183   1.233  11.288  0.4946  0.5047  0.1972
 3360SOL    HW221543   3.062   1.277  11.216 -1.0203 -1.0512  0.5065
 3361SOL     OW21544   0.316   2.237   3.067  0.4329  0.0870  0.3178
 3361SOL    HW121545   0.316   2.207   3.158  1.0267  2.8992  1.2279
 3361SOL    HW221546   0.230   2.279   3.071  0.3118 -0.1568  0.2772
 3362SOL     OW21547   3.434   3.050   2.288  0.5169 -0.3323  0.3430
 3362SOL    HW121548   3.354   3.102   2.300 -0.0957 -1.1082 -0.3568
 3362SOL    HW221549   3.491   3.112   2.333 -0.0957  2.8385 -3.2222
 3363SOL     OW21550   2.508   4.227   2.107  0.8762 -0.3111 -0.2059
 3363SOL    HW121551   2.481   4.247   2.018 -0.2020 -0.8120  0.0117
 3363SOL    HW221552   2.442   4.162   2.132  1.3463 -0.8841 -0.4587
 3364SOL     OW21553   2.654   2.668  14.007 -0.3795  0.5686 -0.0536
 3364SOL    HW121554   2.736   2.711  14.034  0.1283 -0.0108 -0.6632
 3364SOL    HW221555   2.633   2.703  13.921 -0.7335 -1.6879 -0.8916
 3365SOL     OW21556   0.419   0.552  15.485  0.3991 -0.0335  0.4038
 3365SOL    HW121557   0.503   0.510  15.504  1.3440  1.5559 -0.3288
 3365SOL    HW221558   0.404   0.520  15.397  1.4095 -0.7579  0.4956
 3366SOL     OW21559   1.966   1.737  15.293 -0.4921 -0.3776  0.1970
 3366SOL    HW121560   2.037   1.726  15.230  0.9093 -0.7732  1.8644
 3366SOL    HW221561   1.982   1.831  15.305 -1.3699 -0.7837  4.5186
 3367SOL     OW21562   4.273   0.309   8.856 -0.4259  0.4953 -0.1580
 3367SOL    HW121563   4.207   0.274   8.916 -3.2800  3.7925 -1.3371
 3367SOL    HW221564   4.333   0.235   8.845 -2.4795 -1.1299 -0.4206
 3368SOL     OW21565   3.643   0.748   8.455 -0.0308 -0.5005  0.4306
 3368SOL    HW121566   3.583   0.714   8.388  1.3005 -2.9105  0.4598
 3368SOL    HW221567   3.722   0.695   8.444 -0.1303 -0.6138  0.2630
 3369SOL     OW21568   0.807   1.079   3.313  0.0537 -0.5919 -0.3490
 3369SOL    HW121569   0.746   1.038   3.374  0.3722 -0.1712  0.2631
 3369SOL    HW221570   0.760   1.100   3.233  1.1009  0.9608 -0.5693
 3370SOL     OW21571   1.756   0.807   8.719  0.4428  0.1547 -0.3502
 3370SOL    HW121572   1.745   0.850   8.634 -1.1557  2.1099  0.8382
 3370SOL    HW221573   1.731   0.874   8.782 -0.4765 -0.5631  0.0359
 3371SOL     OW21574   3.566   4.302   6.215  0.4202  0.3479  0.2542
 3371SOL    HW121575   3.559   4.329   6.124 -1.8622  1.3520  0.7075
 3371SOL    HW221576   3.630   4.232   6.203 -1.3261 -1.3129  0.5600
 3372SOL     OW21577   0.535   0.778  14.091  0.0191  0.0254 -0.1475
 3372SOL    HW121578   0.475   0.740  14.027 -1.1740 -0.0887  1.0382
 3372SOL    HW221579   0.568   0.694  14.123 -0.7849  0.3823  1.6325
 3373SOL     OW21580   2.910   1.519   2.255 -1.0244  0.5748  0.5075
 3373SOL    HW121581   2.891   1.600   2.302 -0.1286  1.6539 -0.9818
 3373SOL    HW221582   2.930   1.460   2.328 -1.4753  1.0030  0.9699
 3374SOL     OW21583   1.977   1.574  11.023 -0.2344  0.1195 -0.3339
 3374SOL    HW121584   1.908   1.585  11.090 -1.1693 -0.6965 -1.1652
 3374SOL    HW221585   1.929   1.550  10.944  0.6534 -0.8655 -0.5711
 3375SOL     OW21586   3.099   3.489   8.421 -0.0271  0.3461 -0.4912
 3375SOL    HW121587   3.126   3.550   8.353  0.6829  1.8519  1.1229
 3375SOL    HW221588   3.006   3.486   8.399  0.3140 -3.3506 -1.3151
 3376SOL     OW21589   3.417   1.353   0.580 -0.2573 -0.6607 -0.1300
 3376SOL    HW121590   3.430   1.286   0.512  0.4122 -1.4301  0.7639
 3376SOL    HW221591   3.367   1.309   0.649  0.8796 -0.7757  0.6168
 3377SOL     OW21592   1.114   2.182   7.225 -0.1836  0.0859 -0.2734
 3377SOL    HW121593   1.122   2.259   7.282 -0.8308  1.7423 -2.4084
 3377SOL    HW221594   1.191   2.197   7.170  0.8749 -2.2289  0.6071
 3378SOL     OW21595   2.762   1.964  15.520  0.7499  0.2353 -0.3304
 3378SOL    HW121596   2.755   2.035  15.456 -0.0763  0.0862 -0.4058
 3378SOL    HW221597   2.728   1.889  15.471  1.4979 -2.0506  2.6720
 3379SOL     OW21598   2.912   0.348   3.954  0.5222 -0.2497  0.6697
 3379SOL    HW121599   2.974   0.307   3.894  0.6989 -0.8953  1.2941
 3379SOL    HW221600   2.969   0.387   4.021  2.5294  1.1755 -1.8692
 3380SOL     OW21601   1.358   1.097   3.590  0.9386  0.2026 -0.8425
 3380SOL    HW121602   1.436   1.044   3.607  2.1089  2.1548 -0.1992
 3380SOL    HW221603   1.333   1.083   3.498  0.0055  1.6318 -0.7928
 3381SOL     OW21604   2.281   0.389   4.637  0.4244 -0.1946 -0.1580
 3381SOL    HW121605   2.210   0.378   4.700  1.5090 -2.2775  0.7250
 3381SOL    HW221606   2.260   0.329   4.566 -2.5648  1.4087 -0.6315
 3382SOL     OW21607   2.039   1.703   5.470 -0.0189  0.3939  0.0171
 3382SOL    HW121608   2.056   1.694   5.376 -0.0114  0.9563 -0.0392
 3382SOL    HW221609   1.963   1.647   5.485  1.0564 -1.3293 -0.9019
 3383SOL     OW21610   4.034   2.526   7.602  0.5838 -0.2241 -0.0766
 3383SOL    HW121611   3.940   2.542   7.608  0.4792 -0.4817 -0.9969
 3383SOL    HW221612   4.052   2.496   7.691  0.3611  1.3081  0.4766
 3384SOL     OW21613   2.567   1.506   0.889  0.6756  0.4915 -0.1999
 3384SOL    HW121614   2.535   1.417   0.875  1.7117  0.0313  0.3872
 3384SOL    HW221615   2.661   1.500   0.875  0.9104  2.8584  0.4212
 3385SOL     OW21616   2.714   0.866   3.198 -0.1544  0.0144  0.4557
 3385SOL    HW121617   2.773   0.935   3.168  1.3853 -2.4348 -2.2055
 3385SOL    HW221618   2.676   0.917   3.269 -2.0121 -1.0365  0.2110
 3386SOL     OW21619   0.106   3.771   6.452 -0.0929  0.5554  0.4487
 3386SOL    HW121620   0.100   3.739   6.363  0.0065  1.1811  0.2168
 3386SOL    HW221621   0.165   3.704   6.485 -1.2819  0.1576  1.7642
 3387SOL     OW21622   3.939   0.622  13.417  0.3209  0.0335  0.0948
 3387SOL    HW121623   3.931   0.691  13.482 -0.7595  1.2583 -1.3543
 3387SOL    HW221624   3.991   0.551  13.456 -0.6854 -1.2636 -0.9145
 3388SOL     OW21625   2.547   2.980  15.661  0.7815  0.1911  0.5725
 3388SOL    HW121626   2.516   2.924  15.590  1.4916  0.3436  0.1394
 3388SOL    HW221627   2.626   2.931  15.687  0.0076 -0.3276  1.9096
 3389SOL     OW21628   2.307   0.610   3.456 -0.4038  0.2533  0.5002
 3389SOL    HW121629   2.364   0.544   3.496  0.4945  0.3752 -0.5867
 3389SOL    HW221630   2.281   0.561   3.378 -0.2086  0.3508  0.3734
 3390SOL     OW21631   3.116   2.783  10.360 -0.1455  0.5446 -0.0522
 3390SOL    HW121632   3.063   2.863  10.366 -1.4099 -0.2744 -0.4423
 3390SOL    HW221633   3.158   2.785  10.274  2.0558 -1.6901  0.9778
 3391SOL     OW21634   1.269   3.439   7.977  0.0057  0.3313 -0.1342
 3391SOL    HW121635   1.305   3.465   8.061  1.6230  1.7077 -1.2401
 3391SOL    HW221636   1.300   3.506   7.915  1.8082  1.0211  1.5341
 3392SOL     OW21637   3.382   2.121   5.866  0.1006 -0.3118  0.0928
 3392SOL    HW121638   3.393   2.030   5.894 -0.1103 -0.2562  0.3571
 3392SOL    HW221639   3.357   2.095   5.777  1.9947 -0.7497 -0.3046
 3393SOL     OW21640   3.902   3.580  10.613  0.1282  0.2844 -0.1538
 3393SOL    HW121641   3.932   3.563  10.702  0.9855 -4.0876 -1.2755
 3393SOL    HW221642   3.932   3.504  10.564  0.8712  0.2701  0.3271
 3394SOL     OW21643   3.817   2.950   7.948 -0.4239 -0.1361  0.4183
 3394SOL    HW121644   3.758   2.996   8.007 -1.2132 -0.7887  0.1446
 3394SOL    HW221645   3.888   2.933   8.010  2.7409 -1.2579 -3.4764
 3395SOL     OW21646   0.592   3.996   2.520 -0.0441 -0.7313  0.2686
 3395SOL    HW121647   0.553   4.048   2.591  0.9475  0.1472  0.1656
 3395SOL    HW221648   0.513   3.985   2.466 -0.1036 -0.6403  0.3371
 3396SOL     OW21649   0.763   0.239   4.070 -0.0352  0.8002  0.4236
 3396SOL    HW121650   0.760   0.241   4.166  0.6452 -1.7869  0.4801
 3396SOL    HW221651   0.704   0.311   4.047 -2.6623 -0.8541  1.9810
 3397SOL     OW21652   2.311   1.758   6.539  0.3592 -0.3512 -0.2282
 3397SOL    HW121653   2.251   1.716   6.476  0.6130  0.6491 -1.1395
 3397SOL    HW221654   2.266   1.740   6.621 -0.5059 -1.4795 -0.9432
 3398SOL     OW21655   0.225   1.015  12.382  0.1522 -0.5152  0.0093
 3398SOL    HW121656   0.287   0.944  12.372  2.3963  1.0495  2.8192
 3398SOL    HW221657   0.221   1.012  12.478 -4.2232  1.5370 -0.1131
 3399SOL     OW21658   4.320   4.214  12.300  0.2836 -0.2794  0.2614
 3399SOL    HW121659   4.312   4.178  12.211  3.1510  1.0478 -0.5256
 3399SOL    HW221660   4.406   4.255  12.295  0.0130  0.4171  1.1636
 3400SOL     OW21661   1.552   4.416   2.050 -0.0386 -0.0761  0.5970
 3400SOL    HW121662   1.521   4.329   2.025  0.2396 -0.1088  0.3772
 3400SOL    HW221663   1.472   4.468   2.042 -1.5297 -2.0217  2.7922
 3401SOL     OW21664   2.415   0.868   2.833  0.5645 -0.5090 -0.0433
 3401SOL    HW121665   2.347   0.935   2.819 -0.6159 -1.6863  0.0631
 3401SOL    HW221666   2.419   0.831   2.745 -2.0439  0.3547 -0.5513
 3402SOL     OW21667   0.110   4.010  16.647 -0.0826  0.1827  0.1767
 3402SOL    HW121668   0.183   4.070  16.658  0.1470 -0.4960  2.3725
 3402SOL    HW221669   0.090   3.997  16.740 -1.7352  1.3571 -0.0211
 3403SOL     OW21670   1.355   1.499  17.210  0.3780  0.7740 -0.4986
 3403SOL    HW121671   1.379   1.410  17.236  1.8425  1.6658  1.2251
 3403SOL    HW221672   1.413   1.549  17.267  0.3412  0.3947 -0.1351
 3404SOL     OW21673   0.397   2.549   7.600  0.0778  0.1315 -0.3475
 3404SOL    HW121674   0.326   2.517   7.545 -0.9270  2.2466 -0.2751
 3404SOL    HW221675   0.369   2.631   7.641 -1.2780 -0.6512  0.2677
 3405SOL     OW21676   2.584   1.290  11.779 -0.4210 -0.1038  0.7531
 3405SOL    HW121677   2.599   1.375  11.738 -2.6099  0.9810  2.2309
 3405SOL    HW221678   2.626   1.226  11.721 -2.4358  1.0498 -1.9638
 3406SOL     OW21679   1.975   1.015   9.084 -0.3308  0.0379 -0.2843
 3406SOL    HW121680   1.973   0.921   9.067  0.7076 -0.0649  0.1593
 3406SOL    HW221681   2.052   1.046   9.035 -0.2165  1.0417  0.5306
 3407SOL     OW21682   3.376   1.087  10.955 -0.5822 -0.6272 -0.3233
 3407SOL    HW121683   3.334   1.045  10.880  1.8492 -0.5258 -1.7422
 3407SOL    HW221684   3.471   1.075  10.947 -0.9047 -2.8007 -0.7491
 3408SOL     OW21685   4.061   3.948   7.550  0.1042 -1.0235  0.3982
 3408SOL    HW121686   3.982   3.958   7.603 -0.1600 -1.5437  0.1023
 3408SOL    HW221687   4.032   3.897   7.475 -1.2067 -2.3937  1.8253
 3409SOL     OW21688   2.466   0.242   5.251 -0.0837 -0.2445  0.4812
 3409SOL    HW121689   2.492   0.316   5.197  0.2678 -0.9364 -0.3061
 3409SOL    HW221690   2.553   0.203   5.259 -0.5144 -1.4367 -0.5315
 3410SOL     OW21691   3.532   4.697   3.749 -0.1374 -0.2451  0.2462
 3410SOL    HW121692   3.487   0.042   3.700  0.5349  0.4834  0.6604
 3410SOL    HW221693   3.620   4.722   3.723 -1.4215  2.6572 -1.2381
 3411SOL     OW21694   3.938   3.420  15.860 -0.1040 -0.5235 -0.2620
 3411SOL    HW121695   3.997   3.447  15.789 -0.2589  0.0916 -0.1574
 3411SOL    HW221696   3.998   3.399  15.931  1.8199 -0.1791 -1.7780
 3412SOL     OW21697   1.753   4.427   8.515 -0.3369 -0.0047  0.0126
 3412SOL    HW121698   1.760   4.522   8.514  0.8072 -0.0731  1.3641
 3412SOL    HW221699   1.709   4.413   8.599  0.9248 -0.2052  0.6393
 3413SOL     OW21700   3.317   2.090   5.603 -0.8140  0.1771 -0.0136
 3413SOL    HW121701   3.276   2.004   5.603 -1.5639  0.5273  1.3087
 3413SOL    HW221702   3.244   2.144   5.573 -0.8635  1.4029  2.2545
 3414SOL     OW21703   2.216   4.279   8.546 -0.5646 -0.7169 -0.1986
 3414SOL    HW121704   2.131   4.295   8.505 -1.1092  0.8038  1.4906
 3414SOL    HW221705   2.273   4.327   8.486  2.1875  1.0141  3.7835
 3415SOL     OW21706   3.293   2.459   2.761 -0.1128 -0.4718 -0.0930
 3415SOL    HW121707   3.285   2.370   2.795 -0.3763  0.5269  2.4112
 3415SOL    HW221708   3.309   2.509   2.841  1.1268  0.1529 -0.7440
 3416SOL     OW21709   4.071   3.062   8.504 -0.1163  0.3504  0.1572
 3416SOL    HW121710   4.035   2.982   8.466  1.4332 -0.2052 -0.1514
 3416SOL    HW221711   4.145   3.035   8.558 -0.6731 -1.5334 -0.0173
 3417SOL     OW21712   0.500   4.279   9.058 -0.5709 -0.0006 -0.1993
 3417SOL    HW121713   0.552   4.329   8.994 -1.1776  0.1962 -0.5401
 3417SOL    HW221714   0.519   4.188   9.036 -1.5498 -1.0287  3.2653
 3418SOL     OW21715   4.430   3.710   7.191 -0.4250  0.2872 -0.0643
 3418SOL    HW121716   4.389   3.795   7.207 -0.0205  0.3556  0.6318
 3418SOL    HW221717   4.354   3.654   7.207  0.6284 -1.1482 -0.0787
 3419SOL     OW21718   4.236   0.600  10.853 -0.0299  0.2566  0.3633
 3419SOL    HW121719   4.144   0.572  10.859 -0.0471  0.9995  3.4618
 3419SOL    HW221720   4.267   0.588  10.942 -2.3092  2.5922  1.4712
 3420SOL     OW21721   4.246   3.547   3.722 -0.0183  0.4090  0.4176
 3420SOL    HW121722   4.309   3.490   3.766 -1.1326 -0.5354  0.7933
 3420SOL    HW221723   4.160   3.510   3.743  0.1042 -0.5340 -0.7642
 3421SOL     OW21724   1.542   2.834   7.028  0.0789 -0.6483  0.2180
 3421SOL    HW121725   1.461   2.883   7.009  0.3954  0.8077  2.6770
 3421SOL    HW221726   1.609   2.892   6.990  1.0429 -1.6747  0.3702
 3422SOL     OW21727   2.886   3.760   3.084 -0.0869 -0.5903  0.2403
 3422SOL    HW121728   2.874   3.849   3.051 -1.3296 -0.4267  1.1334
 3422SOL    HW221729   2.981   3.758   3.069 -0.3191 -0.1373 -1.2267
 3423SOL     OW21730   1.655   3.087   6.628 -0.0045  0.4269 -0.5239
 3423SOL    HW121731   1.658   3.056   6.538 -1.1306  1.0860 -0.7834
 3423SOL    HW221732   1.577   3.142   6.619 -1.4317 -1.2596  1.6536
 3424SOL     OW21733   3.432   1.161   7.673  0.1013  0.1923  0.6341
 3424SOL    HW121734   3.439   1.211   7.754 -0.9693  0.4422  0.5684
 3424SOL    HW221735   3.423   1.225   7.603  0.3278 -0.0730  0.3628
 3425SOL     OW21736   2.312   0.534  16.141  0.6838  0.2630 -0.8475
 3425SOL    HW121737   2.220   0.542  16.165  1.5051 -0.3884  2.5951
 3425SOL    HW221738   2.352   0.619  16.123 -0.1601  1.0555  1.0111
 3426SOL     OW21739   2.079   0.206   9.568 -0.1676 -0.2195  0.1068
 3426SOL    HW121740   2.164   0.162   9.569 -0.1898 -0.2797 -1.0487
 3426SOL    HW221741   2.102   0.291   9.532 -0.5862  0.2109  0.8446
 3427SOL     OW21742   4.426   3.006   7.728 -0.3956  0.0435  0.7689
 3427SOL    HW121743   4.358   2.940   7.718  1.2690 -1.8657  2.0834
 3427SOL    HW221744   4.448   3.029   7.638  0.0087  0.2404  0.9155
 3428SOL     OW21745   1.831   2.848   7.707 -0.3197  0.4560  0.2030
 3428SOL    HW121746   1.809   2.937   7.681  0.5733 -0.0235 -2.1734
 3428SOL    HW221747   1.764   2.790   7.670 -0.7664  1.6702 -0.8563
 3429SOL     OW21748   0.271   2.995   4.598 -0.1473 -0.3660 -0.3256
 3429SOL    HW121749   0.305   3.046   4.671 -0.6412 -1.2739  0.5394
 3429SOL    HW221750   0.240   3.061   4.537 -0.3000  1.3280  1.5832
 3430SOL     OW21751   1.810   2.681   8.588 -0.2006  0.3373 -0.0131
 3430SOL    HW121752   1.840   2.703   8.677 -0.3228  0.0629  0.0950
 3430SOL    HW221753   1.739   2.741   8.567  0.1266  1.5482  2.2844
 3431SOL     OW21754   3.989   1.879   6.586  0.1187 -0.0690  0.0736
 3431SOL    HW121755   3.947   1.920   6.662 -0.6316 -1.6436  0.5145
 3431SOL    HW221756   3.976   1.785   6.596  0.0027 -0.1202 -0.5573
 3432SOL     OW21757   2.550   0.300  14.297  0.2612 -0.0587  0.4578
 3432SOL    HW121758   2.598   0.309  14.379  1.2398  1.8685 -0.3077
 3432SOL    HW221759   2.593   0.236  14.241 -0.2282 -0.5498  0.6442
 3433SOL     OW21760   1.256   3.516   9.838 -0.0577  0.0119  0.3423
 3433SOL    HW121761   1.290   3.580   9.901  2.2071 -0.7033 -0.1837
 3433SOL    HW221762   1.304   3.529   9.756 -0.6679 -3.0947 -0.4872
 3434SOL     OW21763   1.397   2.266   3.167 -0.3153  0.2075 -0.4117
 3434SOL    HW121764   1.434   2.188   3.208 -0.9754 -0.6609 -1.4816
 3434SOL    HW221765   1.396   2.245   3.074  0.9311 -0.6279 -0.2439
 3435SOL     OW21766   3.020   3.566   6.984  0.1328  0.4784 -0.2350
 3435SOL    HW121767   2.932   3.543   7.012  0.2060  0.8821  0.3163
 3435SOL    HW221768   3.020   3.521   6.899  0.4487  2.0123 -1.0548
 3436SOL     OW21769   0.273   0.042   3.906  0.4361 -0.1189 -0.4449
 3436SOL    HW121770   0.329   4.689   3.916 -0.6141 -0.9284 -0.6649
 3436SOL    HW221771   0.216   0.012   3.835 -2.8281 -1.1233  2.6044
 3437SOL     OW21772   3.674   3.969   3.238 -0.2179 -1.1416  0.2938
 3437SOL    HW121773   3.647   3.976   3.146 -0.3305  0.1754  0.4148
 3437SOL    HW221774   3.725   3.888   3.237  1.8792  0.1775  0.7005
 3438SOL     OW21775   3.833   2.226   6.384 -0.1484  0.3416 -0.5443
 3438SOL    HW121776   3.902   2.291   6.398  0.7275 -0.6081 -0.4363
 3438SOL    HW221777   3.888   2.153   6.356 -1.1578  0.0055 -1.6639
 3439SOL     OW21778   4.611   3.933  10.608 -0.7260  0.1923  0.1368
 3439SOL    HW121779   4.602   3.989  10.684  2.2752 -0.7048  1.1644
 3439SOL    HW221780   4.519   3.940  10.582 -0.5926  1.1934 -0.0342
 3440SOL     OW21781   2.018   1.579   5.187  0.2965  0.4073 -0.0197
 3440SOL    HW121782   2.053   1.512   5.246 -0.3776  1.4659  1.5905
 3440SOL    HW221783   2.094   1.635   5.171  0.5341 -0.5734 -2.3790
 3441SOL     OW21784   4.012   4.539  12.261  0.1798  0.3121 -0.3175
 3441SOL    HW121785   4.026   4.469  12.324 -3.3380 -1.7497 -1.7739
 3441SOL    HW221786   4.031   4.490  12.180  2.4907  0.6867 -0.0036
 3442SOL     OW21787   2.899   3.572   2.674  0.7460  0.1250 -0.0510
 3442SOL    HW121788   2.829   3.610   2.621  0.7846  1.4248  0.8167
 3442SOL    HW221789   2.968   3.637   2.661  1.1035 -0.1832  0.2915
 3443SOL     OW21790   1.831   1.649   4.347 -0.1436  0.2351  0.7110
 3443SOL    HW121791   1.736   1.638   4.346 -0.2242  0.7643  1.8418
 3443SOL    HW221792   1.848   1.643   4.253 -1.9876 -0.8351  0.4552
 3444SOL     OW21793   2.978   2.013   4.537 -0.1404 -0.3001  0.3580
 3444SOL    HW121794   3.042   1.942   4.541  0.4086  0.2696  1.6135
 3444SOL    HW221795   2.987   2.019   4.442 -0.9277 -0.1622  0.2936
 3445SOL     OW21796   2.461   1.189   5.059 -0.6411 -0.6489  0.0284
 3445SOL    HW121797   2.529   1.133   5.021 -0.6572  0.2226 -1.2920
 3445SOL    HW221798   2.456   1.268   5.006 -1.3266 -1.0989 -0.5820
 3446SOL     OW21799   3.924   0.541   8.551  0.0323  1.0946  0.0485
 3446SOL    HW121800   3.877   0.595   8.614 -0.2738  0.0180  0.7356
 3446SOL    HW221801   4.005   0.526   8.600 -0.9631 -0.8881  1.0641
 3447SOL     OW21802   0.974   1.655   6.432  0.3744  0.5457  0.0126
 3447SOL    HW121803   0.886   1.680   6.460  0.3469 -2.0724  2.1646
 3447SOL    HW221804   0.961   1.562   6.414 -1.5042  0.7923  0.1232
 3448SOL     OW21805   3.669   3.126   5.757  0.4217 -0.6214  0.0275
 3448SOL    HW121806   3.612   3.096   5.686  0.1626  0.2775 -0.1418
 3448SOL    HW221807   3.651   3.220   5.753  0.4967 -0.6470 -0.8331
 3449SOL     OW21808   1.728   1.320   2.996 -0.0032  0.4245  0.6889
 3449SOL    HW121809   1.787   1.341   2.922  0.9102 -2.4273  0.6208
 3449SOL    HW221810   1.662   1.383   2.965  1.7789  1.5134 -0.9825
 3450SOL     OW21811   0.885   2.650  13.538 -0.2160 -0.1262 -0.4428
 3450SOL    HW121812   0.826   2.612  13.473 -2.2101 -0.2002  1.4130
 3450SOL    HW221813   0.844   2.612  13.615  1.0947 -0.9753 -0.1652
 3451SOL     OW21814   1.414   0.994   1.567 -0.2947  0.1010  0.3009
 3451SOL    HW121815   1.426   1.046   1.487 -1.6439 -0.5934 -0.3447
 3451SOL    HW221816   1.399   1.068   1.625  1.2050 -0.1376  1.0178
 3452SOL     OW21817   2.230   3.987   7.853 -0.0148 -0.2758 -0.0492
 3452SOL    HW121818   2.257   3.923   7.787  1.3474  0.0279  0.2067
 3452SOL    HW221819   2.254   4.072   7.815  0.5085 -1.2778 -1.9689
 3453SOL     OW21820   3.909   1.974   7.039  0.1326 -0.4624  0.0226
 3453SOL    HW121821   3.959   1.900   7.074 -0.6163 -1.8396 -1.8098
 3453SOL    HW221822   3.882   1.944   6.952  1.3040  1.1471 -0.8928
 3454SOL     OW21823   0.768   4.080  13.391  0.5233  0.0171 -0.1404
 3454SOL    HW121824   0.676   4.076  13.418 -0.1080 -1.7142 -2.4984
 3454SOL    HW221825   0.807   4.003  13.432  0.9211  0.0091 -0.5384
 3455SOL     OW21826   3.753   4.309   1.226 -0.0178  0.2471  0.1448
 3455SOL    HW121827   3.669   4.353   1.223 -0.3729 -0.4578 -0.1837
 3455SOL    HW221828   3.743   4.285   1.318 -0.7031  0.1782  0.0508
 3456SOL     OW21829   3.325   3.941   9.824 -0.6041  0.1993  0.0102
 3456SOL    HW121830   3.260   3.944   9.894 -0.8875  0.0323 -0.2499
 3456SOL    HW221831   3.323   4.032   9.794  1.4004 -0.3035 -1.6768
 3457SOL     OW21832   0.412   0.333   4.776 -0.3667 -0.4105 -0.1588
 3457SOL    HW121833   0.406   0.241   4.803  1.4405 -0.5076 -0.0379
 3457SOL    HW221834   0.424   0.323   4.682 -0.1440  2.8552 -0.4722
 3458SOL     OW21835   3.976   3.357   5.825 -0.1504 -0.0327  0.8355
 3458SOL    HW121836   3.937   3.386   5.742 -0.6725 -0.0549  1.0728
 3458SOL    HW221837   4.060   3.326   5.792 -1.0129 -0.6719 -0.7960
 3459SOL     OW21838   1.890   1.140   7.834  0.3668  0.4955 -0.6090
 3459SOL    HW121839   1.823   1.137   7.765  0.2887  1.0325 -0.5592
 3459SOL    HW221840   1.953   1.202   7.799  1.9805 -2.4639 -3.0029
 3460SOL     OW21841   1.187   3.892   8.711 -0.8592  0.1019 -0.0436
 3460SOL    HW121842   1.254   3.831   8.681  0.2748  0.6184  1.4549
 3460SOL    HW221843   1.122   3.884   8.641 -1.2175  2.2962  0.0260
 3461SOL     OW21844   1.326   3.498   6.521 -0.0825 -0.1917  0.8482
 3461SOL    HW121845   1.245   3.484   6.570  0.1163 -2.2669  0.5880
 3461SOL    HW221846   1.369   3.556   6.583 -0.6108  1.2681 -0.1338
 3462SOL     OW21847   3.191   3.664   7.731 -0.5493  0.2363  1.0016
 3462SOL    HW121848   3.222   3.588   7.681 -0.5002  0.8340  0.1121
 3462SOL    HW221849   3.241   3.657   7.812  0.1029 -1.2314  0.4841
 3463SOL     OW21850   2.711   4.081  10.853 -0.2790 -0.0005 -0.0321
 3463SOL    HW121851   2.669   4.057  10.770 -1.0203 -0.8172  0.5903
 3463SOL    HW221852   2.657   4.024  10.907  2.0614  0.3851  2.7523
 3464SOL     OW21853   0.069   0.677   9.227 -0.5083  0.2759  0.0694
 3464SOL    HW121854   0.008   0.608   9.202 -0.1898  0.0882 -0.1936
 3464SOL    HW221855   0.150   0.642   9.189 -0.1532  0.4416  0.6691
 3465SOL     OW21856   0.595   3.902   0.925 -0.1281  0.9062  0.4615
 3465SOL    HW121857   0.554   3.827   0.969 -0.2751  0.5893 -0.2083
 3465SOL    HW221858   0.679   3.904   0.969 -0.7791  1.1384  1.6916
 3466SOL     OW21859   4.289   1.970  10.591 -0.2028  0.0334 -0.2574
 3466SOL    HW121860   4.311   2.060  10.568 -2.9133  0.6602 -0.2931
 3466SOL    HW221861   4.194   1.965  10.601 -0.1434  1.0913  0.7606
 3467SOL     OW21862   3.689   1.677  15.488 -0.7429  0.4641 -0.4709
 3467SOL    HW121863   3.684   1.756  15.434  1.6140  1.0242  0.1504
 3467SOL    HW221864   3.597   1.652  15.475 -0.7819  0.9004 -1.0328
 3468SOL     OW21865   1.522   2.174   9.251 -0.4135  0.2318  0.7650
 3468SOL    HW121866   1.455   2.180   9.182 -0.8870  0.6373  1.2588
 3468SOL    HW221867   1.498   2.090   9.290  1.3173 -1.8640 -2.6428
 3469SOL     OW21868   3.618   1.398   0.873 -0.3354 -0.0672  0.2358
 3469SOL    HW121869   3.692   1.348   0.908 -0.9888 -0.4299  1.0930
 3469SOL    HW221870   3.552   1.330   0.858 -0.3898 -0.1269  0.7282
 3470SOL     OW21871   2.287   4.039   6.213  0.4883  0.2034  0.4535
 3470SOL    HW121872   2.242   4.053   6.130 -0.2318  0.7971  0.9432
 3470SOL    HW221873   2.299   4.130   6.240 -1.4845  0.4610  0.4676
 3471SOL     OW21874   2.561   2.433   5.336  0.9049 -0.2339 -0.3860
 3471SOL    HW121875   2.537   2.343   5.318  0.7307 -0.3412  0.4128
 3471SOL    HW221876   2.654   2.442   5.313  1.1397 -0.7996  0.3690
 3472SOL     OW21877   2.333   0.384  10.287 -0.6142 -0.0305 -0.2860
 3472SOL    HW121878   2.260   0.374  10.348 -1.5312  1.0003 -1.2069
 3472SOL    HW221879   2.393   0.314  10.315 -0.8004 -0.4513 -0.9214
 3473SOL     OW21880   2.985   2.725   2.869 -0.1988  0.1457 -0.1004
 3473SOL    HW121881   2.946   2.804   2.908  0.9775 -0.1532  1.6853
 3473SOL    HW221882   2.919   2.711   2.801  0.2389  1.1524 -0.7333
 3474SOL     OW21883   0.017   1.533   5.233 -0.6073 -0.3007 -0.9725
 3474SOL    HW121884   0.050   1.623   5.225  1.1820 -0.8559  0.2850
 3474SOL    HW221885   4.702   1.523   5.145  1.5022  0.6420 -1.9912
 3475SOL     OW21886   2.816   1.623   8.550 -0.1768  0.2044 -0.0577
 3475SOL    HW121887   2.779   1.690   8.492  1.2647 -0.4297 -1.7031
 3475SOL    HW221888   2.880   1.673   8.602 -1.6711  1.5701  0.4733
 3476SOL     OW21889   3.696   1.853   1.889  0.0014  0.0467  0.4251
 3476SOL    HW121890   3.719   1.908   1.814 -1.9726  1.0045  0.5186
 3476SOL    HW221891   3.634   1.912   1.930 -0.0249  1.3290 -1.4325
 3477SOL     OW21892   0.430   3.013   0.661 -0.2761  0.3538 -0.2611
 3477SOL    HW121893   0.346   2.981   0.694  0.0261 -0.0491  0.1159
 3477SOL    HW221894   0.484   3.018   0.739 -0.8992  0.8806  0.1392
 3478SOL     OW21895   1.048   0.109  14.665 -0.5595  0.3708  0.4887
 3478SOL    HW121896   0.958   0.078  14.653 -1.0342  2.2868 -0.8915
 3478SOL    HW221897   1.048   0.125  14.760 -1.9236 -1.8229  0.8684
 3479SOL     OW21898   3.094   1.325   2.141  0.5400  0.4358 -0.6599
 3479SOL    HW121899   3.023   1.270   2.176 -0.0291  1.8325  0.3606
 3479SOL    HW221900   3.148   1.250   2.113 -0.4027  0.1195 -1.6383
 3480SOL     OW21901   1.937   1.174   0.106  0.0739  0.1517  0.4249
 3480SOL    HW121902   1.976   1.092   0.076  0.3981  0.4019  0.1561
 3480SOL    HW221903   1.998   1.219   0.165  0.5207 -1.4298  1.1637
 3481SOL     OW21904   4.021   0.752   2.910 -0.0161 -0.1376  0.2645
 3481SOL    HW121905   3.941   0.740   2.858  0.2844 -1.8517  0.1996
 3481SOL    HW221906   4.028   0.846   2.898  1.8246 -0.3069  0.1355
 3482SOL     OW21907   2.144   1.810   4.516  0.7265 -0.2720 -0.4134
 3482SOL    HW121908   2.155   1.720   4.484  0.5516 -0.9825  1.5274
 3482SOL    HW221909   2.237   1.833   4.518  0.4012  1.0531 -0.5136
 3483SOL     OW21910   0.139   1.176   6.852  0.6290  0.3147 -0.0772
 3483SOL    HW121911   0.199   1.235   6.807  0.7074 -0.1573 -0.5883
 3483SOL    HW221912   0.072   1.240   6.878  0.7512 -0.0382  1.1112
 3484SOL     OW21913   3.775   3.748  11.053 -1.0582  0.1021  0.1374
 3484SOL    HW121914   3.757   3.714  11.141 -1.5487 -1.2700 -0.4831
 3484SOL    HW221915   3.700   3.717  11.002 -0.9587 -0.1347  0.1374
 3485SOL     OW21916   4.584   2.973   7.033  0.4890 -0.8959  0.6270
 3485SOL    HW121917   4.673   2.951   7.006  0.6655 -0.2049  0.6237
 3485SOL    HW221918   4.570   3.064   7.004  1.3714 -0.6809  0.8784
 3486SOL     OW21919   3.343   0.748   7.455 -0.1088 -0.0832  0.4027
 3486SOL    HW121920   3.278   0.760   7.525 -2.9682 -0.3442 -2.1909
 3486SOL    HW221921   3.291   0.779   7.381  0.2155 -0.7453 -0.0941
 3487SOL     OW21922   3.508   1.271   5.370 -0.4107 -0.2046 -0.0388
 3487SOL    HW121923   3.434   1.220   5.403 -1.2062  1.0971  0.1577
 3487SOL    HW221924   3.471   1.356   5.346 -1.3477 -0.0822  1.8372
 3488SOL     OW21925   3.950   4.504  15.301 -0.0693 -0.6498  0.0162
 3488SOL    HW121926   3.907   4.519  15.385 -1.7193  0.8213 -1.1007
 3488SOL    HW221927   3.977   4.594  15.283 -0.2322 -0.5478  0.2825
 3489SOL     OW21928   2.299   4.058   2.169 -0.3655  0.0119 -0.5680
 3489SOL    HW121929   2.333   4.008   2.095 -1.7688 -0.5631 -0.8218
 3489SOL    HW221930   2.205   4.043   2.164 -0.6999  1.9690 -0.0797
 3490SOL     OW21931   2.664   4.516   5.190 -0.2341  0.2925 -0.1217
 3490SOL    HW121932   2.647   4.588   5.250 -5.7891  0.2024 -1.5376
 3490SOL    HW221933   2.671   4.448   5.257 -0.3887  2.0118  1.6347
 3491SOL     OW21934   4.709   0.921  14.903 -0.2400 -0.8792 -0.3594
 3491SOL    HW121935   0.018   1.011  14.892  1.3065 -1.4161 -0.2139
 3491SOL    HW221936   4.616   0.943  14.909 -0.5921 -2.7049  1.1115
 3492SOL     OW21937   1.367   3.181   3.726 -0.3028  0.0352  0.0897
 3492SOL    HW121938   1.276   3.202   3.746 -0.3958  0.3634 -0.6718
 3492SOL    HW221939   1.404   3.269   3.737 -0.2053 -0.1287  1.0550
 3493SOL     OW21940   1.355   4.201   8.443  0.1108  0.5723 -0.0040
 3493SOL    HW121941   1.371   4.111   8.415  0.5272  1.2289 -1.9094
 3493SOL    HW221942   1.445   4.225   8.419  0.6690 -1.1961  0.3206
 3494SOL     OW21943   1.986   2.131   2.472 -0.3756  0.4284  0.0709
 3494SOL    HW121944   1.962   2.043   2.501 -0.8350 -0.0479 -1.7018
 3494SOL    HW221945   2.053   2.107   2.408  1.5523  3.3837  1.0166
 3495SOL     OW21946   0.991   2.597   7.599  0.3118  0.0668 -0.2744
 3495SOL    HW121947   0.922   2.604   7.534 -0.8093  1.9917  1.1544
 3495SOL    HW221948   0.938   2.558   7.668  1.9256 -0.5301  0.6387
 3496SOL     OW21949   3.214   3.624  10.760 -0.1600  0.3667  0.1579
 3496SOL    HW121950   3.208   3.711  10.799  1.6748 -0.4935  2.3809
 3496SOL    HW221951   3.138   3.639  10.703 -0.6364 -0.2663  0.6198
 3497SOL     OW21952   3.189   3.475   9.179  0.1448  0.1793  0.2653
 3497SOL    HW121953   3.099   3.479   9.213 -0.0797 -1.2046 -0.1688
 3497SOL    HW221954   3.178   3.402   9.118  2.5508 -0.1566  0.2571
 3498SOL     OW21955   1.181   0.044   8.304  0.1629 -0.3040  0.0281
 3498SOL    HW121956   1.172   0.081   8.392  0.0722  0.2484 -0.2123
 3498SOL    HW221957   1.261   4.720   8.326 -0.4307 -1.4500 -0.2555
 3499SOL     OW21958   0.176   3.494  15.543  0.4341 -0.0828  0.2208
 3499SOL    HW121959   0.164   3.584  15.512 -1.7643 -0.9409 -1.4524
 3499SOL    HW221960   0.182   3.446  15.460 -1.5728 -0.3009  0.1889
 3500SOL     OW21961   1.179   3.972  11.854  0.1742 -0.0499 -0.6932
 3500SOL    HW121962   1.264   4.008  11.829  0.6271 -1.2669 -0.9046
 3500SOL    HW221963   1.142   4.054  11.887  0.9331  0.1722 -0.3978
 3501SOL     OW21964   0.876   4.544   8.699 -0.0882 -0.2811 -0.1900
 3501SOL    HW121965   0.848   4.599   8.772  0.5263 -0.9084  0.5151
 3501SOL    HW221966   0.969   4.564   8.686 -0.0765 -1.3520 -1.7855
 3502SOL     OW21967   4.303   2.158  10.195 -0.0204  0.3978  0.6064
 3502SOL    HW121968   4.207   2.160  10.205 -0.0445 -0.3711  0.5878
 3502SOL    HW221969   4.335   2.145  10.284 -1.3120  2.0443  1.3171
 3503SOL     OW21970   3.945   2.768   4.030 -0.3411 -0.2723 -0.4238
 3503SOL    HW121971   3.896   2.832   3.980 -0.6937  0.1530  0.4635
 3503SOL    HW221972   4.019   2.818   4.064 -0.0432 -1.4978  0.7851
 3504SOL     OW21973   1.790   4.665  11.029 -0.7397 -0.0568  0.3350
 3504SOL    HW121974   1.851   4.632  11.095 -2.6311 -1.9714  1.1122
 3504SOL    HW221975   1.730   4.712  11.087 -0.2321  0.7726  0.1863
 3505SOL     OW21976   0.529   2.850   3.628 -0.2750 -0.5129  0.7906
 3505SOL    HW121977   0.529   2.937   3.588  0.7974 -0.5510  0.7061
 3505SOL    HW221978   0.556   2.798   3.553 -2.6148 -0.0937 -0.3447
 3506SOL     OW21979   3.973   4.496   5.707 -0.0367  0.0606  0.5526
 3506SOL    HW121980   3.910   4.506   5.778 -0.8417  1.9605 -0.4148
 3506SOL    HW221981   3.911   4.506   5.634  1.2789  1.7149 -0.3364
 3507SOL     OW21982   1.677   1.072   8.019  0.5905 -0.2492 -0.2445
 3507SOL    HW121983   1.708   0.982   8.015 -3.1321 -1.5361 -0.7254
 3507SOL    HW221984   1.757   1.124   8.028 -0.3501  1.3042 -0.7713
 3508SOL     OW21985   3.721   3.477   1.572 -0.1820 -0.1785  0.3105
 3508SOL    HW121986   3.672   3.406   1.614  1.1023 -0.3442  1.5393
 3508SOL    HW221987   3.733   3.444   1.484  0.1276 -0.5808  0.5041
 3509SOL     OW21988   4.494   0.349   3.477  0.1226 -0.0561  0.0614
 3509SOL    HW121989   4.444   0.272   3.452  0.0136  0.0790 -0.1391
 3509SOL    HW221990   4.445   0.415   3.427  0.5868  3.0962  3.7609
 3510SOL     OW21991   2.676   2.612   2.229 -0.1981 -0.4067 -0.2463
 3510SOL    HW121992   2.663   2.578   2.140  1.4942 -1.1251 -0.2058
 3510SOL    HW221993   2.762   2.652   2.228 -0.3834 -0.0290 -0.8384
 3511SOL     OW21994   3.821   1.673  12.835  0.1599  0.3442 -0.2608
 3511SOL    HW121995   3.735   1.650  12.800  0.6195  0.4905 -1.5003
 3511SOL    HW221996   3.798   1.756  12.877 -0.0821 -0.1010  0.4841
 3512SOL     OW21997   3.091   3.835   0.375  0.0590  0.2488 -0.2326
 3512SOL    HW121998   3.169   3.888   0.393  0.0261  0.0874  0.3852
 3512SOL    HW221999   3.080   3.852   0.282  0.2534  1.5284 -0.0173
 3513SOL     OW22000   2.164   0.947   4.018 -0.0324 -0.2631 -0.3509
 3513SOL    HW122001   2.201   0.927   3.932 -0.1032  0.9892 -0.6774
 3513SOL    HW222002   2.221   1.014   4.055  0.2581 -0.8480  0.2607
 3514SOL     OW22003   4.353   2.814  16.339 -0.7500 -0.4418  0.0298
 3514SOL    HW122004   4.414   2.837  16.269 -1.0555  3.2629  0.9884
 3514SOL    HW222005   4.371   2.882  16.403  0.0684  0.0081 -0.6836
 3515SOL     OW22006   4.184   2.696  14.574 -0.5191  0.0582 -0.0783
 3515SOL    HW122007   4.228   2.611  14.570 -0.4398  0.1318 -0.7878
 3515SOL    HW222008   4.249   2.754  14.615 -0.2885  0.0421 -0.4262
 3516SOL     OW22009   3.202   3.517  11.490 -0.0844  0.5798  0.2379
 3516SOL    HW122010   3.290   3.553  11.475  0.6722 -1.3565 -0.0642
 3516SOL    HW222011   3.199   3.517  11.585 -0.0984 -2.1725  0.2446
 3517SOL     OW22012   2.653   1.236   3.957  0.1545  0.5183  0.2124
 3517SOL    HW122013   2.688   1.190   4.033  2.8129  1.7060 -0.3068
 3517SOL    HW222014   2.640   1.162   3.898  3.0232  0.3037 -0.1261
 3518SOL     OW22015   0.860   1.430   7.501  0.4773 -0.5886 -0.4895
 3518SOL    HW122016   0.953   1.408   7.506  0.3747 -0.3816  2.2334
 3518SOL    HW222017   0.862   1.525   7.492 -0.1540 -0.5514 -0.2643
 3519SOL     OW22018   4.619   4.546   9.784  0.3799  0.0749  0.3719
 3519SOL    HW122019   4.547   4.607   9.767  0.5458  0.4625  1.0721
 3519SOL    HW222020   4.615   4.526   9.878 -1.2786 -0.6141  0.1490
 3520SOL     OW22021   3.358   3.634   1.678  0.8329  0.3155  0.5533
 3520SOL    HW122022   3.376   3.608   1.768  0.5121  1.3439  0.9180
 3520SOL    HW222023   3.356   3.551   1.630  0.6355  1.7716 -1.9850
 3521SOL     OW22024   2.681   0.606   2.547  0.0792 -0.0808  0.0273
 3521SOL    HW122025   2.746   0.583   2.613  0.9455 -1.9115 -1.4595
 3521SOL    HW222026   2.723   0.574   2.467 -0.3689 -2.1786  0.6226
 3522SOL     OW22027   4.221   0.097   2.485  0.1181 -0.1396  0.2280
 3522SOL    HW122028   4.290   0.146   2.440  2.4109 -0.9129  2.8745
 3522SOL    HW222029   4.158   0.086   2.414  0.2655 -1.0794  0.2407
 3523SOL     OW22030   2.693   1.969   7.094  0.2377 -0.2116 -0.2803
 3523SOL    HW122031   2.776   2.004   7.125  0.0673 -0.3628  0.3517
 3523SOL    HW222032   2.642   1.974   7.174  0.4853 -0.1036 -0.1313
 3524SOL     OW22033   4.141   0.680  14.639  0.6648 -0.2869  0.3976
 3524SOL    HW122034   4.124   0.586  14.649  0.5745 -0.3442 -0.3444
 3524SOL    HW222035   4.113   0.707  14.727  1.4353  0.1779  0.5017
 3525SOL     OW22036   0.495   3.026   7.727 -0.6482 -0.1904 -0.1591
 3525SOL    HW122037   0.516   3.060   7.814 -1.8912  0.0671  0.0475
 3525SOL    HW222038   0.429   3.092   7.705  0.2396  0.4392 -0.9438
 3526SOL     OW22039   0.149   0.096   4.234  0.1049 -0.0536  0.3986
 3526SOL    HW122040   0.138   0.001   4.229 -1.1222 -0.0232  2.5120
 3526SOL    HW222041   0.238   0.112   4.203  0.1010  0.2488  0.5468
 3527SOL     OW22042   2.552   2.914   6.775  0.0656 -0.5602  0.0222
 3527SOL    HW122043   2.534   2.952   6.861 -1.6856 -0.4267 -0.4149
 3527SOL    HW222044   2.517   2.825   6.783 -0.1532 -0.6228 -1.7898
 3528SOL     OW22045   1.880   3.917   1.839 -0.1727 -0.4779  0.3528
 3528SOL    HW122046   1.851   3.922   1.748  0.8326 -0.8013  0.0149
 3528SOL    HW222047   1.964   3.872   1.829 -0.4306 -1.2365  1.5989
 3529SOL     OW22048   2.540   4.371   1.831 -0.2774 -0.2896 -0.2401
 3529SOL    HW122049   2.533   4.406   1.742 -0.5096 -1.9416 -0.8647
 3529SOL    HW222050   2.621   4.322   1.819 -0.6129 -0.2715 -2.5716
 3530SOL     OW22051   4.091   4.534  13.095  0.3658  0.5542 -0.1690
 3530SOL    HW122052   4.095   4.440  13.075 -1.8482  0.8394 -1.9996
 3530SOL    HW222053   4.121   4.530  13.186  1.1601 -1.0577 -0.4886
 3531SOL     OW22054   0.967   3.228   4.933  0.1388  0.0611  0.2383
 3531SOL    HW122055   0.938   3.184   4.853 -0.5775 -0.1943  0.6284
 3531SOL    HW222056   0.975   3.319   4.904 -0.6198  0.4329  1.2108
 3532SOL     OW22057   0.722   0.616   4.550 -0.2867 -0.1591  0.7998
 3532SOL    HW122058   0.720   0.704   4.588  0.6770 -0.1494  0.8172
 3532SOL    HW222059   0.748   0.569   4.629  2.1891  0.2348  0.2246
 3533SOL     OW22060   3.504   0.048  12.401 -0.3515 -0.0201  0.3883
 3533SOL    HW122061   3.585   4.720  12.399  0.2282  1.0083 -3.1965
 3533SOL    HW222062   3.447   4.714  12.452  0.1133 -1.3194 -0.5562
 3534SOL     OW22063   4.402   3.704  15.023 -0.7711 -0.0714 -0.0721
 3534SOL    HW122064   4.369   3.790  14.995  1.7335  0.6063 -0.8739
 3534SOL    HW222065   4.458   3.687  14.948 -0.5365 -0.4077  0.1824
 3535SOL     OW22066   0.612   1.357   3.500 -0.8119  0.1017 -0.0786
 3535SOL    HW122067   0.691   1.409   3.481 -0.7197  0.0969  0.3021
 3535SOL    HW222068   0.649   1.281   3.543  0.0210  0.5161 -0.0618
 3536SOL     OW22069   3.792   1.233   2.389  0.2000 -0.1858 -0.1737
 3536SOL    HW122070   3.774   1.229   2.295  0.3269  0.0220 -0.2084
 3536SOL    HW222071   3.726   1.179   2.431 -0.0989 -0.2813 -0.7705
 3537SOL     OW22072   1.627   1.887   0.836 -0.5481 -0.4053  0.5110
 3537SOL    HW122073   1.592   1.810   0.791  0.9617 -0.7365 -0.1085
 3537SOL    HW222074   1.548   1.926   0.873 -0.9250 -1.1012  0.4412
 3538SOL     OW22075   3.046   3.809   4.525  0.2318 -0.4349 -0.1999
 3538SOL    HW122076   3.087   3.724   4.508 -0.6025 -1.0298  0.7640
 3538SOL    HW222077   3.124   3.860   4.547 -0.8514  0.9037  0.5243
 3539SOL     OW22078   0.661   3.258  12.290 -0.5888 -0.2896 -0.4254
 3539SOL    HW122079   0.678   3.314  12.215  1.3842  1.9578  1.7070
 3539SOL    HW222080   0.596   3.305  12.343 -0.1919 -1.2468  0.9163
 3540SOL     OW22081   0.291   2.726   4.775 -0.1327 -0.3032  0.9878
 3540SOL    HW122082   0.356   2.705   4.842 -0.5675 -1.5507  1.0035
 3540SOL    HW222083   0.245   2.643   4.774 -0.9622  0.1595  1.0009
 3541SOL     OW22084   4.309   0.241   5.878 -0.0041 -0.0180  0.0003
 3541SOL    HW122085   4.236   0.253   5.939 -0.8303  2.4100 -1.4373
 3541SOL    HW222086   4.257   0.200   5.808  0.1960  1.0611 -0.7826
 3542SOL     OW22087   2.763   2.735   1.498 -0.5981 -0.4488  0.4436
 3542SOL    HW122088   2.837   2.737   1.438 -0.5224 -1.1816  0.5135
 3542SOL    HW222089   2.764   2.819   1.544  1.2232  0.2366 -0.8347
 3543SOL     OW22090   3.351   4.614   3.163 -0.2553  0.5519 -0.0811
 3543SOL    HW122091   3.443   4.639   3.174  0.1989 -0.6392 -1.2574
 3543SOL    HW222092   3.327   4.666   3.086  2.4078 -0.2681 -1.4622
 3544SOL     OW22093   1.256   4.153  11.100  0.2495 -0.3941 -0.2753
 3544SOL    HW122094   1.205   4.072  11.089  0.0146 -0.2902  0.0213
 3544SOL    HW222095   1.245   4.207  11.022 -1.3365 -0.0882  0.1547
 3545SOL     OW22096   4.545   0.370   6.530 -0.1214 -0.0308 -0.0074
 3545SOL    HW122097   4.574   0.313   6.601 -0.0827 -0.5390 -0.4360
 3545SOL    HW222098   4.568   0.317   6.454 -1.7957 -0.8036  0.0201
 3546SOL     OW22099   4.190   0.768   6.237 -0.0448 -0.5847  0.8660
 3546SOL    HW122100   4.097   0.750   6.229  0.0730 -0.0607 -1.9396
 3546SOL    HW222101   4.209   0.744   6.328 -0.7113  1.1779  1.4601
 3547SOL     OW22102   0.398   1.459   6.094 -0.2721 -0.1414 -0.4139
 3547SOL    HW122103   0.477   1.410   6.111  0.8184  1.6043 -0.4390
 3547SOL    HW222104   0.441   1.538   6.060  1.9001 -1.0525  0.2421
 3548SOL     OW22105   1.787   1.942   9.478  0.3521 -0.3166  0.2992
 3548SOL    HW122106   1.751   1.977   9.560  1.6056 -3.6687  2.2837
 3548SOL    HW222107   1.777   1.849   9.499  0.2518 -0.8165 -2.0055
 3549SOL     OW22108   1.212   4.096  12.205  0.2202  0.0077  0.1587
 3549SOL    HW122109   1.281   4.033  12.186  0.3946  0.4230 -0.5640
 3549SOL    HW222110   1.168   4.107  12.121  1.3955 -1.7360 -0.7014
 3550SOL     OW22111   1.790   0.012   4.210  0.1711  0.0813  0.4705
 3550SOL    HW122112   1.757   0.098   4.183  1.5493  0.2768 -0.6198
 3550SOL    HW222113   1.873   0.016   4.163  0.0849  1.1596  0.4046
 3551SOL     OW22114   2.371   4.689   3.975  0.3661  0.3850 -0.2964
 3551SOL    HW122115   2.317   4.657   3.903 -0.2262  1.0129 -0.1305
 3551SOL    HW222116   2.318   0.041   4.002 -1.4514 -0.9598 -0.1179
 3552SOL     OW22117   0.346   1.205   7.901 -0.2263 -0.2926 -0.1383
 3552SOL    HW122118   0.318   1.230   7.989 -0.3288  0.2324 -0.3187
 3552SOL    HW222119   0.345   1.293   7.863  2.2427 -0.6756 -1.0836
 3553SOL     OW22120   1.779   4.499  12.745  0.0771 -0.1828 -0.0175
 3553SOL    HW122121   1.873   4.497  12.764  0.4098  3.1258 -1.3232
 3553SOL    HW222122   1.761   4.486  12.651  1.2405  0.3781 -0.3220
 3554SOL     OW22123   0.251   2.405  13.243 -0.3656  1.1597  0.6352
 3554SOL    HW122124   0.175   2.411  13.186 -0.7224  0.4517  1.0331
 3554SOL    HW222125   0.232   2.486  13.290  2.0372  1.8673  0.4038
 3555SOL     OW22126   2.728   2.617  17.554  0.9506  0.0013  0.0689
 3555SOL    HW122127   2.782   2.559  17.500  1.3654  0.4346  0.0235
 3555SOL    HW222128   2.647   2.627  17.504  2.1055 -1.5721 -2.0993
 3556SOL     OW22129   4.575   1.889   8.378 -0.6124  0.3806  0.1180
 3556SOL    HW122130   4.621   1.901   8.295  1.1587 -1.9026  0.7666
 3556SOL    HW222131   4.540   1.801   8.363 -0.3369 -0.1812  2.7569
 3557SOL     OW22132   4.605   3.363  13.992 -0.0574 -0.5187  0.0159
 3557SOL    HW122133   4.522   3.409  14.003 -0.7088 -1.1873 -2.2481
 3557SOL    HW222134   4.630   3.393  13.905 -1.5302  0.5058 -0.0533
 3558SOL     OW22135   2.044   1.883   2.776 -0.1272 -0.2273  0.0397
 3558SOL    HW122136   2.094   1.944   2.721 -1.8440  0.9345 -0.2163
 3558SOL    HW222137   1.955   1.911   2.757 -0.2703 -1.1615 -0.6927
 3559SOL     OW22138   3.486   4.290   1.880  0.0033 -0.6360  0.6417
 3559SOL    HW122139   3.574   4.319   1.904 -0.4801  2.2043 -1.0339
 3559SOL    HW222140   3.484   4.194   1.880  1.5498 -0.6378  4.2554
 3560SOL     OW22141   1.091   2.743  16.157 -0.0152 -0.3488  0.4653
 3560SOL    HW122142   1.108   2.811  16.222 -2.1207  0.7643 -0.1426
 3560SOL    HW222143   1.023   2.688  16.196  0.1968 -0.1523  1.1073
 3561SOL     OW22144   0.850   4.207   3.384  0.1016 -0.0582 -0.4919
 3561SOL    HW122145   0.898   4.190   3.303  1.4099 -1.1273  0.4936
 3561SOL    HW222146   0.925   4.225   3.441  0.6899 -2.2774 -0.5598
 3562SOL     OW22147   2.751   1.554   6.092 -0.6795  0.2313 -0.5529
 3562SOL    HW122148   2.717   1.466   6.076 -0.5898  0.8872 -4.2553
 3562SOL    HW222149   2.681   1.619   6.087 -0.3829  0.6130  0.2289
 3563SOL     OW22150   3.532   0.971   6.152 -0.3571 -0.0472 -0.2759
 3563SOL    HW122151   3.518   1.015   6.235  0.7383 -0.0669 -0.0856
 3563SOL    HW222152   3.584   0.896   6.178  0.4717  0.2630 -1.0391
 3564SOL     OW22153   2.521   4.062   3.830  0.6678 -0.2641  0.7722
 3564SOL    HW122154   2.598   4.013   3.800  2.0908  0.4525  3.2784
 3564SOL    HW222155   2.545   4.084   3.919  0.5098  0.5137  0.6189
 3565SOL     OW22156   3.938   1.003   6.697  0.2395  0.6489  0.2320
 3565SOL    HW122157   4.028   0.994   6.666  0.3585  2.3976  0.0708
 3565SOL    HW222158   3.910   0.913   6.678  1.7889  0.3646 -0.6802
 3566SOL     OW22159   1.722   1.844  13.216 -0.2607  0.6537 -0.2710
 3566SOL    HW122160   1.797   1.856  13.274 -1.4991  1.5759  1.1225
 3566SOL    HW222161   1.642   1.864  13.265  0.9929  1.3898  1.4574
 3567SOL     OW22162   1.250   4.220   6.591  0.5051 -0.3703  0.4353
 3567SOL    HW122163   1.218   4.183   6.509 -0.1124  0.9035  0.1005
 3567SOL    HW222164   1.235   4.313   6.573  0.7801 -0.3704  0.2014
 3568SOL     OW22165   3.427   0.752  16.558  0.3134  0.2163  0.8082
 3568SOL    HW122166   3.380   0.797  16.628 -0.3036 -1.5404  1.5413
 3568SOL    HW222167   3.357   0.693  16.530  1.3832 -1.4335  1.5431
 3569SOL     OW22168   2.113   3.894   3.250 -0.0337 -0.2975  0.0857
 3569SOL    HW122169   2.130   3.821   3.309  0.2424  0.1375  0.5468
 3569SOL    HW222170   2.051   3.860   3.186 -0.5154  0.3701  0.2005
 3570SOL     OW22171   0.034   4.498   2.514  0.4662  0.3859 -0.1082
 3570SOL    HW122172   4.713   4.523   2.433  1.5311 -3.2754 -1.8220
 3570SOL    HW222173   0.042   4.403   2.512  2.4192  0.5695 -1.2680
 3571SOL     OW22174   2.687   0.700  14.363  0.2457 -0.1856 -0.5764
 3571SOL    HW122175   2.678   0.663  14.450 -3.5497  1.0916 -0.4379
 3571SOL    HW222176   2.606   0.750  14.354  2.6908  3.6914 -1.0393
 3572SOL     OW22177   2.672   0.614   9.577  0.8720 -0.5008  0.3299
 3572SOL    HW122178   2.684   0.699   9.619 -1.3777 -0.3396  0.6269
 3572SOL    HW222179   2.710   0.640   9.493  3.5254 -0.9385  1.3754
 3573SOL     OW22180   4.385   0.798   1.677 -0.5726  0.1796  0.1870
 3573SOL    HW122181   4.342   0.772   1.759 -1.5428  1.1943  0.0052
 3573SOL    HW222182   4.440   0.868   1.713  1.0700 -0.4658 -1.1006
 3574SOL     OW22183   0.909   1.117  12.327 -0.3755  0.2757 -0.0405
 3574SOL    HW122184   0.993   1.146  12.292  0.0722  0.6496  1.3470
 3574SOL    HW222185   0.891   1.044  12.267  2.5260 -0.1390 -0.4052
 3575SOL     OW22186   1.413   4.098   7.085 -0.2172  0.3493 -0.2227
 3575SOL    HW122187   1.500   4.124   7.117 -0.2164 -0.9807  0.8417
 3575SOL    HW222188   1.362   4.178   7.083 -1.1108 -0.2212  0.1098
 3576SOL     OW22189   3.938   0.623  13.134 -0.2281  0.3968 -0.4712
 3576SOL    HW122190   3.938   0.639  13.229  0.0178  0.5916 -0.5051
 3576SOL    HW222191   4.020   0.578  13.117 -0.4591 -1.4457  3.3004
 3577SOL     OW22192   3.627   1.786   4.930  0.2852  0.3308 -0.1377
 3577SOL    HW122193   3.566   1.743   4.990  2.2949  0.0237  1.6808
 3577SOL    HW222194   3.670   1.713   4.884  0.2227 -0.3316  0.8485
 3578SOL     OW22195   1.151   0.394   3.519  0.0522  0.0412  0.6151
 3578SOL    HW122196   1.233   0.346   3.510 -0.9706 -1.7746  1.0645
 3578SOL    HW222197   1.168   0.447   3.598 -0.5771  1.2915 -0.0903
 3579SOL     OW22198   2.338   2.522   4.911  0.6970  0.1641  0.1034
 3579SOL    HW122199   2.381   2.575   4.978  1.1749  0.2076 -0.2453
 3579SOL    HW222200   2.363   2.578   4.838  0.4203  0.1738  0.0149
 3580SOL     OW22201   3.866   0.952   2.118 -0.4781 -0.1691 -0.2173
 3580SOL    HW122202   3.905   0.908   2.042 -0.5111 -0.6296  0.0365
 3580SOL    HW222203   3.927   0.936   2.189  0.4267  0.9653 -0.7442
 3581SOL     OW22204   2.934   4.183   4.347 -0.0448  0.1460 -0.3462
 3581SOL    HW122205   2.947   4.104   4.294 -1.8002  0.3569 -1.1085
 3581SOL    HW222206   2.995   4.247   4.312 -0.6950  0.3568 -1.0998
 3582SOL     OW22207   2.914   1.135   2.645  0.4775  0.2693  0.2457
 3582SOL    HW122208   2.860   1.126   2.723 -1.8927  1.3457 -1.2620
 3582SOL    HW222209   2.890   1.053   2.601 -2.7444  1.3129  0.1085
 3583SOL     OW22210   0.168   0.419   8.876  0.9108  0.1731  0.3211
 3583SOL    HW122211   0.226   0.432   8.801 -1.2532  0.7225 -1.2599
 3583SOL    HW222212   0.213   0.343   8.913 -0.9471 -1.0001  0.2131
 3584SOL     OW22213   1.185   3.977   0.574 -0.1617 -0.3047 -0.1425
 3584SOL    HW122214   1.239   3.936   0.642 -2.6125 -2.4543  0.5105
 3584SOL    HW222215   1.228   4.061   0.557 -1.4324  0.5284  0.7694
 3585SOL     OW22216   0.876   4.622  12.832 -0.0968  0.2583  0.5102
 3585SOL    HW122217   0.815   4.671  12.888  0.9705 -0.5411  2.3607
 3585SOL    HW222218   0.959   4.647  12.874  0.9491 -0.2540 -1.2297
 3586SOL     OW22219   2.379   2.401   0.924  0.1200 -0.2500  0.1915
 3586SOL    HW122220   2.449   2.337   0.936 -0.1113 -0.3314  1.0924
 3586SOL    HW222221   2.421   2.487   0.932 -1.1163  0.5648 -2.3104
 3587SOL     OW22222   3.519   3.948   5.641 -0.0025  0.2897 -1.2098
 3587SOL    HW122223   3.543   3.857   5.628  0.4301  0.0697  1.2977
 3587SOL    HW222224   3.507   3.949   5.736  1.6733  0.9578 -1.0182
 3588SOL     OW22225   3.838   4.418   1.768  0.4299 -0.4121 -0.1143
 3588SOL    HW122226   3.795   4.348   1.718  0.8839 -0.3583 -0.5789
 3588SOL    HW222227   3.811   4.384   1.854 -1.4338  0.3573 -0.3959
 3589SOL     OW22228   0.719   4.308   2.255 -0.1046 -0.5859 -0.0044
 3589SOL    HW122229   0.683   4.364   2.324  2.4830  0.3171  0.5956
 3589SOL    HW222230   0.760   4.233   2.299  1.9997 -1.1242 -2.8869
 3590SOL     OW22231   2.344   1.923   7.761 -0.1277  0.2844 -0.3064
 3590SOL    HW122232   2.337   1.960   7.849 -0.5265  1.6438 -0.9148
 3590SOL    HW222233   2.258   1.880   7.767 -0.1508  0.4032  0.2593
 3591SOL     OW22234   4.717   0.864  17.652  0.4088  0.1750 -0.1099
 3591SOL    HW122235   4.628   0.866  17.616  0.5617 -1.2271 -0.5575
 3591SOL    HW222236   0.040   0.805  17.593  1.5962  0.2280  0.7699
 3592SOL     OW22237   1.222   2.482   6.169  0.4885 -0.1448  0.1810
 3592SOL    HW122238   1.275   2.539   6.113  0.5278 -0.4699 -0.1111
 3592SOL    HW222239   1.290   2.419   6.191 -1.0736 -1.4098  1.4003
 3593SOL     OW22240   2.462   3.542  10.309 -0.2588 -0.6150  0.0862
 3593SOL    HW122241   2.532   3.493  10.351 -0.0828  1.2546  1.9655
 3593SOL    HW222242   2.436   3.603  10.379 -0.4648  0.6575 -1.0972
 3594SOL     OW22243   2.655   2.782  10.468 -0.4213 -0.2079  0.2789
 3594SOL    HW122244   2.562   2.763  10.471 -0.2491 -1.3174 -1.6103
 3594SOL    HW222245   2.687   2.703  10.424  1.3009 -0.2549  1.6190
 3595SOL     OW22246   3.938   0.788  11.965  0.2839 -0.0480 -0.4657
 3595SOL    HW122247   3.998   0.714  11.954  1.2026  0.5012  0.8669
 3595SOL    HW222248   3.956   0.808  12.057  0.9294  2.0435 -1.0275
 3596SOL     OW22249   4.320   1.485  15.349  0.0469 -0.0818  0.3260
 3596SOL    HW122250   4.236   1.514  15.385 -0.0597 -0.9977  0.8251
 3596SOL    HW222251   4.290   1.417  15.289 -0.9533  0.6930 -0.0635
 3597SOL     OW22252   4.172   1.785  15.019 -0.3628 -0.1601  0.8173
 3597SOL    HW122253   4.214   1.835  14.948  0.7093 -0.8289  0.9861
 3597SOL    HW222254   4.243   1.789  15.082  1.5122 -1.2261 -1.2093
 3598SOL     OW22255   1.145   2.509  13.616  0.0497  0.0463  0.2679
 3598SOL    HW122256   1.064   2.550  13.585 -0.3610 -0.4352  0.6991
 3598SOL    HW222257   1.201   2.562  13.559  0.3977 -1.6800 -1.0134
 3599SOL     OW22258   0.293   1.968   8.221  0.0392 -0.4169  0.1503
 3599SOL    HW122259   0.291   2.005   8.133 -0.3615  0.0833  0.3695
 3599SOL    HW222260   0.226   2.027   8.256  2.2241  3.4628 -2.2780
 3600SOL     OW22261   4.639   2.624   4.612 -0.2198 -0.4078 -0.2220
 3600SOL    HW122262   4.598   2.700   4.654  1.4141  0.4201 -0.0982
 3600SOL    HW222263   4.715   2.671   4.577  0.7500  1.0117  3.6576
 3601SOL     OW22264   4.303   1.521   9.323  0.4209 -0.8284  0.1917
 3601SOL    HW122265   4.386   1.476   9.339  1.1624  0.9706  1.3721
 3601SOL    HW222266   4.271   1.525   9.413  0.0047  3.4030 -0.1259
 3602SOL     OW22267   4.111   1.556   4.456 -0.0576 -0.4432 -0.5472
 3602SOL    HW122268   4.111   1.544   4.361  1.6348  2.8045 -0.9530
 3602SOL    HW222269   4.048   1.628   4.459  2.5958  1.9200 -1.4378
 3603SOL     OW22270   3.851   3.627   2.227  0.0953 -0.3632 -0.4693
 3603SOL    HW122271   3.886   3.625   2.138 -1.9341 -1.9733 -1.2265
 3603SOL    HW222272   3.833   3.720   2.239 -0.7378 -0.4656 -0.9190
 3604SOL     OW22273   1.767   1.207   5.628  0.7159 -0.5789  0.1505
 3604SOL    HW122274   1.680   1.177   5.602  0.2853  1.7247 -1.1540
 3604SOL    HW222275   1.787   1.240   5.540  0.3966  1.0598  0.6930
 3605SOL     OW22276   4.164   3.831   1.270  0.2852  0.2339 -0.2654
 3605SOL    HW122277   4.231   3.814   1.337 -2.2562 -2.1110  1.6954
 3605SOL    HW222278   4.178   3.924   1.252 -1.7388  0.6252  0.0802
 3606SOL     OW22279   4.358   3.875   2.918  0.3328 -0.5134  0.1791
 3606SOL    HW122280   4.406   3.957   2.911 -0.5441 -0.2172 -2.5957
 3606SOL    HW222281   4.352   3.866   3.013  1.3839 -0.7427  0.2236
 3607SOL     OW22282   2.856   4.716   6.890 -0.1953 -0.1648  0.3002
 3607SOL    HW122283   2.763   4.705   6.874  0.3604  0.4698 -3.5058
 3607SOL    HW222284   2.863   0.041   6.972 -0.5076  0.3232  0.0342
 3608SOL     OW22285   2.150   0.500  13.718 -0.0154  0.2588  0.1210
 3608SOL    HW122286   2.102   0.417  13.710  2.0779 -0.8263 -1.1751
 3608SOL    HW222287   2.221   0.473  13.776  0.8754  0.1433 -1.0242
 3609SOL     OW22288   3.506   2.071   1.856 -0.1013  0.7145  0.1082
 3609SOL    HW122289   3.510   2.046   1.764  1.4856  0.3675  0.2681
 3609SOL    HW222290   3.418   2.050   1.886  0.3296 -1.5989 -0.2815
 3610SOL     OW22291   4.301   4.340  16.955  0.2473  0.0986  0.5214
 3610SOL    HW122292   4.340   4.295  17.030  1.3032 -0.2218 -0.2042
 3610SOL    HW222293   4.322   4.275  16.887 -2.7381  0.1247 -0.4422
 3611SOL     OW22294   3.426   0.355   1.207  0.1737  0.2920 -0.2988
 3611SOL    HW122295   3.380   0.389   1.130  1.5173  1.3452 -0.6395
 3611SOL    HW222296   3.479   0.431   1.230 -0.7098  0.9900 -0.5883
 3612SOL     OW22297   0.946   2.448   5.639  0.2222 -0.0009 -0.6806
 3612SOL    HW122298   1.008   2.417   5.573  2.4601 -0.2664  1.5434
 3612SOL    HW222299   0.989   2.530   5.663 -0.4515  0.1529 -0.0243
 3613SOL     OW22300   2.922   2.667  10.869  0.0427 -0.6714 -0.1639
 3613SOL    HW122301   2.919   2.599  10.801  0.9720  1.5399 -2.4052
 3613SOL    HW222302   2.939   2.732  10.801 -1.7225 -1.0991 -1.0212
 3614SOL     OW22303   2.402   0.405  14.898  0.1157  0.3834  0.2710
 3614SOL    HW122304   2.477   0.349  14.919  1.8132  1.8347 -1.8570
 3614SOL    HW222305   2.379   0.381  14.808 -1.6659 -1.1090  1.1169
 3615SOL     OW22306   2.368   1.042  16.576 -0.5287 -0.3664  0.1718
 3615SOL    HW122307   2.411   0.968  16.618  1.3043  0.6897  0.1448
 3615SOL    HW222308   2.305   1.067  16.643 -1.0875  0.6207 -0.7195
 3616SOL     OW22309   0.276   0.638   3.046  0.0866  0.1607 -0.5018
 3616SOL    HW122310   0.361   0.618   3.008 -0.8823 -0.5140 -2.3216
 3616SOL    HW222311   0.228   0.555   3.051  3.1727 -1.5802 -0.2537
 3617SOL     OW22312   1.096   4.114   7.814 -0.3814 -0.1141  0.1449
 3617SOL    HW122313   1.162   4.090   7.749 -1.4248 -1.1077 -0.5421
 3617SOL    HW222314   1.134   4.179   7.874 -1.8152 -0.0269  0.9724
 3618SOL     OW22315   0.948   0.316  14.148 -0.1174  0.3813  0.1507
 3618SOL    HW122316   0.880   0.352  14.204 -0.1204  0.0922  0.3301
 3618SOL    HW222317   1.029   0.330  14.197  0.0158 -2.8927  0.8696
 3619SOL     OW22318   3.642   0.626  11.133 -0.3016  0.0007  0.0355
 3619SOL    HW122319   3.642   0.681  11.054  0.8850 -1.7991 -1.2292
 3619SOL    HW222320   3.570   0.670  11.177  0.5814  0.9805  0.5029
 3620SOL     OW22321   1.686   2.486  15.735 -0.6314  0.2050 -0.1400
 3620SOL    HW122322   1.687   2.576  15.766 -0.7545 -0.7255  2.5620
 3620SOL    HW222323   1.677   2.440  15.818 -0.5843 -1.2885 -0.9584
 3621SOL     OW22324   0.632   4.087  10.986 -0.0312  0.0244 -0.0335
 3621SOL    HW122325   0.597   4.122  10.904 -4.2453  2.8922  2.9935
 3621SOL    HW222326   0.722   4.122  10.988  0.2143 -0.7042  1.3924
 3622SOL     OW22327   1.785   0.532  10.333  0.1530 -0.2283  0.7464
 3622SOL    HW122328   1.724   0.459  10.348 -1.3445  0.8946  0.1294
 3622SOL    HW222329   1.736   0.585  10.270  1.4148  1.2822  1.0506
 3623SOL     OW22330   1.784   3.653  13.182 -0.0337  0.2920 -0.5653
 3623SOL    HW122331   1.700   3.688  13.210  0.6661 -1.0395  3.1024
 3623SOL    HW222332   1.844   3.695  13.242 -0.0867 -0.4505  0.0083
 3624SOL     OW22333   1.153   1.663   3.590  0.3400  0.1532  0.0152
 3624SOL    HW122334   1.229   1.687   3.537 -0.7471  3.2372 -0.1534
 3624SOL    HW222335   1.160   1.568   3.582  3.3576  0.2572  1.3237
 3625SOL     OW22336   2.402   0.031   4.699 -0.4442 -0.5893 -0.8703
 3625SOL    HW122337   2.470   0.096   4.720 -0.1558 -1.8614  2.0934
 3625SOL    HW222338   2.351   0.033   4.780  1.6105 -1.6470  0.4550
 3626SOL     OW22339   3.320   2.590   8.668  0.1490 -0.1463  0.1224
 3626SOL    HW122340   3.269   2.588   8.748 -0.7688  0.3398 -0.4539
 3626SOL    HW222341   3.331   2.496   8.653  2.1604  0.2520 -0.9311
 3627SOL     OW22342   3.602   1.357   4.573 -0.8507  0.1410  0.1084
 3627SOL    HW122343   3.601   1.447   4.540  1.1238  0.1845  0.1682
 3627SOL    HW222344   3.633   1.371   4.663  1.4224 -0.8357 -0.5296
 3628SOL     OW22345   2.660   3.983  13.049  0.2003 -0.1900 -0.0414
 3628SOL    HW122346   2.627   3.981  12.959 -1.2143  0.9394  0.4562
 3628SOL    HW222347   2.666   3.890  13.070  0.3071  0.1422  1.3922
 3629SOL     OW22348   1.293   0.247  14.543  0.3873 -0.0240 -0.7146
 3629SOL    HW122349   1.360   0.316  14.545  2.2978 -1.9476  1.2479
 3629SOL    HW222350   1.342   0.165  14.552  0.8204  0.3048 -0.0568
 3630SOL     OW22351   3.923   1.583   8.069 -0.0724 -0.6487  0.3415
 3630SOL    HW122352   3.844   1.550   8.112  0.6045 -1.2322  1.1502
 3630SOL    HW222353   3.901   1.676   8.073 -0.5730 -0.7734  0.4942
 3631SOL     OW22354   2.313   1.013  12.368 -0.1310 -0.3416 -0.0810
 3631SOL    HW122355   2.223   1.045  12.377 -0.0435  1.1979 -4.5715
 3631SOL    HW222356   2.321   1.015  12.272  0.4582 -2.4789 -0.0820
 3632SOL     OW22357   2.402   3.375   9.105  0.5876  0.2584  0.5000
 3632SOL    HW122358   2.335   3.419   9.053 -0.0966  1.4862  2.4278
 3632SOL    HW222359   2.400   3.433   9.182  4.2558  0.8351  0.1595
 3633SOL     OW22360   0.026   2.240   6.644 -0.0395 -0.1559 -0.1578
 3633SOL    HW122361   4.682   2.184   6.605  0.3380  0.4230 -1.6486
 3633SOL    HW222362   4.721   2.254   6.734 -1.5363 -1.0273 -0.4945
 3634SOL     OW22363   1.626   2.556   6.021 -0.2013  0.5128  0.5586
 3634SOL    HW122364   1.683   2.533   5.947 -0.4641 -1.0207  0.8436
 3634SOL    HW222365   1.543   2.532   5.982  0.6051 -2.3742  0.6336
 3635SOL     OW22366   3.305   0.576   4.701  0.0500  0.3639  0.3063
 3635SOL    HW122367   3.248   0.653   4.693  0.3058  0.6365  1.1596
 3635SOL    HW222368   3.291   0.522   4.623  1.5220  1.0165 -0.4144
 3636SOL     OW22369   0.821   1.489   5.935  0.3194  0.3552  0.3126
 3636SOL    HW122370   0.909   1.527   5.941  0.7944 -1.1889  2.6215
 3636SOL    HW222371   0.799   1.494   5.842 -3.3968  2.6161  1.3293
 3637SOL     OW22372   4.182   0.995   2.547  0.0376  0.4137 -0.5792
 3637SOL    HW122373   4.176   1.031   2.458 -2.0086 -0.4007 -0.7656
 3637SOL    HW222374   4.105   0.938   2.550 -0.7093  1.3738 -1.4299
 3638SOL     OW22375   2.709   2.950   2.329  0.0820  0.9538  0.0664
 3638SOL    HW122376   2.682   2.858   2.335  1.0761  0.7601  1.6337
 3638SOL    HW222377   2.686   2.991   2.412  1.2068 -0.5632  1.1293
 3639SOL     OW22378   1.212   4.292   2.414  0.1053  0.1105 -0.3292
 3639SOL    HW122379   1.265   4.214   2.397 -2.9616 -1.9333 -0.4064
 3639SOL    HW222380   1.171   4.309   2.329  1.8528  1.1604 -0.9688
 3640SOL     OW22381   4.306   0.497   3.316  0.4509 -0.0636 -0.1759
 3640SOL    HW122382   4.252   0.418   3.312 -1.3467  1.2326 -1.4369
 3640SOL    HW222383   4.251   0.541   3.251  0.1046 -0.8375 -0.4088
 3641SOL     OW22384   0.630   4.161   5.453 -0.0521 -0.0478 -0.6707
 3641SOL    HW122385   0.599   4.087   5.506 -0.7719  0.7347  0.0037
 3641SOL    HW222386   0.608   4.135   5.364  0.2666 -0.3553 -0.6604
 3642SOL     OW22387   1.160   0.792   4.384 -0.4801  0.3816  0.5882
 3642SOL    HW122388   1.165   0.848   4.462 -3.1664  2.6908 -0.8751
 3642SOL    HW222389   1.068   0.765   4.383  0.0901 -1.5006  1.0222
 3643SOL     OW22390   0.683   2.061  10.550 -0.2469  0.4532 -0.2722
 3643SOL    HW122391   0.667   2.149  10.516 -0.2433 -0.0474 -1.5454
 3643SOL    HW222392   0.696   2.071  10.644  0.9033 -0.6819 -0.3088
 3644SOL     OW22393   1.725   0.987   6.846  0.0521  0.6030 -0.0153
 3644SOL    HW122394   1.732   0.900   6.885  1.2842  1.5309  1.8486
 3644SOL    HW222395   1.630   0.987   6.831  0.1349  0.0098 -0.5645
 3645SOL     OW22396   1.010   2.431   4.498 -0.2291 -0.3445  0.4795
 3645SOL    HW122397   0.958   2.365   4.451  2.0672 -1.6074 -0.2707
 3645SOL    HW222398   0.971   2.418   4.585  1.3448 -0.9615  1.0792
 3646SOL     OW22399   4.417   3.759  15.506  0.4415 -0.6728 -0.5091
 3646SOL    HW122400   4.451   3.718  15.427  0.0653  2.7961 -2.4421
 3646SOL    HW222401   4.469   3.725  15.579 -1.5068 -2.5789 -0.0059
 3647SOL     OW22402   3.145   3.144  16.187 -0.6798 -0.1443 -0.2953
 3647SOL    HW122403   3.114   3.191  16.265 -2.5550  0.6985 -1.5580
 3647SOL    HW222404   3.237   3.170  16.191 -1.0553  0.3909  5.2267
 3648SOL     OW22405   3.582   3.605   9.970  0.0011  0.0579  0.0709
 3648SOL    HW122406   3.669   3.638   9.993 -1.0397  1.0469  2.5273
 3648SOL    HW222407   3.550   3.565  10.051  1.1110  0.5058  0.7410
 3649SOL     OW22408   2.252   0.418  14.085  0.5537  0.3455  0.0697
 3649SOL    HW122409   2.300   0.410  14.002 -1.8379 -0.0238 -1.2613
 3649SOL    HW222410   2.205   0.501  14.075 -1.5453 -0.8792 -0.1729
 3650SOL     OW22411   4.516   2.509   4.220 -0.0295 -0.4114 -0.0384
 3650SOL    HW122412   4.553   2.510   4.308  0.3954  1.2060 -0.2490
 3650SOL    HW222413   4.572   2.565   4.167 -2.4384  1.8008 -0.2372
 3651SOL     OW22414   0.094   3.264   3.202  0.0899  0.2651 -0.1489
 3651SOL    HW122415   0.147   3.191   3.232  1.0255  0.7009 -0.7462
 3651SOL    HW222416   0.044   3.236   3.125  0.1820 -1.1869  0.3143
 3652SOL     OW22417   0.177   0.590   3.282  0.3782  0.6728 -0.2548
 3652SOL    HW122418   0.212   0.512   3.325 -2.7916 -0.3764  0.3515
 3652SOL    HW222419   0.240   0.618   3.215  0.1810  2.3480  0.2655
 3653SOL     OW22420   3.112   4.357   4.227 -0.2112  0.4705  0.0183
 3653SOL    HW122421   3.183   4.313   4.179 -0.2222 -0.3749  0.7706
 3653SOL    HW222422   3.138   4.448   4.212 -0.7767  1.0443  2.5522
 3654SOL     OW22423   0.408   3.227   7.090 -0.1228  0.2568 -0.5684
 3654SOL    HW122424   0.406   3.280   7.010 -0.1788  1.3535  0.1649
 3654SOL    HW222425   0.500   3.223   7.116 -0.6614 -0.1538  1.2560
 3655SOL     OW22426   1.195   1.072  10.446  0.0563 -0.5792 -0.2942
 3655SOL    HW122427   1.109   1.036  10.423 -0.5760  0.1439  0.9080
 3655SOL    HW222428   1.219   1.131  10.375 -0.2888 -0.1261 -0.0354
 3656SOL     OW22429   4.676   4.060   6.904 -0.1855  0.1618 -0.0522
 3656SOL    HW122430   4.707   4.117   6.833 -1.5439  1.7124  0.6024
 3656SOL    HW222431   4.618   4.128   6.940  1.5767  1.0599  1.1068
 3657SOL     OW22432   3.991   1.626  12.245 -0.3102 -0.2070 -0.5332
 3657SOL    HW122433   3.945   1.700  12.284  1.2358  0.7170 -0.4770
 3657SOL    HW222434   4.081   1.626  12.277 -0.9674  4.0792  1.3604
 3658SOL     OW22435   4.380   3.297   9.040 -0.8599  0.2426  0.4940
 3658SOL    HW122436   4.392   3.202   9.037 -0.8331  0.2261  1.0687
 3658SOL    HW222437   4.293   3.295   9.081 -0.8560  1.7173  0.5865
 3659SOL     OW22438   0.011   2.773  15.365  0.2190  0.0754  0.0527
 3659SOL    HW122439   0.037   2.856  15.325 -0.7650  0.5391  0.3745
 3659SOL    HW222440   4.672   2.745  15.299  2.9248 -4.7168 -0.5268
 3660SOL     OW22441   3.922   3.586   6.177  0.6102  0.0963 -0.3709
 3660SOL    HW122442   3.974   3.538   6.241 -0.5786 -2.0919 -1.0422
 3660SOL    HW222443   3.975   3.578   6.098  1.6360  0.4283  0.2871
 3661SOL     OW22444   0.510   2.192   5.349  0.0368  0.3487  0.3629
 3661SOL    HW122445   0.562   2.180   5.429  0.3794 -1.8867 -0.1887
 3661SOL    HW222446   0.426   2.149   5.366 -0.7904  0.7336 -2.7740
 3662SOL     OW22447   3.475   2.065   2.704 -0.6986  0.2587 -0.3676
 3662SOL    HW122448   3.446   2.075   2.613 -2.8444 -2.2935  0.0266
 3662SOL    HW222449   3.420   2.124   2.756  0.6140  0.7724  0.4261
 3663SOL     OW22450   0.600   1.797   2.148  0.0596 -0.0474  0.2290
 3663SOL    HW122451   0.632   1.884   2.173  1.5291 -0.6566  0.5079
 3663SOL    HW222452   0.665   1.770   2.083  0.7948  1.4974  0.3196
 3664SOL     OW22453   3.023   2.658  12.873 -0.2713  0.0773  0.5191
 3664SOL    HW122454   3.077   2.581  12.889  0.7023  0.4682 -0.8845
 3664SOL    HW222455   3.044   2.711  12.949  0.1208  0.4428  0.1575
 3665SOL     OW22456   1.148   0.210   1.400 -0.5928 -0.5588  0.0478
 3665SOL    HW122457   1.072   0.151   1.400 -0.9605 -0.0890 -1.6259
 3665SOL    HW222458   1.116   0.287   1.353 -1.8737 -0.5333  0.9657
 3666SOL     OW22459   1.435   1.609  16.591 -0.4799  0.0908 -0.3468
 3666SOL    HW122460   1.474   1.523  16.574  1.7118  0.9053  0.6357
 3666SOL    HW222461   1.430   1.593  16.686  0.8536  1.7515  0.0110
 3667SOL     OW22462   1.982   0.657   8.074  0.3009 -0.2903 -0.3600
 3667SOL    HW122463   1.939   0.605   8.141 -0.9068  0.8528 -0.2448
 3667SOL    HW222464   1.958   0.607   7.995 -2.6187  1.3258 -0.4895
 3668SOL     OW22465   2.278   2.574   7.626  0.0237 -0.6090 -0.0428
 3668SOL    HW122466   2.279   2.504   7.560  1.2157  0.5689 -1.2785
 3668SOL    HW222467   2.202   2.552   7.679  0.0278  3.5818  1.6852
 3669SOL     OW22468   0.715   1.975  15.788 -0.5557 -0.1758  0.0012
 3669SOL    HW122469   0.802   1.963  15.750 -1.1083  0.9778 -1.5909
 3669SOL    HW222470   0.690   2.065  15.767 -2.5561 -0.7287  0.0168
 3670SOL     OW22471   4.332   1.652   8.102 -0.0705 -0.7585  0.5583
 3670SOL    HW122472   4.404   1.712   8.121 -0.3773  0.4991 -2.1608
 3670SOL    HW222473   4.264   1.680   8.163 -0.4072 -1.3912  0.4729
 3671SOL     OW22474   3.697   0.600   9.564  0.3106  0.1750  0.3135
 3671SOL    HW122475   3.632   0.530   9.574 -0.5639  0.5717 -2.4901
 3671SOL    HW222476   3.691   0.615   9.470  0.2371  1.1032  0.4684
 3672SOL     OW22477   3.448   0.421   6.833 -0.6350 -0.4639 -0.0829
 3672SOL    HW122478   3.409   0.509   6.831  0.5330  0.0627  0.0594
 3672SOL    HW222479   3.461   0.412   6.927 -0.9846 -1.0338 -0.0885
 3673SOL     OW22480   0.363   0.530   6.102  0.1487  0.2976 -0.1569
 3673SOL    HW122481   0.275   0.568   6.098 -0.2556 -0.4539  1.9788
 3673SOL    HW222482   0.423   0.601   6.078  1.1895 -0.9139 -1.1437
 3674SOL     OW22483   4.080   3.297   0.930  0.1121 -0.1488  0.5534
 3674SOL    HW122484   4.033   3.218   0.954  1.8167 -0.8931  1.4428
 3674SOL    HW222485   4.126   3.304   1.014  0.9658  0.2234  0.0624
 3675SOL     OW22486   3.677   4.206   5.061  0.0279 -0.1528  0.5149
 3675SOL    HW122487   3.761   4.221   5.017 -0.3934 -0.3502 -0.3664
 3675SOL    HW222488   3.706   4.129   5.111  1.8315  0.6012  0.6338
 3676SOL     OW22489   3.919   3.291   4.413  0.1971 -0.4298 -0.0855
 3676SOL    HW122490   3.868   3.326   4.339  0.6164  0.4158  0.0343
 3676SOL    HW222491   4.000   3.333   4.385 -0.6685  1.8685  0.8463
 3677SOL     OW22492   0.455   0.583   9.259 -0.1834 -0.0902 -0.0319
 3677SOL    HW122493   0.380   0.603   9.203  0.4407  0.8319 -0.5274
 3677SOL    HW222494   0.461   0.659   9.317  0.6647  0.3126 -0.6518
 3678SOL     OW22495   3.818   3.998  11.869 -0.0390 -0.3838  0.0072
 3678SOL    HW122496   3.781   3.942  11.801 -1.8792  0.9196 -0.0610
 3678SOL    HW222497   3.831   4.079  11.819 -0.9212 -1.2936 -1.6830
 3679SOL     OW22498   2.362   4.086  15.795 -0.1726 -0.0273  0.3306
 3679SOL    HW122499   2.386   4.009  15.745  0.7451 -0.3333  1.2567
 3679SOL    HW222500   2.340   4.135  15.716  1.9678  1.0934  0.4173
 3680SOL     OW22501   3.820   0.172   4.569  0.4443 -0.2328 -0.4626
 3680SOL    HW122502   3.821   0.076   4.561  1.2533 -0.2112 -0.5982
 3680SOL    HW222503   3.910   0.183   4.599 -0.0628  0.4371  0.7945
 3681SOL     OW22504   1.556   3.549   1.727  0.7305  0.1669  0.1208
 3681SOL    HW122505   1.522   3.631   1.691  1.6910 -0.1209 -1.4604
 3681SOL    HW222506   1.493   3.526   1.796 -2.0899 -1.0823 -2.8577
 3682SOL     OW22507   0.251   0.368  11.402  0.1193 -0.3558 -0.6966
 3682SOL    HW122508   0.337   0.368  11.359 -0.5123  0.2485 -1.9798
 3682SOL    HW222509   0.270   0.312  11.477 -3.5813 -0.5351  0.0846
 3683SOL     OW22510   4.043   0.713   7.189  0.2365  0.7027 -0.5127
 3683SOL    HW122511   4.111   0.671   7.136  0.1414 -1.1700  0.8469
 3683SOL    HW222512   4.041   0.656   7.266 -0.1437  0.8348 -0.4273
 3684SOL     OW22513   1.081   4.369   7.145  0.6970 -0.5542 -0.3415
 3684SOL    HW122514   1.176   4.373   7.158  0.4266  1.5911  1.0833
 3684SOL    HW222515   1.053   4.460   7.153 -0.3048 -1.1708  2.9932
 3685SOL     OW22516   1.246   4.086   4.829 -0.0434  0.4440 -0.2923
 3685SOL    HW122517   1.158   4.060   4.857  0.8305 -2.4014 -0.1837
 3685SOL    HW222518   1.275   4.123   4.912 -0.9597 -0.3678  0.3843
 3686SOL     OW22519   1.123   4.270  10.684  0.0432  0.0195  0.4906
 3686SOL    HW122520   1.179   4.306  10.615  0.0186  2.1247  1.5505
 3686SOL    HW222521   1.142   4.177  10.681  1.4063  0.2853  0.7888
 3687SOL     OW22522   1.332   1.022   2.408 -0.0448  0.1410 -0.6156
 3687SOL    HW122523   1.302   0.968   2.482 -0.5543 -0.4836 -1.2712
 3687SOL    HW222524   1.268   1.093   2.403 -0.4321 -0.2077 -0.6492
 3688SOL     OW22525   1.566   2.814   8.546 -0.0712  0.3641 -0.1249
 3688SOL    HW122526   1.482   2.769   8.555 -0.2937  1.3968  2.8717
 3688SOL    HW222527   1.552   2.903   8.578  0.4708  0.1962  0.5719
 3689SOL     OW22528   1.611   3.745   7.811 -0.3918  0.3489  0.4230
 3689SOL    HW122529   1.587   3.834   7.787 -2.8331 -0.5618 -0.4962
 3689SOL    HW222530   1.694   3.765   7.853  0.4491  1.1480 -1.6077
 3690SOL     OW22531   1.548   1.190  12.057 -0.1314  0.3981 -0.6853
 3690SOL    HW122532   1.549   1.112  12.111 -2.6558  0.3292 -0.7516
 3690SOL    HW222533   1.604   1.155  11.988  1.1470 -1.5315  1.3376
 3691SOL     OW22534   3.295   2.832   3.229  0.1744  0.6487  0.4993
 3691SOL    HW122535   3.266   2.827   3.138 -1.5001  1.9169  0.9685
 3691SOL    HW222536   3.372   2.774   3.231 -1.5533 -1.5848  1.7425
 3692SOL     OW22537   3.867   1.114   4.795  0.2423 -0.7074  0.3839
 3692SOL    HW122538   3.864   1.025   4.829 -0.1313 -0.3512  1.2824
 3692SOL    HW222539   3.943   1.147   4.844 -0.4594  2.3628 -0.5886
 3693SOL     OW22540   0.922   3.187   0.324  0.1200  0.0718  0.0686
 3693SOL    HW122541   1.018   3.188   0.322  0.1146 -1.5510 -1.6949
 3693SOL    HW222542   0.900   3.243   0.250  1.0201  0.1179 -0.1640
 3694SOL     OW22543   0.824   1.533   8.379 -0.1581  0.2150  0.1730
 3694SOL    HW122544   0.730   1.518   8.368 -0.1790  1.1861 -0.8962
 3694SOL    HW222545   0.831   1.625   8.401  0.1099 -0.7070  3.9285
 3695SOL     OW22546   1.691   3.325  11.517 -0.7683 -0.3517  0.0765
 3695SOL    HW122547   1.775   3.289  11.488 -0.4656 -1.1434  1.9499
 3695SOL    HW222548   1.696   3.410  11.473  0.5456 -0.2063  0.5121
 3696SOL     OW22549   4.500   3.633  14.747  0.5130  0.2463  0.0459
 3696SOL    HW122550   4.549   3.603  14.671  0.4129 -0.8090  0.3884
 3696SOL    HW222551   4.459   3.713  14.714  2.5095  0.6685 -1.4532
 3697SOL     OW22552   2.479   0.053  12.601 -0.0362  0.2698  0.2972
 3697SOL    HW122553   2.408   4.723  12.566  0.3292 -0.4333  0.6309
 3697SOL    HW222554   2.452   0.062  12.693 -1.0371  0.4237 -0.0098
 3698SOL     OW22555   2.316   0.389   7.957 -0.1070  0.2967  0.3167
 3698SOL    HW122556   2.410   0.375   7.943 -0.5270 -2.4057  0.3050
 3698SOL    HW222557   2.279   0.358   7.875 -0.0749  1.5988 -0.1819
 3699SOL     OW22558   2.804   1.469   9.236  0.5939  0.3767  0.2576
 3699SOL    HW122559   2.740   1.472   9.307 -0.7872  2.4550 -1.0643
 3699SOL    HW222560   2.776   1.557   9.209 -0.7242 -0.6738 -1.7707
 3700SOL     OW22561   3.133   1.823  12.036  0.2033  0.4091 -0.5235
 3700SOL    HW122562   3.157   1.895  12.094 -0.6930  1.1077 -1.0302
 3700SOL    HW222563   3.084   1.766  12.096  0.9280  1.7129  1.2877
 3701SOL     OW22564   2.277   4.590   7.362 -0.3304 -0.2024  0.1061
 3701SOL    HW122565   2.207   4.529   7.342 -0.8558 -0.0808  1.5475
 3701SOL    HW222566   2.355   4.535   7.357 -0.8992 -1.0445  0.6280
 3702SOL     OW22567   2.084   0.798   6.835 -0.4620  0.2762  0.1689
 3702SOL    HW122568   2.099   0.787   6.741 -2.1054  1.2885 -0.2058
 3702SOL    HW222569   2.154   0.859   6.858 -0.2576  0.1490 -0.1182
 3703SOL     OW22570   3.385   3.535   7.892  0.6866 -0.3363  0.1234
 3703SOL    HW122571   3.471   3.512   7.926  1.1349  1.4807  0.2052
 3703SOL    HW222572   3.337   3.463   7.934  1.0240 -1.8452 -2.0962
 3704SOL     OW22573   3.847   0.054   2.900  0.0783 -0.1894  0.5866
 3704SOL    HW122574   3.933   0.054   2.858 -0.5559 -2.2175 -0.7378
 3704SOL    HW222575   3.788   0.045   2.826  2.3754 -0.7613 -1.1575
 3705SOL     OW22576   3.052   3.219   2.962  0.5480 -0.4315 -0.3620
 3705SOL    HW122577   3.130   3.232   2.909 -0.3246 -1.3922 -1.8845
 3705SOL    HW222578   3.009   3.301   2.938  1.3824  0.1439  0.0843
 3706SOL     OW22579   3.748   4.308   6.451 -0.3873  0.1200 -0.6275
 3706SOL    HW122580   3.695   4.260   6.388 -1.8942  1.5758 -0.4768
 3706SOL    HW222581   3.695   4.388   6.452 -2.0671 -1.0175 -0.5549
 3707SOL     OW22582   4.547   1.185  11.140 -0.2009 -0.1436 -0.1231
 3707SOL    HW122583   4.613   1.120  11.163 -0.9567 -1.5800 -2.0456
 3707SOL    HW222584   4.565   1.257  11.201  0.0082 -1.8268  1.7799
 3708SOL     OW22585   0.657   2.365   4.364 -0.5714 -0.3002 -0.1842
 3708SOL    HW122586   0.614   2.415   4.433  0.7681  0.2048  0.2814
 3708SOL    HW222587   0.621   2.403   4.283  0.7217  1.3978  0.0613
 3709SOL     OW22588   0.625   2.718   5.551 -0.5801  0.1174  0.2529
 3709SOL    HW122589   0.719   2.719   5.532 -0.6496  3.6140  0.1352
 3709SOL    HW222590   0.592   2.751   5.468  2.0972 -2.3370 -1.8127
 3710SOL     OW22591   0.040   1.722   5.501  0.4055  0.2179 -0.4558
 3710SOL    HW122592   0.012   1.631   5.488 -0.3899 -0.0274  2.9379
 3710SOL    HW222593   4.715   1.752   5.578  3.1025  1.1609  0.8601
 3711SOL     OW22594   2.123   2.771  12.982 -0.3529 -0.3123 -0.0807
 3711SOL    HW122595   2.035   2.806  12.998  0.0498  0.4709  0.4524
 3711SOL    HW222596   2.100   2.709  12.914  0.7347 -0.4678 -0.2983
 3712SOL     OW22597   1.313   3.256   7.145  0.1276  0.5664  0.1530
 3712SOL    HW122598   1.341   3.292   7.061  0.4410 -1.6544 -0.6816
 3712SOL    HW222599   1.373   3.183   7.157 -0.4627  0.3314  1.6636
 3713SOL     OW22600   3.637   2.169  16.341 -0.0175  0.0520 -0.1614
 3713SOL    HW122601   3.630   2.263  16.328  1.2012  0.2424  0.5615
 3713SOL    HW222602   3.710   2.161  16.402  0.0958 -2.9602 -0.6875
 3714SOL     OW22603   0.678   2.779  12.254 -0.1973 -0.1906 -0.3250
 3714SOL    HW122604   0.606   2.784  12.192 -0.0529  0.2755 -0.4542
 3714SOL    HW222605   0.646   2.703  12.302  0.6395 -0.9283 -0.9276
 3715SOL     OW22606   3.584   2.361   7.979 -0.4036  0.2601  0.0416
 3715SOL    HW122607   3.555   2.385   8.067 -0.3188  0.1823  0.0910
 3715SOL    HW222608   3.663   2.310   8.000 -1.0327  0.8534  3.7112
 3716SOL     OW22609   1.131   4.248  14.990  0.5148 -0.3608  0.4659
 3716SOL    HW122610   1.213   4.208  15.020  0.8379  0.9967  1.3863
 3716SOL    HW222611   1.167   4.296  14.915 -0.0092 -0.0248  0.4364
 3717SOL     OW22612   1.277   2.727   1.977  0.1956  0.3796  0.5755
 3717SOL    HW122613   1.294   2.820   1.963  2.8256  0.0307  1.3567
 3717SOL    HW222614   1.190   2.728   2.017  0.2567 -1.7886  0.7275
 3718SOL     OW22615   4.253   1.984   5.945  0.3823  0.1544  0.4251
 3718SOL    HW122616   4.232   2.053   5.883  1.2812 -0.1776 -0.2563
 3718SOL    HW222617   4.221   2.021   6.027 -0.0104  0.9205 -0.0736
 3719SOL     OW22618   3.657   3.782   7.425 -0.1079  0.0190  0.4903
 3719SOL    HW122619   3.670   3.687   7.420 -1.6552 -0.1199 -0.9619
 3719SOL    HW222620   3.716   3.800   7.498 -1.5097 -0.4800  1.7569
 3720SOL     OW22621   1.192   1.303   1.381  0.2154  0.0094  0.3780
 3720SOL    HW122622   1.201   1.393   1.411  0.0723 -0.1342  0.8565
 3720SOL    HW222623   1.108   1.298   1.337  0.7314  1.1024 -0.7142
 3721SOL     OW22624   2.184   3.668   1.469  0.0340  0.2320  0.4743
 3721SOL    HW122625   2.109   3.663   1.409  0.9929  0.0123 -0.6945
 3721SOL    HW222626   2.218   3.756   1.460 -0.4999  0.3058 -0.7694
 3722SOL     OW22627   4.140   4.380   4.140 -0.1319 -0.7373 -0.4246
 3722SOL    HW122628   4.045   4.391   4.137 -0.0827 -0.5253 -1.1813
 3722SOL    HW222629   4.166   4.410   4.228 -0.3463 -0.3809 -0.4867
 3723SOL     OW22630   0.298   2.267   4.923 -0.2405 -0.3614 -0.0047
 3723SOL    HW122631   0.320   2.296   5.011 -0.6502 -0.0552 -0.0031
 3723SOL    HW222632   0.389   2.267   4.893 -0.6515 -2.7090 -1.2170
 3724SOL     OW22633   4.646   4.226   1.132  0.1942 -0.8190  0.7213
 3724SOL    HW122634   4.695   4.305   1.154 -0.7278 -0.2736  0.8102
 3724SOL    HW222635   4.716   4.184   1.082  2.1377  0.8456  2.0102
 3725SOL     OW22636   3.954   3.116   9.520  0.1663 -0.1299  0.2227
 3725SOL    HW122637   4.020   3.150   9.580  1.4727 -1.5030 -0.4218
 3725SOL    HW222638   3.911   3.055   9.581  1.6160  2.1295  3.5378
 3726SOL     OW22639   3.330   2.602   2.986 -0.4019 -0.1486 -0.8922
 3726SOL    HW122640   3.296   2.689   2.964  1.7493  0.7567 -0.6016
 3726SOL    HW222641   3.421   2.624   3.006 -1.1239  0.6396  1.5047
 3727SOL     OW22642   4.599   2.728   2.235 -0.3992  0.4759  0.3646
 3727SOL    HW122643   4.597   2.735   2.331  0.6619  0.1630  0.4101
 3727SOL    HW222644   4.532   2.790   2.208 -0.1663  0.3843 -0.4392
 3728SOL     OW22645   3.562   0.424   7.112 -0.9136 -0.1478  0.2575
 3728SOL    HW122646   3.500   0.369   7.160 -1.0369 -1.7078 -1.6950
 3728SOL    HW222647   3.550   0.507   7.159  2.0035  0.3980 -0.0216
 3729SOL     OW22648   4.431   3.461   8.375 -0.5655  0.4473  0.0311
 3729SOL    HW122649   4.432   3.480   8.469 -1.2355 -0.2264  0.1750
 3729SOL    HW222650   4.464   3.544   8.342 -2.9736  1.1881 -0.5427
 3730SOL     OW22651   1.851   0.336  15.167  0.3447 -0.2625  0.4077
 3730SOL    HW122652   1.789   0.349  15.095 -1.9023 -2.9588  1.8533
 3730SOL    HW222653   1.893   0.422  15.157 -1.3232  0.6667  1.2719
 3731SOL     OW22654   1.564   3.177  11.911  0.0849 -0.5806  0.2258
 3731SOL    HW122655   1.508   3.248  11.878  1.2018  0.4764  0.6049
 3731SOL    HW222656   1.518   3.169  11.995  3.0788  1.4633  2.0713
 3732SOL     OW22657   2.284   1.929   6.002  0.3342  0.0620  0.2246
 3732SOL    HW122658   2.311   2.020   5.990  1.1726 -0.3091 -0.6502
 3732SOL    HW222659   2.298   1.892   5.915 -0.9808 -2.7226  1.2237
 3733SOL     OW22660   1.945   2.660  10.892  0.1574  0.3360 -0.7214
 3733SOL    HW122661   2.005   2.725  10.932 -0.0050  0.3189 -0.4488
 3733SOL    HW222662   1.992   2.651  10.809  0.5179  2.3546 -0.7585
 3734SOL     OW22663   3.206   2.359  16.458  0.3593  0.4770  0.4178
 3734SOL    HW122664   3.135   2.401  16.508 -1.5210 -1.3522 -0.7227
 3734SOL    HW222665   3.253   2.318  16.531 -0.3335 -2.4131 -0.7631
 3735SOL     OW22666   0.390   2.876  10.944  0.3836  0.0074  0.4837
 3735SOL    HW122667   0.350   2.938  10.883 -0.8542  0.7501  2.0482
 3735SOL    HW222668   0.346   2.902  11.025 -1.7437 -0.3402 -0.5592
 3736SOL     OW22669   1.971   2.710   5.026 -0.3057 -0.4777  0.5668
 3736SOL    HW122670   1.950   2.770   4.955 -0.0160 -0.1921  0.7264
 3736SOL    HW222671   2.065   2.724   5.022 -0.3496 -0.4809 -0.4386
 3737SOL     OW22672   3.430   1.827   4.400  0.1278  0.3245 -0.7308
 3737SOL    HW122673   3.402   1.914   4.372 -1.3773 -0.2628 -1.0193
 3737SOL    HW222674   3.404   1.770   4.328 -3.7808 -0.8549  1.6653
 3738SOL     OW22675   3.518   3.324  16.923 -0.1327 -0.1756  0.0251
 3738SOL    HW122676   3.571   3.376  16.982  2.0904  0.3351 -2.4324
 3738SOL    HW222677   3.554   3.333  16.835  0.7848  2.3733  0.6896
 3739SOL     OW22678   1.368   3.478   4.579 -0.0079  0.0892 -0.4126
 3739SOL    HW122679   1.386   3.430   4.660 -0.7760 -1.4625 -1.1532
 3739SOL    HW222680   1.352   3.567   4.611 -1.2637 -0.1192 -0.4572
 3740SOL     OW22681   2.426   3.814   8.378  0.5382 -0.0086 -0.3444
 3740SOL    HW122682   2.342   3.778   8.405  0.4654 -0.4583 -1.1735
 3740SOL    HW222683   2.399   3.846   8.291 -1.5755 -0.4798  0.1442
 3741SOL     OW22684   3.921   2.939   4.608  0.3103 -0.0349  0.6389
 3741SOL    HW122685   3.890   2.938   4.517 -1.3660 -2.6876  1.2504
 3741SOL    HW222686   3.987   2.870   4.599 -0.2279 -0.4705  0.0414
 3742SOL     OW22687   0.713   1.936   9.531  0.4143 -0.1476  0.6986
 3742SOL    HW122688   0.728   1.860   9.587 -0.7399 -2.5209 -2.2046
 3742SOL    HW222689   0.778   2.000   9.560 -0.6763 -0.7919  4.5326
 3743SOL     OW22690   4.579   4.287   7.947 -0.7955  0.4215  0.3501
 3743SOL    HW122691   4.524   4.226   7.996 -0.6081 -0.0015  0.0269
 3743SOL    HW222692   4.671   4.272   7.970 -1.1062 -2.2287 -0.1820
 3744SOL     OW22693   2.467   4.335   8.026  0.2625  0.2632 -0.2669
 3744SOL    HW122694   2.500   4.265   7.970 -0.9248 -0.6156  0.1198
 3744SOL    HW222695   2.548   4.386   8.033  1.4770 -1.6817 -0.1594
 3745SOL     OW22696   2.577   1.269   4.252 -0.4333 -0.3610  0.2596
 3745SOL    HW122697   2.587   1.218   4.333 -3.2655 -1.1085  0.1698
 3745SOL    HW222698   2.661   1.314   4.253 -0.7447  0.1915  2.1722
 3746SOL     OW22699   1.967   4.355   0.529 -0.3111 -0.2138 -0.1079
 3746SOL    HW122700   1.888   4.340   0.581 -0.4328 -2.8268 -1.0661
 3746SOL    HW222701   2.036   4.331   0.591 -0.3592 -1.2185 -0.4453
 3747SOL     OW22702   1.574   0.618   3.734  0.1267 -0.4078 -0.2008
 3747SOL    HW122703   1.480   0.639   3.739 -0.0102 -1.5593  2.4809
 3747SOL    HW222704   1.585   0.589   3.644 -0.2663 -1.0202 -0.0515
 3748SOL     OW22705   0.852   0.220  15.361  0.0194  0.4488 -0.0319
 3748SOL    HW122706   0.768   0.238  15.405 -0.1618  0.6497 -0.4586
 3748SOL    HW222707   0.857   0.125  15.371 -3.3246  0.1053 -1.5060
 3749SOL     OW22708   4.461   0.739   9.120 -0.3463 -0.2940  0.1290
 3749SOL    HW122709   4.532   0.676   9.129 -0.6664 -0.4521  1.4888
 3749SOL    HW222710   4.525   0.809   9.103 -0.3331 -0.5121 -0.7146
 3750SOL     OW22711   2.622   2.060  13.314 -0.1436  0.0082  0.3265
 3750SOL    HW122712   2.550   2.037  13.373 -0.2224 -1.3256 -0.3038
 3750SOL    HW222713   2.586   2.004  13.245  0.7517  0.7879 -0.7854
 3751SOL     OW22714   2.812   0.747   3.978  0.0114 -0.5659  0.3761
 3751SOL    HW122715   2.823   0.786   3.891 -0.7132  1.2303  1.0772
 3751SOL    HW222716   2.724   0.711   3.966  0.0849 -0.5203 -0.2625
 3752SOL     OW22717   2.767   0.660  13.990 -0.4749 -1.0943  0.5983
 3752SOL    HW122718   2.685   0.706  13.972  0.0425  0.6545  2.6815
 3752SOL    HW222719   2.810   0.720  14.051 -0.2976 -2.1040  1.4612
 3753SOL     OW22720   1.180   4.253   7.565 -0.0030  0.2182 -0.0585
 3753SOL    HW122721   1.237   4.212   7.500  0.1818  3.0969 -1.6928
 3753SOL    HW222722   1.255   4.287   7.615 -0.9191  2.8785 -0.5098
 3754SOL     OW22723   4.150   4.501   9.188  0.1451  0.2930  0.1182
 3754SOL    HW122724   4.150   4.566   9.258  0.8028  1.6463 -1.1514
 3754SOL    HW222725   4.163   4.427   9.247  2.0548 -1.3378 -2.3575
 3755SOL     OW22726   0.153   2.139  13.969 -0.2381  0.0825  0.4188
 3755SOL    HW122727   0.203   2.125  13.888  0.4310 -0.0126  0.8499
 3755SOL    HW222728   0.098   2.215  13.947 -2.0604 -0.7980  1.9978
 3756SOL     OW22729   2.589   2.112   4.793  0.3788 -0.3712 -0.2768
 3756SOL    HW122730   2.682   2.091   4.800  0.0365 -1.6480  0.3774
 3756SOL    HW222731   2.600   2.194   4.745 -1.5053  0.5020  0.7838
 3757SOL     OW22732   1.423   2.067   3.375 -0.1059 -0.4231 -0.1466
 3757SOL    HW122733   1.453   1.987   3.417 -0.2075  0.3059  1.3469
 3757SOL    HW222734   1.454   2.137   3.432 -0.5816  0.2925 -0.7614
 3758SOL     OW22735   4.039   1.680   5.453 -0.2620  0.3666  0.5448
 3758SOL    HW122736   4.044   1.620   5.378 -1.8811  2.9481 -1.6044
 3758SOL    HW222737   4.082   1.630   5.522  0.0105  0.6849  0.6057
 3759SOL     OW22738   4.014   3.537   0.815  0.4069 -0.3210 -0.3886
 3759SOL    HW122739   4.026   3.456   0.865  0.4049 -1.4448 -2.2243
 3759SOL    HW222740   4.039   3.603   0.879  2.3133  0.5949 -2.0909
 3760SOL     OW22741   4.482   4.582   1.017  0.4482 -0.1545 -0.6714
 3760SOL    HW122742   4.472   4.521   0.943 -1.1564  0.8468 -1.2816
 3760SOL    HW222743   4.467   4.517   1.085  2.1750 -0.6448 -0.7737
 3761SOL     OW22744   1.257   4.030   2.254  0.1757 -0.3323 -0.2440
 3761SOL    HW122745   1.320   4.037   2.182 -0.9057  1.6957 -0.9731
 3761SOL    HW222746   1.218   3.944   2.238 -0.8581 -0.1968  1.5711
 3762SOL     OW22747   3.075   2.092   9.746  0.0750  0.7196  0.2068
 3762SOL    HW122748   3.092   2.150   9.820 -0.5950 -0.7231  1.4664
 3762SOL    HW222749   3.154   2.099   9.692  0.1747 -0.8865  0.1603
 3763SOL     OW22750   1.886   1.923   8.706  0.2737  0.0649  0.3414
 3763SOL    HW122751   1.975   1.924   8.739  1.0589  1.0588 -1.8366
 3763SOL    HW222752   1.902   1.865   8.632 -0.5111 -0.6801  0.7544
 3764SOL     OW22753   2.743   1.254  13.623  0.1846  0.0624  0.3859
 3764SOL    HW122754   2.657   1.237  13.587  0.9130 -0.4666 -1.1016
 3764SOL    HW222755   2.726   1.276  13.715  0.0131  2.6346 -0.2464
 3765SOL     OW22756   1.380   1.904   7.287 -0.1516 -0.2116 -0.8345
 3765SOL    HW122757   1.417   1.991   7.295 -0.5086  0.0293 -1.7694
 3765SOL    HW222758   1.460   1.859   7.258  0.9812  0.7527  0.8035
 3766SOL     OW22759   1.433   4.467   0.706 -0.3797 -0.1894 -0.2730
 3766SOL    HW122760   1.510   4.449   0.759  0.2241  0.5833 -0.8935
 3766SOL    HW222761   1.391   4.541   0.750 -1.6011 -2.0599  1.7045
 3767SOL     OW22762   1.996   0.769  16.356  0.1532 -0.4048 -0.1443
 3767SOL    HW122763   2.056   0.840  16.331 -1.1721 -0.7263 -4.2987
 3767SOL    HW222764   1.913   0.812  16.335  0.1960 -0.1300  0.2489
 3768SOL     OW22765   3.237   3.438  17.507  0.2006  0.2928 -0.5992
 3768SOL    HW122766   3.326   3.462  17.531 -1.1804  2.9509  1.8919
 3768SOL    HW222767   3.196   3.400  17.585  0.4467  0.5289 -0.3564
 3769SOL     OW22768   0.721   3.883   2.737  0.5135  0.0871  0.5629
 3769SOL    HW122769   0.677   3.916   2.659  1.6675  1.3199  0.4449
 3769SOL    HW222770   0.655   3.891   2.806 -0.4258 -1.0859 -0.1971
 3770SOL     OW22771   3.431   2.774  13.639 -0.8090 -0.5494  0.1124
 3770SOL    HW122772   3.368   2.809  13.576 -0.6379  0.6321  0.5882
 3770SOL    HW222773   3.492   2.848  13.645 -0.1727 -1.0441 -0.2691
 3771SOL     OW22774   3.205   1.498  15.802 -0.6791 -0.2261  0.0814
 3771SOL    HW122775   3.243   1.467  15.719 -0.9818 -0.8109  0.1662
 3771SOL    HW222776   3.225   1.592  15.805  0.1095 -0.2908 -2.5478
 3772SOL     OW22777   2.420   3.641   3.605  0.3087 -0.0670  0.2444
 3772SOL    HW122778   2.464   3.570   3.653 -1.5768 -0.7070  1.0054
 3772SOL    HW222779   2.339   3.606   3.568 -0.3986  0.0508  1.6683
 3773SOL     OW22780   4.405   1.126   8.045 -0.4093  0.1562  0.1887
 3773SOL    HW122781   4.414   1.132   7.950  1.6228 -0.6207  0.3273
 3773SOL    HW222782   4.450   1.203   8.078 -1.3168  0.0292  1.7140
 3774SOL     OW22783   0.570   3.811   3.936  0.6544 -0.3283  0.3644
 3774SOL    HW122784   0.607   3.835   3.851  0.8151 -0.9988  0.2434
 3774SOL    HW222785   0.628   3.862   3.993  0.8596 -0.5111  0.3187
 3775SOL     OW22786   1.794   2.681   4.529 -0.3609  0.4644  0.0915
 3775SOL    HW122787   1.701   2.698   4.547 -0.3728 -1.1029  1.4942
 3775SOL    HW222788   1.822   2.639   4.610  1.5154 -0.0707 -0.8292
 3776SOL     OW22789   1.591   0.577   1.052 -0.0520 -0.0401  0.0965
 3776SOL    HW122790   1.582   0.671   1.037  2.0809  0.1024 -0.3124
 3776SOL    HW222791   1.508   0.534   1.035  0.3554 -1.2105  1.0683
 3777SOL     OW22792   2.091   3.831  13.284  0.1015 -0.7618 -0.2893
 3777SOL    HW122793   2.110   3.812  13.192  0.8502  2.4669 -0.8017
 3777SOL    HW222794   2.172   3.867  13.318 -0.1734 -0.3606 -0.0627
 3778SOL     OW22795   4.554   3.366   4.167 -0.9447  0.0320  0.0252
 3778SOL    HW122796   4.612   3.318   4.226  1.0105  0.6110 -1.4252
 3778SOL    HW222797   4.612   3.377   4.092  0.1055 -2.6588  0.4528
 3779SOL     OW22798   4.552   0.977   7.356  0.1109  0.0611 -0.0595
 3779SOL    HW122799   4.476   1.031   7.378  1.1947  1.4656  0.2024
 3779SOL    HW222800   4.512   0.932   7.282 -0.6062 -0.1986  0.4817
 3780SOL     OW22801   4.117   3.660   4.229  0.4106 -0.0679  0.1388
 3780SOL    HW122802   4.085   3.713   4.156  2.7186  1.8214  0.4830
 3780SOL    HW222803   4.208   3.647   4.200  0.5490  1.1472  0.0064
 3781SOL     OW22804   0.428   1.048  12.830 -0.2120  0.2066  0.4455
 3781SOL    HW122805   0.369   1.108  12.784 -0.6100 -0.2270  0.3882
 3781SOL    HW222806   0.380   0.966  12.816 -1.1382  0.7754  0.3508
 3782SOL     OW22807   0.458   3.792   5.872 -0.4157 -0.3351  0.1636
 3782SOL    HW122808   0.419   3.791   5.785 -0.5087  2.6555  0.1546
 3782SOL    HW222809   0.551   3.779   5.852 -0.6769  1.7936 -2.4627
 3783SOL     OW22810   1.673   4.069   6.754  0.0409  0.1511 -0.3585
 3783SOL    HW122811   1.636   3.990   6.793 -3.4876  2.6472  1.3360
 3783SOL    HW222812   1.598   4.095   6.702 -0.4022 -0.7850 -0.1820
 3784SOL     OW22813   3.311   2.280   9.563  0.0578 -0.1450 -0.1852
 3784SOL    HW122814   3.330   2.309   9.652  1.1707  0.4143 -0.6072
 3784SOL    HW222815   3.402   2.294   9.538 -0.7203  0.9011 -2.5267
 3785SOL     OW22816   1.307   3.288  14.882 -0.4199  0.4000 -0.0365
 3785SOL    HW122817   1.402   3.298  14.889 -0.3940 -0.3575  0.6849
 3785SOL    HW222818   1.304   3.207  14.833  2.9802 -0.2121  0.7439
 3786SOL     OW22819   3.535   2.869   8.030 -0.5709  0.0320 -0.0125
 3786SOL    HW122820   3.588   2.841   8.104  1.2522  2.2916 -0.4471
 3786SOL    HW222821   3.558   2.821   7.951 -0.9015  0.9036 -0.6486
 3787SOL     OW22822   0.885   4.358  12.941 -0.3439  0.2821 -0.0915
 3787SOL    HW122823   0.847   4.424  12.883 -0.8836 -1.5269 -1.7757
 3787SOL    HW222824   0.949   4.315  12.884  0.1705  0.8299  0.0672
 3788SOL     OW22825   0.109   2.044   7.308  0.2428 -0.3905 -0.9389
 3788SOL    HW122826   0.175   2.101   7.270 -0.8723  1.9399  0.6526
 3788SOL    HW222827   0.142   2.026   7.395 -1.2301  1.8801  0.0862
 3789SOL     OW22828   0.076   2.162   3.858  0.7945 -0.1818  0.4410
 3789SOL    HW122829   0.088   2.100   3.930  1.0992  0.4786  0.9545
 3789SOL    HW222830   0.050   2.236   3.912  0.0066  2.0055 -2.9200
 3790SOL     OW22831   4.370   3.749  16.422 -0.2240 -0.1518 -0.1835
 3790SOL    HW122832   4.452   3.741  16.373 -1.5088  0.4884 -2.4546
 3790SOL    HW222833   4.309   3.706  16.362 -1.0593  2.7610 -1.3682
 3791SOL     OW22834   3.375   4.367   9.495 -0.7529 -0.5528 -0.0268
 3791SOL    HW122835   3.415   4.446   9.459  0.7931 -0.9806  0.7908
 3791SOL    HW222836   3.398   4.367   9.587 -0.6119 -1.8321 -0.0574
 3792SOL     OW22837   0.597   4.071   1.220 -0.1424  0.0280  0.5337
 3792SOL    HW122838   0.564   3.981   1.215  1.6533 -0.5623 -0.6299
 3792SOL    HW222839   0.606   4.103   1.131 -1.6449 -0.0740  0.3582
 3793SOL     OW22840   0.147   3.629   8.646  0.5059  0.7484 -0.2536
 3793SOL    HW122841   0.145   3.539   8.614 -1.5299  0.0573  1.8237
 3793SOL    HW222842   0.210   3.666   8.585 -0.0878  1.1625 -0.6112
 3794SOL     OW22843   2.817   3.078   9.435 -0.3173  0.1193 -0.4206
 3794SOL    HW122844   2.794   3.158   9.388 -2.5111  0.6440  1.5243
 3794SOL    HW222845   2.807   3.117   9.522 -0.0507  2.2558 -1.3527
 3795SOL     OW22846   2.094   3.068   4.868 -0.4529 -0.0056 -0.6373
 3795SOL    HW122847   2.170   3.039   4.817  0.1369 -1.1233  0.8942
 3795SOL    HW222848   2.093   2.992   4.926 -1.0772 -0.6692 -1.5138
 3796SOL     OW22849   1.410   1.072   9.286 -0.2025  0.3680  0.4677
 3796SOL    HW122850   1.316   1.053   9.290 -0.3976  0.9632 -1.5482
 3796SOL    HW222851   1.449   0.986   9.299  0.0219  0.5439  0.9462
 3797SOL     OW22852   4.352   1.611  16.585  0.3405  0.2688  0.5322
 3797SOL    HW122853   4.279   1.668  16.563  0.8337  1.2518  1.4987
 3797SOL    HW222854   4.370   1.649  16.670 -0.7612 -0.8941  1.3011
 3798SOL     OW22855   1.100   0.293  13.411 -0.0020  0.1834  0.3655
 3798SOL    HW122856   1.036   0.224  13.427 -0.7471  0.6283 -0.7073
 3798SOL    HW222857   1.145   0.246  13.341 -0.8783  0.7618 -0.5838
 3799SOL     OW22858   0.955   4.012   7.412 -0.3416  0.6840 -0.2521
 3799SOL    HW122859   0.903   4.053   7.343  1.5589 -2.0027 -3.2729
 3799SOL    HW222860   1.040   4.056   7.409  0.0747 -0.2114 -1.4853
 3800SOL     OW22861   3.556   3.368   5.802  0.2191  0.0080  0.4916
 3800SOL    HW122862   3.584   3.390   5.891 -1.3279  0.8314  0.7651
 3800SOL    HW222863   3.463   3.356   5.818  0.0006  0.4598 -0.4102
 3801SOL     OW22864   2.827   4.063   2.837  0.3342 -0.1222 -0.2900
 3801SOL    HW122865   2.847   4.077   2.744  1.0382 -1.8914 -0.4072
 3801SOL    HW222866   2.767   3.989   2.837 -0.8521  0.8149 -3.0859
 3802SOL     OW22867   0.240   2.497   5.374 -0.3728  0.2419 -0.2518
 3802SOL    HW122868   0.264   2.585   5.346  0.7947 -0.1612 -0.5329
 3802SOL    HW222869   0.147   2.497   5.392 -0.3053 -0.6666  0.1004
 3803SOL     OW22870   0.105   1.958   5.157 -0.1003 -0.2398  0.3787
 3803SOL    HW122871   0.119   1.953   5.062  1.4448  0.9881  0.5328
 3803SOL    HW222872   0.164   1.891   5.190  3.3130  1.6277 -1.9240
 3804SOL     OW22873   2.465   0.729  15.383  0.2769 -0.7051  0.0036
 3804SOL    HW122874   2.491   0.646  15.423  4.4055  0.3402 -0.4693
 3804SOL    HW222875   2.509   0.725  15.298  0.2436  1.0184 -0.0802
 3805SOL     OW22876   3.835   4.697   4.799  0.1963 -0.4093 -0.3531
 3805SOL    HW122877   3.922   4.670   4.827  0.3295  1.4246  1.0005
 3805SOL    HW222878   3.842   0.068   4.812 -0.2064 -0.5090  0.6323
 3806SOL     OW22879   2.539   1.887   7.576  0.4600  0.3738 -0.2842
 3806SOL    HW122880   2.484   1.893   7.653  0.7051 -1.0032  0.0070
 3806SOL    HW222881   2.615   1.943   7.595  3.3440 -2.6535 -2.8294
 3807SOL     OW22882   2.103   1.317   4.902  0.1634 -0.0712  0.5300
 3807SOL    HW122883   2.016   1.347   4.926 -0.7879 -1.0420 -1.6706
 3807SOL    HW222884   2.148   1.379   4.959 -0.5452 -0.1464  1.1653
 3808SOL     OW22885   0.253   4.138   4.303 -0.6737 -0.3759 -0.5640
 3808SOL    HW122886   0.214   4.209   4.354 -1.3914 -0.0729 -1.5291
 3808SOL    HW222887   0.328   4.113   4.356 -0.7734  1.3961  0.4303
 3809SOL     OW22888   0.080   3.970   4.175 -0.0327 -0.3929  0.0856
 3809SOL    HW122889   0.119   3.901   4.121  1.9773  0.4031  0.5335
 3809SOL    HW222890   0.153   4.021   4.210 -1.2037 -0.0794  2.0252
 3810SOL     OW22891   1.967   3.196  11.836  0.4928  0.1910  0.4821
 3810SOL    HW122892   1.924   3.228  11.915 -2.1777  1.8820 -1.6620
 3810SOL    HW222893   1.981   3.282  11.797 -2.9300  0.8564  0.7421
 3811SOL     OW22894   2.346   4.360   6.601 -0.4099 -0.6019 -0.0945
 3811SOL    HW122895   2.414   4.293   6.600 -0.7875 -0.9981  0.6728
 3811SOL    HW222896   2.277   4.328   6.660  0.5818 -2.5727  0.0050
 3812SOL     OW22897   3.286   2.433   7.967 -0.2318 -0.0208  0.5216
 3812SOL    HW122898   3.226   2.362   7.992  0.7325 -0.7487  0.7450
 3812SOL    HW222899   3.341   2.422   8.045  1.4319 -2.0122 -0.9389
 3813SOL     OW22900   0.638   0.479   0.173  0.3911 -0.4839  0.1417
 3813SOL    HW122901   0.666   0.564   0.208 -3.1256  0.8594 -0.2826
 3813SOL    HW222902   0.622   0.496   0.081  0.4017  0.1327  0.2549
 3814SOL     OW22903   0.840   2.011   3.454 -0.3482  0.1157 -0.0150
 3814SOL    HW122904   0.892   2.088   3.477 -0.3772  0.9184 -2.6303
 3814SOL    HW222905   0.808   2.030   3.366 -2.9149  1.2890  1.1827
 3815SOL     OW22906   1.798   0.312  16.262  0.1459  0.3084  0.5635
 3815SOL    HW122907   1.812   0.227  16.220  0.0151  1.2053 -1.2934
 3815SOL    HW222908   1.711   0.331  16.227  0.7444  1.8113 -0.0894
 3816SOL     OW22909   1.348   1.362  12.019  0.3714  0.3827 -0.6554
 3816SOL    HW122910   1.427   1.314  12.043  0.0761 -0.6639 -1.7734
 3816SOL    HW222911   1.384   1.425  11.956  0.3934  0.1838 -0.8388
 3817SOL     OW22912   3.876   3.737  10.383 -0.1476  0.4554  0.1486
 3817SOL    HW122913   3.872   3.700  10.471 -0.8996  0.9089  0.3129
 3817SOL    HW222914   3.801   3.701  10.334 -1.1025  1.4211  0.8882
 3818SOL     OW22915   0.568   2.591   7.872 -0.2735  0.1741 -0.1625
 3818SOL    HW122916   0.610   2.653   7.811  0.2287  1.5992  1.6444
 3818SOL    HW222917   0.477   2.604   7.845  0.1131  0.4628 -1.3412
 3819SOL     OW22918   2.317   3.542   4.490  0.3444  0.0906 -0.3740
 3819SOL    HW122919   2.408   3.511   4.481 -0.0875 -0.6002 -2.4323
 3819SOL    HW222920   2.270   3.465   4.523 -1.6160  1.0819 -0.9268
 3820SOL     OW22921   0.066   0.259   3.227 -0.3613  0.5943  0.3995
 3820SOL    HW122922   0.069   0.305   3.143 -1.3605 -0.2744 -0.1038
 3820SOL    HW222923   0.160   0.250   3.244 -0.9382  0.2020  3.4254
 3821SOL     OW22924   2.481   1.533  17.287  0.4235 -0.1305 -0.1762
 3821SOL    HW122925   2.405   1.494  17.331  1.2734 -0.9301  0.5854
 3821SOL    HW222926   2.444   1.535  17.199  0.1651  0.1832 -0.0606
 3822SOL     OW22927   2.002   0.398  16.424 -0.0219 -0.2882 -0.1773
 3822SOL    HW122928   1.981   0.346  16.502 -1.1634 -0.4405 -0.5844
 3822SOL    HW222929   1.918   0.381  16.380 -0.7828  1.5620  0.5759
 3823SOL     OW22930   2.520   4.150   6.648  0.1846  0.2122 -0.2123
 3823SOL    HW122931   2.580   4.100   6.592  0.1397 -0.7546  0.5888
 3823SOL    HW222932   2.576   4.192   6.713  1.0914 -1.3632  0.0317
 3824SOL     OW22933   0.523   0.204   8.843 -0.1103  0.5472  0.1469
 3824SOL    HW122934   0.473   0.171   8.917  0.2553  0.0545  0.1713
 3824SOL    HW222935   0.462   0.207   8.769  1.2149 -0.4265 -0.9914
 3825SOL     OW22936   2.981   4.717   2.887  0.1186  0.1300  0.1964
 3825SOL    HW122937   2.943   0.057   2.827  2.0450  0.6407 -0.4819
 3825SOL    HW222938   2.940   4.640   2.848 -0.5716  1.6309 -2.0596
 3826SOL     OW22939   4.705   1.599   8.816  0.2850 -0.0452 -0.5810
 3826SOL    HW122940   0.070   1.635   8.822  0.4335 -0.2181 -1.5806
 3826SOL    HW222941   4.680   1.646   8.736  2.4851 -0.1538 -1.3437
 3827SOL     OW22942   4.444   0.578   6.384 -0.5027  0.5073  0.5111
 3827SOL    HW122943   4.470   0.503   6.437 -1.3943  2.3440  3.5045
 3827SOL    HW222944   4.479   0.562   6.296 -0.9618  2.0025  0.0467
 3828SOL     OW22945   2.190   4.528  14.791  0.2823 -0.0770 -0.2626
 3828SOL    HW122946   2.154   4.580  14.862  1.0324 -2.4986  1.8758
 3828SOL    HW222947   2.134   4.454  14.813 -0.0939  0.2953  0.0350
 3829SOL     OW22948   3.313   0.303   8.460  0.6317  0.3459 -0.4498
 3829SOL    HW122949   3.327   0.290   8.366  0.7779  0.6032 -0.4626
 3829SOL    HW222950   3.263   0.227   8.489 -0.4356  1.6775  1.2083
 3830SOL     OW22951   0.732   3.835   9.569  0.1649  0.2164  0.4896
 3830SOL    HW122952   0.694   3.795   9.647  2.4142 -1.7344  0.5926
 3830SOL    HW222953   0.713   3.771   9.501  2.4101 -1.7696  1.7349
 3831SOL     OW22954   2.630   1.202   9.209 -0.2502  0.0511 -0.3151
 3831SOL    HW122955   2.603   1.291   9.187 -1.2748 -0.7175 -2.1751
 3831SOL    HW222956   2.639   1.205   9.305 -2.1904 -1.3735 -0.0725
 3832SOL     OW22957   1.068   4.206  11.965 -0.3516  0.6332 -0.2718
 3832SOL    HW122958   1.038   4.290  12.000  1.2147 -0.0012  2.6227
 3832SOL    HW222959   1.141   4.240  11.913 -0.1655  1.6519  0.6352
 3833SOL     OW22960   3.344   0.703   3.533  0.2779  0.0221  0.1938
 3833SOL    HW122961   3.266   0.751   3.560 -1.7687 -2.0450 -2.0223
 3833SOL    HW222962   3.402   0.711   3.608  1.0236 -0.4227 -0.3331
 3834SOL     OW22963   1.417   3.551   5.668 -0.1016  0.6762 -0.2389
 3834SOL    HW122964   1.487   3.490   5.644  0.9110  1.5212  0.5875
 3834SOL    HW222965   1.391   3.586   5.583 -0.2848  1.8794  0.3085
 3835SOL     OW22966   3.230   0.345   6.436  0.2532 -0.1260  0.1968
 3835SOL    HW122967   3.153   0.383   6.478 -0.5811 -2.3540  0.6767
 3835SOL    HW222968   3.247   0.274   6.497 -1.5488 -0.1344  0.6911
 3836SOL     OW22969   2.843   3.612   5.299 -0.1575 -0.1870  0.0910
 3836SOL    HW122970   2.917   3.672   5.308  0.5386 -1.1583  0.8260
 3836SOL    HW222971   2.852   3.554   5.375 -0.4919  2.0074  1.8216
 3837SOL     OW22972   1.044   1.838   6.991  0.5928  0.3716  0.4557
 3837SOL    HW122973   1.036   1.796   7.076  2.9118  3.3872  2.1369
 3837SOL    HW222974   1.021   1.930   7.004 -0.2614  0.1496  0.5238
 3838SOL     OW22975   3.646   0.755   2.846  0.0441 -0.4301 -0.0026
 3838SOL    HW122976   3.584   0.719   2.783  0.3544 -0.4836 -0.2786
 3838SOL    HW222977   3.670   0.838   2.804 -0.8817 -0.0403  0.2404
 3839SOL     OW22978   2.633   1.251  10.371  0.2282 -0.0865  0.4893
 3839SOL    HW122979   2.651   1.196  10.447 -0.5032 -0.2800  0.5199
 3839SOL    HW222980   2.679   1.204  10.301  0.9238  2.7736 -0.9701
 3840SOL     OW22981   4.369   2.855  14.674  0.1088  0.7050  0.1686
 3840SOL    HW122982   4.369   2.920  14.744 -1.8339  0.8133  0.0790
 3840SOL    HW222983   4.452   2.866  14.628  0.1183  2.0931  0.5277
 3841SOL     OW22984   0.421   0.907   7.289 -0.0886  0.0350  0.4873
 3841SOL    HW122985   0.388   0.817   7.284 -1.3303  0.4029  1.9740
 3841SOL    HW222986   0.463   0.919   7.374  0.2586 -1.5268  0.5313
 3842SOL     OW22987   2.774   2.031  10.384 -0.1212  0.0488 -0.1811
 3842SOL    HW122988   2.797   2.004  10.295  2.6187 -0.5470  0.7106
 3842SOL    HW222989   2.805   1.966  10.446 -0.9922  1.8404  2.1262
 3843SOL     OW22990   3.905   0.383   6.444 -0.0879  0.2561  0.0643
 3843SOL    HW122991   3.930   0.300   6.403  0.8934  0.9512 -0.7413
 3843SOL    HW222992   3.985   0.417   6.485 -1.9179  3.6417  0.7433
 3844SOL     OW22993   3.424   1.505   5.636 -0.0510 -0.2322  0.3943
 3844SOL    HW122994   3.423   1.503   5.541 -1.3575  0.0507  0.4027
 3844SOL    HW222995   3.364   1.435   5.661  1.1214 -1.3169  0.2212
 3845SOL     OW22996   1.049   3.913  16.833  0.0211  0.3842 -0.0494
 3845SOL    HW122997   1.068   3.829  16.790  0.3222  0.6829 -0.5038
 3845SOL    HW222998   1.010   3.966  16.763 -0.5220  0.4941  0.3388
 3846SOL     OW22999   0.790   4.227   4.924 -0.4826  0.0608  0.1111
 3846SOL    HW123000   0.756   4.292   4.986  0.5210 -0.7967  1.5728
 3846SOL    HW223001   0.813   4.284   4.851 -1.2639  0.8885  0.5025
 3847SOL     OW23002   3.075   3.307   6.823 -0.4046  0.1840 -0.2864
 3847SOL    HW123003   3.088   3.287   6.915  0.1703  0.6705 -0.2650
 3847SOL    HW223004   2.979   3.312   6.817 -0.2334  2.0407 -1.6917
 3848SOL     OW23005   1.099   0.981   0.301  0.4679  0.0967 -0.1771
 3848SOL    HW123006   1.166   0.999   0.236  1.1196 -2.3619 -0.1819
 3848SOL    HW223007   1.043   0.942   0.234  1.7043 -2.3659  0.2177
 3849SOL     OW23008   1.462   1.070   6.380  0.8017 -0.0811 -0.1563
 3849SOL    HW123009   1.539   1.056   6.326  1.7409 -1.0285  1.4362
 3849SOL    HW223010   1.393   1.086   6.315  0.0140 -0.6363  0.5374
 3850SOL     OW23011   4.515   4.241  10.414  0.0013 -0.8260 -0.4025
 3850SOL    HW123012   4.567   4.167  10.383 -0.1171 -0.7486 -0.7950
 3850SOL    HW223013   4.430   4.202  10.434 -0.3917  0.6504  0.7758
 3851SOL     OW23014   1.845   0.721  11.102 -0.5738 -0.4024 -0.2890
 3851SOL    HW123015   1.937   0.697  11.094 -1.3945 -2.8916 -2.0573
 3851SOL    HW223016   1.819   0.652  11.163  0.8628 -0.3381  0.4154
 3852SOL     OW23017   0.528   1.086   8.145  0.0473  0.1212  0.3716
 3852SOL    HW123018   0.535   1.074   8.050  1.5206  1.0031  0.3719
 3852SOL    HW223019   0.557   1.174   8.170 -1.1189  0.7405 -0.4556
 3853SOL     OW23020   4.310   1.271   5.961  0.4460 -0.0316  0.0773
 3853SOL    HW123021   4.316   1.177   5.947  0.9623  0.0940 -0.5395
 3853SOL    HW223022   4.404   1.290   5.965  0.7325 -1.3878 -0.3566
 3854SOL     OW23023   1.103   4.259   9.091  0.0906 -0.2193  0.1542
 3854SOL    HW123024   1.155   4.276   9.012  2.0679 -0.1452  1.4572
 3854SOL    HW223025   1.104   4.164   9.104  1.0157  0.0512  2.0809
 3855SOL     OW23026   2.775   0.560   6.072  0.0119 -0.0075  0.0519
 3855SOL    HW123027   2.722   0.591   6.145  0.3367  0.8105 -0.0600
 3855SOL    HW223028   2.805   0.643   6.034  0.4317 -0.6075 -0.9262
 3856SOL     OW23029   2.488   1.837   5.301 -0.3718 -0.0161  0.1466
 3856SOL    HW123030   2.497   1.895   5.226  0.3463  1.4546  1.3778
 3856SOL    HW223031   2.397   1.811   5.290  0.9923 -4.3645 -1.1464
 3857SOL     OW23032   2.158   1.560   8.422  0.2787 -0.0771  0.3809
 3857SOL    HW123033   2.186   1.480   8.377  1.1726  1.0808 -1.1247
 3857SOL    HW223034   2.135   1.524   8.508 -1.2338  1.8317  0.7853
 3858SOL     OW23035   1.442   0.924  13.322 -0.2618 -0.2233 -0.4276
 3858SOL    HW123036   1.443   0.951  13.414  1.0041  0.7486 -0.7123
 3858SOL    HW223037   1.357   0.954  13.291 -0.5742  1.6850  2.1894
 3859SOL     OW23038   1.148   0.441   4.859 -0.1144 -0.4251 -0.0563
 3859SOL    HW123039   1.146   0.522   4.809 -0.8320 -0.0016  0.6558
 3859SOL    HW223040   1.093   0.386   4.803  0.2960 -2.0498  1.1346
 3860SOL     OW23041   3.813   2.374   7.306 -0.1842  0.2914  0.2650
 3860SOL    HW123042   3.786   2.431   7.377 -1.2256 -0.9205  0.8489
 3860SOL    HW223043   3.740   2.384   7.245 -2.0599 -2.5411  2.0111
 3861SOL     OW23044   2.883   2.922  14.489 -0.2730  0.2503 -0.0684
 3861SOL    HW123045   2.875   3.017  14.498 -0.9178 -0.0349  2.4114
 3861SOL    HW223046   2.912   2.929  14.397 -0.9520 -2.0795 -0.4331
 3862SOL     OW23047   3.323   4.464   0.885  0.6377 -0.1165 -0.0663
 3862SOL    HW123048   3.350   4.420   0.804  1.5851  0.3281  0.0166
 3862SOL    HW223049   3.248   4.511   0.851  1.0552  0.2228 -0.5178
 3863SOL     OW23050   1.458   3.592  13.255  0.0412 -0.3942  0.1557
 3863SOL    HW123051   1.532   3.571  13.312 -0.9654  1.6073  2.1925
 3863SOL    HW223052   1.444   3.508  13.210  1.2612 -0.0017 -0.9553
 3864SOL     OW23053   4.289   1.593  14.730 -0.1545 -0.6258  0.2902
 3864SOL    HW123054   4.323   1.540  14.658 -0.6545 -0.7466  0.1467
 3864SOL    HW223055   4.371   1.632  14.762  0.2286 -0.1042 -1.3322
 3865SOL     OW23056   0.642   0.451  13.896 -0.2125 -0.1738 -0.5283
 3865SOL    HW123057   0.658   0.517  13.964 -0.8982 -0.2308 -0.3077
 3865SOL    HW223058   0.725   0.405  13.901  0.0238  0.2319 -0.7063
 3866SOL     OW23059   3.301   4.310   4.005 -0.1331 -0.6899 -0.1872
 3866SOL    HW123060   3.241   4.277   3.938  0.7105 -0.6541 -0.9639
 3866SOL    HW223061   3.346   4.374   3.951 -2.1469  1.5355  0.7641
 3867SOL     OW23062   4.636   1.359   1.893 -0.4487  0.3025  0.4342
 3867SOL    HW123063   4.650   1.268   1.921  0.5249  0.1827 -0.4553
 3867SOL    HW223064   4.719   1.396   1.865 -0.4382 -1.1181 -1.3875
 3868SOL     OW23065   2.532   2.349   6.171 -0.3851 -0.3129 -0.2847
 3868SOL    HW123066   2.477   2.422   6.143  0.2567  0.4619  0.4653
 3868SOL    HW223067   2.496   2.342   6.259 -2.3931 -1.0179 -1.1544
 3869SOL     OW23068   3.239   4.031   5.562  0.2647  0.0727  0.1148
 3869SOL    HW123069   3.309   3.997   5.618 -0.5898  0.2882  1.3031
 3869SOL    HW223070   3.284   4.072   5.488  1.9511 -0.7115  0.7111
 3870SOL     OW23071   0.058   0.355  16.105  0.7885 -0.1063 -0.4282
 3870SOL    HW123072   4.689   0.345  16.128  1.0704  0.3797  0.8995
 3870SOL    HW223073   0.088   0.432  16.153 -1.1531  0.2570  0.2149
 3871SOL     OW23074   4.296   2.435   2.933 -0.4107  0.3402 -0.1835
 3871SOL    HW123075   4.343   2.472   2.858 -1.2971  3.2799  0.6898
 3871SOL    HW223076   4.339   2.351   2.945 -1.3070  0.3099  2.8519
 3872SOL     OW23077   4.244   4.291   9.355 -0.3050  0.4556 -0.1436
 3872SOL    HW123078   4.178   4.297   9.424  1.8090  2.2440  1.7503
 3872SOL    HW223079   4.328   4.285   9.400 -0.5712 -2.7981 -0.0878
 3873SOL     OW23080   4.671   4.030   8.239 -0.2580 -0.1990  0.1199
 3873SOL    HW123081   4.666   3.999   8.149  0.3993  0.5134 -0.1650
 3873SOL    HW223082   0.042   4.023   8.251 -0.4886  0.1887  2.1392
 3874SOL     OW23083   0.499   4.584   5.213 -0.5082  0.0486  0.2265
 3874SOL    HW123084   0.424   4.525   5.217 -0.7379  0.1564 -2.3315
 3874SOL    HW223085   0.531   4.589   5.303  0.1968 -0.2439 -0.0083
 3875SOL     OW23086   0.281   0.700   4.199  0.2396 -0.3311  0.0895
 3875SOL    HW123087   0.287   0.795   4.209 -0.1741 -0.4384  1.2451
 3875SOL    HW223088   0.245   0.662   4.278  0.5678 -1.6300 -0.3836
 3876SOL     OW23089   4.527   0.580  12.681 -0.2916  0.0384  0.3706
 3876SOL    HW123090   4.566   0.648  12.626 -0.3966  0.6135  1.0134
 3876SOL    HW223091   4.555   0.621  12.762  2.2213  1.9322 -1.4574
 3877SOL     OW23092   4.582   0.213   6.286 -0.4146 -0.2417  0.1101
 3877SOL    HW123093   4.583   0.213   6.191  2.5199  0.8562  0.1117
 3877SOL    HW223094   4.668   0.172   6.301 -1.0057 -1.1684  0.9131
 3878SOL     OW23095   2.110   0.738  17.071  0.2999 -0.1477  0.0782
 3878SOL    HW123096   2.146   0.781  16.993 -0.9532  1.2612  0.2935
 3878SOL    HW223097   2.056   0.803  17.115 -0.0370  0.7594 -1.6833
 3879SOL     OW23098   2.608   0.022  14.213  0.3907 -0.1003 -0.5141
 3879SOL    HW123099   2.580   0.003  14.124 -0.3514  0.8010 -0.4716
 3879SOL    HW223100   2.683   4.687  14.215  0.8947  0.5699  0.9324
 3880SOL     OW23101   1.311   1.763   8.229  0.0140 -0.1419 -0.2448
 3880SOL    HW123102   1.268   1.844   8.201  0.0331 -0.2002 -0.4427
 3880SOL    HW223103   1.240   1.699   8.230 -1.8509  1.9345 -0.1862
 3881SOL     OW23104   0.675   2.749  16.323 -0.4683 -0.0490 -0.6712
 3881SOL    HW123105   0.660   2.819  16.259  2.4784 -0.5384 -1.8814
 3881SOL    HW223106   0.587   2.733  16.359  0.6383 -2.1866  1.1000
 3882SOL     OW23107   3.637   3.516   3.526 -0.0062 -0.1276  0.2110
 3882SOL    HW123108   3.668   3.463   3.453 -1.3272 -0.3269 -0.2102
 3882SOL    HW223109   3.705   3.498   3.591  0.5517 -1.4365 -0.7305
 3883SOL     OW23110   2.468   0.326   5.887 -0.4477  0.3794 -0.0138
 3883SOL    HW123111   2.533   0.328   5.957 -0.5961 -0.6090  0.1596
 3883SOL    HW223112   2.390   0.303   5.937 -0.0190  0.4241  0.6754
 3884SOL     OW23113   3.445   4.128   4.392 -0.0355  0.0106  0.3474
 3884SOL    HW123114   3.539   4.108   4.384 -0.4649 -2.5169  1.6972
 3884SOL    HW223115   3.417   4.140   4.301  3.0177  0.5440 -0.5363
 3885SOL     OW23116   1.227   1.378   9.236  0.1072  0.5983 -0.3230
 3885SOL    HW123117   1.300   1.322   9.261 -0.9998 -2.1555 -3.2692
 3885SOL    HW223118   1.273   1.450   9.193  0.6145  0.1448 -0.5364
 3886SOL     OW23119   2.404   4.320   8.878 -0.2448  0.5632  0.1726
 3886SOL    HW123120   2.432   4.342   8.967  1.6032 -1.4169  0.0733
 3886SOL    HW223121   2.439   4.394   8.829 -0.5982  0.1932 -0.6462
 3887SOL     OW23122   2.658   0.116   3.755  0.4876 -0.0602  0.1096
 3887SOL    HW123123   2.718   0.058   3.802  2.2184 -0.2584 -2.3016
 3887SOL    HW223124   2.627   0.056   3.687  2.2236 -0.6802 -0.1396
 3888SOL     OW23125   1.992   1.141  16.307 -0.1649 -0.5105  0.2660
 3888SOL    HW123126   2.086   1.124  16.301  0.1884  1.3463  0.6929
 3888SOL    HW223127   1.998   1.236  16.299  0.7244 -0.5057  0.9875
 3889SOL     OW23128   2.794   0.290  17.266 -0.3290  0.4353 -0.5997
 3889SOL    HW123129   2.833   0.279  17.352 -1.0831  2.9946  0.0699
 3889SOL    HW223130   2.841   0.366  17.233  0.2236 -0.5557 -2.0967
 3890SOL     OW23131   2.578   1.372   9.815 -0.4890 -0.0953 -0.1954
 3890SOL    HW123132   2.499   1.375   9.761 -1.2532 -1.0787  0.8617
 3890SOL    HW223133   2.558   1.295   9.869 -0.3073 -0.2649 -0.3670
 3891SOL     OW23134   3.711   0.406   5.673  0.1825  0.0939 -0.5484
 3891SOL    HW123135   3.725   0.358   5.591  1.3262 -1.1721  0.4019
 3891SOL    HW223136   3.622   0.379   5.697  0.6674 -1.9682 -1.0593
 3892SOL     OW23137   0.049   0.624  16.912  0.0465 -0.3871 -0.1056
 3892SOL    HW123138   0.041   0.645  16.819 -1.2547  2.1454  0.5776
 3892SOL    HW223139   0.145   0.624  16.917  0.0508  1.7689 -0.0672
 3893SOL     OW23140   2.137   0.666  14.072 -0.1686  0.2418  0.2981
 3893SOL    HW123141   2.111   0.691  13.984  0.1087 -2.4160 -0.5224
 3893SOL    HW223142   2.175   0.748  14.104  0.5829  0.6743 -1.7269
 3894SOL     OW23143   3.841   4.308   7.762  0.2607 -0.4663 -0.5844
 3894SOL    HW123144   3.763   4.360   7.784  0.2576 -0.7619  0.1117
 3894SOL    HW223145   3.801   4.232   7.720 -1.4696  1.6733 -2.8325
 3895SOL     OW23146   4.233   1.163   8.443 -0.8554  0.3991  0.1656
 3895SOL    HW123147   4.181   1.117   8.376 -1.4664 -1.4049  1.8681
 3895SOL    HW223148   4.173   1.237   8.452 -1.5212 -0.4352  2.4473
 3896SOL     OW23149   1.842   0.607   5.785  0.0939 -0.2498 -0.2963
 3896SOL    HW123150   1.766   0.552   5.805  0.5334 -0.8580 -0.2668
 3896SOL    HW223151   1.823   0.644   5.699  0.2749 -0.4828 -0.4383
 3897SOL     OW23152   2.786   2.257   6.120  0.6248  0.2729  0.8056
 3897SOL    HW123153   2.762   2.218   6.037  0.5202 -0.6736  1.2872
 3897SOL    HW223154   2.699   2.275   6.155 -0.3188 -1.3542 -0.7219
 3898SOL     OW23155   4.692   4.467   4.942 -0.2524 -1.1591 -0.0297
 3898SOL    HW123156   4.711   4.466   5.036  0.9112 -0.1968 -0.2593
 3898SOL    HW223157   0.038   4.407   4.914 -1.1153 -1.9776 -0.4124
 3899SOL     OW23158   2.357   0.481  15.848 -0.1050 -0.2065 -0.2609
 3899SOL    HW123159   2.413   0.404  15.861  1.7407  0.6419 -3.1643
 3899SOL    HW223160   2.329   0.515  15.933 -0.3937 -0.5508 -0.2191
 3900SOL     OW23161   2.243   1.267   3.896  0.2017  0.0340  1.0287
 3900SOL    HW123162   2.315   1.205   3.884  1.6985  1.5773  2.1919
 3900SOL    HW223163   2.172   1.238   3.838  1.2146  0.4987 -0.4448
 3901SOL     OW23164   2.902   1.910   4.009 -0.0225  0.3470  0.1157
 3901SOL    HW123165   2.831   1.896   4.073 -1.8650 -1.0764 -2.2174
 3901SOL    HW223166   2.884   1.997   3.973  1.0942 -0.4726 -2.4024
 3902SOL     OW23167   0.388   1.355   4.819 -0.0604  0.3878 -0.1837
 3902SOL    HW123168   0.437   1.285   4.775  0.8540  1.6770 -1.2359
 3902SOL    HW223169   0.450   1.377   4.889 -0.5016  0.8830  0.0442
 3903SOL     OW23170   3.691   3.363   6.321 -0.3639 -0.0076  0.8020
 3903SOL    HW123171   3.697   3.297   6.390 -0.4372 -1.2512 -0.3591
 3903SOL    HW223172   3.598   3.355   6.298 -0.4915 -1.8084  1.8959
 3904SOL     OW23173   1.713   2.590  10.747  0.2407  0.2840 -0.0230
 3904SOL    HW123174   1.723   2.495  10.757 -3.9121 -0.0096  1.4539
 3904SOL    HW223175   1.790   2.614  10.798  0.7391 -1.6076  0.1041
 3905SOL     OW23176   2.763   2.647   1.135 -0.0844 -0.2556  0.0091
 3905SOL    HW123177   2.821   2.697   1.078 -3.2694  2.8906 -0.4397
 3905SOL    HW223178   2.819   2.634   1.212  1.2747  1.9096 -0.6407
 3906SOL     OW23179   1.555   2.222   7.579  0.1124  0.2765  0.5934
 3906SOL    HW123180   1.556   2.223   7.484 -0.1031 -0.1335  0.5861
 3906SOL    HW223181   1.633   2.171   7.600 -0.2620 -0.8195 -0.6672
 3907SOL     OW23182   3.898   3.824   6.801  0.1874  0.7459 -0.0691
 3907SOL    HW123183   3.842   3.792   6.730 -0.1684  0.4172  0.3610
 3907SOL    HW223184   3.966   3.760   6.780 -2.7355 -2.9918  1.9770
 3908SOL     OW23185   0.254   1.054   3.945  0.0993 -0.4478 -0.1290
 3908SOL    HW123186   0.295   0.973   3.914 -1.7303 -1.2819 -0.3187
 3908SOL    HW223187   0.263   1.034   4.039  0.6282  0.9140  0.1149
 3909SOL     OW23188   3.911   3.478   4.243 -0.2579 -0.3964  0.2710
 3909SOL    HW123189   3.958   3.561   4.246  1.8557 -1.5952  1.2442
 3909SOL    HW223190   3.950   3.423   4.175 -0.6386  0.4999 -0.6630
 3910SOL     OW23191   1.255   0.735   5.022  0.0709 -0.2817 -0.1954
 3910SOL    HW123192   1.213   0.654   4.993 -1.7445  1.2402 -1.8515
 3910SOL    HW223193   1.190   0.794   4.983  0.5198 -0.3462 -1.0424
 3911SOL     OW23194   4.409   3.631  13.019 -0.2198 -0.2459 -0.3940
 3911SOL    HW123195   4.348   3.604  12.950  0.1219 -3.1636  0.4607
 3911SOL    HW223196   4.490   3.620  12.969 -0.9814 -2.1089 -1.2227
 3912SOL     OW23197   3.901   4.046  15.615 -0.2111 -0.1021  0.1536
 3912SOL    HW123198   3.959   4.074  15.686 -1.3395 -1.6828  1.6766
 3912SOL    HW223199   3.894   3.951  15.618  0.0963 -0.0956  1.0885
 3913SOL     OW23200   1.895   2.575   6.886 -0.4936 -0.3074 -0.0587
 3913SOL    HW123201   1.956   2.625   6.941  0.7127 -2.3058  0.4542
 3913SOL    HW223202   1.951   2.584   6.809 -0.1654 -1.4633  0.0411
 3914SOL     OW23203   1.093   0.449   8.492 -0.3334 -0.2458 -0.2493
 3914SOL    HW123204   1.135   0.535   8.493 -2.4046  0.7961 -2.3221
 3914SOL    HW223205   1.014   0.483   8.534 -0.9314 -0.5351 -1.1392
 3915SOL     OW23206   3.458   3.156  16.418  0.2025  0.6307 -0.1500
 3915SOL    HW123207   3.489   3.116  16.500  0.4593 -0.2642 -0.6890
 3915SOL    HW223208   3.491   3.101  16.347  0.7073  0.4588  0.2187
 3916SOL     OW23209   3.511   0.083   2.442 -0.0200  0.0339 -0.1084
 3916SOL    HW123210   3.498   0.141   2.517 -2.1900 -1.7982  0.9397
 3916SOL    HW223211   3.561   0.145   2.388  1.8884 -0.3074  1.2772
 3917SOL     OW23212   1.990   0.468   8.588 -0.2475  1.0897  0.4178
 3917SOL    HW123213   2.052   0.399   8.564 -0.1142  0.8735  1.3733
 3917SOL    HW223214   1.908   0.442   8.547  0.6799 -1.1017 -0.0352
 3918SOL     OW23215   1.295   0.740  14.282 -0.3769  0.2501 -0.9004
 3918SOL    HW123216   1.325   0.651  14.302  0.1769  0.5916 -0.2163
 3918SOL    HW223217   1.352   0.794  14.337  0.2115 -0.3108 -0.9575
 3919SOL     OW23218   2.911   2.722   3.916 -0.2122  0.3428 -0.2283
 3919SOL    HW123219   2.825   2.746   3.883 -0.2404  0.4498 -0.0761
 3919SOL    HW223220   2.934   2.792   3.977  3.1281 -1.3228  0.4323
 3920SOL     OW23221   0.661   3.141   3.949  0.4996  0.1854  0.7982
 3920SOL    HW123222   0.586   3.104   3.903  2.4223 -3.0305  0.2863
 3920SOL    HW223223   0.637   3.233   3.961 -1.5784 -0.2711  0.1356
 3921SOL     OW23224   0.551   2.808  11.203  0.4360 -0.2256  0.4874
 3921SOL    HW123225   0.623   2.795  11.141 -0.4580 -0.4373 -0.4934
 3921SOL    HW223226   0.477   2.829  11.147  0.5853  1.8693  1.0769
 3922SOL     OW23227   3.598   1.729  11.133 -0.0150 -0.4080  0.3408
 3922SOL    HW123228   3.658   1.738  11.058  0.0442  0.6350  0.5136
 3922SOL    HW223229   3.619   1.640  11.164 -0.9528 -0.7774 -0.0789
 3923SOL     OW23230   3.542   1.122   3.440  0.4905  0.5676 -0.0326
 3923SOL    HW123231   3.539   1.029   3.420  2.8111  0.1258  1.7777
 3923SOL    HW223232   3.577   1.144   3.353 -0.2438  0.8521 -0.2639
 3924SOL     OW23233   1.674   2.864  10.414 -0.3651 -0.3945  0.0822
 3924SOL    HW123234   1.625   2.874  10.496  0.4831  1.9229  0.2856
 3924SOL    HW223235   1.684   2.769  10.413  0.6333 -0.2955  1.5031
 3925SOL     OW23236   2.509   1.970   1.745  0.7569  0.2759  0.1405
 3925SOL    HW123237   2.517   1.959   1.840  1.0613  0.9840  0.1966
 3925SOL    HW223238   2.509   2.065   1.744  2.4466  0.2466 -0.9229
 3926SOL     OW23239   2.555   3.336   3.353 -1.1602  0.4110  0.1510
 3926SOL    HW123240   2.523   3.253   3.387 -0.6708 -0.7124 -2.1575
 3926SOL    HW223241   2.581   3.307   3.266  0.3250  2.4122 -0.0850
 3927SOL     OW23242   4.344   2.136   2.095 -0.0557 -0.2332 -0.3493
 3927SOL    HW123243   4.347   2.214   2.150  3.7984 -0.4782 -0.2570
 3927SOL    HW223244   4.297   2.080   2.157 -1.2167  0.3887 -0.6650
 3928SOL     OW23245   2.177   2.971  11.759 -0.3494  0.0069  0.0202
 3928SOL    HW123246   2.246   2.916  11.797  0.4114 -0.8406 -2.6254
 3928SOL    HW223247   2.225   3.053  11.758  1.1017 -0.7997  2.4923
 3929SOL     OW23248   4.185   2.036   8.790  0.5533 -0.4280  0.1664
 3929SOL    HW123249   4.101   2.077   8.768  1.6236 -0.5086 -4.1930
 3929SOL    HW223250   4.196   2.045   8.885 -1.1948 -0.5112  0.3783
 3930SOL     OW23251   2.284   0.268   3.605  0.3045  0.1378  0.1462
 3930SOL    HW123252   2.241   0.271   3.691  1.4311  1.7099  0.6748
 3930SOL    HW223253   2.367   0.314   3.622  0.0059  1.9213 -3.3427
 3931SOL     OW23254   1.899   2.544   8.334  0.2544 -0.3077  0.3711
 3931SOL    HW123255   1.881   2.624   8.285  1.0075 -0.2527  0.1927
 3931SOL    HW223256   1.891   2.577   8.423 -1.4142 -0.1938  0.1766
 3932SOL     OW23257   3.276   1.389   6.526  0.0356 -0.1679 -0.0365
 3932SOL    HW123258   3.366   1.361   6.515  0.7471  1.8456  0.5530
 3932SOL    HW223259   3.271   1.484   6.512  0.2510 -0.3633 -1.3966
 3933SOL     OW23260   2.274   2.854  15.162  0.9918  0.6203  0.8653
 3933SOL    HW123261   2.336   2.926  15.172 -0.5681  1.5062  4.0246
 3933SOL    HW223262   2.277   2.847  15.066 -5.8119  0.8322  0.6075
 3934SOL     OW23263   0.302   3.058   3.398  0.2832 -0.5646  0.0850
 3934SOL    HW123264   0.257   2.974   3.400  0.1249 -0.5064 -1.1137
 3934SOL    HW223265   0.391   3.038   3.368  0.1494  1.6144 -1.8257
 3935SOL     OW23266   1.966   1.890   5.629  0.1274  0.4747  0.4720
 3935SOL    HW123267   1.990   1.811   5.580  1.1180 -0.8349  3.0434
 3935SOL    HW223268   1.908   1.863   5.700 -1.2799 -1.6920 -1.4971
 3936SOL     OW23269   3.045   3.337   2.561  0.0190  0.4218  0.8433
 3936SOL    HW123270   3.010   3.399   2.625 -0.6382  0.4464  0.4608
 3936SOL    HW223271   3.084   3.387   2.490  0.2966  0.2278  0.8600
 3937SOL     OW23272   1.283   2.797   7.491 -0.1692  0.1405  0.0126
 3937SOL    HW123273   1.275   2.819   7.398 -3.8944 -1.4806 -0.0498
 3937SOL    HW223274   1.205   2.837   7.529 -1.5271 -2.1407 -0.3653
 3938SOL     OW23275   4.215   3.668   4.552 -0.4601 -0.3303 -0.4300
 3938SOL    HW123276   4.174   3.603   4.610  2.8501 -2.2507 -0.2732
 3938SOL    HW223277   4.217   3.626   4.466 -1.6290 -1.3156  0.0133
 3939SOL     OW23278   1.132   1.747  11.256  0.0623  0.0821  0.0908
 3939SOL    HW123279   1.150   1.678  11.192  0.1364 -2.6675  3.1235
 3939SOL    HW223280   1.097   1.817  11.200 -3.0579 -0.7006  1.0913
 3940SOL     OW23281   3.558   0.778   8.997  0.5636 -0.5767 -0.2462
 3940SOL    HW123282   3.635   0.812   8.951 -1.1544  2.4149 -0.8859
 3940SOL    HW223283   3.508   0.856   8.974 -0.9761 -1.0272  1.6333
 3941SOL     OW23284   0.767   2.762   8.160  0.9359 -0.5922  0.0280
 3941SOL    HW123285   0.712   2.830   8.122 -0.9733 -0.7450  2.5397
 3941SOL    HW223286   0.707   2.688   8.162  0.4158 -0.1543  0.5461
 3942SOL     OW23287   3.792   0.814   7.966 -0.2483 -0.3644 -0.3464
 3942SOL    HW123288   3.730   0.884   7.986  2.2624  1.4673  1.1234
 3942SOL    HW223289   3.801   0.828   7.872 -1.5381  1.8052 -0.1342
 3943SOL     OW23290   0.130   1.992   5.786 -0.0778 -0.5253  0.2718
 3943SOL    HW123291   0.052   1.946   5.755 -0.0775  0.8971 -1.8014
 3943SOL    HW223292   0.073   2.065   5.812 -0.0328 -0.6165  0.6364
 3944SOL     OW23293   4.329   0.962  16.515 -0.0397 -0.4256 -0.1081
 3944SOL    HW123294   4.355   0.947  16.424  1.2701  1.3366 -0.0303
 3944SOL    HW223295   4.412   0.978  16.559 -1.0229  0.0868  1.5697
 3945SOL     OW23296   2.181   3.734  11.134 -0.2228 -0.4636  0.9414
 3945SOL    HW123297   2.276   3.723  11.140 -0.2339 -0.9255  0.3780
 3945SOL    HW223298   2.173   3.829  11.135 -1.5976 -0.5526 -1.1332
 3946SOL     OW23299   1.940   2.191   1.758  0.2074  0.0483 -0.6344
 3946SOL    HW123300   1.986   2.119   1.715  0.8206 -0.6193  1.1571
 3946SOL    HW223301   1.948   2.253   1.685 -0.5778 -0.0667 -0.8177
 3947SOL     OW23302   2.270   3.901   1.944 -0.6074 -0.1466  0.3577
 3947SOL    HW123303   2.275   3.838   2.016  0.6972 -0.3276  0.1116
 3947SOL    HW223304   2.218   3.845   1.886 -0.2605 -0.4011  0.2892
 3948SOL     OW23305   0.770   3.067   5.248 -0.1527  0.6257  0.0630
 3948SOL    HW123306   0.748   3.125   5.321  1.4376  0.0797  0.9704
 3948SOL    HW223307   0.745   3.123   5.175  1.3423  1.3250  0.0996
 3949SOL     OW23308   2.623   2.001   3.405 -0.5957 -0.5008 -0.1983
 3949SOL    HW123309   2.552   2.047   3.450  0.2458 -0.0716  0.7128
 3949SOL    HW223310   2.606   2.031   3.316  2.5023 -0.1739 -0.6823
 3950SOL     OW23311   2.612   4.080   5.127  0.2756  0.4474  0.2250
 3950SOL    HW123312   2.612   4.002   5.073  2.9828 -0.8035  1.9669
 3950SOL    HW223313   2.659   4.141   5.070  1.4321  0.3621  1.0781
 3951SOL     OW23314   1.298   2.749   2.639  0.4152 -0.7430 -0.5195
 3951SOL    HW123315   1.316   2.812   2.709 -1.6244  0.3066 -0.9536
 3951SOL    HW223316   1.203   2.742   2.650  0.4016  0.4435  0.1265
 3952SOL     OW23317   3.011   0.490   6.258 -0.3349  0.0424  0.1156
 3952SOL    HW123318   3.093   0.534   6.278 -1.2831  2.9541 -2.5031
 3952SOL    HW223319   2.949   0.554   6.292 -0.2311  0.8164 -1.1504
 3953SOL     OW23320   3.288   3.720   9.150 -0.1218  0.2084  0.0770
 3953SOL    HW123321   3.249   3.635   9.129  2.9883 -1.1869 -0.1261
 3953SOL    HW223322   3.229   3.742   9.222  1.6602  0.8372  1.3480
 3954SOL     OW23323   1.534   4.411  10.433 -0.5529  0.5813 -0.0387
 3954SOL    HW123324   1.602   4.360  10.389 -1.2096 -0.4062  0.0967
 3954SOL    HW223325   1.468   4.419  10.365 -0.5524 -0.5586 -0.1737
 3955SOL     OW23326   2.625   1.646  15.115 -0.5323 -0.2793  0.1049
 3955SOL    HW123327   2.581   1.565  15.140 -3.1436  1.0379 -0.3166
 3955SOL    HW223328   2.708   1.615  15.077 -1.0089  2.4651 -3.1742
 3956SOL     OW23329   3.465   2.752   8.977  0.0498  0.1362 -0.3796
 3956SOL    HW123330   3.560   2.746   8.986 -0.0998  0.1909  1.2849
 3956SOL    HW223331   3.447   2.817   9.046 -0.8845 -1.2478  0.6884
 3957SOL     OW23332   4.365   0.334  16.424  0.2265 -0.5532 -0.5076
 3957SOL    HW123333   4.442   0.365  16.378 -1.1930  2.4765 -0.8214
 3957SOL    HW223334   4.392   0.242  16.432  0.4689 -0.6763 -2.7374
 3958SOL     OW23335   3.548   1.703   8.795 -0.7268 -0.9152 -0.2843
 3958SOL    HW123336   3.501   1.734   8.718  1.9807  1.5337 -0.9677
 3958SOL    HW223337   3.484   1.697   8.866  2.1089  2.0286  2.5542
 3959SOL     OW23338   2.064   2.477   6.369 -0.1960 -0.3398 -0.4021
 3959SOL    HW123339   2.056   2.519   6.455 -1.0234 -0.8570 -0.2336
 3959SOL    HW223340   2.017   2.535   6.308 -0.3307  1.2848  1.2345
 3960SOL     OW23341   2.764   0.735   6.724 -0.2363  0.1764 -0.5691
 3960SOL    HW123342   2.858   0.715   6.728  0.1332  1.6960 -2.0041
 3960SOL    HW223343   2.729   0.661   6.674 -0.1725 -0.7651  0.7798
 3961SOL     OW23344   2.221   4.309  15.351  0.2542  0.0127  0.5335
 3961SOL    HW123345   2.166   4.253  15.297  0.2376 -0.1153  0.6841
 3961SOL    HW223346   2.205   4.396  15.316 -1.4644 -0.5335 -0.0315
 3962SOL     OW23347   1.949   0.423  15.593 -0.2415 -0.0446 -0.3764
 3962SOL    HW123348   1.932   0.516  15.611 -1.0428 -0.2156 -0.2298
 3962SOL    HW223349   1.866   0.401  15.551 -0.7692  0.7867  0.2435
 3963SOL     OW23350   1.918   3.343  17.646  0.4539  0.0293 -0.1192
 3963SOL    HW123351   1.971   3.265  17.658  1.4439  0.7857  0.3867
 3963SOL    HW223352   1.890   3.334  17.554  1.7929  0.5004 -0.5802
 3964SOL     OW23353   3.537   0.095   6.945 -0.0800 -0.1739  0.2994
 3964SOL    HW123354   3.449   0.070   6.974  0.8354 -2.1567  1.3661
 3964SOL    HW223355   3.547   0.040   6.867 -0.3660 -0.3589  0.3953
 3965SOL     OW23356   0.010   1.535  16.038  0.7270  0.4102  0.5109
 3965SOL    HW123357   0.055   1.475  16.098 -1.1433 -1.2164  0.2807
 3965SOL    HW223358   0.085   1.592  16.024  0.3177  1.1180  1.1980
 3966SOL     OW23359   3.295   0.479   7.666  0.2648  0.0513  0.1155
 3966SOL    HW123360   3.292   0.566   7.707  0.3549 -0.3309  0.9463
 3966SOL    HW223361   3.200   0.465   7.663  0.6415 -2.3575 -0.9448
 3967SOL     OW23362   1.858   2.495   4.712  0.3707  0.2985 -0.2073
 3967SOL    HW123363   1.806   2.431   4.760 -0.4416 -0.1556 -1.6955
 3967SOL    HW223364   1.944   2.474   4.748  0.2073 -0.1343 -0.0677
 3968SOL     OW23365   1.819   4.352  15.164  0.4810  0.3932  0.1913
 3968SOL    HW123366   1.858   4.281  15.215  0.6119  0.1710 -0.2240
 3968SOL    HW223367   1.851   4.429  15.212  1.5187  0.5647 -0.7821
 3969SOL     OW23368   0.224   1.701   8.794 -0.3208 -0.2271  0.2208
 3969SOL    HW123369   0.223   1.664   8.706  0.0613 -0.4632  0.3149
 3969SOL    HW223370   0.292   1.768   8.784 -0.7829  0.0008 -1.3724
 3970SOL     OW23371   4.277   3.775   2.282  0.5231 -0.0051  0.0201
 3970SOL    HW123372   4.200   3.775   2.226  0.7545  0.3432 -0.2956
 3970SOL    HW223373   4.246   3.752   2.370 -1.2325  0.3264 -0.5186
 3971SOL     OW23374   1.027   3.881   2.733 -0.2220  0.4207 -0.1020
 3971SOL    HW123375   1.012   3.889   2.639  1.0072  2.3531 -0.1367
 3971SOL    HW223376   0.938   3.863   2.764  0.4839 -1.3903  0.8717
 3972SOL     OW23377   1.178   0.831   3.889 -0.0354 -0.0740  0.2770
 3972SOL    HW123378   1.101   0.792   3.931 -0.5758 -1.0912 -1.6441
 3972SOL    HW223379   1.218   0.879   3.961 -0.5027 -0.4184  0.7596
 3973SOL     OW23380   1.163   1.368   8.080 -0.3936  0.3404  0.1766
 3973SOL    HW123381   1.167   1.275   8.102  0.7366  0.2824 -0.3062
 3973SOL    HW223382   1.148   1.409   8.165  0.8226  1.4309 -0.1345
 3974SOL     OW23383   1.075   0.791   2.884 -0.2559  0.4293 -0.1499
 3974SOL    HW123384   1.090   0.832   2.799 -1.7621 -1.5200 -1.3394
 3974SOL    HW223385   1.002   0.846   2.913  1.2053  2.8026 -0.9073
 3975SOL     OW23386   0.454   4.408   3.834 -0.1481  0.0853  0.5407
 3975SOL    HW123387   0.502   4.368   3.907  0.1327 -2.6451 -1.1295
 3975SOL    HW223388   0.366   4.425   3.868  0.9360  1.7473  2.5404
 3976SOL     OW23389   2.682   2.615   8.329  0.0058  0.0346 -0.7309
 3976SOL    HW123390   2.763   2.590   8.375 -1.1169  0.7304  1.6074
 3976SOL    HW223391   2.618   2.635   8.397 -0.5724 -0.0422 -1.2601
 3977SOL     OW23392   3.488   1.779  10.517  0.1490  0.2768  0.1041
 3977SOL    HW123393   3.508   1.871  10.500  0.5957  0.4063  1.3183
 3977SOL    HW223394   3.534   1.740  10.443  1.8082  2.1308  0.1551
 3978SOL     OW23395   0.852   1.477   6.713  0.0457  0.4023 -0.2141
 3978SOL    HW123396   0.917   1.528   6.663  0.7724 -0.9715 -0.6583
 3978SOL    HW223397   0.867   1.519   6.798 -0.3158  0.3766 -0.1407
 3979SOL     OW23398   4.434   1.305   9.437  0.0279 -0.1522  0.7548
 3979SOL    HW123399   4.519   1.295   9.393  0.4897  0.9809  1.3921
 3979SOL    HW223400   4.454   1.305   9.531  2.4423 -2.7463  0.2660
 3980SOL     OW23401   3.405   0.430  10.644  0.3157 -0.0320 -0.3716
 3980SOL    HW123402   3.386   0.478  10.725 -1.0253  1.2241 -1.4266
 3980SOL    HW223403   3.456   0.490  10.589 -1.5056  0.6656 -1.3040
 3981SOL     OW23404   4.588   2.677  16.232  0.4515  0.5253 -0.3132
 3981SOL    HW123405   4.666   2.660  16.180 -0.9580 -1.0710 -1.8818
 3981SOL    HW223406   4.597   2.606  16.295 -0.0236  0.9760  0.2642
 3982SOL     OW23407   2.479   4.162  15.373 -0.1335  1.0392 -0.0662
 3982SOL    HW123408   2.499   4.141  15.282 -1.3569  0.7076 -0.2696
 3982SOL    HW223409   2.394   4.207  15.368 -0.6741  0.2467  1.7318
 3983SOL     OW23410   2.197   2.673   8.565  0.3523  0.4786  0.0851
 3983SOL    HW123411   2.173   2.709   8.650  0.1792  1.1382 -0.2382
 3983SOL    HW223412   2.182   2.745   8.503  0.0257  0.4512  0.1282
 3984SOL     OW23413   4.598   1.598  14.762  0.1730 -0.4472 -0.1577
 3984SOL    HW123414   4.657   1.595  14.838  0.4762 -1.2732 -0.4292
 3984SOL    HW223415   4.658   1.631  14.696 -1.6659  1.6893 -0.7837
 3985SOL     OW23416   3.536   2.950   7.566 -0.0520  0.0986 -0.1127
 3985SOL    HW123417   3.486   3.000   7.631 -1.3427 -1.3889  0.0222
 3985SOL    HW223418   3.626   2.971   7.592  0.0994  1.2619 -1.6004
 3986SOL     OW23419   1.913   4.483   9.024 -0.3181 -0.3027 -0.6865
 3986SOL    HW123420   1.840   4.545   9.021 -1.8904 -2.0306  1.5409
 3986SOL    HW223421   1.876   4.407   8.979 -0.0410 -0.1073 -1.2497
 3987SOL     OW23422   0.493   0.108   3.642 -0.0903 -0.4377  0.0087
 3987SOL    HW123423   0.522   0.031   3.691  1.3949 -1.7035 -2.9042
 3987SOL    HW223424   0.398   0.093   3.641 -0.1056 -0.3159 -0.2441
 3988SOL     OW23425   4.145   1.467   7.972  0.1814  0.1076 -0.0030
 3988SOL    HW123426   4.205   1.505   8.036  0.3215 -1.2806  0.6767
 3988SOL    HW223427   4.069   1.518   8.000  1.1890  0.8753  1.3665
 3989SOL     OW23428   3.419   3.412   6.294  0.1439  0.0605  0.0168
 3989SOL    HW123429   3.386   3.457   6.217  3.3392  1.3165 -0.5869
 3989SOL    HW223430   3.432   3.487   6.352  0.6578 -1.2602  1.6294
 3990SOL     OW23431   0.907   0.948   6.589  0.0952 -0.3705 -0.0826
 3990SOL    HW123432   0.974   0.932   6.522  0.0210  0.3792 -0.3361
 3990SOL    HW223433   0.900   1.043   6.576  2.1090 -0.1021  0.7182
 3991SOL     OW23434   2.827   2.497   2.551 -0.1457  0.2900 -0.7890
 3991SOL    HW123435   2.784   2.412   2.555  1.5947 -0.6012 -0.8399
 3991SOL    HW223436   2.834   2.519   2.458  1.1523 -0.6500 -0.9039
 3992SOL     OW23437   4.286   1.447   2.071  0.3852 -0.2313  0.0269
 3992SOL    HW123438   4.246   1.483   2.150 -2.0336 -0.9606 -0.8783
 3992SOL    HW223439   4.235   1.491   2.004  2.0928  2.3236  0.4096
 3993SOL     OW23440   4.394   1.682  16.856  0.4330 -0.3701 -0.0699
 3993SOL    HW123441   4.333   1.611  16.874 -0.2888 -0.1665 -1.6838
 3993SOL    HW223442   4.452   1.682  16.933  1.2749  2.1311 -0.6914
 3994SOL     OW23443   3.142   4.438   6.242  0.3535 -0.0581 -0.0913
 3994SOL    HW123444   3.155   4.437   6.147 -0.6095  0.2971 -0.2237
 3994SOL    HW223445   3.048   4.451   6.254  0.9081  1.0640  2.9671
 3995SOL     OW23446   3.204   3.421  13.247  0.6862  0.2135 -0.1423
 3995SOL    HW123447   3.250   3.424  13.163 -0.0046  1.0241 -0.4935
 3995SOL    HW223448   3.246   3.496  13.288  0.1806  0.3974  0.0391
 3996SOL     OW23449   1.328   3.039  10.600  0.3179 -0.3162  0.2499
 3996SOL    HW123450   1.420   3.047  10.627  0.0082  1.2066  0.8361
 3996SOL    HW223451   1.325   3.095  10.523 -1.4115 -0.2125  0.3890
 3997SOL     OW23452   1.888   4.062  15.597 -0.5347 -0.0111  0.6700
 3997SOL    HW123453   1.794   4.044  15.599 -0.5306 -0.3061 -1.4661
 3997SOL    HW223454   1.903   4.055  15.691 -0.8938 -0.1128  0.7214
 3998SOL     OW23455   0.094   4.116   9.964 -0.1673 -0.1332  0.4325
 3998SOL    HW123456   0.075   4.127  10.058 -0.6614 -2.2708  0.5817
 3998SOL    HW223457   0.042   4.187   9.926 -1.4142 -0.3083  1.7769
 3999SOL     OW23458   3.834   0.825   7.682 -0.0977  0.1533  0.0418
 3999SOL    HW123459   3.922   0.798   7.709 -1.4070 -2.6193  1.4741
 3999SOL    HW223460   3.862   0.910   7.648  1.1506  0.1255  1.0059
 4000SOL     OW23461   4.632   0.702   3.632  0.2199  0.9333 -0.5208
 4000SOL    HW123462   4.601   0.745   3.553  1.1413  1.1835 -0.7459
 4000SOL    HW223463   4.563   0.735   3.690 -1.0493 -1.7043 -0.5440
 4001SOL     OW23464   3.665   2.339   5.328 -0.3194 -0.3125  0.0613
 4001SOL    HW123465   3.732   2.349   5.396  0.5165 -1.3922 -0.6068
 4001SOL    HW223466   3.709   2.292   5.257 -2.6621 -1.2481 -0.7459
 4002SOL     OW23467   3.880   4.106   3.937  0.5255  0.2797 -0.0255
 4002SOL    HW123468   3.869   4.099   4.032 -1.2366 -1.1421 -0.3450
 4002SOL    HW223469   3.876   4.200   3.922  2.7897  0.6574  1.6118
 4003SOL     OW23470   4.661   1.540   5.853  0.1368  0.0915  0.1425
 4003SOL    HW123471   4.712   1.558   5.774  2.4515 -0.1729  1.5918
 4003SOL    HW223472   4.570   1.525   5.827  0.1618 -1.2712  0.7988
 4004SOL     OW23473   3.587   0.991   8.608 -0.4427  0.0519 -0.0015
 4004SOL    HW123474   3.495   0.981   8.584 -0.6559  2.2206 -0.0888
 4004SOL    HW223475   3.616   0.905   8.577  1.0495  0.9607 -1.1506
 4005SOL     OW23476   2.039   1.789   5.986 -0.4699  0.4778 -0.0877
 4005SOL    HW123477   2.121   1.834   6.010  0.4140 -1.6611  0.8900
 4005SOL    HW223478   1.998   1.819   6.068 -0.0637 -0.6378  0.5248
 4006SOL     OW23479   1.957   1.764   8.476  0.2848  0.7681  0.3157
 4006SOL    HW123480   2.040   1.721   8.495  0.5397  1.1989  0.1990
 4006SOL    HW223481   1.982   1.839   8.421 -1.3736  1.1136  0.0085
 4007SOL     OW23482   2.127   1.858   3.104 -0.1024  0.4142 -0.1648
 4007SOL    HW123483   2.183   1.782   3.117  0.1458  0.2298 -2.3879
 4007SOL    HW223484   2.143   1.889   3.015 -0.6106  0.0112 -0.4005
 4008SOL     OW23485   2.274   2.906   2.979  0.9170  0.0225  0.5494
 4008SOL    HW123486   2.193   2.948   3.006  2.0119  1.8464  1.0114
 4008SOL    HW223487   2.256   2.867   2.894 -1.2461 -1.2644  1.6110
 4009SOL     OW23488   2.814   4.007  17.626 -0.1281 -0.0244 -0.3187
 4009SOL    HW123489   2.779   4.085  17.668 -1.1233 -1.1182  0.8721
 4009SOL    HW223490   2.840   4.038  17.539  0.4663  0.1999 -0.0579
 4010SOL     OW23491   3.341   2.161  16.338 -0.0818  0.0090 -0.3754
 4010SOL    HW123492   3.324   2.250  16.367  2.1064 -0.1548  1.4361
 4010SOL    HW223493   3.436   2.161  16.323 -0.0622 -0.4510 -0.2589
 4011SOL     OW23494   1.516   2.442   7.911  0.7352  0.0752 -0.5260
 4011SOL    HW123495   1.521   2.438   8.006  0.6149  0.8717 -0.4833
 4011SOL    HW223496   1.576   2.513   7.889  2.2196 -0.0609  3.1970
 4012SOL     OW23497   1.026   1.711   5.513 -0.6482  0.0700  0.4316
 4012SOL    HW123498   1.005   1.617   5.517  0.5057 -0.2342 -0.7774
 4012SOL    HW223499   0.955   1.745   5.459  1.0500  2.7178 -0.1298
 4013SOL     OW23500   1.399   2.660   9.596 -0.2715 -0.7800  0.5075
 4013SOL    HW123501   1.429   2.747   9.621  1.9124 -1.3473 -0.2095
 4013SOL    HW223502   1.308   2.670   9.567 -0.3683  0.5488  1.2656
 4014SOL     OW23503   1.846   2.049   4.689  0.2647 -0.6470 -0.6591
 4014SOL    HW123504   1.866   1.988   4.618  0.7156  1.4892 -2.3545
 4014SOL    HW223505   1.928   2.098   4.685 -1.7569  2.6825 -1.2326
 4015SOL     OW23506   2.849   3.616   2.283  0.0604 -0.1687 -0.0837
 4015SOL    HW123507   2.808   3.701   2.294 -1.0691 -0.7954  0.5278
 4015SOL    HW223508   2.803   3.557   2.342 -1.8364  1.6630  0.2614
 4016SOL     OW23509   0.257   2.819   5.785 -0.3943  0.1820 -0.1034
 4016SOL    HW123510   0.277   2.726   5.778 -0.6440  0.0092  1.4581
 4016SOL    HW223511   0.167   2.821   5.818  0.3140 -2.4695  2.0217
 4017SOL     OW23512   1.446   4.395   7.808 -0.1908 -0.0289  0.6756
 4017SOL    HW123513   1.517   4.459   7.816 -0.8629  0.8162 -0.0542
 4017SOL    HW223514   1.467   4.353   7.891  0.1607 -0.6525  0.2665
 4018SOL     OW23515   3.926   3.520  11.682 -0.0881 -0.0331  0.1692
 4018SOL    HW123516   3.927   3.429  11.652  0.1600 -0.5998  1.8571
 4018SOL    HW223517   4.009   3.550  11.646 -0.1781 -0.3185 -0.2772
 4019SOL     OW23518   3.322   1.915   9.615  0.0468  0.3792  0.1356
 4019SOL    HW123519   3.328   1.981   9.546 -3.2572  0.4514 -0.0916
 4019SOL    HW223520   3.404   1.932   9.661  0.3234 -0.8247  0.0929
 4020SOL     OW23521   3.263   3.771  14.227 -0.0524 -0.4251  0.6940
 4020SOL    HW123522   3.208   3.819  14.290  0.1911  1.4395 -0.5140
 4020SOL    HW223523   3.199   3.768  14.156 -0.3083 -0.9940  0.9503
 4021SOL     OW23524   2.848   4.432   5.740 -0.1544 -0.5183  0.1049
 4021SOL    HW123525   2.909   4.488   5.790 -0.5893 -1.4706  1.7164
 4021SOL    HW223526   2.861   4.454   5.648 -0.3744 -0.3124  0.1235
 4022SOL     OW23527   2.695   2.078   3.893  0.3421 -0.2684  0.1928
 4022SOL    HW123528   2.669   1.993   3.861 -1.5568  1.0183 -1.6417
 4022SOL    HW223529   2.682   2.138   3.820  1.6725  0.0540  0.2108
 4023SOL     OW23530   2.242   2.891   7.071  0.0355 -0.0455  0.3502
 4023SOL    HW123531   2.170   2.831   7.048 -0.2905  0.9056 -1.1200
 4023SOL    HW223532   2.193   2.957   7.121  0.3348 -2.4380  3.7901
 4024SOL     OW23533   4.704   2.019  14.927 -0.9373  0.3614  0.3899
 4024SOL    HW123534   0.049   1.977  14.978 -0.4786  0.1041 -0.4346
 4024SOL    HW223535   4.626   1.968  14.949 -2.0548  0.9909 -2.1247
 4025SOL     OW23536   3.237   0.605  15.404 -0.1775  0.6010  0.6829
 4025SOL    HW123537   3.154   0.559  15.396  0.5715 -0.5741 -0.4507
 4025SOL    HW223538   3.285   0.541  15.457  0.4809  0.6408  0.1389
 4026SOL     OW23539   1.803   2.592   3.710  0.0441 -0.6478  0.0438
 4026SOL    HW123540   1.808   2.567   3.802 -0.0070  0.8889  0.4576
 4026SOL    HW223541   1.892   2.625   3.694 -0.4531  0.0626 -1.2797
 4027SOL     OW23542   1.450   2.397  16.812  0.0536 -0.1659  0.1081
 4027SOL    HW123543   1.363   2.432  16.832  0.2855  0.9257 -0.8126
 4027SOL    HW223544   1.441   2.302  16.822  1.6941 -0.2956  0.3957
 4028SOL     OW23545   4.511   1.134   5.708 -0.4235  0.3072  0.2234
 4028SOL    HW123546   4.593   1.085   5.703 -0.4951  0.2379 -0.3506
 4028SOL    HW223547   4.469   1.090   5.782  1.7291 -0.7082  0.8192
 4029SOL     OW23548   1.992   2.956  16.461 -0.2370 -0.2339 -0.1469
 4029SOL    HW123549   2.064   2.894  16.449  1.8737  2.7579 -3.0073
 4029SOL    HW223550   2.001   3.001  16.546  1.4236 -1.0706  0.1245
 4030SOL     OW23551   2.857   4.608   5.008  0.5159  0.3634  0.0909
 4030SOL    HW123552   2.813   4.563   5.080 -0.4178 -0.1905 -0.8212
 4030SOL    HW223553   2.947   4.580   5.025  0.6793 -0.2489 -1.6949
 4031SOL     OW23554   2.871   2.302  15.076 -0.3618  0.1999  0.1272
 4031SOL    HW123555   2.919   2.329  14.997  1.4675 -0.0674  1.1643
 4031SOL    HW223556   2.915   2.219  15.093  0.4238  0.5795 -0.0598
 4032SOL     OW23557   4.269   3.229   4.154  0.3882 -0.6778  0.1823
 4032SOL    HW123558   4.317   3.150   4.129  1.3364 -0.6972  2.0728
 4032SOL    HW223559   4.339   3.293   4.150  1.4781 -1.8202  0.9053
 4033SOL     OW23560   2.692   0.244   3.203 -0.0229 -0.5745  0.2181
 4033SOL    HW123561   2.647   0.313   3.154 -1.1186 -0.7509  0.9850
 4033SOL    HW223562   2.635   0.229   3.278  0.4941 -2.5247  0.2405
 4034SOL     OW23563   2.997   1.228   8.091 -0.0669 -0.4221  0.4575
 4034SOL    HW123564   3.091   1.213   8.084  0.3300  2.2188  0.0916
 4034SOL    HW223565   2.974   1.135   8.083 -3.2820  0.5893 -2.0293
 4035SOL     OW23566   1.686   2.762  15.797 -0.0303  0.1105  0.0476
 4035SOL    HW123567   1.677   2.851  15.830 -0.2456 -0.5044  1.6388
 4035SOL    HW223568   1.620   2.760  15.728  0.3146 -1.3807 -0.2507
 4036SOL     OW23569   2.020   1.750  13.235  0.3793  0.1442 -0.0251
 4036SOL    HW123570   2.113   1.767  13.220  0.0671 -0.6395 -2.8629
 4036SOL    HW223571   1.990   1.841  13.236  1.7376  0.5843  0.8798
 4037SOL     OW23572   3.025   0.335   6.030 -0.0342  0.0373 -0.0273
 4037SOL    HW123573   2.985   0.408   6.078 -0.2177  0.5860 -1.0134
 4037SOL    HW223574   3.020   0.357   5.937  0.3387  0.1017 -0.0301
 4038SOL     OW23575   0.956   3.094   4.268 -0.1370 -0.5714 -0.3512
 4038SOL    HW123576   0.945   3.112   4.175  1.1253  3.1755  0.2186
 4038SOL    HW223577   1.036   3.042   4.273 -0.9050 -1.8234 -0.9276
 4039SOL     OW23578   1.046   1.291   6.101  0.4882  0.1297 -0.0350
 4039SOL    HW123579   1.036   1.270   6.008 -0.6008  0.7264 -0.0528
 4039SOL    HW223580   1.085   1.207   6.125 -0.1801  0.1324  1.0343
 4040SOL     OW23581   4.672   1.422  10.987  0.0781  0.1025 -0.3174
 4040SOL    HW123582   4.648   1.427  10.894 -1.8399  0.3702  0.1949
 4040SOL    HW223583   4.591   1.402  11.035 -0.7781  1.0678 -1.3481
 4041SOL     OW23584   2.419   3.117  15.884  0.0441 -0.5294  0.3212
 4041SOL    HW123585   2.470   3.060  15.828 -0.3705 -1.0616  0.4810
 4041SOL    HW223586   2.336   3.105  15.837  1.1642 -1.4642 -1.3932
 4042SOL     OW23587   2.513   3.095   7.445 -0.4253  0.0577 -0.1936
 4042SOL    HW123588   2.603   3.096   7.477  0.0383 -1.5605 -1.4727
 4042SOL    HW223589   2.511   3.004   7.416 -0.0186 -0.3287  1.0273
 4043SOL     OW23590   0.444   3.992   3.635 -0.1034  0.0746  0.1142
 4043SOL    HW123591   0.518   3.982   3.576 -0.0939  1.1403 -0.0588
 4043SOL    HW223592   0.392   4.056   3.586 -0.0579 -0.8865 -1.1800
 4044SOL     OW23593   4.033   3.043  15.885 -0.3900 -0.6587  0.5808
 4044SOL    HW123594   4.096   3.113  15.871 -1.1027  0.0075  0.6829
 4044SOL    HW223595   4.103   2.978  15.883 -1.0081 -1.2850 -0.5129
 4045SOL     OW23596   2.225   2.953  12.063 -0.2916  0.2687 -0.6358
 4045SOL    HW123597   2.159   2.900  12.018  0.1325  1.1933 -2.3446
 4045SOL    HW223598   2.298   2.945  12.002 -0.4378 -0.5068 -0.7077
 4046SOL     OW23599   3.686   1.450  16.536  0.1330 -0.9447  0.0636
 4046SOL    HW123600   3.752   1.388  16.505 -0.6094 -2.1279  0.8162
 4046SOL    HW223601   3.730   1.531  16.561  0.8039 -1.7790  1.5905
 4047SOL     OW23602   0.003   1.938  11.755  0.0460  0.1085 -0.2412
 4047SOL    HW123603   0.001   1.869  11.821  0.5698 -1.0386 -1.4254
 4047SOL    HW223604   0.059   1.897  11.689 -1.6069 -0.9011 -1.0124
 4048SOL     OW23605   2.907   4.605   1.615  0.1277  0.2723  0.2784
 4048SOL    HW123606   2.996   4.638   1.602  0.1150 -0.0542 -0.6322
 4048SOL    HW223607   2.908   4.519   1.572 -0.1660  0.2520  0.3149
 4049SOL     OW23608   2.364   0.356   7.289 -0.1011  0.7016 -0.4911
 4049SOL    HW123609   2.421   0.381   7.362 -3.7456  1.7162  2.0040
 4049SOL    HW223610   2.392   0.267   7.267 -0.6664  0.6641 -1.0533
 4050SOL     OW23611   0.378   0.444  13.971 -0.2834  0.5668  0.2202
 4050SOL    HW123612   0.472   0.447  13.952 -0.3360 -1.1277 -0.3252
 4050SOL    HW223613   0.363   0.349  13.966 -0.9409  0.7153 -0.6992
 4051SOL     OW23614   0.544   4.059  11.494  0.1660  1.0158  0.2048
 4051SOL    HW123615   0.624   4.013  11.519  0.6775  0.9687 -1.5537
 4051SOL    HW223616   0.494   4.051  11.575  0.9178 -0.8698  0.4856
 4052SOL     OW23617   4.375   3.372  11.864 -0.1853  0.0757  0.6074
 4052SOL    HW123618   4.423   3.404  11.788 -0.3325  0.1929  0.5618
 4052SOL    HW223619   4.337   3.453  11.900 -3.4646 -1.5411  0.7856
 4053SOL     OW23620   0.205   3.063   0.433  0.1180  0.0661 -0.3182
 4053SOL    HW123621   0.220   3.013   0.513  2.6269  2.4232  0.7124
 4053SOL    HW223622   0.298   3.080   0.415  0.6511 -2.2231  0.3442
 4054SOL     OW23623   4.691   2.232   8.511  0.5948 -0.8231 -0.2938
 4054SOL    HW123624   4.687   2.201   8.602  1.1084  0.3573  0.1410
 4054SOL    HW223625   4.640   2.313   8.520 -1.4115 -2.2113  0.9036
 4055SOL     OW23626   1.140   2.817   7.841 -0.1410  0.2487  0.4237
 4055SOL    HW123627   1.147   2.848   7.751 -1.4522 -0.2146  0.1653
 4055SOL    HW223628   1.206   2.859   7.897  1.1726 -2.3724  0.8297
 4056SOL     OW23629   2.988   2.109   6.196 -0.3083  0.5557 -0.0497
 4056SOL    HW123630   2.906   2.156   6.183  0.4846  1.3875 -2.0945
 4056SOL    HW223631   2.967   2.023   6.157  0.1438  0.4918 -0.1541
 4057SOL     OW23632   3.025   3.164   0.447  0.3702 -0.0154  0.0874
 4057SOL    HW123633   3.057   3.075   0.432  0.7216  0.4589 -1.8788
 4057SOL    HW223634   3.108   3.209   0.433  2.7127 -3.7924  1.7329
 4058SOL     OW23635   0.951   1.132   7.559  0.3113  0.2043 -0.2349
 4058SOL    HW123636   0.872   1.114   7.507 -1.1239  2.6159  1.1288
 4058SOL    HW223637   0.970   1.222   7.534 -0.2676  0.7275  1.2490
 4059SOL     OW23638   1.069   1.699   1.158  0.3058 -0.5414 -0.1371
 4059SOL    HW123639   1.053   1.738   1.072 -1.9935 -0.7180  0.2127
 4059SOL    HW223640   0.996   1.726   1.214  1.3691 -0.0731  1.0014
 4060SOL     OW23641   4.719   4.518  17.689  0.0865  0.1600 -0.2764
 4060SOL    HW123642   0.077   4.565  17.671  0.3247 -0.3397 -0.5064
 4060SOL    HW223643   0.015   4.437  17.642  2.7595  1.3091 -1.1671
 4061SOL     OW23644   3.703   2.893   3.401 -0.4300  0.1884  0.2003
 4061SOL    HW123645   3.739   2.981   3.402 -0.4209  0.2207 -2.6205
 4061SOL    HW223646   3.612   2.896   3.432 -0.5086  1.3101 -0.1322
 4062SOL     OW23647   4.629   1.451   3.393  0.4052  0.0685 -0.2173
 4062SOL    HW123648   4.619   1.479   3.484 -0.7501  2.1035 -0.9728
 4062SOL    HW223649   4.635   1.539   3.353  1.8095 -0.3980 -1.0557
 4063SOL     OW23650   3.133   3.239   1.167  0.4568 -0.2205  0.6169
 4063SOL    HW123651   3.052   3.289   1.167  0.9783  0.6140 -3.0121
 4063SOL    HW223652   3.191   3.305   1.129 -1.8427  1.8897  0.8140
 4064SOL     OW23653   4.005   2.388   3.700  0.5744 -0.3212  0.1650
 4064SOL    HW123654   3.996   2.443   3.622  2.0619 -1.3868 -0.7625
 4064SOL    HW223655   4.099   2.378   3.712  0.8635  0.4855 -1.3759
 4065SOL     OW23656   1.570   4.075   1.420 -0.0695  0.8732 -0.2883
 4065SOL    HW123657   1.629   4.131   1.471  1.1729  0.2699 -1.0594
 4065SOL    HW223658   1.602   4.092   1.332  1.1949  0.8885  0.1706
 4066SOL     OW23659   3.085   1.436  12.894  0.6096  0.8733  0.6068
 4066SOL    HW123660   3.085   1.488  12.974  2.3983  2.1785 -0.2429
 4066SOL    HW223661   3.175   1.406  12.883  0.5863  0.9269  0.2666
 4067SOL     OW23662   3.757   2.162  14.754  0.1710  0.1095 -0.1557
 4067SOL    HW123663   3.794   2.078  14.781  2.4411  0.7125 -1.4069
 4067SOL    HW223664   3.692   2.143  14.686  0.7284 -1.3526 -0.2832
 4068SOL     OW23665   0.729   3.928   4.285  0.0120  0.0433  0.0678
 4068SOL    HW123666   0.694   4.013   4.259 -1.1158  0.2037  2.0703
 4068SOL    HW223667   0.727   3.878   4.204  0.9567  1.4660 -0.8270
 4069SOL     OW23668   0.465   1.734   5.893  0.5284 -0.1039 -0.4246
 4069SOL    HW123669   0.550   1.753   5.932  0.4004  0.3971 -0.4007
 4069SOL    HW223670   0.402   1.756   5.961 -0.7530 -1.3289 -1.2155
 4070SOL     OW23671   2.199   3.972   1.491  0.1215 -0.1179 -0.2384
 4070SOL    HW123672   2.256   3.980   1.414 -1.1212  1.7696 -0.9461
 4070SOL    HW223673   2.147   4.052   1.496 -0.4961 -0.5281 -0.1525
 4071SOL     OW23674   0.715   2.371   6.089  0.1677 -0.1808 -0.3545
 4071SOL    HW123675   0.721   2.396   5.996  2.2685 -0.8748 -0.4202
 4071SOL    HW223676   0.806   2.350   6.110 -0.1068 -1.2400 -0.2283
 4072SOL     OW23677   4.523   3.983   4.692 -0.5344  0.1729  0.0403
 4072SOL    HW123678   4.534   4.000   4.598 -1.0577 -0.1316 -0.0738
 4072SOL    HW223679   4.493   3.893   4.696  0.1773 -0.0176  1.2523
 4073SOL     OW23680   0.189   2.280  13.523 -0.0505 -0.1283  0.4369
 4073SOL    HW123681   0.098   2.300  13.501  0.0769  1.9374  1.8864
 4073SOL    HW223682   0.243   2.333  13.465  1.3732 -0.8901  1.0758
 4074SOL     OW23683   2.138   1.823   5.228 -0.2886 -0.4936 -0.1978
 4074SOL    HW123684   2.170   1.901   5.273  0.1483 -0.0977 -1.1991
 4074SOL    HW223685   2.131   1.851   5.137 -1.2985  0.1080  0.0659
 4075SOL     OW23686   3.519   3.564   5.306 -0.4100  0.1641 -0.1255
 4075SOL    HW123687   3.561   3.519   5.233  1.3691 -1.9492  2.1983
 4075SOL    HW223688   3.537   3.502   5.377  1.0911 -0.1035 -0.7314
 4076SOL     OW23689   4.686   0.148   3.458  0.4095  1.2767  0.2204
 4076SOL    HW123690   4.630   0.225   3.467  0.1994  1.0462  0.8959
 4076SOL    HW223691   0.007   0.178   3.379 -0.6285 -1.0497 -1.2420
 4077SOL     OW23692   3.300   2.004  14.003 -0.5004 -0.1068  1.1771
 4077SOL    HW123693   3.258   1.927  14.041 -1.0637 -0.6116 -0.4538
 4077SOL    HW223694   3.312   2.069  14.072  1.0978  1.5060 -0.6076
 4078SOL     OW23695   2.369   2.617   9.863 -0.1608  0.4185  0.9212
 4078SOL    HW123696   2.283   2.655   9.880  0.4562  2.3391 -0.2855
 4078SOL    HW223697   2.418   2.659   9.934 -0.2262  0.8692  0.6944
 4079SOL     OW23698   0.751   0.644   2.100  0.5211 -0.1621  0.7040
 4079SOL    HW123699   0.699   0.580   2.149 -1.9688  0.9353 -0.5126
 4079SOL    HW223700   0.688   0.652   2.029  0.4594 -1.2935  0.6240
 4080SOL     OW23701   2.971   4.261  14.506 -0.0086  0.2959 -0.5057
 4080SOL    HW123702   2.944   4.349  14.530 -0.3111  0.2819 -0.7846
 4080SOL    HW223703   2.883   4.224  14.501  0.5445 -1.1764  0.5886
 4081SOL     OW23704   1.503   2.961   8.307 -0.5407 -0.5078 -0.1456
 4081SOL    HW123705   1.470   3.044   8.343 -1.5248 -1.4583  1.1263
 4081SOL    HW223706   1.534   2.918   8.386 -0.0049  0.6222  0.2661
 4082SOL     OW23707   1.821   0.270   6.647  0.2285  0.7842 -0.8072
 4082SOL    HW123708   1.879   0.299   6.717  0.5562  1.0265 -1.1761
 4082SOL    HW223709   1.882   0.221   6.592  0.2858  0.2983 -0.3019
 4083SOL     OW23710   0.956   3.855   0.455 -0.0422  0.4095 -0.6879
 4083SOL    HW123711   1.028   3.902   0.496 -0.5795 -0.6105  1.4369
 4083SOL    HW223712   0.910   3.822   0.532  1.9210 -2.4300 -0.7019
 4084SOL     OW23713   2.848   0.237   4.453 -0.6721  0.4459  0.0068
 4084SOL    HW123714   2.762   0.275   4.439 -0.6127  1.6594  3.0017
 4084SOL    HW223715   2.847   0.160   4.395  1.3992 -0.1826  0.8091
 4085SOL     OW23716   3.030   2.294   4.748  0.4517  0.1493 -0.0293
 4085SOL    HW123717   3.095   2.339   4.802 -0.4694 -0.7151  1.7889
 4085SOL    HW223718   3.087   2.219   4.730  2.3814  1.2368  1.5427
 4086SOL     OW23719   2.534   4.058   7.726 -0.0021 -0.2979 -0.2351
 4086SOL    HW123720   2.454   4.106   7.707  1.0152  0.8099 -1.6683
 4086SOL    HW223721   2.490   3.979   7.759  2.0827 -0.2588  2.6903
 4087SOL     OW23722   2.833   1.584  12.714  0.6255 -0.2824  0.4938
 4087SOL    HW123723   2.796   1.664  12.751  0.4469  0.4567 -1.3026
 4087SOL    HW223724   2.771   1.520  12.751  0.7710 -0.0598  1.1219
 4088SOL     OW23725   1.688   1.674   2.570  0.2557 -0.2571 -0.3522
 4088SOL    HW123726   1.620   1.741   2.582 -1.0883 -2.1844  2.6600
 4088SOL    HW223727   1.679   1.645   2.660  1.0194  0.3587 -0.0856
 4089SOL     OW23728   2.155   3.057  10.822 -0.6460  0.0542  0.3237
 4089SOL    HW123729   2.140   2.983  10.881  2.5722 -1.5165 -0.8777
 4089SOL    HW223730   2.101   3.121  10.868 -0.3725  0.9859 -0.6576
 4090SOL     OW23731   4.456   3.554   6.705 -0.4175 -0.3478  0.3427
 4090SOL    HW123732   4.509   3.629   6.733 -0.5449 -0.0813 -0.1270
 4090SOL    HW223733   4.398   3.531   6.778 -0.4063 -0.3408  0.3539
 4091SOL     OW23734   1.687   3.529   2.625 -0.2880 -0.1902 -0.0294
 4091SOL    HW123735   1.609   3.527   2.681  0.2599 -0.7759  0.7243
 4091SOL    HW223736   1.760   3.556   2.680 -0.5465 -2.0467  1.2226
 4092SOL     OW23737   2.902   0.950   5.106  0.1064 -0.3904 -0.1097
 4092SOL    HW123738   2.966   0.962   5.037 -1.5180 -2.2088 -1.9443
 4092SOL    HW223739   2.950   0.995   5.175 -0.1253 -2.2721  1.2716
 4093SOL     OW23740   1.463   0.710   4.032 -0.3307  0.8648 -0.0787
 4093SOL    HW123741   1.534   0.735   4.090  0.5410  1.2931 -1.3242
 4093SOL    HW223742   1.426   0.798   4.022  0.6380  1.3456  0.6437
 4094SOL     OW23743   3.512   0.716   3.758  0.2074 -0.2585  0.4735
 4094SOL    HW123744   3.592   0.675   3.726  0.5134 -0.5237  1.5929
 4094SOL    HW223745   3.500   0.654   3.830  0.1078 -0.4630  0.2828
 4095SOL     OW23746   3.387   2.119   6.780 -0.0437 -0.1050 -0.3669
 4095SOL    HW123747   3.343   2.153   6.858  0.2740 -0.0874 -0.1927
 4095SOL    HW223748   3.423   2.198   6.740  1.1778 -0.9787 -0.9794
 4096SOL     OW23749   3.585   0.584   1.792 -0.3323  0.9002 -0.0065
 4096SOL    HW123750   3.570   0.504   1.741  1.0801  0.7725 -0.2154
 4096SOL    HW223751   3.526   0.565   1.866  0.8586 -1.8202  0.2494
 4097SOL     OW23752   4.459   0.654   4.375 -0.1335  0.6545  0.2962
 4097SOL    HW123753   4.527   0.704   4.421  1.5798 -0.1002 -1.4038
 4097SOL    HW223754   4.397   0.667   4.446  0.7678 -0.0665  1.2198
 4098SOL     OW23755   3.796   2.473  15.322  0.1804  0.0817  0.3579
 4098SOL    HW123756   3.865   2.526  15.364  1.2186  1.1554 -2.7295
 4098SOL    HW223757   3.815   2.470  15.229  0.3099  3.0356  0.2884
 4099SOL     OW23758   0.923   1.333  11.416 -0.6307 -0.7199 -0.8610
 4099SOL    HW123759   0.985   1.291  11.477 -0.8438 -1.1607 -0.9527
 4099SOL    HW223760   0.922   1.419  11.459  0.4498 -0.6314 -0.9997
 4100SOL     OW23761   0.342   1.448   7.781  0.5987  0.5532  0.5422
 4100SOL    HW123762   0.262   1.497   7.760  0.2992 -0.8750 -1.6263
 4100SOL    HW223763   0.404   1.504   7.735  1.2890 -1.3420 -0.8630
 4101SOL     OW23764   3.225   1.063  11.183  0.3277  0.1917  0.0430
 4101SOL    HW123765   3.150   1.011  11.156  0.8042 -1.9469  2.8526
 4101SOL    HW223766   3.278   1.057  11.103  0.2199 -1.5032  0.0885
 4102SOL     OW23767   2.407   3.707  13.196  0.1670  0.1395  0.0912
 4102SOL    HW123768   2.401   3.789  13.246 -1.9389  0.9603 -1.5050
 4102SOL    HW223769   2.328   3.716  13.144  0.0824 -1.9196 -0.1132
 4103SOL     OW23770   1.846   0.368   4.096 -0.5167  0.3174 -0.2946
 4103SOL    HW123771   1.817   0.292   4.044  1.3348 -0.3383 -0.3532
 4103SOL    HW223772   1.820   0.430   4.028 -0.3903  0.2883 -0.3695
 4104SOL     OW23773   2.653   4.287   3.586  0.3108  0.3531 -0.7200
 4104SOL    HW123774   2.557   4.284   3.589  0.3218  0.2809 -0.4287
 4104SOL    HW223775   2.674   4.281   3.680 -2.0155 -1.2320 -0.3149
 4105SOL     OW23776   1.699   0.821  12.396 -0.2364 -0.1895 -0.6555
 4105SOL    HW123777   1.716   0.749  12.335 -3.5205 -1.8569  0.4197
 4105SOL    HW223778   1.671   0.777  12.476 -0.7674  1.6051  0.1578
 4106SOL     OW23779   3.809   0.496   2.050 -0.1918  0.0428 -0.0677
 4106SOL    HW123780   3.726   0.503   2.098 -0.3031 -2.7967  0.1579
 4106SOL    HW223781   3.775   0.499   1.961  1.0622 -0.2010 -0.5478
 4107SOL     OW23782   2.094   0.468  11.800 -0.2467  0.7427  0.1027
 4107SOL    HW123783   2.175   0.418  11.791 -2.4601 -2.9517  1.0629
 4107SOL    HW223784   2.039   0.391  11.791  2.4417 -1.1251 -0.4315
 4108SOL     OW23785   2.940   3.801   0.732 -0.0806  0.4642  0.8489
 4108SOL    HW123786   2.883   3.854   0.676 -0.9061 -0.1646  1.0854
 4108SOL    HW223787   2.968   3.737   0.666 -0.2821  1.1562  0.0842
 4109SOL     OW23788   1.100   4.443   3.319  0.0660  0.1587  0.4172
 4109SOL    HW123789   1.153   4.405   3.249 -0.1497  0.0400  0.3162
 4109SOL    HW223790   1.038   4.491   3.265 -0.0866 -0.9620 -0.4111
 4110SOL     OW23791   1.409   3.295   6.883  0.2948  0.0974  0.2700
 4110SOL    HW123792   1.329   3.243   6.880 -0.2887  0.9759  0.6350
 4110SOL    HW223793   1.416   3.288   6.788  1.5815 -1.1816  0.4599
 4111SOL     OW23794   3.126   0.378  15.687  0.1697  0.4548  0.3945
 4111SOL    HW123795   3.063   0.444  15.658 -0.0539  0.1897  0.2839
 4111SOL    HW223796   3.199   0.396  15.628 -0.4673 -0.2242 -0.5857
 4112SOL     OW23797   1.063   3.660   9.628  0.3469  0.3692 -0.0607
 4112SOL    HW123798   1.130   3.593   9.615 -1.9775 -2.1734  1.1433
 4112SOL    HW223799   1.014   3.624   9.702  0.2129  2.3732  0.8257
 4113SOL     OW23800   2.215   2.738   3.667 -0.1272  0.2312 -0.2484
 4113SOL    HW123801   2.191   2.664   3.611 -1.7092  0.6155 -0.0604
 4113SOL    HW223802   2.128   2.750   3.705 -1.6617 -1.0165 -3.3565
 4114SOL     OW23803   0.826   4.343   4.699  0.3572  0.3505  0.0071
 4114SOL    HW123804   0.774   4.327   4.620  0.4241  0.4692 -0.0609
 4114SOL    HW223805   0.916   4.328   4.670  1.4410  1.6465  2.7504
 4115SOL     OW23806   3.939   4.285   2.154 -0.1999 -0.0656 -0.2457
 4115SOL    HW123807   3.968   4.202   2.193 -0.2210 -0.6024 -1.3768
 4115SOL    HW223808   4.019   4.337   2.165  1.6689 -2.6578 -1.4733
 4116SOL     OW23809   0.768   0.021   7.912  0.3064  0.2071  0.2361
 4116SOL    HW123810   0.784   0.031   7.818  0.2832  0.8669  0.3043
 4116SOL    HW223811   0.847   4.697   7.938 -0.5988 -1.0175  0.7767
 4117SOL     OW23812   2.707   2.552   6.762 -0.3474  0.3193  0.1073
 4117SOL    HW123813   2.755   2.555   6.844  1.5653  0.6900 -1.0395
 4117SOL    HW223814   2.621   2.584   6.788  0.8059  2.7081  0.8896
 4118SOL     OW23815   0.602   1.398   4.182 -0.3235  0.1940  0.3523
 4118SOL    HW123816   0.557   1.466   4.132  0.1576  0.6304  0.5079
 4118SOL    HW223817   0.695   1.405   4.160 -0.6268  0.8346 -0.7211
 4119SOL     OW23818   2.158   0.912   2.189 -0.5785  0.0188  0.8090
 4119SOL    HW123819   2.196   0.824   2.188 -1.1761 -0.2380  1.5935
 4119SOL    HW223820   2.132   0.922   2.280  0.0553  0.1580  0.9795
 4120SOL     OW23821   0.377   3.796   2.931  0.6060 -0.0484  0.0393
 4120SOL    HW123822   0.339   3.802   2.844  1.6840  0.5883 -0.3938
 4120SOL    HW223823   0.308   3.843   2.977 -0.5869 -0.7223 -1.0725
 4121SOL     OW23824   2.821   4.501   2.821  0.4398  0.4636 -0.2193
 4121SOL    HW123825   2.836   4.546   2.738  1.6201 -4.2447 -2.5234
 4121SOL    HW223826   2.849   4.412   2.802 -0.9299  0.1481 -0.7278
 4122SOL     OW23827   2.482   2.762  14.621  0.0039  0.2054  0.4215
 4122SOL    HW123828   2.425   2.695  14.659  0.0168  0.6230  1.1759
 4122SOL    HW223829   2.459   2.831  14.683 -0.9503  1.8598 -1.7647
 4123SOL     OW23830   3.770   4.279  17.672  0.2795 -0.3924 -0.1825
 4123SOL    HW123831   3.788   4.367  17.638  2.6245 -0.2621  1.4081
 4123SOL    HW223832   3.850   4.256   0.023  0.3453 -0.8261 -0.5081
 4124SOL     OW23833   1.964   1.333   6.747  0.2166  0.6718 -0.3480
 4124SOL    HW123834   1.893   1.396   6.757 -0.3118  0.1467 -0.8169
 4124SOL    HW223835   1.909   1.260   6.717 -0.7554  0.5322  1.8112
 4125SOL     OW23836   3.999   1.676   0.051 -0.0026 -0.2883  0.3741
 4125SOL    HW123837   4.050   1.600   0.023 -2.4829 -1.0089 -2.1602
 4125SOL    HW223838   4.050   1.723   0.117  1.0730 -2.4577  1.0669
 4126SOL     OW23839   4.042   2.511  16.026 -0.3145 -0.5614  0.4549
 4126SOL    HW123840   4.057   2.446  15.957  3.5706  1.6567 -0.8029
 4126SOL    HW223841   4.130   2.508  16.064 -0.5495 -0.2362  1.0359
 4127SOL     OW23842   4.434   1.073  11.435  0.1255 -0.2454 -0.1336
 4127SOL    HW123843   4.504   1.008  11.433 -0.9454 -1.4730  2.5268
 4127SOL    HW223844   4.479   1.121  11.505  1.0918 -0.9872 -0.2497
 4128SOL     OW23845   1.626   0.217   2.683 -0.7837 -0.0211 -0.1088
 4128SOL    HW123846   1.562   0.155   2.719  1.9950 -2.0683  1.2513
 4128SOL    HW223847   1.597   0.211   2.591 -1.3983 -2.1652  0.2069
 4129SOL     OW23848   2.027   1.684   9.086 -0.0369 -0.1982 -0.5008
 4129SOL    HW123849   2.103   1.740   9.073 -1.5310  1.6006 -1.5502
 4129SOL    HW223850   1.956   1.749   9.086 -0.8806 -1.1140  0.8381
 4130SOL     OW23851   4.007   0.009   3.513 -0.1008  0.2623  0.0965
 4130SOL    HW123852   4.010   0.105   3.519  0.2621  0.3868 -2.2999
 4130SOL    HW223853   3.994   4.721   3.419  0.6764 -0.0666  0.0312
 4131SOL     OW23854   0.665   2.585   3.501  0.2890  0.3108 -0.4693
 4131SOL    HW123855   0.685   2.672   3.465  3.1830 -0.2463 -0.2195
 4131SOL    HW223856   0.718   2.583   3.581 -1.7108 -0.1224  0.8415
 4132SOL     OW23857   2.352   4.634   6.720 -0.1074 -0.0653  0.0010
 4132SOL    HW123858   2.357   4.548   6.680  2.0630 -0.9591  2.1614
 4132SOL    HW223859   2.360   4.696   6.648 -0.5566 -0.1938 -0.1557
 4133SOL     OW23860   4.655   2.528   3.144  0.6261 -0.1465  0.1454
 4133SOL    HW123861   4.651   2.616   3.180  1.5541  0.5444 -1.4108
 4133SOL    HW223862   4.585   2.530   3.079  0.3686  0.8172  0.4579
 4134SOL     OW23863   3.563   0.647   4.687  0.1576 -0.0932 -0.0676
 4134SOL    HW123864   3.611   0.568   4.662  0.9747 -0.1185  1.5963
 4134SOL    HW223865   3.490   0.599   4.725 -0.3273 -0.0644 -0.9669
 4135SOL     OW23866   1.764   3.541  12.057  0.6052  0.0182 -0.0043
 4135SOL    HW123867   1.785   3.449  12.040 -2.2777 -0.5947 -0.1726
 4135SOL    HW223868   1.760   3.533  12.152 -0.3469  1.0973  0.0484
 4136SOL     OW23869   2.009   3.203  14.060 -0.0606  0.1007 -0.4248
 4136SOL    HW123870   1.931   3.220  14.007  0.3211 -1.7317 -1.5859
 4136SOL    HW223871   1.991   3.110  14.069  0.2704  0.3956  3.2612
 4137SOL     OW23872   3.814   4.163  15.394 -0.0354  0.1139  0.0896
 4137SOL    HW123873   3.797   4.078  15.355  0.2388  0.6192 -1.1347
 4137SOL    HW223874   3.824   4.131  15.484 -0.2538 -0.5466 -0.1271
 4138SOL     OW23875   1.087   2.285  14.527  0.6131  0.2482  0.3728
 4138SOL    HW123876   1.081   2.287  14.623 -0.1592  1.3483  0.3013
 4138SOL    HW223877   1.019   2.349  14.504  0.5936 -0.6307 -2.0107
 4139SOL     OW23878   2.386   3.131   5.334 -0.5003  0.3596  0.4010
 4139SOL    HW123879   2.327   3.174   5.272 -2.6560 -0.7387  1.6981
 4139SOL    HW223880   2.324   3.079   5.385  0.0574 -3.1055 -2.5090
 4140SOL     OW23881   1.901   1.886   2.492 -0.3509  0.0326  0.3405
 4140SOL    HW123882   1.843   1.815   2.519  0.7499 -0.8929  0.2689
 4140SOL    HW223883   1.861   1.897   2.405 -0.1484 -1.0369  0.1102
 4141SOL     OW23884   3.464   1.879   4.696  0.5377 -0.0126  0.4972
 4141SOL    HW123885   3.526   1.933   4.646  1.7438 -0.8388  1.0764
 4141SOL    HW223886   3.524   1.822   4.745  0.2032 -1.4168 -0.7294
 4142SOL     OW23887   4.347   0.882   8.140  0.2372  0.9826  0.5434
 4142SOL    HW123888   4.346   0.970   8.101  0.9093  1.1145  0.8134
 4142SOL    HW223889   4.433   0.857   8.106  0.5642  1.2854  1.1280
 4143SOL     OW23890   1.688   2.903   6.808 -0.6978 -0.6258 -0.5534
 4143SOL    HW123891   1.676   2.956   6.730 -4.3340 -3.2987 -1.8323
 4143SOL    HW223892   1.644   2.822   6.781 -0.5375 -1.0923  0.5534
 4144SOL     OW23893   0.515   1.992   2.524  0.4197 -0.1724  0.3555
 4144SOL    HW123894   0.563   1.909   2.515  0.9870  0.3387 -1.3065
 4144SOL    HW223895   0.565   2.055   2.472 -0.7718 -0.5532 -1.2759
 4145SOL     OW23896   1.710   3.665   4.733 -0.1399 -0.3714 -0.2818
 4145SOL    HW123897   1.794   3.627   4.760  0.4644  0.7979 -0.4880
 4145SOL    HW223898   1.679   3.598   4.674 -1.0037 -1.4613  1.4207
 4146SOL     OW23899   2.443   2.290   1.185  0.2096 -0.2057 -0.5376
 4146SOL    HW123900   2.474   2.379   1.202 -0.7597  0.4699 -2.2919
 4146SOL    HW223901   2.516   2.228   1.185 -1.0403 -1.6892 -0.1971
 4147SOL     OW23902   3.263   1.402   9.484 -0.3098  0.1995  0.0711
 4147SOL    HW123903   3.184   1.416   9.432 -0.4801 -1.0754 -0.0096
 4147SOL    HW223904   3.262   1.484   9.532 -0.5964  0.1962  0.0679
 4148SOL     OW23905   4.590   3.184   5.329  0.3645  0.5901  0.2705
 4148SOL    HW123906   4.565   3.096   5.302  1.7023 -0.4344  2.3600
 4148SOL    HW223907   4.508   3.229   5.310 -0.0659  0.6604  2.3199
 4149SOL     OW23908   2.458   2.706   4.716 -0.7694  0.3014  0.1278
 4149SOL    HW123909   2.540   2.753   4.705  0.0370 -0.7721  1.5958
 4149SOL    HW223910   2.393   2.772   4.692 -0.5288  0.3048 -0.5288
 4150SOL     OW23911   2.973   1.590   7.066 -0.3437  0.8696 -0.3423
 4150SOL    HW123912   3.028   1.664   7.040 -0.3316  1.5115  1.5280
 4150SOL    HW223913   2.884   1.614   7.041 -0.5185 -0.2200 -0.7677
 4151SOL     OW23914   2.256   0.135   9.201 -0.0416  0.4111  0.2227
 4151SOL    HW123915   2.173   0.180   9.212  0.1391  0.7466  0.2051
 4151SOL    HW223916   2.315   0.169   9.268 -1.0297  0.3027  1.1384
 4152SOL     OW23917   3.419   2.250   4.704  0.3004  0.3257 -0.4013
 4152SOL    HW123918   3.496   2.193   4.698  0.5770  0.6498  0.0866
 4152SOL    HW223919   3.350   2.184   4.711  0.9072 -0.2500  0.1900
 4153SOL     OW23920   3.335   1.246   2.428  0.0266 -0.3324  0.0610
 4153SOL    HW123921   3.277   1.223   2.500 -0.8577  1.3716 -0.0924
 4153SOL    HW223922   3.330   1.171   2.369 -0.0888 -0.8877  0.7775
 4154SOL     OW23923   1.791   2.829   6.435 -0.8890  0.7895 -0.1614
 4154SOL    HW123924   1.770   2.913   6.393  2.2153  2.7475  2.1967
 4154SOL    HW223925   1.704   2.815   6.472 -0.4010 -3.0489 -0.4690
 4155SOL     OW23926   3.974   2.316   9.982  0.0371  0.2531 -0.2446
 4155SOL    HW123927   3.990   2.355   9.896  0.2778  0.8384  0.0680
 4155SOL    HW223928   3.903   2.253   9.968  1.0098 -0.7093 -0.8476
 4156SOL     OW23929   3.551   0.966   5.113 -0.3055 -0.2550  0.0927
 4156SOL    HW123930   3.466   0.970   5.157  0.7275 -0.9248  2.1488
 4156SOL    HW223931   3.523   0.991   5.025  3.4964  0.8818 -0.7862
 4157SOL     OW23932   0.083   3.039  12.580 -0.3927 -0.7037 -0.6583
 4157SOL    HW123933   0.064   3.133  12.583 -0.6564 -0.7092 -2.0798
 4157SOL    HW223934   0.005   3.001  12.539 -1.8783  1.1430  0.4623
 4158SOL     OW23935   3.011   2.251   8.309 -0.0493  0.3395 -0.2576
 4158SOL    HW123936   2.937   2.195   8.284  0.7983 -0.8349 -0.0982
 4158SOL    HW223937   2.994   2.269   8.401  0.2358  1.9802 -0.5224
 4159SOL     OW23938   4.399   2.101   8.425  0.2324  0.0878 -0.2537
 4159SOL    HW123939   4.405   2.113   8.520  1.1349 -1.1806 -0.1499
 4159SOL    HW223940   4.447   2.022   8.403  2.1264  0.9925  0.6363
 4160SOL     OW23941   4.231   2.032   6.726 -0.4920  0.0074  0.0559
 4160SOL    HW123942   4.190   1.982   6.796 -0.4191 -1.5164 -0.9930
 4160SOL    HW223943   4.224   1.974   6.649  2.4696 -0.9879  0.5527
 4161SOL     OW23944   4.420   2.682   1.725  0.3273  0.2160  0.0224
 4161SOL    HW123945   4.477   2.610   1.753  1.0799  1.0239  0.5459
 4161SOL    HW223946   4.393   2.717   1.810  0.5022  0.5289 -0.0519
 4162SOL     OW23947   1.297   4.057   3.517 -0.1129  0.7511 -0.3234
 4162SOL    HW123948   1.202   4.050   3.505  0.0835  0.3188 -1.6216
 4162SOL    HW223949   1.321   4.012   3.436 -0.3804  0.1116 -0.0477
 4163SOL     OW23950   1.950   3.144   4.600  0.0044  0.3187  0.0037
 4163SOL    HW123951   1.881   3.197   4.560  1.6684  0.6977 -2.3665
 4163SOL    HW223952   1.941   3.162   4.694 -0.9176 -1.2901  0.2250
 4164SOL     OW23953   2.179   3.690  13.010 -0.3415 -0.0041 -0.2373
 4164SOL    HW123954   2.136   3.753  12.952  2.2680  1.0931 -1.0148
 4164SOL    HW223955   2.242   3.639  12.958  1.6925 -0.3315  2.5575
 4165SOL     OW23956   0.817   3.959   3.996 -0.3102  0.2701 -0.3721
 4165SOL    HW123957   0.899   4.006   4.011 -0.5348 -0.1288  2.0858
 4165SOL    HW223958   0.769   4.029   3.952  0.2815  0.7288 -0.2833
 4166SOL     OW23959   4.060   4.072   0.924  0.0143  0.1127 -0.0803
 4166SOL    HW123960   4.111   4.104   0.849  1.2493 -0.0780  0.6903
 4166SOL    HW223961   3.987   4.132   0.908 -0.9795 -1.0982 -0.0979
 4167SOL     OW23962   2.072   3.578  14.453  0.5006 -0.3967  0.4821
 4167SOL    HW123963   2.013   3.652  14.441  1.9802  0.6613 -0.2117
 4167SOL    HW223964   2.132   3.619  14.516  0.0538 -0.6078  1.0446
 4168SOL     OW23965   0.776   2.901   4.549  0.1503 -0.4529  0.5005
 4168SOL    HW123966   0.685   2.878   4.570 -0.7159  2.5827  0.0486
 4168SOL    HW223967   0.796   2.824   4.495  0.2613 -0.0279 -0.0648
 4169SOL     OW23968   1.114   2.073   5.500 -0.1170 -0.4414 -0.1347
 4169SOL    HW123969   1.055   2.060   5.574 -1.0608  1.1057 -0.6224
 4169SOL    HW223970   1.193   2.022   5.519  0.3544  1.3433  2.6081
 4170SOL     OW23971   2.111   1.316   7.216  0.0655 -0.3407 -0.7950
 4170SOL    HW123972   2.068   1.231   7.209  0.8586 -0.8391  0.2635
 4170SOL    HW223973   2.122   1.328   7.311  3.1876 -1.3915 -1.0023
 4171SOL     OW23974   3.469   1.698   3.909 -0.4811 -0.1959  0.7037
 4171SOL    HW123975   3.383   1.679   3.870 -0.7896  0.9173  0.8322
 4171SOL    HW223976   3.499   1.770   3.852 -1.6120  0.0912  0.4552
 4172SOL     OW23977   0.196   1.934   8.573 -0.0398 -0.6174 -0.8082
 4172SOL    HW123978   0.251   1.875   8.624 -0.3008 -0.3916 -0.2639
 4172SOL    HW223979   0.126   1.870   8.559 -0.8098  0.4704 -1.9759
 4173SOL     OW23980   0.451   4.535   7.209 -0.2744  0.2588 -0.4565
 4173SOL    HW123981   0.414   4.543   7.297  1.0095  1.0850  0.0027
 4173SOL    HW223982   0.378   4.555   7.150  1.1458  0.6128 -2.0694
 4174SOL     OW23983   2.675   1.457   3.577 -0.4321 -0.3052  0.4620
 4174SOL    HW123984   2.643   1.528   3.521 -0.6081 -0.3541  0.5023
 4174SOL    HW223985   2.770   1.459   3.563 -0.7008 -1.1924 -1.5754
 4175SOL     OW23986   1.761   4.066   5.810 -0.1512  0.2040 -0.2600
 4175SOL    HW123987   1.687   4.006   5.794  1.4802 -1.5798 -1.1280
 4175SOL    HW223988   1.742   4.143   5.757  0.0207  0.9388  0.7579
 4176SOL     OW23989   0.799   3.390   3.155  0.4530  0.0109 -0.5124
 4176SOL    HW123990   0.769   3.453   3.221  0.6008 -1.5676  1.0726
 4176SOL    HW223991   0.732   3.324   3.175  2.7051 -1.7661  1.1500
 4177SOL     OW23992   4.166   3.369   1.170 -0.0830  0.3494  0.5004
 4177SOL    HW123993   4.195   3.460   1.163 -1.0853  0.5960 -0.4066
 4177SOL    HW223994   4.102   3.392   1.237  0.0642 -0.4007  0.8902
 4178SOL     OW23995   1.448   0.453   4.321 -0.0853  0.1716  0.3590
 4178SOL    HW123996   1.360   0.478   4.292 -0.1734 -0.2366  0.2692
 4178SOL    HW223997   1.502   0.530   4.309 -0.7833  0.7817  1.1581
 4179SOL     OW23998   4.064   1.514  16.662  0.4814 -0.6545  0.2215
 4179SOL    HW123999   4.047   1.426  16.627  3.2533 -0.7172 -0.9434
 4179SOL    HW224000   4.015   1.568  16.600  1.5647 -0.5480 -0.5423
 4180SOL     OW24001   2.685   3.665   4.694 -0.4364 -0.7359  0.4186
 4180SOL    HW124002   2.778   3.650   4.711 -0.1226  0.1535 -0.4992
 4180SOL    HW224003   2.640   3.594   4.740  0.9009 -0.7838  1.6735
 4181SOL     OW24004   1.198   1.312   3.126 -0.7000  0.0263 -0.3071
 4181SOL    HW124005   1.145   1.287   3.051 -0.6186 -2.4819  0.4742
 4181SOL    HW224006   1.173   1.405   3.132 -3.6863 -0.5985 -3.0787
 4182SOL     OW24007   4.659   3.468   2.611 -0.1897  0.0372  0.1555
 4182SOL    HW124008   4.638   3.509   2.695  0.1469  1.4640 -0.4672
 4182SOL    HW224009   0.030   3.473   2.604 -0.3292  1.5747 -0.6154
 4183SOL     OW24010   1.183   2.884   3.859  0.2301 -0.4409 -0.4968
 4183SOL    HW124011   1.235   2.809   3.886 -0.3247 -0.9959 -0.9645
 4183SOL    HW224012   1.093   2.855   3.876  0.4979 -0.0777  1.5561
 4184SOL     OW24013   3.436   1.060  16.668  0.2338  0.3547 -0.1871
 4184SOL    HW124014   3.363   1.105  16.710  0.6830  1.1535 -0.2637
 4184SOL    HW224015   3.474   1.125  16.609 -0.6296 -1.2745 -2.4957
 4185SOL     OW24016   0.185   1.851  15.020 -0.5725 -0.1306 -0.8345
 4185SOL    HW124017   0.269   1.836  15.064 -1.4185 -0.5606  0.6617
 4185SOL    HW224018   0.188   1.796  14.942  2.3758  0.1292 -0.9229
 4186SOL     OW24019   3.098   0.896   5.676  0.0430  0.0207 -0.1996
 4186SOL    HW124020   3.042   0.918   5.601  1.2063 -0.3740 -1.1779
 4186SOL    HW224021   3.089   0.973   5.732 -1.1925 -0.3529  0.1287
 4187SOL     OW24022   0.650   1.444   9.629 -0.2281 -0.4716  0.4198
 4187SOL    HW124023   0.717   1.411   9.689 -2.7455 -3.9063  1.2964
 4187SOL    HW224024   0.706   1.493   9.568  0.0749  0.7658  1.6739
 4188SOL     OW24025   0.797   2.079   8.386 -0.7635  0.7480  0.6844
 4188SOL    HW124026   0.843   2.162   8.395 -0.8546  0.5395  2.8859
 4188SOL    HW224027   0.713   2.103   8.347  0.3642 -0.7842 -2.7550
 4189SOL     OW24028   2.313   2.774  12.491 -0.4476 -0.1038 -0.6117
 4189SOL    HW124029   2.230   2.769  12.540  0.4469 -0.0101  0.9199
 4189SOL    HW224030   2.298   2.859  12.448  1.2649  0.4858 -0.0498
 4190SOL     OW24031   1.451   3.604   6.738  0.5684 -0.1339  0.0163
 4190SOL    HW124032   1.498   3.672   6.785 -0.1598 -0.2261  0.8839
 4190SOL    HW224033   1.525   3.547   6.717  0.6591 -0.5756  1.5317
 4191SOL     OW24034   3.504   1.110   4.643 -0.8813  0.1485 -0.0779
 4191SOL    HW124035   3.560   1.185   4.622  0.3073 -0.6065  0.3608
 4191SOL    HW224036   3.557   1.048   4.593 -2.4509 -1.6809  0.5177
 4192SOL     OW24037   3.461   0.519   8.939 -0.5950 -0.2575 -0.2492
 4192SOL    HW124038   3.471   0.603   8.983  1.5290 -0.2658 -0.7530
 4192SOL    HW224039   3.448   0.547   8.849  0.2356  0.3822 -0.1605
 4193SOL     OW24040   2.245   1.757   0.099 -0.5222  0.1133  0.0078
 4193SOL    HW124041   2.228   1.823   0.032  1.7711 -0.6059 -1.2853
 4193SOL    HW224042   2.303   1.806   0.157 -1.9754 -2.5836  3.7682
 4194SOL     OW24043   4.030   3.858  12.010  0.4325 -0.3769 -0.6187
 4194SOL    HW124044   3.995   3.811  12.086  0.2878  2.7966  1.2911
 4194SOL    HW224045   3.961   3.921  11.986  0.5555 -0.3457 -0.8845
 4195SOL     OW24046   0.465   3.195  13.625  0.8183  0.4370 -0.1373
 4195SOL    HW124047   0.455   3.259  13.554  0.6240  0.2690 -0.2624
 4195SOL    HW224048   0.457   3.116  13.572 -0.0070  0.6158 -0.2917
 4196SOL     OW24049   3.562   0.868   1.487 -0.1348  0.0789  0.4892
 4196SOL    HW124050   3.477   0.875   1.443  1.2381 -0.8897 -2.3060
 4196SOL    HW224051   3.625   0.913   1.430  0.0282 -0.2873  0.3851
 4197SOL     OW24052   1.387   1.411   2.588  0.5494 -0.2241  0.2538
 4197SOL    HW124053   1.447   1.380   2.521  1.1206  0.0271  0.6529
 4197SOL    HW224054   1.351   1.481   2.534 -1.9800 -2.7282 -1.3153
 4198SOL     OW24055   0.253   0.597   2.266  0.3969 -0.3298 -0.4615
 4198SOL    HW124056   0.271   0.691   2.273  0.9360 -0.2997 -2.1888
 4198SOL    HW224057   0.301   0.565   2.342 -0.8510 -0.4883  0.2568
 4199SOL     OW24058   2.843   4.060   8.491 -0.2352 -0.0299 -0.3808
 4199SOL    HW124059   2.861   4.154   8.489 -0.5485  0.0033 -1.7019
 4199SOL    HW224060   2.897   4.027   8.419 -2.0691  0.4061 -1.9527
 4200SOL     OW24061   2.316   0.654   6.168 -0.3809 -0.0492 -0.5648
 4200SOL    HW124062   2.221   0.664   6.163 -0.6841 -1.0312  2.8801
 4200SOL    HW224063   2.343   0.730   6.117 -0.2911 -1.5900 -2.8080
 4201SOL     OW24064   3.032   1.292   1.733 -0.3552 -0.0984 -0.5167
 4201SOL    HW124065   3.077   1.334   1.660 -0.4944  2.2631  0.7488
 4201SOL    HW224066   3.111   1.266   1.780 -0.2272  1.8237  0.3403
 4202SOL     OW24067   0.148   4.323   7.297  0.1482 -0.2320 -0.1260
 4202SOL    HW124068   0.073   4.296   7.349 -0.0273  1.3390  0.4254
 4202SOL    HW224069   0.105   4.336   7.212 -1.3423 -0.4727  0.6009
 4203SOL     OW24070   4.562   1.573  17.075 -0.2715 -0.1794  0.0090
 4203SOL    HW124071   4.574   1.619  17.159  0.0752  0.4774 -0.3959
 4203SOL    HW224072   4.575   1.482  17.101  1.8725  0.6100  1.6735
 4204SOL     OW24073   1.089   2.387   2.787  0.0800 -0.0884 -0.1993
 4204SOL    HW124074   1.119   2.423   2.703  2.0572  0.6233  0.8040
 4204SOL    HW224075   1.083   2.463   2.845 -2.0058 -0.6672  0.3426
 4205SOL     OW24076   4.247   4.094   7.753  0.3623  0.0671 -0.0769
 4205SOL    HW124077   4.206   4.065   7.672 -0.9876  0.4469  0.4739
 4205SOL    HW224078   4.337   4.064   7.739 -0.7401 -2.2140 -2.3419
 4206SOL     OW24079   3.011   1.130   8.756 -0.0379  0.4879  0.3650
 4206SOL    HW124080   2.939   1.067   8.763 -0.0021  0.6328  1.9611
 4206SOL    HW224081   3.042   1.130   8.846 -3.3534  0.5947  1.5086
 4207SOL     OW24082   0.931   3.580  12.126  0.2003 -0.0176  0.7533
 4207SOL    HW124083   0.969   3.579  12.214 -0.5685  0.7015  1.0944
 4207SOL    HW224084   0.970   3.506  12.079  0.1152 -0.7262  1.7933
 4208SOL     OW24085   2.348   3.231   2.188  0.3645  0.5397 -0.0969
 4208SOL    HW124086   2.278   3.173   2.217  1.3907  0.4196  2.1776
 4208SOL    HW224087   2.298   3.274   2.119 -0.1173 -1.0757 -0.7440
 4209SOL     OW24088   2.683   0.665   5.405 -0.5032 -0.0389  0.2371
 4209SOL    HW124089   2.709   0.582   5.445 -1.4348 -0.4822 -0.0925
 4209SOL    HW224090   2.589   0.651   5.398 -0.6636  1.0496  0.1855
 4210SOL     OW24091   1.743   0.684   7.698  0.3368 -0.0278 -0.1485
 4210SOL    HW124092   1.683   0.673   7.771 -2.0847  1.3218 -1.9490
 4210SOL    HW224093   1.753   0.600   7.652 -0.3481 -1.3601  2.1443
 4211SOL     OW24094   2.288   4.433   3.809  0.3657  0.3955  0.2959
 4211SOL    HW124095   2.251   4.484   3.737  1.1182  0.6455  0.0845
 4211SOL    HW224096   2.331   4.360   3.763 -0.0763  0.0378  0.4519
 4212SOL     OW24097   3.375   3.380  10.576  0.5191  0.4871 -0.3579
 4212SOL    HW124098   3.339   3.468  10.569  1.4389  1.0023  1.3896
 4212SOL    HW224099   3.466   3.405  10.594  0.6307  1.6607 -2.5440
 4213SOL     OW24100   0.033   1.553   6.933 -0.3528  0.6436 -0.1175
 4213SOL    HW124101   0.112   1.584   6.888 -0.2198  1.4620  0.6729
 4213SOL    HW224102   0.075   1.558   7.020 -1.3803  1.2864  0.3373
 4214SOL     OW24103   4.588   0.266   2.732  0.3863 -0.2233 -0.0175
 4214SOL    HW124104   4.540   0.317   2.666  0.0639 -0.7691 -0.2009
 4214SOL    HW224105   4.551   0.310   2.808  1.3611 -0.7750  0.7732
 4215SOL     OW24106   1.221   3.722   2.505 -0.9353 -0.3355  0.4713
 4215SOL    HW124107   1.251   3.638   2.540 -0.8809  0.5177  2.4097
 4215SOL    HW224108   1.172   3.698   2.425  0.2472 -1.6945  0.1501
 4216SOL     OW24109   2.522   2.985   2.992  0.6906 -0.2562 -0.2082
 4216SOL    HW124110   2.447   2.928   3.007 -1.1306  1.7929 -1.4966
 4216SOL    HW224111   2.477   3.066   2.965  0.2206  0.0038  1.3734
 4217SOL     OW24112   2.104   4.339   7.523 -0.4128 -0.3374  0.2220
 4217SOL    HW124113   2.084   4.354   7.430 -2.6033  0.8074  0.8809
 4217SOL    HW224114   2.085   4.245   7.520 -3.0221  0.2654 -2.7548
 4218SOL     OW24115   4.506   3.975  11.458  0.2339  0.3492 -0.1018
 4218SOL    HW124116   4.411   3.990  11.461  0.2573 -0.3403  3.4227
 4218SOL    HW224117   4.513   4.015  11.371  1.7723 -0.8671 -0.5364
 4219SOL     OW24118   3.464   2.898   1.518  0.4599 -0.2805  0.0151
 4219SOL    HW124119   3.427   2.836   1.582 -1.1308  0.1864 -0.4617
 4219SOL    HW224120   3.528   2.847   1.469  0.6382 -0.3174  0.2891
 4220SOL     OW24121   2.487   3.935   5.823  0.0033 -0.1097  0.3233
 4220SOL    HW124122   2.437   4.005   5.865 -0.5329 -0.1432 -0.2565
 4220SOL    HW224123   2.524   3.901   5.904 -0.7173  0.8962  1.0750
 4221SOL     OW24124   4.660   4.354   2.864 -0.3503 -0.0323 -0.3396
 4221SOL    HW124125   4.685   4.402   2.943 -1.5784  0.0642 -0.0108
 4221SOL    HW224126   4.637   4.431   2.812 -4.0451 -0.8912  0.0204
 4222SOL     OW24127   2.853   1.878   6.124  0.3295  0.3876  0.4282
 4222SOL    HW124128   2.924   1.820   6.096 -0.3860 -0.0659 -0.4577
 4222SOL    HW224129   2.798   1.873   6.046  1.4364  0.2705 -0.3547
 4223SOL     OW24130   3.986   3.375   9.047  0.1082  0.3258  0.7876
 4223SOL    HW124131   4.018   3.288   9.025 -1.1651 -0.2527  1.2280
 4223SOL    HW224132   3.912   3.393   8.988  1.9606 -0.6037 -1.8109
 4224SOL     OW24133   4.079   1.756   7.120  0.2435  0.5736 -0.0163
 4224SOL    HW124134   4.095   1.700   7.044 -0.5998  2.1546 -1.3391
 4224SOL    HW224135   4.164   1.801   7.119  0.4491  0.2299  1.5270
 4225SOL     OW24136   2.531   3.655   8.661 -0.3455  0.1436 -0.4152
 4225SOL    HW124137   2.624   3.651   8.684 -0.0323 -1.3507 -1.9749
 4225SOL    HW224138   2.536   3.691   8.573  1.2866 -0.7760 -0.6927
 4226SOL     OW24139   3.606   1.037  10.794 -0.2637 -0.4931  0.6328
 4226SOL    HW124140   3.556   1.030  10.713  1.3075 -2.3891 -0.1612
 4226SOL    HW224141   3.676   1.095  10.763 -1.3826 -0.3358 -1.6086
 4227SOL     OW24142   3.385   4.638   8.621  0.4812  0.0682 -0.7102
 4227SOL    HW124143   3.380   4.697   8.697  1.2201  2.2226 -2.3307
 4227SOL    HW224144   3.365   4.560   8.672  2.6484 -0.7867 -1.1731
 4228SOL     OW24145   2.935   3.799   5.619  0.4214  0.3209  0.7858
 4228SOL    HW124146   2.854   3.849   5.625 -0.8703 -1.9904  2.5397
 4228SOL    HW224147   2.994   3.866   5.584 -0.1721  0.7348  0.5811
 4229SOL     OW24148   1.637   4.417  14.124  0.6767  0.1282  0.1898
 4229SOL    HW124149   1.629   4.323  14.143  1.5841  0.2407  1.2022
 4229SOL    HW224150   1.727   4.426  14.158  1.3306 -1.5158 -1.1308
 4230SOL     OW24151   3.515   2.701  10.822 -0.5504  0.0834 -0.4486
 4230SOL    HW124152   3.436   2.686  10.874 -0.0343 -2.3234 -0.3871
 4230SOL    HW224153   3.494   2.650  10.744 -0.1759  0.6930 -0.9510
 4231SOL     OW24154   1.956   0.591   6.569 -0.9587  0.0631 -0.1232
 4231SOL    HW124155   2.045   0.564   6.591 -0.7475  0.5147 -0.4267
 4231SOL    HW224156   1.955   0.553   6.481 -1.4802 -0.3783  0.0756
 4232SOL     OW24157   3.016   3.169   5.659  0.5805 -0.0370  0.3853
 4232SOL    HW124158   3.032   3.080   5.626 -1.9960  0.5091 -2.3292
 4232SOL    HW224159   2.942   3.154   5.717 -0.4458 -1.5188 -1.2954
 4233SOL     OW24160   2.853   2.593   6.980 -0.1719 -0.4818  0.0019
 4233SOL    HW124161   2.923   2.658   6.969 -1.8851  1.4932  0.6547
 4233SOL    HW224162   2.832   2.593   7.074 -0.4245  0.7098 -0.0531
 4234SOL     OW24163   1.598   2.911  13.967 -0.0598  0.5287  0.1005
 4234SOL    HW124164   1.671   2.859  14.000 -0.9442  0.0245  1.2659
 4234SOL    HW224165   1.583   2.962  14.047  0.6242  1.0715 -0.1217
 4235SOL     OW24166   3.464   3.739   3.237  0.3002  0.8857 -0.1280
 4235SOL    HW124167   3.404   3.673   3.202  2.2790 -1.4527  0.9194
 4235SOL    HW224168   3.432   3.807   3.177 -2.3251 -1.2387 -1.1855
 4236SOL     OW24169   0.627   2.693  11.549  0.0399 -0.2877 -0.3861
 4236SOL    HW124170   0.720   2.677  11.532  0.1888  1.2113 -0.9562
 4236SOL    HW224171   0.597   2.609  11.513  0.8391 -0.4837 -0.6004
 4237SOL     OW24172   1.482   3.817   2.619 -0.2165 -0.4135 -0.4266
 4237SOL    HW124173   1.482   3.892   2.559  2.4811  3.1527  4.0482
 4237SOL    HW224174   1.409   3.772   2.577  0.1168 -0.9255 -0.4556
 4238SOL     OW24175   4.676   4.033   3.248  0.1496 -0.0240 -0.6517
 4238SOL    HW124176   4.615   4.043   3.321 -0.4200 -0.7446 -1.0219
 4238SOL    HW224177   4.630   3.962   3.202  3.4333 -2.9114  0.5442
 4239SOL     OW24178   0.533   2.062   4.622  0.1932 -0.0070  0.0405
 4239SOL    HW124179   0.462   2.013   4.665  1.1011 -0.7303  0.7197
 4239SOL    HW224180   0.543   2.011   4.542 -1.2948  0.9584 -0.7585
 4240SOL     OW24181   0.323   3.609   6.527  0.3026 -0.0291  0.2445
 4240SOL    HW124182   0.388   3.587   6.461 -3.4683 -1.5324 -2.9615
 4240SOL    HW224183   0.295   3.519   6.547  0.9492 -0.0913  0.8752
 4241SOL     OW24184   0.159   1.295   8.555  0.4718 -0.6731  0.0361
 4241SOL    HW124185   0.239   1.307   8.606  1.5297  1.8705 -2.1696
 4241SOL    HW224186   0.184   1.215   8.508  1.3442 -1.6226  2.1373
 4242SOL     OW24187   2.744   1.367   6.624  0.5093 -0.3113  0.4926
 4242SOL    HW124188   2.696   1.385   6.543  0.1386 -1.3430  0.4818
 4242SOL    HW224189   2.673   1.347   6.686 -1.8222 -0.8797 -2.3560
 4243SOL     OW24190   1.148   2.237  11.033 -0.2191 -0.1130 -0.2001
 4243SOL    HW124191   1.080   2.235  11.100 -0.3638  1.2951 -0.3112
 4243SOL    HW224192   1.207   2.173  11.074 -0.3319 -0.5107 -0.6602
 4244SOL     OW24193   3.236   1.560   3.746  0.1289  0.1483 -0.0671
 4244SOL    HW124194   3.160   1.505   3.729  0.3598 -0.9562  2.5089
 4244SOL    HW224195   3.275   1.564   3.659  0.2854 -1.1115 -0.0574
 4245SOL     OW24196   1.261   0.058   7.129 -0.2506  0.9001 -0.5773
 4245SOL    HW124197   1.220   0.003   7.062 -2.0759  3.3359 -1.4489
 4245SOL    HW224198   1.209   0.029   7.204  0.6367  3.2083  0.9036
 4246SOL     OW24199   1.708   3.513   3.642  0.1621 -0.4183  0.6920
 4246SOL    HW124200   1.773   3.474   3.583 -1.5863 -2.3467  0.0586
 4246SOL    HW224201   1.624   3.473   3.620  0.1344 -0.4526  0.8639
 4247SOL     OW24202   1.612   2.451   2.041  1.0895  0.3124 -0.5232
 4247SOL    HW124203   1.534   2.455   2.097  0.4187  2.7640 -1.6278
 4247SOL    HW224204   1.625   2.357   2.055  1.4132  0.3826 -0.3565
 4248SOL     OW24205   4.437   3.284  17.207 -0.5380  0.5127 -1.1805
 4248SOL    HW124206   4.396   3.229  17.139  1.1484  1.8398 -3.2472
 4248SOL    HW224207   4.362   3.309  17.261  0.2870  0.4432  0.0057
 4249SOL     OW24208   0.865   4.336  10.720 -0.2236  0.1997 -0.4524
 4249SOL    HW124209   0.839   4.244  10.718  0.6032 -0.0350 -0.5118
 4249SOL    HW224210   0.960   4.324  10.719 -0.1218  0.9946  0.0035
 4250SOL     OW24211   1.618   3.025  15.801  0.1263 -0.2102 -0.0784
 4250SOL    HW124212   1.620   3.101  15.742 -1.5413  0.5768  0.8531
 4250SOL    HW224213   1.533   3.030  15.846 -0.3864  0.1849 -1.0765
 4251SOL     OW24214   2.557   4.424   9.084  0.1735  0.1338  0.6764
 4251SOL    HW124215   2.646   4.432   9.116 -0.2863  1.2869  1.6524
 4251SOL    HW224216   2.536   4.512   9.053  0.8648  0.5087  1.2753
 4252SOL     OW24217   3.993   0.681   5.097 -0.0265 -0.5628 -0.3603
 4252SOL    HW124218   3.898   0.670   5.091 -0.3495  0.3171  3.0637
 4252SOL    HW224219   4.007   0.617   5.166  0.4179 -2.6273 -2.3980
 4253SOL     OW24220   3.362   0.902   3.882  0.4510  0.3865 -0.2375
 4253SOL    HW124221   3.418   0.846   3.828 -0.5940  0.3118 -1.2510
 4253SOL    HW224222   3.344   0.857   3.965  0.5976  3.1873  1.3159
 4254SOL     OW24223   4.160   3.720  10.359 -0.8415 -0.3314 -0.0992
 4254SOL    HW124224   4.068   3.741  10.346 -0.3006  1.7340 -0.7391
 4254SOL    HW224225   4.152   3.625  10.368  0.8463 -0.4891 -0.2076
 4255SOL     OW24226   2.622   1.462   2.207  0.4509  1.1071 -0.1266
 4255SOL    HW124227   2.694   1.479   2.146 -0.4887  0.8648 -1.3031
 4255SOL    HW224228   2.666   1.451   2.291  1.0946  1.3817 -0.4318
 4256SOL     OW24229   3.212   1.702  17.067  0.3283  0.1965 -0.7999
 4256SOL    HW124230   3.132   1.752  17.085  0.1198 -0.5238  0.2928
 4256SOL    HW224231   3.268   1.777  17.050  1.5083 -0.8593 -1.6124
 4257SOL     OW24232   0.684   2.142   9.792 -0.3206  0.1167 -0.0214
 4257SOL    HW124233   0.760   2.144   9.733  1.0202  1.8333  1.7362
 4257SOL    HW224234   0.721   2.204   9.856 -3.0553  0.5068  1.1659
 4258SOL     OW24235   3.778   3.613   0.666 -0.1955 -0.1737 -0.1835
 4258SOL    HW124236   3.855   3.581   0.712 -0.7422 -0.3850  0.5982
 4258SOL    HW224237   3.789   3.708   0.663 -0.2374 -0.2009 -1.3706
 4259SOL     OW24238   4.215   3.608   4.900  0.5414 -0.2815  0.2422
 4259SOL    HW124239   4.198   3.536   4.840 -0.6097  0.6523 -0.5474
 4259SOL    HW224240   4.142   3.665   4.875  1.9973  0.0435 -3.2073
 4260SOL     OW24241   1.675   3.843  16.486  0.2994  0.3776 -0.1266
 4260SOL    HW124242   1.580   3.854  16.491  0.1597  1.1607 -4.5663
 4260SOL    HW224243   1.683   3.748  16.478 -0.9925  0.1999  0.6072
 4261SOL     OW24244   3.771   1.740  17.586 -0.3319 -0.8939 -0.1566
 4261SOL    HW124245   3.862   1.737  17.558  0.0408 -1.7173  1.1059
 4261SOL    HW224246   3.732   1.774  17.506 -0.4650  0.1867  0.3760
 4262SOL     OW24247   1.431   3.430   3.629  0.1976 -0.0468 -0.1256
 4262SOL    HW124248   1.373   3.394   3.562 -0.1077 -0.3070  0.2808
 4262SOL    HW224249   1.373   3.461   3.699  0.2482 -0.0317 -0.0898
 4263SOL     OW24250   4.518   4.272   7.010  0.6950 -0.1146  0.4748
 4263SOL    HW124251   4.464   4.330   7.064  1.7350 -0.0471  1.4515
 4263SOL    HW224252   4.449   4.257   6.946  0.4125 -1.1393  1.0251
 4264SOL     OW24253   4.142   0.906   2.204  0.1520 -0.3527  0.0997
 4264SOL    HW124254   4.225   0.873   2.237 -0.2851  0.5073  2.0721
 4264SOL    HW224255   4.169   0.994   2.179 -0.6132 -0.5885 -1.5717
 4265SOL     OW24256   0.850   0.097   3.700 -0.1582 -0.6357 -0.3874
 4265SOL    HW124257   0.847   0.173   3.642 -0.3751  0.4963  1.1005
 4265SOL    HW224258   0.775   0.046   3.669 -0.7260 -1.1869  1.8900
 4266SOL     OW24259   1.161   0.455   7.900  0.7735  0.2637 -0.0644
 4266SOL    HW124260   1.255   0.437   7.890  0.4903 -2.0467  1.5443
 4266SOL    HW224261   1.121   0.376   7.935 -0.2786  0.6096 -0.4747
 4267SOL     OW24262   1.323   0.472  11.083  0.3820  0.3617 -0.8853
 4267SOL    HW124263   1.403   0.465  11.136 -0.6171  2.7966  0.8999
 4267SOL    HW224264   1.293   0.561  11.101  0.2409  0.4352 -1.4900
 4268SOL     OW24265   3.533   2.939  16.216 -0.0826  0.1202  0.5721
 4268SOL    HW124266   3.530   2.850  16.251  2.2250 -1.2729 -2.7807
 4268SOL    HW224267   3.485   2.928  16.134  0.8138 -0.7536  0.1542
 4269SOL     OW24268   2.698   3.737  13.670 -0.1372  0.1398 -0.2000
 4269SOL    HW124269   2.624   3.679  13.656 -1.4939  1.6540  0.6409
 4269SOL    HW224270   2.746   3.698  13.743  1.6741  1.2667 -0.7666
 4270SOL     OW24271   3.245   1.500  12.126 -0.6969  0.3420  0.1362
 4270SOL    HW124272   3.261   1.478  12.217  2.6185 -0.4489 -0.6335
 4270SOL    HW224273   3.167   1.554  12.134 -0.1147  1.1530  0.3104
 4271SOL     OW24274   2.847   2.458  16.996 -0.1044 -0.0052 -0.3507
 4271SOL    HW124275   2.795   2.520  16.944  0.4147  0.3499 -0.4426
 4271SOL    HW224276   2.792   2.379  16.992  2.2044 -1.5901 -1.3064
 4272SOL     OW24277   3.401   1.374  11.747  0.2533 -0.2096 -0.8895
 4272SOL    HW124278   3.450   1.417  11.677  0.6587  0.4365 -0.2137
 4272SOL    HW224279   3.383   1.286  11.715 -0.0256 -1.8820  3.8853
 4273SOL     OW24280   2.752   4.176   0.131  0.3169  0.3798 -0.0848
 4273SOL    HW124281   2.744   4.103   0.193  3.5381 -1.2629 -1.6077
 4273SOL    HW224282   2.815   4.240   0.165  1.3974 -0.3047 -0.7862
 4274SOL     OW24283   1.111   1.374   3.618 -0.0660  0.3797 -0.2391
 4274SOL    HW124284   1.200   1.359   3.648 -0.2297  0.3720  0.2477
 4274SOL    HW224285   1.114   1.324   3.537 -1.2794 -0.3885  0.1788
 4275SOL     OW24286   1.457   1.829  16.202 -0.4343  0.6931 -0.2621
 4275SOL    HW124287   1.363   1.815  16.217  0.3460 -1.5227  2.5478
 4275SOL    HW224288   1.453   1.894  16.132  0.9170  0.2992 -0.6930
 4276SOL     OW24289   2.697   3.673   0.178  0.0278 -0.0717  0.1585
 4276SOL    HW124290   2.615   3.656   0.131  0.8303 -1.6558 -0.6443
 4276SOL    HW224291   2.756   3.667   0.103 -0.5697 -0.9846 -0.2437
 4277SOL     OW24292   3.883   3.898   1.898 -0.0048  0.1573 -0.0319
 4277SOL    HW124293   3.934   3.912   1.818 -0.0237 -0.6276 -0.1795
 4277SOL    HW224294   3.799   3.882   1.856 -0.1131 -1.2008  0.6829
 4278SOL     OW24295   1.189   3.360   6.092 -0.3035  0.2686  1.0099
 4278SOL    HW124296   1.264   3.409   6.126  0.2653  0.7046 -0.8846
 4278SOL    HW224297   1.158   3.320   6.173 -0.1445 -2.4551 -0.2731
 4279SOL     OW24298   3.396   3.868  10.118  0.1635 -0.4300 -0.2977
 4279SOL    HW124299   3.354   3.787  10.146  0.3822 -0.5481 -0.3137
 4279SOL    HW224300   3.319   3.914  10.085  0.7576  0.2839 -0.7086
 4280SOL     OW24301   0.033   1.178  15.821  0.0882 -0.1195 -0.2774
 4280SOL    HW124302   4.699   1.164  15.897  0.1569  0.6748 -0.0838
 4280SOL    HW224303   0.088   1.254  15.842  0.1651  0.0578 -1.1453
 4281SOL     OW24304   4.401   2.246   6.718 -0.2241  0.1102 -0.1366
 4281SOL    HW124305   4.376   2.264   6.627  1.3249  3.9047  0.1762
 4281SOL    HW224306   4.338   2.177   6.735 -0.1125 -0.0914 -0.5462
 4282SOL     OW24307   0.936   0.963   5.192  0.2032  0.2953  0.0099
 4282SOL    HW124308   0.912   0.874   5.219 -0.0098  0.0900 -0.8554
 4282SOL    HW224309   1.016   0.979   5.243 -0.0156  1.5852 -0.0715
 4283SOL     OW24310   2.645   2.865   5.349 -0.3120  0.7438  1.0026
 4283SOL    HW124311   2.736   2.861   5.319 -0.2445  1.4671  1.1101
 4283SOL    HW224312   2.646   2.790   5.408 -2.5150 -0.1558 -0.0928
 4284SOL     OW24313   2.759   0.670   9.323 -0.2907  0.1267 -0.7734
 4284SOL    HW124314   2.853   0.691   9.325 -1.0496  3.4261 -0.9056
 4284SOL    HW224315   2.735   0.754   9.286 -0.2859  0.1299 -0.7692
 4285SOL     OW24316   0.630   0.160   5.108  0.3744 -0.2226 -0.4313
 4285SOL    HW124317   0.594   0.115   5.185  1.3746  0.1031  0.2306
 4285SOL    HW224318   0.564   0.133   5.044 -1.8442 -0.6838  2.0722
 4286SOL     OW24319   1.026   1.882  11.038  0.1008  0.4281 -0.3414
 4286SOL    HW124320   0.999   1.796  11.006 -0.8370  0.8674 -0.7267
 4286SOL    HW224321   0.991   1.934  10.966  0.7792 -0.6844 -1.4778
 4287SOL     OW24322   0.937   2.566  10.843 -0.4188 -0.8404  0.1907
 4287SOL    HW124323   0.931   2.661  10.855 -1.3268 -0.9107  0.2695
 4287SOL    HW224324   0.891   2.526  10.916  2.6970 -2.2262  1.3839
 4288SOL     OW24325   0.348   1.061   0.411 -1.1661 -0.2802  0.0426
 4288SOL    HW124326   0.336   1.154   0.427 -1.5354 -0.5788  1.5004
 4288SOL    HW224327   0.436   1.051   0.447 -0.5262 -0.8154 -1.6581
 4289SOL     OW24328   1.262   1.709   9.325 -0.3665 -0.4103  0.0448
 4289SOL    HW124329   1.188   1.742   9.275  1.1476  0.6907 -1.5006
 4289SOL    HW224330   1.314   1.666   9.256  0.3988  2.4152 -1.1473
 4290SOL     OW24331   3.800   3.425  10.227  0.1051  0.5613  0.2405
 4290SOL    HW124332   3.782   3.340  10.268  1.4211 -0.0646 -0.4743
 4290SOL    HW224333   3.729   3.481  10.259  0.9716  0.1459  2.9265
 4291SOL     OW24334   2.715   3.513  15.454  0.1286  0.2559 -0.4714
 4291SOL    HW124335   2.722   3.428  15.498  0.0808  0.6252  0.2572
 4291SOL    HW224336   2.783   3.563  15.499 -0.0980  0.5345 -0.4370
 4292SOL     OW24337   2.933   3.188   3.435  0.2201 -0.0407  0.7641
 4292SOL    HW124338   2.905   3.201   3.345  0.2926  1.4524  0.9575
 4292SOL    HW224339   2.987   3.112   3.413 -0.1295 -0.8626  2.7563
 4293SOL     OW24340   0.888   3.229   5.479  0.0004 -0.1179  0.1238
 4293SOL    HW124341   0.874   3.267   5.566  0.6214 -0.5722  0.4220
 4293SOL    HW224342   0.807   3.253   5.434 -1.0060 -0.1525  1.9323
 4294SOL     OW24343   4.039   4.699  12.488 -0.5913  0.3059 -0.6915
 4294SOL    HW124344   4.066   4.627  12.545 -0.2367  1.4522  0.5941
 4294SOL    HW224345   4.038   4.657  12.402  1.0052 -0.1152 -0.5105
 4295SOL     OW24346   4.602   3.840   2.658 -0.4234 -0.3776  0.0849
 4295SOL    HW124347   4.520   3.799   2.687 -1.1455  1.2126  0.3599
 4295SOL    HW224348   4.587   3.859   2.566 -2.4013 -0.0332  0.4608
 4296SOL     OW24349   3.842   2.852  10.775 -0.1167  0.1451 -0.5109
 4296SOL    HW124350   3.830   2.882  10.865 -1.5519  0.5617 -0.8435
 4296SOL    HW224351   3.752   2.832  10.748 -0.6292 -0.0042  1.3705
 4297SOL     OW24352   4.482   4.068  10.821 -0.4288 -0.1899 -0.3217
 4297SOL    HW124353   4.406   4.035  10.868  0.3449 -1.4546  0.0547
 4297SOL    HW224354   4.459   4.158  10.798  1.2543  0.3083 -0.1020
 4298SOL     OW24355   4.521   3.775   2.057  0.5785 -0.3103  0.0940
 4298SOL    HW124356   4.483   3.857   2.090  0.8154 -0.1966  0.0814
 4298SOL    HW224357   4.608   3.798   2.027 -0.4579 -1.1204 -3.5625
 4299SOL     OW24358   4.334   1.134   7.420 -0.5038  0.3381 -0.0636
 4299SOL    HW124359   4.279   1.212   7.407  1.8371  1.9462 -0.1713
 4299SOL    HW224360   4.281   1.077   7.475 -0.0545  1.5679  1.6547
 4300SOL     OW24361   1.082   0.421   6.628  0.2403  0.0963  0.1190
 4300SOL    HW124362   1.087   0.483   6.556 -0.3056 -1.2584 -1.1013
 4300SOL    HW224363   1.163   0.445   6.671  0.5528 -1.9661  0.7165
 4301SOL     OW24364   0.213   0.945   5.134  0.3237  0.1489  0.0074
 4301SOL    HW124365   0.278   0.958   5.064 -0.6742 -0.7433 -1.0901
 4301SOL    HW224366   0.138   0.898   5.098  1.2603 -1.6493  0.3973
 4302SOL     OW24367   4.551   1.777  17.267  0.1974  0.3139 -0.1638
 4302SOL    HW124368   4.584   1.864  17.243  1.6716 -0.5958 -1.3985
 4302SOL    HW224369   4.463   1.797  17.235  1.0970  1.6125 -1.8393
 4303SOL     OW24370   0.107   2.512   7.883 -0.2834 -0.2024  0.0704
 4303SOL    HW124371   0.098   2.537   7.791 -0.2610  2.0660  0.6757
 4303SOL    HW224372   0.141   2.597   7.912 -2.6593  0.6096  0.4477
 4304SOL     OW24373   0.001   4.161  10.916  0.4412  0.0146  0.2435
 4304SOL    HW124374   0.054   4.174  10.838  0.4469  0.8028  0.3691
 4304SOL    HW224375   4.653   4.115  10.872  0.0424  0.7571  0.0954
 4305SOL     OW24376   4.544   3.345   2.394  0.0318  0.1703 -0.6353
 4305SOL    HW124377   4.513   3.416   2.338 -0.8911  0.0539 -0.2597
 4305SOL    HW224378   4.562   3.394   2.475 -2.6381  0.3775 -0.1688
 4306SOL     OW24379   0.373   2.065   3.868 -0.1828 -0.0786 -0.2150
 4306SOL    HW124380   0.279   2.050   3.875 -0.0483 -0.3382  1.1967
 4306SOL    HW224381   0.379   2.112   3.951  0.8920 -1.3720  0.4489
 4307SOL     OW24382   0.922   4.502   6.093 -0.0514  0.2528 -0.3671
 4307SOL    HW124383   0.848   4.443   6.083  1.0613 -1.3829  0.9864
 4307SOL    HW224384   0.994   4.443   6.072  1.9290  2.6422 -0.3305
 4308SOL     OW24385   1.244   3.770   3.145  0.7121 -0.2994  0.8029
 4308SOL    HW124386   1.222   3.678   3.159 -0.4744 -0.2149 -0.4529
 4308SOL    HW224387   1.244   3.774   3.049  0.5214  0.3921  0.8279
 4309SOL     OW24388   3.613   0.746   4.059 -0.2499  0.0498 -0.3127
 4309SOL    HW124389   3.650   0.788   3.981 -0.6939  1.2813  0.1310
 4309SOL    HW224390   3.618   0.823   4.115  2.3774 -1.0270  0.8872
 4310SOL     OW24391   4.498   2.635  16.629 -0.2869 -0.5512 -0.3270
 4310SOL    HW124392   4.535   2.553  16.662  2.2977  1.4921  1.7532
 4310SOL    HW224393   4.407   2.616  16.604  0.2510 -3.9144  0.2613
 4311SOL     OW24394   3.743   0.235   2.340  0.3655 -0.2126  0.4012
 4311SOL    HW124395   3.838   0.229   2.345  0.4663 -0.0269 -1.1432
 4311SOL    HW224396   3.727   0.323   2.306  0.5584  0.0483  0.9825
 4312SOL     OW24397   4.013   0.571   7.435  0.0960  0.0496 -0.1025
 4312SOL    HW124398   3.924   0.586   7.467  0.5537 -1.1809  1.7164
 4312SOL    HW224399   4.060   0.528   7.506 -0.6097  1.0388  0.9735
 4313SOL     OW24400   2.250   2.957   5.923  0.4238  0.4613  0.3152
 4313SOL    HW124401   2.185   2.916   5.866 -1.1052  2.3433  0.7023
 4313SOL    HW224402   2.291   3.027   5.871  1.1362 -2.2849 -2.8385
 4314SOL     OW24403   1.428   0.056  16.479 -0.0689  0.2217 -0.0074
 4314SOL    HW124404   1.392   0.065  16.391  1.1404 -0.6339 -0.5960
 4314SOL    HW224405   1.488   4.706  16.469  0.0289  0.3861 -0.6117
 4315SOL     OW24406   1.381   0.872   5.981 -0.0955 -0.3574 -0.1443
 4315SOL    HW124407   1.467   0.849   5.945  0.1536 -0.1762  0.3280
 4315SOL    HW224408   1.331   0.890   5.902 -1.0147  0.6173  0.6714
 4316SOL     OW24409   2.313   0.493   7.618 -0.2006  0.2558  0.4886
 4316SOL    HW124410   2.386   0.438   7.590  0.1761  0.6735  0.6454
 4316SOL    HW224411   2.353   0.580   7.615  0.4246 -0.1726 -2.6682
 4317SOL     OW24412   1.294   1.012   8.647  0.0859 -0.5649 -0.7263
 4317SOL    HW124413   1.362   0.956   8.684  1.6096  1.0476 -1.1274
 4317SOL    HW224414   1.243   0.951   8.594  1.1337 -1.0137 -1.2146
 4318SOL     OW24415   4.252   2.654   7.422  0.1705  0.8534  0.6787
 4318SOL    HW124416   4.180   2.593   7.439  1.1513 -0.7358 -0.9756
 4318SOL    HW224417   4.329   2.597   7.429 -1.2975 -1.4163 -1.7741
 4319SOL     OW24418   0.634   0.192   5.749  0.5585 -0.3013 -0.4105
 4319SOL    HW124419   0.638   0.098   5.731  2.4514 -0.3187  0.0834
 4319SOL    HW224420   0.719   0.207   5.790 -1.0473 -0.0105  2.8037
 4320SOL     OW24421   1.117   3.173   8.105 -0.8941 -0.4641  0.2377
 4320SOL    HW124422   1.138   3.263   8.078  0.7231 -0.7526  0.5242
 4320SOL    HW224423   1.206   3.138   8.112 -1.2617 -0.8446  2.9541
 4321SOL     OW24424   3.991   1.723  15.245  0.0676 -0.5061 -0.2246
 4321SOL    HW124425   3.909   1.750  15.204 -0.2997  0.4931  1.1719
 4321SOL    HW224426   4.047   1.766  15.181 -1.5621  1.3042 -0.4185
 4322SOL     OW24427   0.184   4.116   5.884 -0.0414 -0.2581  0.1362
 4322SOL    HW124428   0.186   4.148   5.794 -0.3429 -0.4876  0.0519
 4322SOL    HW224429   0.161   4.024   5.876  0.5694 -0.1913 -2.3171
 4323SOL     OW24430   3.809   4.681   7.857  0.1559  0.1339 -0.6528
 4323SOL    HW124431   3.734   0.017   7.858  1.5616  1.8814  1.4651
 4323SOL    HW224432   3.879   0.007   7.900  0.8191 -0.3793 -1.1562
 4324SOL     OW24433   0.738   0.327   8.514 -0.0244  0.2294 -0.4889
 4324SOL    HW124434   0.657   0.277   8.502  0.6711 -1.0085  0.0208
 4324SOL    HW224435   0.738   0.391   8.442 -3.8305 -1.4190 -1.9549
 4325SOL     OW24436   0.408   2.197   2.824 -0.0398 -0.3527 -0.2549
 4325SOL    HW124437   0.370   2.244   2.899 -1.0244 -1.6939  0.0788
 4325SOL    HW224438   0.461   2.272   2.798 -0.5009  0.7340  1.8964
 4326SOL     OW24439   3.311   1.816   5.540 -0.5315 -0.3262  0.0229
 4326SOL    HW124440   3.277   1.727   5.549 -0.9588 -0.2800 -1.1296
 4326SOL    HW224441   3.403   1.810   5.567 -0.5562 -2.6070 -0.3730
 4327SOL     OW24442   1.139   1.158   4.953  0.4728  0.1520  0.1508
 4327SOL    HW124443   1.218   1.164   4.900 -0.1120  2.2451 -0.4567
 4327SOL    HW224444   1.102   1.097   4.889  1.9456 -0.6656  0.0631
 4328SOL     OW24445   2.018   1.818   2.087 -0.0129  0.2397 -0.2213
 4328SOL    HW124446   1.924   1.800   2.080  0.2175 -0.3807 -1.7309
 4328SOL    HW224447   2.038   1.787   1.999  0.1941 -2.7840  0.8993
 4329SOL     OW24448   4.666   0.925   3.430 -0.6875 -0.5555  1.2728
 4329SOL    HW124449   4.680   0.954   3.521 -0.4778  0.6429  0.8670
 4329SOL    HW224450   4.610   0.997   3.400 -0.1949 -0.7554 -0.0904
 4330SOL     OW24451   2.665   0.852   7.271 -0.9861  0.2765  0.0848
 4330SOL    HW124452   2.593   0.789   7.269  1.3641 -2.3962 -0.5645
 4330SOL    HW224453   2.707   0.835   7.187 -1.6271  1.2301 -0.4266
 4331SOL     OW24454   4.558   1.980   5.972  0.2299  0.0990  0.1948
 4331SOL    HW124455   4.465   2.003   5.973 -0.3897 -2.3639 -0.6842
 4331SOL    HW224456   4.581   2.013   5.885 -0.1651 -0.2787 -0.0541
 4332SOL     OW24457   0.983   1.127   2.445 -0.0108 -0.3818  0.0993
 4332SOL    HW124458   0.962   1.117   2.352 -0.5698 -0.0982  0.1915
 4332SOL    HW224459   1.027   1.212   2.440 -0.5875 -0.1259 -0.6765
 4333SOL     OW24460   2.990   3.017   7.276 -0.1018 -0.4485 -0.0671
 4333SOL    HW124461   3.059   2.958   7.307  0.2079 -0.5663 -1.0017
 4333SOL    HW224462   2.977   3.081   7.347  0.2940  1.7778 -2.0257
 4334SOL     OW24463   0.758   1.050   7.388 -0.7707  0.0342 -0.0959
 4334SOL    HW124464   0.744   1.069   7.296 -0.0710 -1.2942 -0.4868
 4334SOL    HW224465   0.670   1.050   7.425 -0.6142 -0.0315  0.2820
 4335SOL     OW24466   0.400   0.889  17.468 -0.5037 -1.0814  0.4847
 4335SOL    HW124467   0.442   0.896  17.554 -1.2795 -0.6372  0.8299
 4335SOL    HW224468   0.456   0.945  17.415 -0.2037 -1.0639  0.8199
 4336SOL     OW24469   2.433   4.097   7.134 -0.4026  0.1537 -0.1353
 4336SOL    HW124470   2.523   4.127   7.132 -0.3404 -0.0414 -0.3074
 4336SOL    HW224471   2.422   4.053   7.049 -1.3306 -0.5117  0.3293
 4337SOL     OW24472   1.651   3.102  13.525  0.0985  0.0475 -0.1327
 4337SOL    HW124473   1.590   3.176  13.516  1.7577  1.3081 -1.0223
 4337SOL    HW224474   1.620   3.057  13.603 -0.8799  1.0213  0.0478
 4338SOL     OW24475   0.038   4.287   4.052 -0.2279  0.8427  0.3669
 4338SOL    HW124476   4.722   4.238   4.123  1.4325  1.4764  1.7410
 4338SOL    HW224477   4.685   4.322   4.006 -1.0490 -0.0504  1.0605
 4339SOL     OW24478   0.204   3.996   3.109 -0.1616  1.0361 -0.2423
 4339SOL    HW124479   0.119   4.013   3.151  0.1790  0.8836  0.5194
 4339SOL    HW224480   0.235   4.087   3.108 -1.3306  1.4655  2.0742
 4340SOL     OW24481   1.005   3.883   8.500 -0.0707 -0.2737 -0.2787
 4340SOL    HW124482   0.982   3.935   8.422 -0.6773 -1.1108 -0.6517
 4340SOL    HW224483   0.942   3.812   8.502 -0.5547  0.1345 -1.0492
 4341SOL     OW24484   2.910   1.033   7.331 -0.0976 -0.2141  0.9006
 4341SOL    HW124485   2.892   1.032   7.237  1.2856  2.2698  0.6061
 4341SOL    HW224486   2.858   0.955   7.351 -3.4795  1.7372 -0.2012
 4342SOL     OW24487   1.118   4.542   4.490 -0.5737  0.3094 -0.6881
 4342SOL    HW124488   1.195   4.488   4.467 -0.9759 -0.2169 -0.8076
 4342SOL    HW224489   1.109   4.525   4.583  0.0218 -0.8744 -0.8423
 4343SOL     OW24490   3.990   0.652   3.769 -0.0670 -0.0712 -0.4321
 4343SOL    HW124491   4.022   0.638   3.858 -0.8835  0.0056 -0.1311
 4343SOL    HW224492   3.993   0.748   3.762 -2.5436 -0.0977 -1.7697
 4344SOL     OW24493   2.391   1.930   5.612  0.1959 -0.5944 -0.4505
 4344SOL    HW124494   2.408   1.854   5.667  0.7114 -0.5861 -0.5983
 4344SOL    HW224495   2.422   1.903   5.525  2.6308 -2.1239  0.8907
 4345SOL     OW24496   2.391   2.781  10.479  0.4811  0.1891  0.1076
 4345SOL    HW124497   2.321   2.832  10.519 -0.1809 -0.8256  0.2356
 4345SOL    HW224498   2.404   2.822  10.394 -0.5785 -0.4273 -0.3486
 4346SOL     OW24499   3.507   1.918  12.736  0.5182 -0.0730 -0.4353
 4346SOL    HW124500   3.447   1.976  12.690  1.4747 -2.0458 -4.1221
 4346SOL    HW224501   3.585   1.972  12.721  1.0968 -0.7455  0.1389
 4347SOL     OW24502   3.021   4.008   8.275  0.2544  0.7696 -0.2380
 4347SOL    HW124503   2.956   4.020   8.206  0.5740 -3.4371 -1.2655
 4347SOL    HW224504   3.102   4.020   8.225  2.1538  2.3579  3.2488
 4348SOL     OW24505   1.150   2.678   5.208  0.5024 -0.0233  0.2998
 4348SOL    HW124506   1.113   2.758   5.170  0.7669  0.4011  0.9455
 4348SOL    HW224507   1.218   2.708   5.268 -1.5106 -0.2890  2.7134
 4349SOL     OW24508   0.663   3.480  12.135  0.0080  0.4696  0.3386
 4349SOL    HW124509   0.750   3.511  12.108  0.2725 -1.3190 -0.8977
 4349SOL    HW224510   0.618   3.562  12.156  0.3045  0.6900  0.1218
 4350SOL     OW24511   1.355   3.210   2.870  0.1700  0.4500 -0.2979
 4350SOL    HW124512   1.272   3.163   2.869  0.6798 -0.4361 -1.5283
 4350SOL    HW224513   1.417   3.149   2.830  2.1515  2.2932  0.0088
 4351SOL     OW24514   0.333   3.079   8.224  0.2319 -0.1665  0.2760
 4351SOL    HW124515   0.404   3.094   8.162 -1.6137 -0.0934 -1.7935
 4351SOL    HW224516   0.261   3.064   8.164 -1.7427  1.4322  2.2381
 4352SOL     OW24517   1.903   0.877   4.932  0.4222 -0.1409 -0.2057
 4352SOL    HW124518   1.878   0.784   4.929  1.6511 -0.4624 -0.4318
 4352SOL    HW224519   1.997   0.864   4.937  0.3632  0.3879  2.2373
 4353SOL     OW24520   3.997   1.760  10.188  0.6566  0.2638 -0.0195
 4353SOL    HW124521   3.969   1.698  10.255  0.8311 -1.1560 -1.2657
 4353SOL    HW224522   3.921   1.818  10.179  1.2451  1.1380  0.4994
 4354SOL     OW24523   0.702   0.674  10.837 -0.3683 -0.0550  0.1602
 4354SOL    HW124524   0.660   0.711  10.759  3.0467  1.5834 -0.9221
 4354SOL    HW224525   0.692   0.750  10.894 -0.5706 -0.2484  0.3825
 4355SOL     OW24526   1.837   2.517   7.346 -0.2328  0.3251  0.0227
 4355SOL    HW124527   1.928   2.540   7.362 -0.0987 -0.6147  0.5979
 4355SOL    HW224528   1.815   2.571   7.270  2.3171  0.3433 -0.6908
 4356SOL     OW24529   2.379   2.836   2.151 -0.8285  0.0473  0.0564
 4356SOL    HW124530   2.297   2.866   2.112 -0.5483 -0.5573 -1.0031
 4356SOL    HW224531   2.440   2.907   2.131 -1.3119  0.6116  0.5999
 4357SOL     OW24532   3.039   0.806   3.377  0.0491  0.1342  0.1665
 4357SOL    HW124533   3.009   0.866   3.308  0.3913  0.5504  0.3827
 4357SOL    HW224534   3.022   0.862   3.452 -1.7920 -0.0122 -0.1314
 4358SOL     OW24535   1.853   2.966   9.988 -0.6514 -0.4432  0.3124
 4358SOL    HW124536   1.873   3.057  10.010 -1.3654  0.0397 -1.0802
 4358SOL    HW224537   1.870   2.919  10.070  0.4283 -2.0194 -0.8301
 4359SOL     OW24538   2.801   3.687   6.783  0.1977 -0.1034  0.3090
 4359SOL    HW124539   2.728   3.634   6.751 -1.1384  1.7140  0.3365
 4359SOL    HW224540   2.752   3.754   6.831 -0.7385 -1.4376  1.2305
 4360SOL     OW24541   0.306   1.364   4.015 -0.0643 -0.0317  0.2277
 4360SOL    HW124542   0.265   1.444   3.983  1.1455  0.2783 -0.5480
 4360SOL    HW224543   0.254   1.342   4.092  1.6013 -2.2342  0.7382
 4361SOL     OW24544   1.662   1.840  10.111  0.7036  0.8125  0.1400
 4361SOL    HW124545   1.654   1.766  10.170  1.0073  0.1143 -0.6864
 4361SOL    HW224546   1.624   1.797  10.035 -0.7118 -0.0734  1.3687
 4362SOL     OW24547   2.773   3.289   7.241  0.0324 -0.8516 -0.3359
 4362SOL    HW124548   2.814   3.204   7.228 -1.1196 -1.0413 -2.7002
 4362SOL    HW224549   2.679   3.284   7.228 -0.1530  1.9826 -0.1557
 4363SOL     OW24550   4.045   3.063   8.116 -0.2077 -0.2001 -0.4615
 4363SOL    HW124551   4.116   3.076   8.053  0.6185  1.7604  0.8845
 4363SOL    HW224552   4.096   3.070   8.197  0.9039  2.0131 -1.3404
 4364SOL     OW24553   3.005   2.512   0.745 -0.3911 -0.3557 -0.4722
 4364SOL    HW124554   2.940   2.492   0.813  0.5104  0.1752  0.5344
 4364SOL    HW224555   2.979   2.456   0.672 -0.1156 -0.1924 -0.6949
 4365SOL     OW24556   2.503   3.983  17.674  0.2640 -0.1982  0.4346
 4365SOL    HW124557   2.445   3.924  17.625  0.6439  0.4920 -0.8449
 4365SOL    HW224558   2.587   3.941  17.657 -0.5739 -0.9690 -1.9366
 4366SOL     OW24559   2.317   0.722   9.940 -0.8770  0.1066 -0.1603
 4366SOL    HW124560   2.307   0.756   9.851 -0.2005  1.1201  0.1448
 4366SOL    HW224561   2.396   0.669   9.931 -1.1016 -0.4179  0.9595
 4367SOL     OW24562   3.933   1.576  15.813 -0.1526 -0.2871  0.6861
 4367SOL    HW124563   3.878   1.538  15.744  0.4510  0.9938 -0.5112
 4367SOL    HW224564   3.937   1.668  15.789 -1.2657 -0.6263 -0.8017
 4368SOL     OW24565   4.429   0.625   4.748  0.3623 -0.1298  0.8275
 4368SOL    HW124566   4.345   0.587   4.775  0.7658  0.0702  2.3293
 4368SOL    HW224567   4.398   0.710   4.715  0.6910 -0.5732 -0.6467
 4369SOL     OW24568   0.726   0.160  17.409 -0.1284  0.2499  0.4916
 4369SOL    HW124569   0.659   0.173  17.343  0.8875 -0.0830 -0.6013
 4369SOL    HW224570   0.805   0.160  17.355  0.5594 -1.7639  1.4713
 4370SOL     OW24571   3.953   0.138   0.170  0.2052  0.4532  1.1369
 4370SOL    HW124572   3.965   0.218   0.221 -3.4539  0.3632  2.1599
 4370SOL    HW224573   3.904   0.161   0.091  0.3033 -1.3750  0.5254
 4371SOL     OW24574   4.432   3.170  12.040 -0.2105 -0.1057  0.1927
 4371SOL    HW124575   4.495   3.212  12.097 -2.0330  1.1296  1.2953
 4371SOL    HW224576   4.421   3.247  11.983  2.2563 -0.6026 -0.9713
 4372SOL     OW24577   0.366   3.051  17.219  0.8212 -0.0407  0.0721
 4372SOL    HW124578   0.385   2.960  17.244  0.3053 -0.1600  0.0306
 4372SOL    HW224579   0.444   3.074  17.170  0.2834  0.4879 -0.5245
 4373SOL     OW24580   1.418   1.728   3.479 -0.2025 -0.2498  0.6239
 4373SOL    HW124581   1.480   1.688   3.541  1.4046  3.1387  1.1817
 4373SOL    HW224582   1.451   1.677   3.404 -2.8980 -0.0940 -0.6525
 4374SOL     OW24583   1.593   1.731  16.419 -0.0927  0.8840  0.1976
 4374SOL    HW124584   1.544   1.767  16.346 -0.4875 -1.0334 -0.4815
 4374SOL    HW224585   1.517   1.693  16.461  0.0679  0.3956  0.0439
 4375SOL     OW24586   3.992   2.467   9.638  0.1588  0.0372 -0.2158
 4375SOL    HW124587   4.037   2.551   9.636 -0.7792  0.5524  0.2223
 4375SOL    HW224588   4.033   2.414   9.569 -0.2034 -0.8145  0.2215
 4376SOL     OW24589   2.597   1.085  14.376 -0.3243  0.4903  0.1890
 4376SOL    HW124590   2.671   1.145  14.389  0.2986 -0.0284 -0.9986
 4376SOL    HW224591   2.594   1.076  14.280 -0.7884 -0.1125  0.2619
 4377SOL     OW24592   2.102   3.385   5.582  0.5734 -0.1551 -0.1190
 4377SOL    HW124593   2.177   3.421   5.629  1.7546 -1.8885 -0.6810
 4377SOL    HW224594   2.037   3.450   5.607  1.6231  0.3958  1.1761
 4378SOL     OW24595   3.288   4.136   1.578 -0.6213  0.3407  0.1286
 4378SOL    HW124596   3.325   4.157   1.664  2.7095 -0.1001 -1.2240
 4378SOL    HW224597   3.318   4.046   1.570  0.2528  0.4685  1.9548
 4379SOL     OW24598   0.923   2.581   7.006  0.1903 -0.7600  0.5535
 4379SOL    HW124599   0.989   2.576   6.937 -0.3241  2.9197 -0.2027
 4379SOL    HW224600   0.978   2.563   7.082  1.2793  1.0414  0.1982
 4380SOL     OW24601   1.964   3.187  12.373 -0.6868  0.3025 -0.2939
 4380SOL    HW124602   1.974   3.268  12.424  1.7373 -0.9800  1.2244
 4380SOL    HW224603   1.903   3.216  12.305  0.4850 -1.2797 -2.0071
 4381SOL     OW24604   3.645   0.846   7.441 -0.5530  0.6409  0.1192
 4381SOL    HW124605   3.642   0.920   7.503  0.5894  0.0097  0.9283
 4381SOL    HW224606   3.550   0.845   7.435 -0.5855  1.0927  0.5462
 4382SOL     OW24607   1.004   3.555   6.968 -0.0031  0.8248  0.3898
 4382SOL    HW124608   1.099   3.564   6.977  0.2112 -1.1357  0.0932
 4382SOL    HW224609   0.957   3.565   7.051 -1.0872 -1.4203  0.0486
 4383SOL     OW24610   0.924   1.356  10.067 -0.4849  0.1385  0.5942
 4383SOL    HW124611   0.973   1.372  10.148  0.0460  0.0463  0.2876
 4383SOL    HW224612   0.851   1.416  10.080 -1.4625 -1.0827  0.7869
 4384SOL     OW24613   4.483   2.961   2.412 -0.2358  0.0407  0.0138
 4384SOL    HW124614   4.444   3.009   2.485  0.5661  2.2212 -0.9938
 4384SOL    HW224615   4.523   2.880   2.445 -2.0700 -1.7570 -2.1993
 4385SOL     OW24616   2.042   2.735   1.455  0.1585 -0.7861 -0.2219
 4385SOL    HW124617   1.966   2.678   1.446 -2.0230  2.4683 -2.0599
 4385SOL    HW224618   2.107   2.688   1.402  1.2487 -0.5025  0.8633
 4386SOL     OW24619   1.719   1.810   8.040  0.9881 -0.3416 -0.0219
 4386SOL    HW124620   1.639   1.772   8.003 -0.7493  1.6545  1.6883
 4386SOL    HW224621   1.687   1.851   8.121  1.3490 -2.0719  0.9959
 4387SOL     OW24622   2.411   1.494  11.084  0.4234 -0.4548 -0.2496
 4387SOL    HW124623   2.423   1.408  11.043 -0.5572  0.1913 -1.9337
 4387SOL    HW224624   2.342   1.518  11.021  0.7747 -4.5673 -2.1665
 4388SOL     OW24625   1.302   4.175   1.432 -0.0819 -0.3924 -0.8606
 4388SOL    HW124626   1.310   4.211   1.344  1.1735  0.5187 -0.3837
 4388SOL    HW224627   1.388   4.137   1.452 -0.0537 -0.3506 -0.9008
 4389SOL     OW24628   0.298   4.117  12.105  0.3465 -0.1610  0.1415
 4389SOL    HW124629   0.273   4.172  12.030  0.2684  1.1055  1.0975
 4389SOL    HW224630   0.218   4.109  12.156 -0.0491  1.0914 -0.2699
 4390SOL     OW24631   0.931   1.997   8.017 -0.4117  0.4946  0.1018
 4390SOL    HW124632   0.935   2.071   8.077  0.5719 -0.7383  1.5479
 4390SOL    HW224633   0.856   2.032   7.967 -1.1179  0.1766  0.9465
 4391SOL     OW24634   1.454   2.202  14.004  0.2837  0.9430 -0.1153
 4391SOL    HW124635   1.460   2.121  13.953  0.3903  0.8994 -0.0321
 4391SOL    HW224636   1.536   2.242  13.974  0.8668 -0.2072 -0.0916
 4392SOL     OW24637   1.203   1.943   6.024 -0.9449 -0.4052 -0.5071
 4392SOL    HW124638   1.252   2.004   5.968 -0.8422  0.4365  0.4923
 4392SOL    HW224639   1.129   1.921   5.967  0.0676  1.3695 -2.5145
 4393SOL     OW24640   4.097   3.887   4.780  0.6337 -0.3490 -0.0352
 4393SOL    HW124641   4.187   3.898   4.751  1.0866 -2.0510  0.6967
 4393SOL    HW224642   4.055   3.970   4.758  1.2008 -0.1673 -0.4248
 4394SOL     OW24643   4.186   0.928   1.180  0.0157 -0.1557  0.2884
 4394SOL    HW124644   4.213   0.927   1.272 -1.4854 -0.6169  0.7189
 4394SOL    HW224645   4.180   0.833   1.166  1.8612 -0.0356 -1.3784
 4395SOL     OW24646   2.389   3.150  16.164 -0.7163 -0.4850 -0.1089
 4395SOL    HW124647   2.450   3.083  16.194  0.4677  0.3584 -0.6250
 4395SOL    HW224648   2.386   3.130  16.071 -0.0512 -2.9527  0.4234
 4396SOL     OW24649   3.440   1.534  15.487  0.0318  0.0400  0.3194
 4396SOL    HW124650   3.364   1.476  15.472 -1.9547  2.5400  0.7800
 4396SOL    HW224651   3.412   1.610  15.437  0.1271  0.3204  0.6963
 4397SOL     OW24652   1.597   0.427   6.220 -0.0155 -0.2633 -0.0325
 4397SOL    HW124653   1.577   0.506   6.170  1.3385 -1.0057 -1.7386
 4397SOL    HW224654   1.692   0.420   6.224  0.0106  0.6020  0.9137
 4398SOL     OW24655   1.304   3.998   3.257 -0.1992  0.0020  0.0560
 4398SOL    HW124656   1.289   3.915   3.213  1.7252  0.0106 -0.6136
 4398SOL    HW224657   1.349   4.044   3.186 -0.0346 -1.9598 -1.1116
 4399SOL     OW24658   2.468   2.839   9.738 -0.1738  0.3436  0.0227
 4399SOL    HW124659   2.435   2.762   9.783  1.0911 -0.3998 -0.3269
 4399SOL    HW224660   2.524   2.810   9.666  0.9262 -0.8670  1.3658
 4400SOL     OW24661   1.133   1.063   8.967 -0.6541  0.3111  0.1167
 4400SOL    HW124662   1.147   1.154   8.941 -0.4804  0.4502  0.6913
 4400SOL    HW224663   1.113   1.012   8.889  0.8653 -0.5929  0.3067
 4401SOL     OW24664   2.527   1.257   1.861  0.0901  0.3800  0.0486
 4401SOL    HW124665   2.491   1.190   1.919  1.2244 -1.5852 -1.5004
 4401SOL    HW224666   2.587   1.208   1.804 -0.9671 -1.7489  0.7768
 4402SOL     OW24667   2.812   3.293   0.556 -0.2775  0.1300 -0.9466
 4402SOL    HW124668   2.787   3.362   0.495  1.5966  1.1268 -0.5857
 4402SOL    HW224669   2.894   3.263   0.517 -0.0219 -1.7726  1.0069
 4403SOL     OW24670   0.319   1.215   5.520  0.0550  0.2030  0.1764
 4403SOL    HW124671   0.240   1.164   5.538  0.3219 -0.4703 -0.5758
 4403SOL    HW224672   0.311   1.225   5.426  0.3750  0.8717  0.2202
 4404SOL     OW24673   0.550   0.636  13.712 -0.6665  0.0437  0.2861
 4404SOL    HW124674   0.492   0.673  13.778 -1.8793  1.0265 -1.3437
 4404SOL    HW224675   0.581   0.552  13.747  2.1283 -0.3337 -3.1535
 4405SOL     OW24676   3.196   0.175   4.414  0.1596  0.0918 -0.0096
 4405SOL    HW124677   3.128   0.117   4.448 -0.4241  0.1218 -1.1287
 4405SOL    HW224678   3.165   0.199   4.327  1.9656 -1.5806 -1.1005
 4406SOL     OW24679   4.079   2.941   5.220 -0.5805 -0.8735  0.1621
 4406SOL    HW124680   4.166   2.905   5.204  1.3040  3.7418 -0.0375
 4406SOL    HW224681   4.105   3.024   5.260 -4.6864 -0.9309  2.9679
 4407SOL     OW24682   4.072   1.606   6.486  0.1331  0.8674 -0.2804
 4407SOL    HW124683   4.119   1.559   6.555  1.5560  0.4338 -1.5282
 4407SOL    HW224684   4.027   1.531   6.447  0.2871  0.2859  0.6435
 4408SOL     OW24685   0.293   0.849   1.491  0.1432 -0.3796  1.0341
 4408SOL    HW124686   0.385   0.873   1.485 -0.8131  3.2581  0.9835
 4408SOL    HW224687   0.267   0.843   1.399 -1.3764 -0.9142  1.4885
 4409SOL     OW24688   1.128   2.189   4.676 -0.1670  0.1673  1.2854
 4409SOL    HW124689   1.053   2.134   4.656  0.8645 -1.4728  1.9835
 4409SOL    HW224690   1.167   2.186   4.589  0.5211  1.6411  1.5314
 4410SOL     OW24691   1.708   2.776   2.670 -0.1351  0.0190  0.2030
 4410SOL    HW124692   1.712   2.691   2.626 -1.9248  0.5246 -0.9068
 4410SOL    HW224693   1.655   2.824   2.607 -3.3281 -2.5111  0.9587
 4411SOL     OW24694   4.027   2.687  11.029  0.0099  0.2958 -0.6176
 4411SOL    HW124695   3.931   2.679  11.027 -0.0610  0.7575  1.2062
 4411SOL    HW224696   4.031   2.698  11.124 -1.8893  1.8025 -0.6881
 4412SOL     OW24697   4.275   4.280   6.900 -0.3393  0.3476  0.0218
 4412SOL    HW124698   4.213   4.207   6.908  0.4608 -0.1722  1.5813
 4412SOL    HW224699   4.225   4.332   6.838 -2.0117 -0.5337  0.6237
 4413SOL     OW24700   2.695   4.484  11.622 -0.2227 -0.3263 -0.0820
 4413SOL    HW124701   2.690   4.559  11.681  2.6611 -1.0519  1.0820
 4413SOL    HW224702   2.780   4.480  11.579 -1.0090 -0.2988 -1.6350
 4414SOL     OW24703   3.735   4.388  10.843  0.2307  0.3511 -0.1390
 4414SOL    HW124704   3.667   4.424  10.901  1.9844  0.1213  2.0936
 4414SOL    HW224705   3.806   4.444  10.875  0.7631 -0.7522  0.6195
 4415SOL     OW24706   1.288   0.966   4.096  0.7292  0.1997 -0.0856
 4415SOL    HW124707   1.321   0.920   4.173  1.4106  1.0153  0.1100
 4415SOL    HW224708   1.240   1.039   4.134 -2.8437 -0.7030 -2.8483
 4416SOL     OW24709   0.324   0.352   3.366 -0.5199 -0.2785 -0.3235
 4416SOL    HW124710   0.347   0.264   3.338  0.8893 -1.0596  3.3214
 4416SOL    HW224711   0.398   0.380   3.420 -0.3092 -0.4936 -0.5030
 4417SOL     OW24712   3.388   3.874   7.447  0.2473  0.5021 -0.3018
 4417SOL    HW124713   3.395   3.952   7.391 -1.0114  0.5831 -0.3382
 4417SOL    HW224714   3.475   3.837   7.433 -0.1545 -0.1533 -1.0454
 4418SOL     OW24715   2.316   3.285  13.276 -0.5182  0.8716  0.0133
 4418SOL    HW124716   2.239   3.287  13.332 -2.2455 -0.8432 -2.3130
 4418SOL    HW224717   2.357   3.370  13.294 -0.2870  0.2890  2.3298
 4419SOL     OW24718   1.679   2.808   1.941  0.7783 -0.3731  0.0780
 4419SOL    HW124719   1.713   2.845   2.023  0.2053 -0.3614  0.3089
 4419SOL    HW224720   1.634   2.891   1.922  2.2302  0.3365 -0.2685
 4420SOL     OW24721   4.378   0.784   4.112  0.1068 -0.5097  0.3679
 4420SOL    HW124722   4.429   0.733   4.174  0.4201  1.6560  1.9087
 4420SOL    HW224723   4.294   0.791   4.157  1.1301  1.9992  1.8810
 4421SOL     OW24724   4.115   1.292   8.743  0.0380  0.2420  0.3141
 4421SOL    HW124725   4.041   1.290   8.681 -1.3213 -1.4324  2.0009
 4421SOL    HW224726   4.190   1.310   8.686 -0.6181 -0.7569 -0.8829
 4422SOL     OW24727   0.314   3.779   2.647 -0.2266 -0.1394  0.3885
 4422SOL    HW124728   0.291   3.786   2.554  0.3653  1.3295  0.3549
 4422SOL    HW224729   0.235   3.817   2.685  0.8597 -0.0086  2.5229
 4423SOL     OW24730   1.500   3.876   9.261 -0.1392  0.4041 -0.0823
 4423SOL    HW124731   1.553   3.886   9.340  0.2334  1.7375 -0.5017
 4423SOL    HW224732   1.519   3.955   9.211  0.7806  0.0294 -0.3153
 4424SOL     OW24733   1.323   0.709   3.705 -0.2775  0.4511 -0.7824
 4424SOL    HW124734   1.289   0.621   3.692  1.1620 -0.3652  0.9449
 4424SOL    HW224735   1.269   0.740   3.778  1.6722  1.7130  0.1543
 4425SOL     OW24736   1.998   3.109  17.540  0.1734 -0.2355  0.3470
 4425SOL    HW124737   1.991   3.018  17.512 -0.1502  0.6431 -2.4123
 4425SOL    HW224738   1.910   3.138  17.515  0.7516 -0.2685 -1.7295
 4426SOL     OW24739   3.354   1.556   1.415  0.0099  0.1219  0.2352
 4426SOL    HW124740   3.344   1.632   1.358 -1.9632  2.2382  3.3524
 4426SOL    HW224741   3.444   1.525   1.401 -0.1860  0.1253 -0.9912
 4427SOL     OW24742   0.254   1.466  12.885 -0.1975  0.0007  0.1785
 4427SOL    HW124743   0.200   1.498  12.958 -0.3642 -1.0995  0.5311
 4427SOL    HW224744   0.343   1.498  12.899 -0.3233 -0.8238  2.8798
 4428SOL     OW24745   0.629   0.873   9.001 -0.2303  0.0785  0.4706
 4428SOL    HW124746   0.645   0.780   9.017  0.6789  0.0496 -0.6692
 4428SOL    HW224747   0.650   0.911   9.087 -0.5533  0.8954  0.1903
 4429SOL     OW24748   2.271   1.866  11.224  0.2359 -0.1550  0.3293
 4429SOL    HW124749   2.217   1.842  11.149  2.2986 -1.3760 -0.7527
 4429SOL    HW224750   2.340   1.800  11.223  0.3367 -0.0136 -1.5918
 4430SOL     OW24751   0.771   0.757  13.288  0.0290 -0.0771 -0.0609
 4430SOL    HW124752   0.676   0.760  13.275  0.0072 -1.0156 -0.1299
 4430SOL    HW224753   0.792   0.672  13.326 -2.4508 -1.1774 -1.1599
 4431SOL     OW24754   2.804   1.892   5.860  0.3429 -0.2157  0.1193
 4431SOL    HW124755   2.733   1.839   5.823 -0.0384  0.0754  0.4370
 4431SOL    HW224756   2.882   1.841   5.840 -1.7984 -2.4154 -2.7598
 4432SOL     OW24757   2.130   4.712   6.069  0.3619  0.4027  0.9199
 4432SOL    HW124758   2.213   4.677   6.035  1.1369  3.7294 -0.6185
 4432SOL    HW224759   2.127   0.059   6.005  1.9686  0.4109  0.8413
 4433SOL     OW24760   2.098   3.816   0.913 -0.0021 -0.6229  0.1527
 4433SOL    HW124761   2.072   3.735   0.870  2.6095 -0.6312 -1.4191
 4433SOL    HW224762   2.089   3.799   1.007  0.8220  1.5754  0.6326
 4434SOL     OW24763   0.075   3.786   7.545  0.4822  0.4395  0.0163
 4434SOL    HW124764   4.708   3.762   7.528  1.1379 -1.4672 -0.8919
 4434SOL    HW224765   0.088   3.872   7.505  0.8378  0.8972  1.1296
 4435SOL     OW24766   3.499   3.695   6.720 -0.1641 -0.2539 -0.4185
 4435SOL    HW124767   3.452   3.749   6.657  0.5583  0.4567 -0.3505
 4435SOL    HW224768   3.591   3.695   6.694 -0.5477  4.4475 -1.6979
 4436SOL     OW24769   3.266   3.668  10.275 -0.2541 -0.6689  0.1975
 4436SOL    HW124770   3.223   3.634  10.353 -0.4158 -0.3089  0.2658
 4436SOL    HW224771   3.229   3.616  10.203 -2.2387 -0.4783  1.0699
 4437SOL     OW24772   1.933   3.918   7.713 -0.0704 -0.3732 -0.3663
 4437SOL    HW124773   1.925   3.889   7.804  1.6458 -1.6658 -0.6290
 4437SOL    HW224774   1.895   3.847   7.662 -1.5438 -0.1312  0.3994
 4438SOL     OW24775   0.892   3.092   4.724  0.0013  0.0937 -0.2804
 4438SOL    HW124776   0.867   3.025   4.660 -0.0157 -1.5149  1.3820
 4438SOL    HW224777   0.825   3.158   4.704  0.3127  1.1798  2.1804
 4439SOL     OW24778   3.826   1.323   7.261 -0.1613  0.8108  0.2372
 4439SOL    HW124779   3.895   1.390   7.266 -1.1489  1.6280  2.7609
 4439SOL    HW224780   3.750   1.369   7.297 -1.8369 -1.5572 -0.2301
 4440SOL     OW24781   3.591   0.244  12.560  0.8317 -0.2426 -0.0572
 4440SOL    HW124782   3.516   0.271  12.613 -1.0557 -2.0088 -1.8185
 4440SOL    HW224783   3.552   0.170  12.513 -0.5851  0.1497  0.4894
 4441SOL     OW24784   3.398   2.664   6.876 -0.4515  0.0004 -0.2089
 4441SOL    HW124785   3.335   2.734   6.891 -0.0776  0.3526 -0.2594
 4441SOL    HW224786   3.414   2.684   6.784  3.3896  0.8260  0.6247
 4442SOL     OW24787   3.844   0.186  12.955 -0.0334  0.5052 -0.6323
 4442SOL    HW124788   3.763   0.222  12.991  0.9543  2.4350 -0.2969
 4442SOL    HW224789   3.888   0.262  12.915  1.8159  0.6618  1.7190
 4443SOL     OW24790   1.722   1.820   4.787  0.5806 -0.3089 -0.0130
 4443SOL    HW124791   1.740   1.912   4.765  2.5796 -0.3848  1.2664
 4443SOL    HW224792   1.813   1.792   4.801  1.1768  1.3151 -0.6048
 4444SOL     OW24793   4.100   3.968   2.806  0.1862  0.4550  0.0364
 4444SOL    HW124794   4.072   4.015   2.885 -1.6904  1.0537 -0.9859
 4444SOL    HW224795   4.186   3.935   2.833 -0.8379 -3.2887 -1.3372
 4445SOL     OW24796   2.342   3.441  15.484 -0.1586 -0.4192  0.5103
 4445SOL    HW124797   2.379   3.367  15.436 -0.1135 -0.4174  0.5424
 4445SOL    HW224798   2.283   3.390  15.540  1.0772 -3.4399 -0.9552
 4446SOL     OW24799   2.940   3.482  13.225 -0.4826  0.0738  0.3997
 4446SOL    HW124800   3.030   3.465  13.255 -0.2797  0.5372  0.0658
 4446SOL    HW224801   2.961   3.516  13.138 -1.4378  2.1365  0.9685
 4447SOL     OW24802   0.923   1.868   8.704  0.1053  0.0298 -0.2738
 4447SOL    HW124803   0.929   1.844   8.796  0.3573 -0.6950 -0.4810
 4447SOL    HW224804   0.919   1.783   8.660 -1.4178  0.0714 -0.2295
 4448SOL     OW24805   0.809   4.118   2.402  0.1471 -0.4963  0.1920
 4448SOL    HW124806   0.729   4.087   2.444  0.6959 -2.1802  0.0063
 4448SOL    HW224807   0.859   4.037   2.416  2.0709  0.7377  0.5331
 4449SOL     OW24808   2.035   0.930   5.881  0.1092 -0.3334 -0.1320
 4449SOL    HW124809   2.033   0.961   5.790  2.7387  1.1098  0.2893
 4449SOL    HW224810   1.945   0.945   5.908  0.2647  0.4846 -0.0782
 4450SOL     OW24811   0.568   3.073  17.035  0.0020  0.1328 -0.3458
 4450SOL    HW124812   0.559   2.979  17.022 -0.4879  0.2919 -1.1370
 4450SOL    HW224813   0.641   3.104  16.982 -1.3234  2.1968 -0.9869
 4451SOL     OW24814   1.524   1.871   6.147 -0.1320  0.0291 -0.0250
 4451SOL    HW124815   1.612   1.880   6.112  0.0960  0.5460  0.6946
 4451SOL    HW224816   1.518   1.957   6.189  0.7986  0.0860 -0.0130
 4452SOL     OW24817   2.703   1.248   6.025  0.1315 -0.4853  0.2285
 4452SOL    HW124818   2.615   1.222   5.996  0.0199  0.3489 -0.1689
 4452SOL    HW224819   2.739   1.254   5.937  1.2796 -0.0095  0.7328
 4453SOL     OW24820   0.462   0.579   5.459  0.2398  0.2053  0.3534
 4453SOL    HW124821   0.523   0.510   5.485 -1.9334 -1.3441  1.4041
 4453SOL    HW224822   0.481   0.642   5.528  1.6658  0.2719 -0.1164
 4454SOL     OW24823   3.544   1.411  11.990 -0.5198 -0.9356  0.3145
 4454SOL    HW124824   3.597   1.356  11.932  0.1550  0.1447 -0.0782
 4454SOL    HW224825   3.588   1.416  12.074 -0.2396  0.5167  0.0722
 4455SOL     OW24826   4.232   3.409   7.756  0.2925 -0.4181 -0.2948
 4455SOL    HW124827   4.151   3.372   7.721  0.4282 -0.9336 -0.0589
 4455SOL    HW224828   4.213   3.503   7.754  0.9823 -0.2714 -0.1269
 4456SOL     OW24829   1.355   4.657   7.743  0.2350 -0.5858  0.2307
 4456SOL    HW124830   1.356   4.562   7.752 -1.6110 -0.5585  0.7011
 4456SOL    HW224831   1.268   4.677   7.710 -0.6401 -0.8831  2.3280
 4457SOL     OW24832   3.866   2.534  17.659 -0.2496 -0.0593  0.7511
 4457SOL    HW124833   3.890   2.522   0.055 -1.2860 -1.9377  0.7823
 4457SOL    HW224834   3.901   2.620  17.635  0.2854 -0.6388 -0.5320
 4458SOL     OW24835   3.752   3.678  11.916 -0.2747 -0.1972  0.3060
 4458SOL    HW124836   3.807   3.688  11.994  0.1506  0.5697 -0.0961
 4458SOL    HW224837   3.669   3.698  11.958  0.5575  1.6715  1.0488
 4459SOL     OW24838   0.853   2.518   8.666  0.1583 -0.7749  0.3013
 4459SOL    HW124839   0.768   2.521   8.623 -0.8944  0.4477  2.4640
 4459SOL    HW224840   0.877   2.610   8.652  0.8159 -0.9640  0.1930
 4460SOL     OW24841   4.471   2.170  15.928  0.7334  0.2076  0.1100
 4460SOL    HW124842   4.399   2.148  15.868 -0.7158  0.4297  1.7625
 4460SOL    HW224843   4.543   2.130  15.879  0.7199 -0.3387  0.5325
 4461SOL     OW24844   2.639   1.008  16.429  0.3011  0.7081 -0.0963
 4461SOL    HW124845   2.604   0.920  16.417  1.0179  0.3669  0.2800
 4461SOL    HW224846   2.596   1.035  16.510 -0.7524 -2.1477  0.2757
 4462SOL     OW24847   4.466   0.338  14.909  0.3887  0.0866 -0.1892
 4462SOL    HW124848   4.395   0.401  14.895  1.6152  1.7535  1.1052
 4462SOL    HW224849   4.459   0.312  15.001 -0.0816  1.1268  0.0627
 4463SOL     OW24850   2.152   4.549   8.228  0.3297 -0.0627 -0.1256
 4463SOL    HW124851   2.219   4.526   8.292  0.0694  0.8859  0.4936
 4463SOL    HW224852   2.166   4.486   8.158  0.9544  1.2864 -1.2301
 4464SOL     OW24853   1.236   1.544   1.916  0.5080 -0.3368 -0.6216
 4464SOL    HW124854   1.192   1.463   1.940 -0.3990  0.6452  1.0891
 4464SOL    HW224855   1.322   1.534   1.956 -0.8614 -1.4410  1.9911
 4465SOL     OW24856   3.731   0.475  12.039 -0.2140 -0.5182 -0.1932
 4465SOL    HW124857   3.697   0.421  12.110 -1.0579 -1.5585 -1.3896
 4465SOL    HW224858   3.813   0.498  12.084 -0.7564 -0.9379  1.0030
 4466SOL     OW24859   1.251   0.562   3.299  0.2167  0.2711 -0.2154
 4466SOL    HW124860   1.171   0.544   3.250  0.6926  1.0514 -1.2844
 4466SOL    HW224861   1.235   0.523   3.385  0.7647 -3.4044 -1.8070
 4467SOL     OW24862   3.627   3.651  10.327  0.2236 -0.0618 -0.2085
 4467SOL    HW124863   3.549   3.598  10.309  0.7451 -1.5099  1.7492
 4467SOL    HW224864   3.615   3.729  10.273  0.8652 -0.3213 -0.7413
 4468SOL     OW24865   2.417   0.268   8.481 -0.4714 -1.1205  0.0607
 4468SOL    HW124866   2.437   0.305   8.394  1.9591 -0.9457  0.6751
 4468SOL    HW224867   2.487   0.317   8.525  0.1761 -0.2615 -1.9029
 4469SOL     OW24868   3.412   1.775  14.956  0.0604 -0.1883  0.0919
 4469SOL    HW124869   3.320   1.760  14.977  0.2519  1.4416  2.0595
 4469SOL    HW224870   3.456   1.698  14.993 -0.7306 -0.2099  0.9798
 4470SOL     OW24871   1.265   1.542  10.569 -0.2845 -0.8970 -0.0042
 4470SOL    HW124872   1.322   1.618  10.577 -0.4601 -0.5835 -1.6656
 4470SOL    HW224873   1.331   1.479  10.598  0.6932 -0.5935 -1.6282
 4471SOL     OW24874   0.489   4.074  13.404  0.2744 -0.1878  0.2322
 4471SOL    HW124875   0.482   4.126  13.485 -0.1539  1.9326 -1.1567
 4471SOL    HW224876   0.469   4.132  13.330 -1.5886 -1.2242 -0.0740
 4472SOL     OW24877   2.983   0.859  12.161 -0.2065 -0.3111 -0.2458
 4472SOL    HW124878   3.076   0.848  12.182 -0.0524  1.3744 -0.0694
 4472SOL    HW224879   2.947   0.775  12.190  0.0579 -0.6310 -0.8339
 4473SOL     OW24880   2.821   1.996   2.832  0.1060 -0.5310  0.1947
 4473SOL    HW124881   2.889   1.997   2.765  0.8460  1.0885  0.9591
 4473SOL    HW224882   2.861   2.040   2.907 -2.3044  0.7214  0.7635
 4474SOL     OW24883   2.356   1.091   7.526 -0.6093  0.3985  0.2179
 4474SOL    HW124884   2.388   1.071   7.438  1.3488  1.8060  0.6193
 4474SOL    HW224885   2.263   1.065   7.523  0.2169 -2.0098 -4.1155
 4475SOL     OW24886   1.435   0.614   6.055 -0.6755 -0.0094 -0.4931
 4475SOL    HW124887   1.499   0.681   6.031  1.1212 -1.1285  1.1791
 4475SOL    HW224888   1.404   0.584   5.969 -1.1174  0.4911 -0.5091
 4476SOL     OW24889   3.096   0.084   5.759  0.1562 -0.0266  0.2747
 4476SOL    HW124890   3.013   0.059   5.799 -1.9053 -1.0770 -4.6000
 4476SOL    HW224891   3.081   0.177   5.740  0.8309  0.1702  0.7189
 4477SOL     OW24892   3.115   1.607  12.636 -0.2144  0.3342  0.0788
 4477SOL    HW124893   3.027   1.620  12.673 -0.9948  0.5088 -1.8022
 4477SOL    HW224894   3.171   1.632  12.709 -0.4263  1.5022 -0.1525
 4478SOL     OW24895   1.088   2.470   8.015  0.2310 -0.5283 -0.1564
 4478SOL    HW124896   1.061   2.551   7.972 -0.3516  0.7214  2.5562
 4478SOL    HW224897   1.082   2.408   7.942  1.9280 -1.4249  0.4651
 4479SOL     OW24898   1.064   1.930   4.266 -0.0014 -0.5444 -0.0506
 4479SOL    HW124899   0.976   1.920   4.304  0.2200 -1.4742  0.1987
 4479SOL    HW224900   1.040   2.002   4.207  2.7896  0.7020  0.3699
 4480SOL     OW24901   0.216   4.038   6.498 -0.1624  0.2412 -0.0712
 4480SOL    HW124902   0.229   3.952   6.457 -0.3420 -0.4851  1.4125
 4480SOL    HW224903   0.169   4.078   6.425 -0.1640  1.8300  0.8148
 4481SOL     OW24904   2.431   1.453   8.417  0.3397  0.2438  0.8161
 4481SOL    HW124905   2.505   1.414   8.463  0.9135 -0.5734 -0.7645
 4481SOL    HW224906   2.482   1.485   8.342 -1.3963  1.4939  0.1649
 4482SOL     OW24907   2.805   2.596   7.239 -0.1684  0.3306 -0.3062
 4482SOL    HW124908   2.743   2.554   7.298  0.7814  0.0639  0.5019
 4482SOL    HW224909   2.793   2.690   7.254  1.2529  1.1326 -4.2634
 4483SOL     OW24910   0.404   0.467   7.995  0.4819 -0.4200 -0.4785
 4483SOL    HW124911   0.497   0.474   7.971  1.0833 -0.0395  1.9999
 4483SOL    HW224912   0.383   0.552   7.955 -1.3021 -1.2065 -1.1712
 4484SOL     OW24913   3.248   2.688   7.942 -0.1113 -0.0341  0.8529
 4484SOL    HW124914   3.331   2.735   7.938  0.7971 -1.8989 -1.8217
 4484SOL    HW224915   3.268   2.596   7.954 -1.7785 -0.7436 -1.9382
 4485SOL     OW24916   4.450   1.699   9.710 -0.0562  0.2328  0.1598
 4485SOL    HW124917   4.484   1.686   9.799 -1.6191  0.4842  0.7843
 4485SOL    HW224918   4.520   1.738   9.658  0.1679 -1.8716 -1.1051
 4486SOL     OW24919   2.810   2.036   2.480 -0.1640  0.6893 -0.4380
 4486SOL    HW124920   2.836   2.083   2.401  1.6107  0.2674 -0.0957
 4486SOL    HW224921   2.760   2.108   2.520 -1.0089  0.3485 -0.8908
 4487SOL     OW24922   2.811   1.453   5.269 -0.1247 -0.1482 -0.0578
 4487SOL    HW124923   2.764   1.536   5.280  0.7791  0.6040 -1.7690
 4487SOL    HW224924   2.898   1.476   5.301  1.1545 -2.0477 -2.1369
 4488SOL     OW24925   1.489   3.242   8.437 -0.1195  0.5347 -0.0181
 4488SOL    HW124926   1.450   3.228   8.523  0.8493 -2.1994 -0.0207
 4488SOL    HW224927   1.557   3.305   8.458 -1.8437  2.4898 -0.3418
 4489SOL     OW24928   0.095   0.920   8.909  0.5666 -0.0039  0.1696
 4489SOL    HW124929   0.188   0.902   8.916  0.0875 -2.3015  0.4740
 4489SOL    HW224930   0.097   1.012   8.881  1.1252 -0.5736 -1.6494
 4490SOL     OW24931   2.844   2.162  15.907  0.4797  0.5688  0.5279
 4490SOL    HW124932   2.826   2.230  15.843  1.8787  0.3402 -0.1108
 4490SOL    HW224933   2.794   2.088  15.873  3.3037 -1.4363  0.7207
 4491SOL     OW24934   1.233   2.209  16.764 -0.3707 -0.3906  0.3773
 4491SOL    HW124935   1.242   2.145  16.836  1.5514  1.9048  2.1836
 4491SOL    HW224936   1.209   2.283  16.820  0.1824  0.6416 -0.7727
 4492SOL     OW24937   1.606   4.268  16.277  0.4027  0.1582  0.2615
 4492SOL    HW124938   1.692   4.248  16.241  0.5026 -0.4701  0.8619
 4492SOL    HW224939   1.616   4.210  16.352 -0.9536  1.2156  1.2646
 4493SOL     OW24940   3.849   4.700   6.427  0.0614  0.0927  0.2246
 4493SOL    HW124941   3.864   0.039   6.356  1.2856 -0.5652 -0.1103
 4493SOL    HW224942   3.805   0.029   6.493  0.6019 -1.9515  2.2109
 4494SOL     OW24943   4.603   1.976   5.435  0.2201  0.0571 -0.5507
 4494SOL    HW124944   4.651   1.893   5.430  2.6637  1.4146  0.2458
 4494SOL    HW224945   4.599   2.005   5.344  0.2481 -1.2707 -0.9769
 4495SOL     OW24946   3.981   0.083  14.218  0.1011 -0.3374 -0.2476
 4495SOL    HW124947   3.979   0.168  14.262 -0.1141 -0.5567  0.1567
 4495SOL    HW224948   4.038   0.043  14.284  0.3212  0.8544  0.2788
 4496SOL     OW24949   2.903   3.163   7.815  1.0204 -0.4580 -0.4706
 4496SOL    HW124950   2.808   3.158   7.827  1.0234 -2.3602 -1.2556
 4496SOL    HW224951   2.944   3.106   7.880  0.1255  0.3179  0.7863
 4497SOL     OW24952   3.056   2.379   1.390 -0.2278 -0.4524 -0.6184
 4497SOL    HW124953   3.151   2.386   1.403 -0.6754 -0.3124  2.5424
 4497SOL    HW224954   3.049   2.288   1.420  0.5206 -0.5980 -0.8870
 4498SOL     OW24955   4.334   1.166   8.883 -0.1194 -0.1713  0.0173
 4498SOL    HW124956   4.334   1.146   8.976 -1.1629  1.0575  0.2811
 4498SOL    HW224957   4.240   1.160   8.865 -0.5200  0.3761  1.9825
 4499SOL     OW24958   3.892   3.697   5.496  0.0830 -0.0736  0.1966
 4499SOL    HW124959   3.962   3.693   5.561 -0.7993  0.7017  1.2085
 4499SOL    HW224960   3.919   3.773   5.444  0.2495  0.4336  1.0275
 4500SOL     OW24961   3.987   2.788  17.661  0.2816 -0.2376 -0.2882
 4500SOL    HW124962   4.005   2.791   0.059  0.5367 -0.0323 -0.3419
 4500SOL    HW224963   4.017   2.874  17.631  1.7443  0.3036  2.7929
 4501SOL     OW24964   4.196   4.516   4.365  0.2639 -0.1496  0.3817
 4501SOL    HW124965   4.199   4.609   4.387  0.5487  0.0353 -0.4185
 4501SOL    HW224966   4.174   4.484   4.452  1.0140 -1.0364  0.2355
 4502SOL     OW24967   0.766   2.819   3.840 -0.3894  0.5509 -0.0268
 4502SOL    HW124968   0.687   2.837   3.788 -1.5396 -3.1555  0.4175
 4502SOL    HW224969   0.831   2.859   3.782  0.1679 -1.0507 -0.5187
 4503SOL     OW24970   0.567   2.324   4.855  0.8620 -0.4305  0.0581
 4503SOL    HW124971   0.595   2.323   4.947  1.3242 -0.6402 -0.0847
 4503SOL    HW224972   0.631   2.268   4.811  0.5586 -0.4620 -0.3464
 4504SOL     OW24973   1.200   4.478   1.096 -0.0946  0.3038 -0.2902
 4504SOL    HW124974   1.108   4.483   1.123 -0.6884 -1.9226 -1.9315
 4504SOL    HW224975   1.193   4.449   1.005  0.7686  0.7983 -0.5128
 4505SOL     OW24976   2.764   4.113  13.605 -0.8903  0.4308  0.1702
 4505SOL    HW124977   2.850   4.125  13.566 -1.0871  1.5127  0.0775
 4505SOL    HW224978   2.704   4.166  13.553  0.7743  3.8470  1.7110
 4506SOL     OW24979   3.154   4.638   0.706  0.1609 -0.2710 -0.1138
 4506SOL    HW124980   3.165   4.587   0.625 -1.4686  0.4888 -0.8081
 4506SOL    HW224981   3.073   4.598   0.737 -1.0383  2.8796  0.7824
 4507SOL     OW24982   1.720   0.499   2.052  0.0834 -0.4016  0.1612
 4507SOL    HW124983   1.650   0.436   2.066 -0.2100  0.3698  2.1394
 4507SOL    HW224984   1.702   0.519   1.960  0.4628 -1.0332 -0.0450
 4508SOL     OW24985   0.048   2.346  10.276 -0.2042 -0.1669 -0.1228
 4508SOL    HW124986   0.114   2.283  10.248  0.2074  0.6959 -1.0975
 4508SOL    HW224987   0.087   2.420  10.229  0.3986 -1.3558 -1.4755
 4509SOL     OW24988   0.812   0.158  13.585 -0.9517 -0.0627 -0.5037
 4509SOL    HW124989   0.889   0.145  13.641 -0.2721  1.1529 -1.1400
 4509SOL    HW224990   0.804   0.253  13.599  1.7774  0.2007 -0.7951
 4510SOL     OW24991   0.319   0.741  12.293 -0.4074 -0.0416  0.5506
 4510SOL    HW124992   0.322   0.723  12.199  1.8158  1.9125  0.2665
 4510SOL    HW224993   0.225   0.722  12.304 -0.6447  1.3322  0.9407
 4511SOL     OW24994   0.371   3.853   6.198  0.2163 -0.2279 -0.2596
 4511SOL    HW124995   0.428   3.798   6.251  0.1500 -2.4468 -2.4895
 4511SOL    HW224996   0.437   3.907   6.155  2.4874 -0.2700  3.2500
 4512SOL     OW24997   0.634   4.023   8.989  0.2879  0.0001 -0.3525
 4512SOL    HW124998   0.705   4.075   9.027  0.3992 -1.1072  0.9404
 4512SOL    HW224999   0.632   3.942   9.040  0.3656 -0.4362 -1.0440
 4513SOL     OW25000   3.336   4.153   0.875 -0.1102 -0.4485  0.0997
 4513SOL    HW125001   3.268   4.087   0.863 -0.4642  0.1131 -0.9403
 4513SOL    HW225002   3.288   4.198   0.945  2.6169 -0.0356  1.7247
 4514SOL     OW25003   0.339   4.676  15.840 -0.3153 -0.3547 -0.5711
 4514SOL    HW125004   0.259   4.638  15.876  1.3334 -1.2772  2.1179
 4514SOL    HW225005   0.304   0.033  15.802 -0.8436 -1.1263 -1.7245
 4515SOL     OW25006   3.939   0.387   4.182  0.1168  0.2666  0.2941
 4515SOL    HW125007   3.972   0.331   4.111  2.4826  1.5382  0.3772
 4515SOL    HW225008   3.845   0.370   4.173 -0.1191  1.2762  0.8626
 4516SOL     OW25009   0.173   2.619   6.962 -0.4374 -0.0279 -0.7682
 4516SOL    HW125010   0.174   2.564   7.041 -0.7106 -0.8978 -1.3656
 4516SOL    HW225011   0.240   2.682   6.986 -3.1954  2.4176  0.4884
 4517SOL     OW25012   3.259   4.129   5.931 -0.2947  0.0424 -0.3699
 4517SOL    HW125013   3.197   4.103   5.862 -1.2209  1.4496 -0.0711
 4517SOL    HW225014   3.225   4.212   5.964  0.7518 -0.1993  1.2929
 4518SOL     OW25015   3.697   4.651   3.247  0.4589 -0.0422  1.2578
 4518SOL    HW125016   3.789   4.669   3.261  0.6801  0.3452 -0.7126
 4518SOL    HW225017   3.666   4.672   3.335 -2.1345  1.5856 -0.0343
 4519SOL     OW25018   4.525   3.802   3.176  0.2290  0.6723  0.4216
 4519SOL    HW125019   4.588   3.793   3.105 -1.5669 -0.2332 -1.0496
 4519SOL    HW225020   4.503   3.710   3.188  5.0933 -0.7614 -1.8173
 4520SOL     OW25021   2.361   2.900  13.638  0.1586  0.0850  0.3620
 4520SOL    HW125022   2.442   2.950  13.623 -0.8829  1.4444 -0.6171
 4520SOL    HW225023   2.301   2.924  13.568  0.7271 -1.3128 -0.6014
 4521SOL     OW25024   0.541   1.065   3.873 -0.9500 -0.3938  0.1372
 4521SOL    HW125025   0.616   1.122   3.890 -0.5618 -1.6265  2.5174
 4521SOL    HW225026   0.578   0.980   3.897 -2.1379 -1.0624 -0.3955
 4522SOL     OW25027   0.726   0.135   2.510 -0.5074 -0.2676  0.5023
 4522SOL    HW125028   0.786   0.072   2.550 -0.7350 -0.0405  1.1985
 4522SOL    HW225029   0.640   0.124   2.551 -0.3617  1.3783  1.2452
 4523SOL     OW25030   3.482   1.152   3.913  0.1769 -0.5626  0.0256
 4523SOL    HW125031   3.455   1.066   3.880 -1.8689 -0.1244  0.5689
 4523SOL    HW225032   3.488   1.211   3.838 -0.9736  0.3572  0.6556
 4524SOL     OW25033   2.431   2.787   3.486  0.5273  0.6208  0.2604
 4524SOL    HW125034   2.398   2.775   3.397 -0.6675 -0.0967  0.8034
 4524SOL    HW225035   2.356   2.766   3.542 -0.8575  0.6223 -1.5856
 4525SOL     OW25036   1.533   3.648   5.247  0.4415 -0.5604 -0.1317
 4525SOL    HW125037   1.556   3.652   5.154 -0.6233  1.1722 -0.3248
 4525SOL    HW225038   1.604   3.695   5.291  1.5628 -2.4797  0.1064
 4526SOL     OW25039   0.829   0.626   9.470  0.3233 -0.0320  0.0096
 4526SOL    HW125040   0.864   0.710   9.499 -1.9123  2.2452 -4.0715
 4526SOL    HW225041   0.745   0.608   9.512  0.2224  0.8800  0.1855
 4527SOL     OW25042   3.063   4.663   4.413 -0.2299 -0.0401  0.0087
 4527SOL    HW125043   3.064   4.616   4.497  1.6354 -2.2909 -1.2576
 4527SOL    HW225044   2.973   4.646   4.386 -0.3485  2.0200 -0.8530
 4528SOL     OW25045   3.041   0.440   7.597 -0.1055  0.1888 -0.4879
 4528SOL    HW125046   2.966   0.381   7.605  1.6207 -2.0625 -0.7248
 4528SOL    HW225047   3.009   0.522   7.560  0.3995  0.5684 -0.0795
 4529SOL     OW25048   4.431   0.313   0.871  0.6629  0.4997 -0.0009
 4529SOL    HW125049   4.378   0.235   0.888  0.8254 -0.1940 -2.7759
 4529SOL    HW225050   4.493   0.262   0.820 -0.6449  0.4464 -1.5328
 4530SOL     OW25051   1.444   2.618   2.408 -0.1797  0.2928 -0.1471
 4530SOL    HW125052   1.393   2.642   2.485 -1.2643 -0.2444 -0.6992
 4530SOL    HW225053   1.499   2.692   2.385 -1.1248  0.4927 -1.7546
 4531SOL     OW25054   0.618   2.306   3.128  0.9224  0.0738  0.3135
 4531SOL    HW125055   0.622   2.393   3.089 -1.7254 -0.1820 -0.5115
 4531SOL    HW225056   0.532   2.278   3.097  0.8076 -1.5816  2.0864
 4532SOL     OW25057   0.691   3.075   9.814 -0.0123  0.0811  0.5220
 4532SOL    HW125058   0.663   3.016   9.884 -0.4858 -2.0408 -1.4573
 4532SOL    HW225059   0.727   3.014   9.749  0.2296 -0.2075  0.9280
 4533SOL     OW25060   4.538   0.216   0.659 -0.7821 -0.2081 -0.1859
 4533SOL    HW125061   4.584   0.257   0.585 -0.6943 -1.1167 -0.6366
 4533SOL    HW225062   4.561   0.124   0.648 -3.3127 -0.8020 -0.5629
 4534SOL     OW25063   4.170   3.446   0.316  0.1064  0.1730 -0.0230
 4534SOL    HW125064   4.226   3.374   0.346  0.8790  0.3746 -0.9760
 4534SOL    HW225065   4.154   3.496   0.396 -1.4851  2.3243 -1.6774
 4535SOL     OW25066   1.996   0.099  16.739 -0.5000  0.2378  0.4208
 4535SOL    HW125067   1.955   0.169  16.791 -1.0665  0.8775 -0.8917
 4535SOL    HW225068   1.955   0.128  16.658  1.7407 -3.0192 -1.8601
 4536SOL     OW25069   0.483   3.568   1.913 -0.1043 -0.1566  0.0927
 4536SOL    HW125070   0.449   3.573   2.002  1.5639  1.3733  0.6485
 4536SOL    HW225071   0.562   3.514   1.921 -0.7644 -0.8409  2.0978
 4537SOL     OW25072   3.483   3.248   9.102 -0.2984 -0.6639 -0.0812
 4537SOL    HW125073   3.393   3.252   9.069 -0.1139 -1.5990 -0.6799
 4537SOL    HW225074   3.511   3.339   9.109  1.3174 -1.0812 -1.1537
 4538SOL     OW25075   3.767   2.309   0.371  0.2259 -0.5860  0.0337
 4538SOL    HW125076   3.710   2.245   0.330  0.6129  0.0208 -1.4460
 4538SOL    HW225077   3.744   2.308   0.464  2.1402  1.1236  0.5328
 4539SOL     OW25078   4.037   3.342  12.074  0.0707  0.6044 -0.1362
 4539SOL    HW125079   4.004   3.377  12.157 -1.2308 -0.1660 -0.3290
 4539SOL    HW225080   4.124   3.379  12.057  0.3784 -0.1339 -0.1781
 4540SOL     OW25081   2.931   3.286   1.691 -0.4265  0.3530  0.2937
 4540SOL    HW125082   2.965   3.203   1.658  0.6803  1.5357 -1.5455
 4540SOL    HW225083   2.992   3.328   1.751  0.0605  3.2467 -2.2117
 4541SOL     OW25084   1.276   0.526   2.544  0.3668 -0.1161  0.0822
 4541SOL    HW125085   1.193   0.479   2.551  0.2107 -0.4386 -4.0226
 4541SOL    HW225086   1.242   0.610   2.512  0.2266 -0.3424 -0.3549
 4542SOL     OW25087   0.292   0.059   8.113 -0.0463 -0.6797 -0.7244
 4542SOL    HW125088   0.233   0.133   8.099 -0.3804 -0.6719  0.6960
 4542SOL    HW225089   0.381   0.093   8.125 -0.7386  1.3618 -1.3523
 4543SOL     OW25090   1.022   3.007   5.384  0.5139 -0.6477  0.1597
 4543SOL    HW125091   0.974   3.088   5.404  0.3216 -0.9195  0.8049
 4543SOL    HW225092   1.106   3.023   5.428  0.6598  0.1666 -0.4109
 4544SOL     OW25093   4.669   1.150  11.560 -0.1796  0.8078  0.1710
 4544SOL    HW125094   0.038   1.135  11.580 -0.6798 -1.7586  0.5362
 4544SOL    HW225095   4.633   1.161  11.648  0.8584  1.1544  0.5451
 4545SOL     OW25096   4.285   3.661   3.474 -0.2593  0.2848 -0.1663
 4545SOL    HW125097   4.260   3.623   3.558  1.0831 -0.0105  0.0928
 4545SOL    HW225098   4.199   3.704   3.471 -0.0381  0.7424 -0.0848
 4546SOL     OW25099   4.199   4.134   0.676  0.4108 -0.3933  0.0455
 4546SOL    HW125100   4.290   4.109   0.692  0.4365  0.5644  1.4294
 4546SOL    HW225101   4.203   4.173   0.589  1.0997  1.0015  0.6925
 4547SOL     OW25102   4.275   0.723   8.902  0.1226  0.0569  0.0383
 4547SOL    HW125103   4.340   0.722   8.972  2.1112  1.0023 -1.8100
 4547SOL    HW225104   4.219   0.790   8.943 -2.1270 -0.3976 -2.3438
 4548SOL     OW25105   3.643   1.441   9.140 -0.7059 -0.1411 -0.3978
 4548SOL    HW125106   3.673   1.527   9.111  2.0240 -1.3912 -1.2998
 4548SOL    HW225107   3.710   1.418   9.205  0.3366  0.4534 -1.2660
 4549SOL     OW25108   1.964   2.861   5.521 -0.1143 -0.0665 -0.0293
 4549SOL    HW125109   1.885   2.903   5.556  0.1563  0.1791  0.2904
 4549SOL    HW225110   2.031   2.878   5.587 -2.4372 -1.1714  2.6234
 4550SOL     OW25111   3.718   3.174   9.774  0.1223  0.1293 -0.0542
 4550SOL    HW125112   3.744   3.250   9.723 -2.1172 -0.1108 -1.5100
 4550SOL    HW225113   3.776   3.113   9.729 -0.2774  1.3641 -2.2190
 4551SOL     OW25114   2.386   1.787   7.110  0.0847  0.0013  0.1373
 4551SOL    HW125115   2.323   1.718   7.088 -1.0925  0.6525  1.4147
 4551SOL    HW225116   2.354   1.824   7.192  1.7529  1.4781  0.1213
 4552SOL     OW25117   2.888   0.354   6.773 -0.3686  0.4359  0.2102
 4552SOL    HW125118   2.888   0.261   6.749  0.8012  0.1515  1.3545
 4552SOL    HW225119   2.796   0.381   6.768 -0.3928  0.4171  0.5553
 4553SOL     OW25120   0.204   2.557   3.695 -0.0623 -0.1430  0.2254
 4553SOL    HW125121   0.153   2.610   3.756 -1.6206  0.1789 -1.3657
 4553SOL    HW225122   0.137   2.532   3.631 -1.8371  0.2891  1.9108
 4554SOL     OW25123   1.034   1.257   3.370  0.2937  0.0897 -0.3958
 4554SOL    HW125124   1.061   1.274   3.279  2.7967 -0.2929  0.2653
 4554SOL    HW225125   0.970   1.185   3.369  0.4872 -0.0868 -0.1012
 4555SOL     OW25126   4.571   3.654  15.222  0.3108  0.4808 -0.2900
 4555SOL    HW125127   4.512   3.680  15.151  0.0003  0.0508 -0.1854
 4555SOL    HW225128   4.654   3.669  15.177  1.6337  1.4288  2.4952
 4556SOL     OW25129   0.478   1.678  13.252  0.1858 -0.1065 -0.0354
 4556SOL    HW125130   0.545   1.738  13.285 -1.2769  2.1672 -1.2251
 4556SOL    HW225131   0.402   1.735  13.253  0.8571  0.7475  2.1966
 4557SOL     OW25132   3.247   2.953  10.587  0.0028  0.4624  0.4767
 4557SOL    HW125133   3.272   2.916  10.503 -0.9639  3.4142 -1.0876
 4557SOL    HW225134   3.286   3.040  10.575 -1.0552  0.8880  0.2056
 4558SOL     OW25135   1.832   4.177   7.801  0.2366 -0.2739 -0.1099
 4558SOL    HW125136   1.883   4.258   7.806  0.0825 -0.3450  2.4956
 4558SOL    HW225137   1.896   4.107   7.800 -0.5144 -0.9737  0.4012
 4559SOL     OW25138   1.625   3.656  13.493 -0.1430 -0.2308  0.0388
 4559SOL    HW125139   1.563   3.726  13.513  0.1888 -0.1286  0.7085
 4559SOL    HW225140   1.709   3.700  13.479  0.3069 -0.2438  2.6040
 4560SOL     OW25141   2.850   1.758   6.394  0.1488  0.5626 -0.4534
 4560SOL    HW125142   2.771   1.792   6.436 -0.2568  0.9678 -1.5573
 4560SOL    HW225143   2.835   1.785   6.303  1.9991  0.8325 -0.6705
 4561SOL     OW25144   2.484   3.698   7.118  0.2402  0.1298  0.2276
 4561SOL    HW125145   2.536   3.622   7.093  0.3078 -0.2407  1.4982
 4561SOL    HW225146   2.400   3.659   7.140  1.5912 -1.0680  3.1947
 4562SOL     OW25147   0.900   1.630   4.582 -0.3026  0.1286 -0.1013
 4562SOL    HW125148   0.855   1.624   4.498 -0.3286 -0.0006 -0.0780
 4562SOL    HW225149   0.971   1.693   4.570  0.4602 -0.8368 -0.7034
 4563SOL     OW25150   2.866   1.427   0.236 -0.1199  0.1034  0.2793
 4563SOL    HW125151   2.844   1.468   0.153 -0.7089  0.2139  0.4851
 4563SOL    HW225152   2.779   1.419   0.275  0.1063  0.1672  0.8016
 4564SOL     OW25153   1.956   2.029   7.200  0.3549  0.3764  0.4731
 4564SOL    HW125154   1.870   2.052   7.236  2.0509  2.4937  3.1933
 4564SOL    HW225155   1.998   2.105   7.241  2.1741  1.3308 -3.2255
 4565SOL     OW25156   3.426   1.062   8.252  0.0430 -0.0743 -0.6293
 4565SOL    HW125157   3.487   1.135   8.240  1.8231 -1.3506  0.6517
 4565SOL    HW225158   3.358   1.092   8.312  0.5039  0.2307 -0.2623
 4566SOL     OW25159   3.835   3.207  15.982  0.2449  0.1476  0.5201
 4566SOL    HW125160   3.892   3.276  15.949  0.4087  0.0882  0.6764
 4566SOL    HW225161   3.896   3.134  15.974 -1.4334 -1.2426  0.5343
 4567SOL     OW25162   0.287   0.149  16.703 -0.1110  0.3710 -0.3139
 4567SOL    HW125163   0.274   0.240  16.677 -0.8434  1.0523  2.4288
 4567SOL    HW225164   0.201   0.124  16.737  0.0363  3.3946  2.3150
 4568SOL     OW25165   3.765   1.048  16.547 -0.2394  0.5598 -0.5492
 4568SOL    HW125166   3.703   1.015  16.481 -0.4575 -0.1061 -0.0069
 4568SOL    HW225167   3.721   1.002  16.619 -0.3588  0.6321 -0.5755
 4569SOL     OW25168   1.866   2.255   3.185  0.2481  0.0928  0.2969
 4569SOL    HW125169   1.821   2.302   3.115 -0.2676 -0.6240  0.1532
 4569SOL    HW225170   1.824   2.170   3.181 -0.6428  0.6774 -2.7607
 4570SOL     OW25171   3.590   4.271   4.738 -0.2593  0.0410  0.0394
 4570SOL    HW125172   3.644   4.349   4.748 -0.3821  0.1787 -0.3763
 4570SOL    HW225173   3.527   4.283   4.667  1.2853 -1.0245 -1.4869
 4571SOL     OW25174   2.646   0.383  13.923 -0.7219 -0.3748  0.6293
 4571SOL    HW125175   2.675   0.465  13.962 -4.5417  0.4460  1.7551
 4571SOL    HW225176   2.729   0.358  13.883 -1.0531 -0.1414 -0.2133
 4572SOL     OW25177   2.179   4.508   8.935  0.0782 -0.0808 -0.2891
 4572SOL    HW125178   2.097   4.510   8.984  0.3598  0.7339  0.1512
 4572SOL    HW225179   2.155   4.433   8.881 -1.7437  0.6793 -0.5610
 4573SOL     OW25180   1.112   0.519   1.332  0.2007 -0.2532 -0.1710
 4573SOL    HW125181   1.137   0.587   1.395 -0.0824 -0.0795 -0.2433
 4573SOL    HW225182   1.193   0.513   1.281  0.1739  2.8825 -0.5887
 4574SOL     OW25183   0.087   3.771   1.114  0.2858  0.0844  0.0259
 4574SOL    HW125184   4.716   3.771   1.096  0.1791  0.7812  0.6055
 4574SOL    HW225185   0.110   3.679   1.127 -0.6945 -0.0818  0.6526
 4575SOL     OW25186   3.421   0.035   4.298  0.0072  0.5310  0.3400
 4575SOL    HW125187   3.481   0.096   4.340  1.2357 -1.0858  0.8714
 4575SOL    HW225188   3.342   0.071   4.339 -0.5600 -1.0116  0.5949
 4576SOL     OW25189   4.685   0.887   8.456 -0.3294  0.6057 -0.3775
 4576SOL    HW125190   4.717   0.830   8.525  1.0908 -1.4056 -2.7077
 4576SOL    HW225191   4.606   0.841   8.428  0.1748  0.0375 -0.8728
 4577SOL     OW25192   2.377   4.654   9.047 -0.1552 -0.7753 -0.0572
 4577SOL    HW125193   2.305   4.597   9.020  0.8674 -1.3236 -1.5946
 4577SOL    HW225194   2.339   4.707   9.118 -1.7948 -1.3584 -0.4791
 4578SOL     OW25195   3.631   3.514   2.392 -0.1512 -0.0808 -0.1168
 4578SOL    HW125196   3.643   3.419   2.396  5.9389  0.6995  0.0545
 4578SOL    HW225197   3.710   3.553   2.354  1.2298 -2.5511  0.2244
 4579SOL     OW25198   2.828   2.722   5.107  0.6394  0.0700  0.0123
 4579SOL    HW125199   2.885   2.646   5.093 -1.2221 -1.6749  1.6802
 4579SOL    HW225200   2.877   2.766   5.177  1.0344  0.6056 -0.6095
 4580SOL     OW25201   1.829   4.645   3.075  0.5497  0.2881  0.3858
 4580SOL    HW125202   1.790   4.704   3.010  1.2582  1.1731  0.7719
 4580SOL    HW225203   1.916   4.684   3.080  1.2860 -1.3435  0.4497
 4581SOL     OW25204   3.253   4.445   7.060  0.5329 -0.4414 -0.5234
 4581SOL    HW125205   3.176   4.480   7.015 -2.0311  0.0091  4.2915
 4581SOL    HW225206   3.210   4.383   7.119 -0.8013 -1.3534 -2.4661
 4582SOL     OW25207   4.136   0.074  14.474  0.0957 -0.3611 -0.0056
 4582SOL    HW125208   4.163   0.135  14.542 -0.4699 -0.5223  0.3683
 4582SOL    HW225209   4.204   0.081  14.407  0.3761  0.7815  0.4113
 4583SOL     OW25210   0.182   1.731   2.462 -0.0003  0.1838 -0.3082
 4583SOL    HW125211   0.182   1.734   2.367  1.1196  1.3174 -0.2761
 4583SOL    HW225212   0.246   1.801   2.478 -0.9580  0.9883  0.0246
 4584SOL     OW25213   3.921   1.551   3.117  0.0023 -0.0591  0.1890
 4584SOL    HW125214   3.922   1.646   3.103  0.7165 -0.3349 -1.6923
 4584SOL    HW225215   3.874   1.527   3.037 -2.3051  0.3499  1.4152
 4585SOL     OW25216   1.461   0.736   1.646  0.3226 -0.2416 -0.4837
 4585SOL    HW125217   1.542   0.721   1.596  1.5837 -1.1902  1.8541
 4585SOL    HW225218   1.447   0.829   1.627  0.2648 -0.4583 -1.5057
 4586SOL     OW25219   0.817   1.986   5.953  0.0991 -0.1141  0.4149
 4586SOL    HW125220   0.791   1.900   5.986  0.3159 -0.1450  0.5112
 4586SOL    HW225221   0.744   2.043   5.974 -0.4319 -0.4950 -0.4027
 4587SOL     OW25222   1.058   1.845  14.295 -0.2901 -0.2388  0.3749
 4587SOL    HW125223   1.081   1.938  14.287  0.4102 -0.4073  0.4360
 4587SOL    HW225224   1.044   1.844  14.390  0.0340 -0.8875  0.4139
 4588SOL     OW25225   0.579   2.821   6.314  0.6222  0.0209 -0.5005
 4588SOL    HW125226   0.607   2.730   6.302  1.1747  0.3832 -2.0054
 4588SOL    HW225227   0.602   2.830   6.407  2.5311 -0.3438 -0.9258
 4589SOL     OW25228   0.542   0.921   6.151 -0.0253  0.4530 -0.3224
 4589SOL    HW125229   0.529   1.015   6.138 -1.9595  0.2126 -0.1254
 4589SOL    HW225230   0.467   0.896   6.205  1.0943  0.9623  1.4602
 4590SOL     OW25231   4.419   0.830   6.848 -0.3922  0.3214  0.0660
 4590SOL    HW125232   4.438   0.911   6.896  0.8261  0.4465 -0.6299
 4590SOL    HW225233   4.502   0.782   6.852 -0.7100 -0.1394  1.1931
 4591SOL     OW25234   0.820   0.383   0.853 -0.6706  0.0897 -0.3772
 4591SOL    HW125235   0.904   0.355   0.891 -0.4149  2.0420  0.4837
 4591SOL    HW225236   0.798   0.320   0.785 -0.9947  0.9616 -1.0745
 4592SOL     OW25237   3.018   2.431   1.854 -0.0300 -0.4059  0.3756
 4592SOL    HW125238   2.928   2.398   1.851 -0.5800  1.2045 -1.0205
 4592SOL    HW225239   3.004   2.526   1.855 -1.1063 -0.5462 -0.5697
 4593SOL     OW25240   3.901   3.095   0.633  0.0566 -0.2289 -0.5968
 4593SOL    HW125241   3.988   3.132   0.620 -1.0448  1.7667 -2.3284
 4593SOL    HW225242   3.914   3.066   0.724  1.0024  2.1072  0.0094
 4594SOL     OW25243   3.496   3.788   4.143  0.2611 -0.0101 -0.1216
 4594SOL    HW125244   3.564   3.834   4.193  0.7952 -0.2438 -0.6353
 4594SOL    HW225245   3.520   3.812   4.053  0.3198 -2.6410 -0.8079
 4595SOL     OW25246   0.590   4.187   8.475 -0.1015  1.2221 -0.0274
 4595SOL    HW125247   0.598   4.152   8.564 -2.7408  1.7477  0.4214
 4595SOL    HW225248   0.656   4.255   8.488  3.7906 -2.3953 -0.9313
 4596SOL     OW25249   4.389   3.656   2.757 -0.6037 -0.3847 -0.2544
 4596SOL    HW125250   4.416   3.589   2.819  0.4354  0.7838  0.5646
 4596SOL    HW225251   4.370   3.724   2.822 -2.1211  0.5817 -1.6769
 4597SOL     OW25252   1.169   2.119   3.414  0.0147  0.4771  0.3471
 4597SOL    HW125253   1.259   2.102   3.387  0.0631  0.2905  0.6217
 4597SOL    HW225254   1.173   2.069   3.495 -0.9145  1.0521  0.7527
 4598SOL     OW25255   4.206   4.421  15.287  0.0079  0.0348 -0.7582
 4598SOL    HW125256   4.113   4.446  15.294 -0.2208 -0.2099 -2.7190
 4598SOL    HW225257   4.215   4.335  15.327  1.0722  0.5719  0.1503
 4599SOL     OW25258   2.404   2.255   5.115  0.3211  0.0143  0.3410
 4599SOL    HW125259   2.363   2.339   5.136  0.2671 -0.1872  1.0412
 4599SOL    HW225260   2.478   2.287   5.063  1.2160  0.4236  1.8578
 4600SOL     OW25261   1.618   3.043   9.472  0.5104 -0.2812 -0.7890
 4600SOL    HW125262   1.629   2.963   9.524  0.4347  1.5137  1.9504
 4600SOL    HW225263   1.537   3.084   9.502  1.1328  0.7477 -0.5117
 4601SOL     OW25264   4.106   0.374  15.196 -0.3701  0.0765 -0.0730
 4601SOL    HW125265   4.093   0.288  15.156 -1.6928 -1.2029  3.1094
 4601SOL    HW225266   4.125   0.429  15.119  0.8659  0.0362  0.2014
 4602SOL     OW25267   1.844   0.825  11.414  0.0483  0.0490 -0.3790
 4602SOL    HW125268   1.894   0.889  11.364  0.4131 -0.1358 -0.2517
 4602SOL    HW225269   1.891   0.743  11.428 -0.9908 -0.1721  1.8452
 4603SOL     OW25270   0.569   3.006   4.890 -0.0904  1.1486 -0.1237
 4603SOL    HW125271   0.603   3.091   4.917  0.6416  0.7316  0.2691
 4603SOL    HW225272   0.496   3.026   4.832  1.2660  0.0798 -2.2495
 4604SOL     OW25273   0.102   3.121   8.561  0.5156 -0.4224  0.4808
 4604SOL    HW125274   0.198   3.120   8.557  0.4269  0.6804 -1.9183
 4604SOL    HW225275   0.093   3.203   8.610  0.6280  0.7833 -1.5007
 4605SOL     OW25276   3.360   0.803  15.284  0.1612 -0.1908  0.0492
 4605SOL    HW125277   3.445   0.760  15.287  0.2671  0.0641  0.7338
 4605SOL    HW225278   3.312   0.735  15.332  0.5429 -0.7773 -0.4033
 4606SOL     OW25279   0.644   4.171   8.053 -0.3635 -0.0606 -0.0145
 4606SOL    HW125280   0.706   4.102   8.033 -0.3205 -0.1663  0.4775
 4606SOL    HW225281   0.704   4.242   8.031 -1.8499  0.6357 -1.7688
 4607SOL     OW25282   2.939   2.731   2.196 -0.5893  0.7792  0.7093
 4607SOL    HW125283   2.959   2.734   2.102 -0.6486  0.4860  0.6854
 4607SOL    HW225284   2.965   2.818   2.224 -4.7529  2.7646 -1.5976
 4608SOL     OW25285   2.048   4.394  12.436  0.2564  0.3949 -0.3658
 4608SOL    HW125286   2.118   4.334  12.410  0.4739  0.1322  0.8581
 4608SOL    HW225287   2.079   4.417  12.523 -1.1952 -2.1974  0.8549
 4609SOL     OW25288   2.829   2.207  11.613 -0.8397 -0.7284  0.2869
 4609SOL    HW125289   2.908   2.255  11.588 -1.7418  0.9724  0.7025
 4609SOL    HW225290   2.763   2.276  11.626  1.9639  2.0167  0.1318
 4610SOL     OW25291   1.830   4.150   3.479 -0.4228 -0.2403  0.1613
 4610SOL    HW125292   1.818   4.095   3.556  2.1747 -0.3611  0.4754
 4610SOL    HW225293   1.777   4.117   3.406  0.0710  0.1455 -0.3692
 4611SOL     OW25294   0.515   3.584   2.911 -0.0055 -0.1463  0.3068
 4611SOL    HW125295   0.509   3.581   2.816  1.2001 -3.1715  0.3330
 4611SOL    HW225296   0.463   3.661   2.935 -2.2066 -0.8995 -1.9723
 4612SOL     OW25297   2.780   0.888  13.676 -0.2022 -0.2139  0.5923
 4612SOL    HW125298   2.768   0.958  13.612  0.4606  1.3906  2.2347
 4612SOL    HW225299   2.815   0.817  13.622 -0.3858  1.9351 -2.3534
 4613SOL     OW25300   0.430   3.114   6.413 -0.2572  0.0412 -0.3549
 4613SOL    HW125301   0.445   3.047   6.480  0.6796  2.1862  1.5417
 4613SOL    HW225302   0.398   3.061   6.339 -1.7423 -1.7561  1.5605
 4614SOL     OW25303   2.962   3.945   6.752 -0.4639  0.6565 -0.2455
 4614SOL    HW125304   2.901   3.883   6.714 -1.0646 -0.1007  2.0070
 4614SOL    HW225305   2.946   4.029   6.708 -1.3772  0.7321  0.2394
 4615SOL     OW25306   4.137   3.428   4.709 -0.0268  0.3695  0.4186
 4615SOL    HW125307   4.072   3.359   4.719  0.2610 -0.2824 -2.1748
 4615SOL    HW225308   4.193   3.391   4.641 -1.4358 -2.5022  0.8306
 4616SOL     OW25309   2.356   1.505   5.320 -0.3871 -0.0520  0.1574
 4616SOL    HW125310   2.303   1.427   5.310  0.1674 -0.2763 -1.0002
 4616SOL    HW225311   2.394   1.512   5.233 -1.3485 -0.3432 -0.2725
 4617SOL     OW25312   0.441   0.438   9.914  0.1890  0.2573  0.3757
 4617SOL    HW125313   0.358   0.460   9.956  0.4775  0.9549  0.5906
 4617SOL    HW225314   0.489   0.519   9.894  0.1735  0.4187  1.0000
 4618SOL     OW25315   2.120   2.359   1.001 -0.7317  0.0093  0.4708
 4618SOL    HW125316   2.091   2.339   0.912  1.0022  0.9946 -0.3018
 4618SOL    HW225317   2.208   2.392   0.985 -1.4952  0.5511 -2.4997
 4619SOL     OW25318   0.587   1.113   7.805  0.3159  0.3729  0.5094
 4619SOL    HW125319   0.502   1.152   7.824 -0.1402 -0.3820 -0.0163
 4619SOL    HW225320   0.621   1.169   7.736 -0.4211  0.2093  0.0176
 4620SOL     OW25321   0.599   0.366   5.543 -0.3331  0.0490  0.3270
 4620SOL    HW125322   0.615   0.342   5.634 -0.4190  0.3840  0.4312
 4620SOL    HW225323   0.685   0.354   5.502 -0.0641  1.4133  0.4929
 4621SOL     OW25324   3.080   0.447   6.626 -0.4004 -0.4002  0.2697
 4621SOL    HW125325   3.006   0.413   6.677 -0.2112  0.3571  1.0374
 4621SOL    HW225326   3.088   0.528   6.674  2.3952  0.5751 -1.8597
 4622SOL     OW25327   1.273   2.237   7.485 -0.2386  0.1259  1.0307
 4622SOL    HW125328   1.304   2.311   7.536  0.4417 -0.1664  1.0363
 4622SOL    HW225329   1.351   2.206   7.439 -1.0072  0.3038 -0.4024
 4623SOL     OW25330   3.860   3.219   2.548  0.5259  0.4161 -0.4619
 4623SOL    HW125331   3.844   3.300   2.595 -1.8739 -0.2094 -0.1907
 4623SOL    HW225332   3.892   3.172   2.625 -1.0256 -0.9579 -0.6510
 4624SOL     OW25333   1.772   1.376   7.519 -0.1586 -0.1784  0.0124
 4624SOL    HW125334   1.739   1.298   7.563 -0.8683 -0.1662 -0.4926
 4624SOL    HW225335   1.862   1.347   7.510 -0.1694 -0.7746  1.8700
 4625SOL     OW25336   1.539   0.285   1.179  0.0301  0.5119 -0.6647
 4625SOL    HW125337   1.467   0.348   1.183  1.8828  2.5639  0.3970
 4625SOL    HW225338   1.494   0.212   1.221  2.8239 -0.9889 -0.3029
 4626SOL     OW25339   1.331   4.392   2.782  0.2285 -0.6186  0.4204
 4626SOL    HW125340   1.384   4.408   2.860  1.3466  1.1593 -0.7029
 4626SOL    HW225341   1.363   4.307   2.753 -0.6880 -0.5898 -0.6864
 4627SOL     OW25342   2.193   3.173   6.698 -0.4550 -0.0777  0.1770
 4627SOL    HW125343   2.288   3.164   6.702 -0.4674 -1.0658 -1.6170
 4627SOL    HW225344   2.170   3.084   6.670 -0.0078  0.3123 -1.4347
 4628SOL     OW25345   1.898   0.181   2.767 -0.3957 -0.3766 -0.2449
 4628SOL    HW125346   1.819   0.192   2.714  0.8273  2.2073 -1.5649
 4628SOL    HW225347   1.949   0.118   2.718 -2.7042 -1.9008 -0.6766
 4629SOL     OW25348   0.684   0.229   9.192  0.0377 -0.0357 -0.4602
 4629SOL    HW125349   0.752   0.258   9.131  0.4177  1.2792  0.5851
 4629SOL    HW225350   0.672   0.140   9.159 -0.8713 -0.0102 -0.1971
 4630SOL     OW25351   0.921   0.923  11.454  0.2273 -0.4283 -0.3077
 4630SOL    HW125352   0.923   0.843  11.507  1.8147  0.6272  1.2155
 4630SOL    HW225353   1.002   0.925  11.403 -0.1699 -0.4275 -0.9372
 4631SOL     OW25354   4.323   3.422   6.483  0.0091 -0.0704 -0.0751
 4631SOL    HW125355   4.289   3.379   6.561 -2.8806  0.3976 -1.0740
 4631SOL    HW225356   4.383   3.482   6.528 -0.0451 -0.7015  0.8317
 4632SOL     OW25357   3.644   4.324   8.481 -0.4760 -0.1463  0.2589
 4632SOL    HW125358   3.620   4.401   8.430 -0.2071  0.0329  0.4025
 4632SOL    HW225359   3.733   4.299   8.457 -0.9757 -0.5257 -1.2153
 4633SOL     OW25360   1.815   1.296   3.787 -0.0930  0.0814  0.0022
 4633SOL    HW125361   1.840   1.205   3.770 -0.2855  0.2755 -1.3405
 4633SOL    HW225362   1.781   1.328   3.703  0.4276  1.5299  0.3498
 4634SOL     OW25363   0.601   4.403   2.834  0.2124  0.1954 -0.1118
 4634SOL    HW125364   0.675   4.463   2.823  1.1051 -0.5277  1.9932
 4634SOL    HW225365   0.645   4.318   2.841 -0.2915 -0.1116 -0.6825
 4635SOL     OW25366   3.114   4.341  12.767 -0.0568 -0.1224 -0.3047
 4635SOL    HW125367   3.147   4.358  12.679  1.3828 -1.6304 -0.0576
 4635SOL    HW225368   3.197   4.326  12.812 -0.0131  0.9734 -0.0078
 4636SOL     OW25369   2.820   1.168   6.243 -0.0812  0.2165  0.0657
 4636SOL    HW125370   2.793   1.202   6.158  0.1907  0.0433 -0.0917
 4636SOL    HW225371   2.897   1.122   6.209 -0.6847 -0.5784 -0.2249
 4637SOL     OW25372   0.175   1.546  17.604 -0.2135 -0.0194 -0.3966
 4637SOL    HW125373   0.202   1.493  17.528  1.8077  0.2762  0.1379
 4637SOL    HW225374   0.095   1.582  17.565  0.8242  2.1728 -0.4776
 4638SOL     OW25375   0.369   4.398   1.071 -0.1735  0.2054 -0.4488
 4638SOL    HW125376   0.432   4.328   1.054  0.3400  0.5837 -0.0992
 4638SOL    HW225377   0.379   4.455   0.994 -0.7638 -1.8418 -2.0492
 4639SOL     OW25378   3.763   3.898   7.672 -0.0350  0.1498  0.2033
 4639SOL    HW125379   3.716   3.981   7.677 -1.5051 -0.6477 -0.3668
 4639SOL    HW225380   3.724   3.850   7.746 -0.5707  1.8904  1.0403
 4640SOL     OW25381   3.840   3.223   5.470  0.0474 -0.3589  0.2784
 4640SOL    HW125382   3.885   3.196   5.550  1.1139  1.0943  0.1620
 4640SOL    HW225383   3.831   3.136   5.430 -0.3278  0.1970 -0.8657
 4641SOL     OW25384   3.740   3.561   9.289 -0.5473 -0.6860 -0.0153
 4641SOL    HW125385   3.673   3.564   9.220 -1.1431 -0.8600  0.5583
 4641SOL    HW225386   3.713   3.500   9.358 -0.6460  3.3138  3.4322
 4642SOL     OW25387   0.763   1.729   7.460 -0.3736 -0.2384  0.6330
 4642SOL    HW125388   0.695   1.793   7.442  0.2056  0.7038  1.7807
 4642SOL    HW225389   0.828   1.783   7.505  0.9089  0.6916 -2.4015
 4643SOL     OW25390   2.149   3.271  13.010 -0.0007 -0.0359 -0.3893
 4643SOL    HW125391   2.137   3.339  13.077 -1.7735 -1.3852  0.6800
 4643SOL    HW225392   2.129   3.190  13.057  1.6643  0.3837  1.0270
 4644SOL     OW25393   2.725   2.914   6.415  0.2814 -0.4150  0.2257
 4644SOL    HW125394   2.719   2.943   6.324 -0.1744 -0.8455  0.1243
 4644SOL    HW225395   2.777   2.834   6.412  1.3491  0.3010 -0.5318
 4645SOL     OW25396   4.032   0.477  11.794 -0.4725  0.1957  0.5339
 4645SOL    HW125397   4.079   0.545  11.843 -1.0657 -0.5231  2.1044
 4645SOL    HW225398   3.980   0.528  11.731  1.8643  0.3466 -1.2710
 4646SOL     OW25399   0.755   3.517   5.063  0.0301  0.4252 -0.4876
 4646SOL    HW125400   0.747   3.578   4.990  2.0452 -1.3940 -2.2029
 4646SOL    HW225401   0.810   3.575   5.116  0.6955 -0.9320  0.3182
 4647SOL     OW25402   0.675   0.222   6.102 -0.0564  0.1581  0.1756
 4647SOL    HW125403   0.601   0.181   6.148 -1.2637 -0.3852 -2.2023
 4647SOL    HW225404   0.714   0.145   6.060  1.6929  0.0886  1.9382
 4648SOL     OW25405   4.267   2.561   4.988 -0.4511 -0.3697 -0.1724
 4648SOL    HW125406   4.282   2.481   5.039  1.2391  0.5110  0.7152
 4648SOL    HW225407   4.262   2.532   4.896  0.7911  1.1356 -0.7048
 4649SOL     OW25408   2.840   2.964   4.973  0.3584  0.2829  0.3921
 4649SOL    HW125409   2.930   2.940   4.995  0.2819 -2.2209 -2.0201
 4649SOL    HW225410   2.793   2.896   5.021  0.1316  0.5917  0.6116
 4650SOL     OW25411   1.976   2.122   4.971 -0.2339  0.2637  0.1463
 4650SOL    HW125412   2.006   2.054   4.910 -3.7663 -0.9424 -0.2264
 4650SOL    HW225413   2.025   2.113   5.053 -2.1475 -1.5245  1.0885
 4651SOL     OW25414   4.262   0.390  14.258  0.3868  0.0171  0.1938
 4651SOL    HW125415   4.315   0.311  14.262  2.3763  1.2974 -1.2591
 4651SOL    HW225416   4.280   0.414  14.349 -0.4239 -0.2561  0.4311
 4652SOL     OW25417   3.000   3.041   1.584 -0.4045 -0.2779 -0.0031
 4652SOL    HW125418   2.994   3.021   1.490  0.6835  2.3982 -0.6406
 4652SOL    HW225419   3.038   2.959   1.613  1.0212  0.3475 -0.1200
 4653SOL     OW25420   4.074   4.553   3.718 -0.2526  0.1106  0.1627
 4653SOL    HW125421   4.147   4.511   3.672 -0.8825 -0.7411 -0.0549
 4653SOL    HW225422   4.055   4.631   3.665  0.6191  0.7449  0.7806
 4654SOL     OW25423   4.185   0.345  10.006 -0.2164 -0.1696  0.3679
 4654SOL    HW125424   4.197   0.347   9.911  0.2550  1.5698  0.4644
 4654SOL    HW225425   4.219   0.256  10.019  1.4404 -0.2701 -4.4229
 4655SOL     OW25426   1.439   1.194   1.405 -0.0196 -0.2108  0.0766
 4655SOL    HW125427   1.361   1.236   1.369  2.0706  1.9199 -1.9339
 4655SOL    HW225428   1.499   1.268   1.400 -1.0260  0.6981  1.2691
 4656SOL     OW25429   2.625   1.855  11.529 -0.4321  1.1849  0.0606
 4656SOL    HW125430   2.661   1.780  11.482  1.6602  1.7267  0.7786
 4656SOL    HW225431   2.541   1.823  11.561  0.3099  1.0229  1.8773
 4657SOL     OW25432   2.667   1.406   1.607  0.0576 -0.1363  0.2744
 4657SOL    HW125433   2.583   1.412   1.654  0.1973 -1.9327  0.7833
 4657SOL    HW225434   2.678   1.495   1.575  2.2558  0.3162  2.3194
 4658SOL     OW25435   0.655   0.328  10.276 -0.3154 -0.1634  0.8127
 4658SOL    HW125436   0.652   0.346  10.370 -2.2930  0.3317  0.6414
 4658SOL    HW225437   0.707   0.406  10.254  1.3564 -2.3700 -3.0990
 4659SOL     OW25438   3.889   4.708  16.621  0.3785 -0.1321  0.4737
 4659SOL    HW125439   3.928   0.071  16.609  1.9550 -0.6355  1.8716
 4659SOL    HW225440   3.866   4.691  16.530 -0.5773  0.7771  0.5444
 4660SOL     OW25441   0.856   0.958   2.989 -0.5215  0.0916  0.1604
 4660SOL    HW125442   0.766   0.971   3.017 -0.3199  1.4260  0.1935
 4660SOL    HW225443   0.872   1.048   2.959  1.8172  0.3079  2.0519
 4661SOL     OW25444   1.525   1.033   2.199  0.0279  0.3606  0.8499
 4661SOL    HW125445   1.470   1.044   2.277 -0.4003 -1.4021  0.7934
 4661SOL    HW225446   1.568   1.118   2.202 -0.5658  0.6725  0.3566
 4662SOL     OW25447   3.824   2.968   5.379  0.1498 -0.1115 -0.2756
 4662SOL    HW125448   3.835   2.921   5.461  1.0598  0.1192 -0.2722
 4662SOL    HW225449   3.907   2.958   5.332  0.0400 -2.7687  0.0774
 4663SOL     OW25450   0.037   0.451   2.167 -0.0061 -0.2221  0.2875
 4663SOL    HW125451   0.118   0.495   2.191  0.7570 -1.4287 -0.1187
 4663SOL    HW225452   0.004   0.514   2.103 -1.1352 -1.5517 -0.4450
 4664SOL     OW25453   2.147   4.667   4.925  0.2144 -0.0423 -0.1374
 4664SOL    HW125454   2.108   4.587   4.960 -1.1658  0.5595 -0.3357
 4664SOL    HW225455   2.227   4.670   4.979 -0.3251 -2.3903  0.7754
 4665SOL     OW25456   1.817   0.640  10.609  0.3010  0.3450  0.5193
 4665SOL    HW125457   1.760   0.565  10.594 -2.4190  2.1076  1.9356
 4665SOL    HW225458   1.869   0.594  10.675 -0.8729  0.2433  1.3802
 4666SOL     OW25459   4.555   1.164  15.642  0.0513 -0.4861  0.5958
 4666SOL    HW125460   4.626   1.158  15.706  1.3841  0.4355 -0.7872
 4666SOL    HW225461   4.555   1.253  15.607 -1.0670 -0.5126  0.5372
 4667SOL     OW25462   0.582   2.432  15.615 -0.1248  0.4316 -0.3342
 4667SOL    HW125463   0.606   2.524  15.608 -2.9231  1.1229 -1.0528
 4667SOL    HW225464   0.490   2.437  15.590 -0.6837 -0.7782  1.4865
 4668SOL     OW25465   0.382   2.131   4.165  1.0927  0.3436  0.2221
 4668SOL    HW125466   0.312   2.183   4.204  0.3982  0.3419 -1.0146
 4668SOL    HW225467   0.359   2.038   4.169 -0.9143  0.7933 -0.8993
 4669SOL     OW25468   4.193   1.501   6.141 -0.7252  0.2996  0.4153
 4669SOL    HW125469   4.111   1.455   6.157 -1.4457  1.3437 -0.2981
 4669SOL    HW225470   4.229   1.438   6.079 -3.3396  1.0324 -1.8256
 4670SOL     OW25471   2.592   4.668   2.109 -0.4929 -0.0061  0.2850
 4670SOL    HW125472   2.534   4.595   2.131 -0.7957  0.5920  1.4841
 4670SOL    HW225473   2.629   4.639   2.026 -3.0954 -0.1000 -0.8507
 4671SOL     OW25474   2.772   3.938   0.284 -0.5279 -0.7766 -0.5892
 4671SOL    HW125475   2.823   3.941   0.203 -0.1984 -1.6784 -0.4149
 4671SOL    HW225476   2.732   3.851   0.284 -1.9290 -0.1299 -1.4107
 4672SOL     OW25477   3.791   1.939  10.111 -0.1329 -0.4951  0.3534
 4672SOL    HW125478   3.754   1.884  10.043 -2.2386  0.8384  0.4327
 4672SOL    HW225479   3.770   2.027  10.080  1.5896 -0.0892  0.2989
 4673SOL     OW25480   2.651   1.095  14.104  0.6122 -0.2206 -0.5692
 4673SOL    HW125481   2.746   1.083  14.112  0.8008  0.4623 -1.9031
 4673SOL    HW225482   2.611   1.023  14.055 -2.1458  1.2090 -0.3796
 4674SOL     OW25483   0.632   4.658   5.629 -0.1203 -0.2143  0.1152
 4674SOL    HW125484   0.679   4.666   5.546  2.9860  0.0540  1.9030
 4674SOL    HW225485   0.615   4.564   5.635 -3.9556  0.4710  0.0751
 4675SOL     OW25486   3.127   2.177   1.146 -0.0634  0.5901  0.3828
 4675SOL    HW125487   3.040   2.215   1.133 -0.2326  0.1545  0.2782
 4675SOL    HW225488   3.116   2.125   1.226  2.8505 -0.9758 -0.2346
 4676SOL     OW25489   3.845   3.110   1.131 -0.1798  0.7138  0.1920
 4676SOL    HW125490   3.906   3.075   1.065  0.1260  0.2405  0.7253
 4676SOL    HW225491   3.782   3.164   1.082 -0.5948  0.2687  0.2447
 4677SOL     OW25492   2.040   0.556   7.618  0.1642  0.7603 -0.3468
 4677SOL    HW125493   2.130   0.529   7.599  0.1396  1.3344 -1.2483
 4677SOL    HW225494   2.053   0.627   7.681  1.3440  0.1489  0.0923
 4678SOL     OW25495   1.971   0.145   7.343  0.6297  0.2967  0.3640
 4678SOL    HW125496   1.918   0.145   7.263  0.1106 -0.2643  0.7182
 4678SOL    HW225497   2.019   0.227   7.326  1.3847 -0.2123  0.0384
 4679SOL     OW25498   0.935   2.393   4.005  0.0918 -0.1553 -0.1201
 4679SOL    HW125499   0.968   2.398   3.916 -1.4626  1.3219 -0.6264
 4679SOL    HW225500   0.932   2.486   4.025 -1.7241 -0.0416 -0.8965
 4680SOL     OW25501   0.020   3.051   7.415  0.1946  0.7707 -0.2780
 4680SOL    HW125502   0.081   3.080   7.347 -0.8926  1.1804 -1.0729
 4680SOL    HW225503   0.031   3.117   7.484  0.5556  1.3406 -0.8738
 4681SOL     OW25504   4.043   0.100   2.293 -0.1871 -0.5751 -0.1535
 4681SOL    HW125505   3.982   0.034   2.259  0.5164 -1.2248 -0.1631
 4681SOL    HW225506   4.025   0.174   2.235 -1.8306 -2.0346 -1.5530
 4682SOL     OW25507   3.877   1.971  17.440  0.2308  0.5122  0.1328
 4682SOL    HW125508   3.954   2.026  17.451  0.7449 -0.1095 -0.3576
 4682SOL    HW225509   3.803   2.031  17.451  1.1842  1.5208  0.9886
 4683SOL     OW25510   3.209   1.397  16.825 -0.0555  0.1792  0.1789
 4683SOL    HW125511   3.258   1.316  16.841  1.9150  1.7975  2.2907
 4683SOL    HW225512   3.274   1.453  16.783 -2.0631  3.0790  0.9409
 4684SOL     OW25513   3.199   0.540   3.989  0.3973  0.0114  0.4466
 4684SOL    HW125514   3.146   0.545   3.909  0.5228  1.0485  0.4321
 4684SOL    HW225515   3.177   0.615   4.044  0.5551  0.0928  0.3984
 4685SOL     OW25516   1.199   0.826   5.281  0.2027 -0.0794  0.4492
 4685SOL    HW125517   1.119   0.775   5.296 -0.9060  1.9696  1.4442
 4685SOL    HW225518   1.221   0.793   5.194  2.1306 -1.2828  1.3830
 4686SOL     OW25519   2.374   1.985  13.397  0.1214 -0.6260  0.3735
 4686SOL    HW125520   2.347   1.894  13.384  1.4286 -0.8291 -0.8678
 4686SOL    HW225521   2.316   2.021  13.330 -1.8187 -2.0647  1.2890
 4687SOL     OW25522   1.431   3.208  14.422 -0.3448 -0.6352 -0.1515
 4687SOL    HW125523   1.497   3.142  14.443  0.2945 -0.5020 -1.6999
 4687SOL    HW225524   1.474   3.283  14.463 -1.7777 -0.0068  0.1978
 4688SOL     OW25525   3.947   3.097  13.987 -0.0312  0.4538 -0.4302
 4688SOL    HW125526   3.950   3.073  14.079  0.0393  0.3699 -0.4536
 4688SOL    HW225527   3.924   3.011  13.951  1.7473 -0.7564  1.3299
 4689SOL     OW25528   4.196   0.534   8.718  0.1030  0.0025  0.6105
 4689SOL    HW125529   4.248   0.460   8.749 -0.8845 -0.3701  1.3976
 4689SOL    HW225530   4.216   0.602   8.783  0.3322 -0.6936  1.2707
 4690SOL     OW25531   4.143   2.134   4.714 -0.2956  0.7396  0.1376
 4690SOL    HW125532   4.132   2.041   4.692 -1.3002  0.1891  2.9974
 4690SOL    HW225533   4.208   2.117   4.782 -1.3282 -0.4341  0.8284
 4691SOL     OW25534   2.694   3.596   3.408  0.5006  0.1764  0.5323
 4691SOL    HW125535   2.618   3.546   3.437 -0.5719  0.9690 -0.9642
 4691SOL    HW225536   2.720   3.544   3.332  1.9865 -0.8470  1.7100
 4692SOL     OW25537   4.708   2.473   5.445  0.1212 -0.0171 -0.4057
 4692SOL    HW125538   4.650   2.423   5.504 -0.2449  1.4364  0.4691
 4692SOL    HW225539   4.654   2.477   5.366 -0.3663 -0.0084 -0.0748
 4693SOL     OW25540   4.379   1.402  11.079  0.1848  0.2523  0.2402
 4693SOL    HW125541   4.439   1.424  11.151  0.6681 -1.8279  0.4518
 4693SOL    HW225542   4.424   1.323  11.052 -0.0432 -0.1252  0.9753
 4694SOL     OW25543   0.035   1.840   3.701 -0.2232 -0.0971 -0.2267
 4694SOL    HW125544   0.060   1.899   3.630 -2.9917  1.4286  0.0988
 4694SOL    HW225545   4.691   1.784   3.663 -0.9685 -0.3128  1.4056
 4695SOL     OW25546   4.104   4.625   4.848  0.1993 -0.5198 -0.4572
 4695SOL    HW125547   4.135   4.540   4.879  0.9078  0.0419  0.4111
 4695SOL    HW225548   4.134   4.675   4.924  2.8335  0.0691 -1.8946
 4696SOL     OW25549   1.388   0.051   2.700 -0.0994 -0.2194 -0.0345
 4696SOL    HW125550   1.357   4.694   2.660 -2.8826  0.6659  0.3324
 4696SOL    HW225551   1.315   0.105   2.670  0.4425  2.2064  3.0187
 4697SOL     OW25552   2.339   1.971   2.458  0.4578  0.0228  0.4048
 4697SOL    HW125553   2.399   1.961   2.385  1.6979 -3.0254  1.8849
 4697SOL    HW225554   2.257   1.931   2.429  1.5098 -0.5965 -1.7015
 4698SOL     OW25555   1.717   0.459   2.795 -0.3009  0.5150  0.5535
 4698SOL    HW125556   1.718   0.381   2.739  0.7866  1.6545 -1.0002
 4698SOL    HW225557   1.655   0.427   2.861 -1.3994  0.4236 -0.5356
 4699SOL     OW25558   1.709   2.654   7.157  0.2115  0.5241  0.1740
 4699SOL    HW125559   1.692   2.575   7.105  0.6539 -0.7344  1.9340
 4699SOL    HW225560   1.660   2.727   7.121 -1.1626 -1.4128 -1.9207
 4700SOL     OW25561   1.624   3.883   1.040 -0.1973  0.0653  0.0318
 4700SOL    HW125562   1.563   3.871   1.113 -1.8794  0.6374 -1.2708
 4700SOL    HW225563   1.649   3.975   1.048 -1.9697  0.1320  4.3918
 4701SOL     OW25564   3.029   2.859  11.802  0.2379 -0.0904 -0.6467
 4701SOL    HW125565   3.088   2.893  11.735  2.7131 -2.5048  0.2892
 4701SOL    HW225566   3.087   2.860  11.878 -1.1215  0.9910  0.3814
 4702SOL     OW25567   4.709   2.256  14.805 -0.1069  0.1947 -0.0491
 4702SOL    HW125568   0.057   2.213  14.758  0.6803  0.1288  1.2214
 4702SOL    HW225569   4.694   2.189  14.871  2.3018 -1.8283 -1.5559
 4703SOL     OW25570   2.899   2.601  11.630  0.4284  0.2994 -0.9935
 4703SOL    HW125571   2.964   2.622  11.697 -0.4529 -1.5667  0.4241
 4703SOL    HW225572   2.951   2.529  11.594 -0.3319 -0.1468 -1.1819
 4704SOL     OW25573   3.662   0.415   4.902 -0.8305 -0.0479  0.0041
 4704SOL    HW125574   3.683   0.484   4.839 -0.5904 -0.5995 -0.5278
 4704SOL    HW225575   3.596   0.372   4.848 -0.6063 -0.1884 -0.1611
 4705SOL     OW25576   4.512   3.083   4.647 -0.1357  0.1448 -1.0109
 4705SOL    HW125577   4.538   3.104   4.557  0.6546 -0.9144 -1.0345
 4705SOL    HW225578   4.418   3.079   4.631 -0.2030  0.2823 -0.6337
 4706SOL     OW25579   1.791   0.391   1.132  0.2211 -0.7853  0.1306
 4706SOL    HW125580   1.720   0.359   1.188  1.5951  0.1848  2.4278
 4706SOL    HW225581   1.744   0.452   1.076  0.5372 -0.4546  0.2314
 4707SOL     OW25582   0.575   3.569   7.190  0.0673 -0.5459  0.4095
 4707SOL    HW125583   0.480   3.575   7.194  0.0857  0.6319 -0.9573
 4707SOL    HW225584   0.599   3.518   7.268  1.6422 -0.9841 -0.3636
 4708SOL     OW25585   1.899   3.045   6.129  0.4521  0.4343 -0.1327
 4708SOL    HW125586   1.897   3.073   6.038 -1.0922 -1.6529 -0.7479
 4708SOL    HW225587   1.853   2.961   6.123 -0.8667  1.1507  0.0770
 4709SOL     OW25588   2.270   1.425  12.391 -0.5780  0.2552  0.0315
 4709SOL    HW125589   2.358   1.404  12.363 -0.3110  0.9446  0.3306
 4709SOL    HW225590   2.241   1.488  12.325 -0.0208  1.6343  1.0781
 4710SOL     OW25591   2.088   0.875  11.919 -0.2128  0.2442 -0.5351
 4710SOL    HW125592   2.065   0.827  11.839  0.5688  0.1066 -0.6782
 4710SOL    HW225593   2.095   0.804  11.982 -3.9506 -0.5570 -0.9681
 4711SOL     OW25594   4.571   1.562   6.399  0.1709 -0.2006  0.0620
 4711SOL    HW125595   4.542   1.603   6.318 -0.7384  0.6576  0.8156
 4711SOL    HW225596   4.654   1.606   6.419  0.6211 -1.1176  0.1795
 4712SOL     OW25597   1.930   1.369   2.787 -0.7043 -0.1598 -0.2586
 4712SOL    HW125598   1.926   1.464   2.778  0.9873  0.1342  2.1427
 4712SOL    HW225599   2.025   1.360   2.785 -0.5719  0.6769  2.0513
 4713SOL     OW25600   3.810   2.386   1.063  1.1011 -0.0161  0.5152
 4713SOL    HW125601   3.883   2.348   1.112  0.5252  0.7165  1.9348
 4713SOL    HW225602   3.852   2.396   0.977 -1.0098 -0.5975 -0.5888
 4714SOL     OW25603   2.631   2.937   9.312  0.1299  0.1491  0.1655
 4714SOL    HW125604   2.708   2.977   9.352 -1.1787  1.3344  1.5349
 4714SOL    HW225605   2.582   2.895   9.383  0.0732 -0.2587 -0.1147
 4715SOL     OW25606   2.170   2.680  14.569  0.9300 -0.5011 -0.2748
 4715SOL    HW125607   2.205   2.640  14.648  1.8065  0.3056 -0.2509
 4715SOL    HW225608   2.203   2.770  14.570  0.8306 -0.4648 -0.2862
 4716SOL     OW25609   4.548   0.715   2.084  0.3860 -0.3510 -0.2809
 4716SOL    HW125610   4.605   0.758   2.020 -0.6727  0.4086 -0.7097
 4716SOL    HW225611   4.481   0.675   2.028  1.7970 -1.9766 -0.7974
 4717SOL     OW25612   0.814   4.398   5.778 -0.2521 -0.7953  0.0674
 4717SOL    HW125613   0.738   4.437   5.735  0.1165 -0.6653 -0.4650
 4717SOL    HW225614   0.781   4.374   5.865 -0.2357 -0.9313  0.0357
 4718SOL     OW25615   0.955   0.859  16.136  0.7237 -0.2309  0.3196
 4718SOL    HW125616   0.914   0.803  16.070 -1.7528  2.6215 -0.5726
 4718SOL    HW225617   0.956   0.944  16.092  0.5847  0.6249  1.9995
 4719SOL     OW25618   1.936   1.994  13.983 -0.2497 -0.0270 -0.0011
 4719SOL    HW125619   1.907   2.085  13.988  2.5307  0.8111  1.1035
 4719SOL    HW225620   2.011   2.011  14.040 -1.1604  0.1155  1.1519
 4720SOL     OW25621   1.915   2.768  13.857  0.1470 -0.3478 -0.1643
 4720SOL    HW125622   1.930   2.782  13.951 -1.0191 -0.4652  0.0438
 4720SOL    HW225623   1.999   2.753  13.816  0.3230 -1.6243  0.6770
 4721SOL     OW25624   0.511   3.751   9.114 -0.4655  0.0608  0.6088
 4721SOL    HW125625   0.437   3.718   9.165 -0.2303  0.3089  1.1047
 4721SOL    HW225626   0.578   3.682   9.110 -1.4459 -0.7247 -2.6183
 4722SOL     OW25627   0.852   1.705  17.173  0.3398 -0.0309  0.2552
 4722SOL    HW125628   0.858   1.792  17.213  1.4590 -0.5550  1.2064
 4722SOL    HW225629   0.938   1.670  17.151 -0.0506 -0.4896 -0.5562
 4723SOL     OW25630   0.967   3.511   4.254  0.1914 -0.3893 -0.0890
 4723SOL    HW125631   0.948   3.581   4.192  0.6011  0.5931  0.9092
 4723SOL    HW225632   0.911   3.530   4.329  0.7829 -0.6074  0.3991
 4724SOL     OW25633   2.244   1.081  16.804 -0.3109  0.0290  0.3161
 4724SOL    HW125634   2.200   1.001  16.833 -0.0296  0.4783  1.9748
 4724SOL    HW225635   2.300   1.098  16.879  1.3318 -0.3675 -0.8381
 4725SOL     OW25636   2.126   1.540   3.749  0.1368 -0.1118 -0.1552
 4725SOL    HW125637   2.052   1.481   3.763 -1.4286  1.6197 -1.1721
 4725SOL    HW225638   2.158   1.554   3.839 -2.2208 -0.9793  0.8191
 4726SOL     OW25639   1.010   4.123  15.459 -0.4411 -0.2102 -0.0757
 4726SOL    HW125640   0.920   4.155  15.450 -0.4391 -0.1985 -0.0546
 4726SOL    HW225641   1.003   4.060  15.388 -0.4733  0.8033 -0.9802
 4727SOL     OW25642   2.409   0.104   7.743 -0.1359 -0.1810  0.4005
 4727SOL    HW125643   2.317   0.129   7.737 -0.2661 -0.7454  0.1234
 4727SOL    HW225644   2.405   0.041   7.815 -1.4186  1.0137  1.3912
 4728SOL     OW25645   0.048   0.569   7.253 -0.0546 -0.5722 -0.2131
 4728SOL    HW125646   0.014   0.619   7.327  1.2414  0.1253 -0.0904
 4728SOL    HW225647   0.066   0.641   7.193 -1.2918  0.9343  1.2390
 4729SOL     OW25648   0.802   0.538   8.301  0.2035 -0.0000  0.4108
 4729SOL    HW125649   0.865   0.470   8.277  1.2674  0.8059  0.9297
 4729SOL    HW225650   0.827   0.600   8.232  1.6249  0.5410  1.4141
 4730SOL     OW25651   0.596   1.077   4.846 -0.2666  0.1414 -0.5844
 4730SOL    HW125652   0.602   0.992   4.803 -1.5177 -0.3170  0.1140
 4730SOL    HW225653   0.602   1.138   4.773 -0.6686  0.1268 -0.6318
 4731SOL     OW25654   1.976   2.582   9.905  0.3914 -0.9871 -0.9466
 4731SOL    HW125655   2.024   2.502   9.927  1.6784  0.4372  1.3657
 4731SOL    HW225656   1.946   2.593   9.995 -0.2501  1.0413 -1.3991
 4732SOL     OW25657   2.427   2.560  17.111 -0.1205 -0.1330  1.1343
 4732SOL    HW125658   2.508   2.591  17.153  0.2094 -1.2863  1.3381
 4732SOL    HW225659   2.437   2.465  17.105 -0.8957 -0.1142 -0.5447
 4733SOL     OW25660   3.695   1.548   3.478  0.0043  0.0093 -0.0890
 4733SOL    HW125661   3.754   1.510   3.544  1.6908  0.6179 -1.2232
 4733SOL    HW225662   3.707   1.486   3.407  1.7873 -0.7606  0.8697
 4734SOL     OW25663   1.684   4.229   4.318  0.2094 -0.8458  0.2113
 4734SOL    HW125664   1.736   4.276   4.253  0.7493 -0.3183  1.0177
 4734SOL    HW225665   1.612   4.198   4.264  1.9442 -1.1931 -1.9203
 4735SOL     OW25666   4.007   3.296   4.069  0.3448  0.1544  0.3572
 4735SOL    HW125667   3.947   3.221   4.060  1.4658 -0.7608  0.5479
 4735SOL    HW225668   4.095   3.261   4.081 -0.5233 -1.8031  1.0803
 4736SOL     OW25669   0.821   3.496  17.531 -0.1143 -0.1011 -0.0286
 4736SOL    HW125670   0.819   3.540  17.446 -2.6936 -1.6710 -0.7920
 4736SOL    HW225671   0.774   3.415  17.510  1.4407 -1.2875  1.0241
 4737SOL     OW25672   1.914   3.646   6.916  0.5906  0.4146  0.2469
 4737SOL    HW125673   1.936   3.607   6.832  2.0186 -2.5065  1.9728
 4737SOL    HW225674   1.988   3.703   6.938  1.6461 -0.3699 -1.3023
 4738SOL     OW25675   0.053   1.783  16.608  0.0444  0.0518  0.5276
 4738SOL    HW125676   0.143   1.798  16.636 -0.1657  0.1516  1.1441
 4738SOL    HW225677   0.039   1.854  16.546  0.9438  0.6159  0.9689
 4739SOL     OW25678   2.182   0.862   5.010 -0.3978  0.5094 -0.0856
 4739SOL    HW125679   2.255   0.893   4.956  0.4317 -1.9376 -0.3675
 4739SOL    HW225680   2.227   0.830   5.089 -1.4842  1.8949  1.0951
 4740SOL     OW25681   1.234   1.897   2.932 -0.4652  0.6546  0.4808
 4740SOL    HW125682   1.236   1.822   2.990  0.0631 -0.4101 -0.9054
 4740SOL    HW225683   1.205   1.963   2.995 -0.9496  0.1919  0.7389
 4741SOL     OW25684   1.196   4.227   3.840 -0.1499  0.5171 -0.4421
 4741SOL    HW125685   1.237   4.280   3.908 -2.5292 -0.4169  1.7027
 4741SOL    HW225686   1.237   4.141   3.846 -0.2398  0.6448  1.7475
 4742SOL     OW25687   1.667   3.086  12.695 -0.4416  0.2194 -0.4066
 4742SOL    HW125688   1.609   3.016  12.728  1.3987  0.7180  3.7956
 4742SOL    HW225689   1.607   3.126  12.632 -0.0107  0.2897 -0.7708
 4743SOL     OW25690   3.511   3.741  17.139  0.2189  0.5291 -0.0658
 4743SOL    HW125691   3.507   3.734  17.043  0.2864  0.9798 -0.1042
 4743SOL    HW225692   3.605   3.755  17.151  0.2461  0.1957  0.0861
 4744SOL     OW25693   1.776   4.081   0.065  0.4463 -0.9014 -0.4806
 4744SOL    HW125694   1.749   4.125  17.681 -0.7905 -2.2278 -0.7928
 4744SOL    HW225695   1.801   4.156   0.119 -2.3083  0.1373 -0.6421
 4745SOL     OW25696   2.397   4.465  12.654  0.7618 -0.5050  0.3249
 4745SOL    HW125697   2.407   4.546  12.704  0.5314 -0.6736  0.6420
 4745SOL    HW225698   2.344   4.510  12.588  0.2381 -0.6803  0.6276
 4746SOL     OW25699   0.329   2.202   6.053 -0.1432 -0.1343 -0.6937
 4746SOL    HW125700   0.256   2.247   6.012  1.6430  1.1046 -2.5527
 4746SOL    HW225701   0.368   2.263   6.116 -0.2362  1.5394 -2.2484
 4747SOL     OW25702   4.625   2.639  15.586 -0.5686 -0.0874 -0.3370
 4747SOL    HW125703   4.655   2.688  15.509 -1.0348  0.2804 -0.2911
 4747SOL    HW225704   4.677   2.560  15.575 -1.2169 -0.4224 -1.0283
 4748SOL     OW25705   0.738   1.551  10.119 -0.1692 -0.3715  0.3884
 4748SOL    HW125706   0.671   1.570  10.053  0.0087 -0.2738  0.2358
 4748SOL    HW225707   0.688   1.538  10.200  0.3023 -1.3738  0.5175
 4749SOL     OW25708   2.002   0.615  11.373  0.0832 -0.0238 -0.0347
 4749SOL    HW125709   2.078   0.667  11.346  0.8738 -1.5556 -0.7255
 4749SOL    HW225710   2.044   0.531  11.356  2.4169  0.9301  1.0156
 4750SOL     OW25711   2.073   3.674   5.554  0.1549 -0.3803  0.3270
 4750SOL    HW125712   1.995   3.727   5.537 -0.2850 -1.4441 -0.9539
 4750SOL    HW225713   2.087   3.699   5.645 -0.1538  0.6842  0.0874
 4751SOL     OW25714   4.025   2.212   8.147  0.3168  0.6582 -0.2423
 4751SOL    HW125715   4.108   2.183   8.109  0.1433  2.1704 -1.7886
 4751SOL    HW225716   4.018   2.158   8.226 -1.0174 -0.5840 -1.2196
 4752SOL     OW25717   2.641   3.776   6.476  0.1842 -0.5977  0.6951
 4752SOL    HW125718   2.629   3.859   6.431 -0.9181 -0.9096  0.4133
 4752SOL    HW225719   2.608   3.717   6.408 -1.5971  1.2442 -0.0231
 4753SOL     OW25720   2.203   1.623   7.478 -0.1346  0.0641  0.0833
 4753SOL    HW125721   2.133   1.672   7.434 -1.4163 -1.1752  0.7500
 4753SOL    HW225722   2.279   1.642   7.422 -2.2694  1.9332 -2.1968
 4754SOL     OW25723   4.600   3.820   5.974 -0.2234  0.1375 -0.7614
 4754SOL    HW125724   4.672   3.801   6.035 -1.2604 -2.5976 -0.3532
 4754SOL    HW225725   4.593   3.731   5.938 -0.4567  0.1736 -0.8079
 4755SOL     OW25726   1.994   4.623   3.566 -0.6772 -0.2671  0.5965
 4755SOL    HW125727   1.939   4.557   3.524  3.0889 -3.4422  0.6105
 4755SOL    HW225728   1.987   4.683   3.492  0.5273  0.3471  0.9831
 4756SOL     OW25729   3.406   1.808   3.452 -0.3955  0.1843  0.3970
 4756SOL    HW125730   3.444   1.850   3.375 -1.1857  0.6536  0.2596
 4756SOL    HW225731   3.385   1.890   3.497  1.1996  0.7217  0.1410
 4757SOL     OW25732   1.942   4.528   3.841  0.4952 -0.1056  0.1139
 4757SOL    HW125733   1.999   4.464   3.884  0.5193 -0.8462 -1.0260
 4757SOL    HW225734   1.939   4.525   3.745 -0.7426 -0.8972  0.1826
 4758SOL     OW25735   3.573   2.825   7.073 -0.2289  0.1405 -0.1846
 4758SOL    HW125736   3.493   2.848   7.027 -0.9337  0.4933  1.2078
 4758SOL    HW225737   3.595   2.915   7.099  1.7929 -0.6628  0.8885
 4759SOL     OW25738   4.548   3.669  13.657 -0.2060 -0.8697  0.3266
 4759SOL    HW125739   4.561   3.581  13.694  1.5545 -0.6959  0.0976
 4759SOL    HW225740   4.458   3.660  13.626 -0.0848  0.2314 -0.3296
 4760SOL     OW25741   3.582   3.299   1.728  0.4945  0.2306 -0.0935
 4760SOL    HW125742   3.628   3.299   1.812 -0.5615  0.9719  0.4832
 4760SOL    HW225743   3.599   3.209   1.701 -1.7432 -0.5595  1.1752
 4761SOL     OW25744   2.970   1.893  15.690  1.1998  0.4489  0.1102
 4761SOL    HW125745   2.962   1.965  15.753  0.0810 -0.2716  0.7800
 4761SOL    HW225746   2.900   1.924  15.633 -1.1810 -0.1023  2.7071
 4762SOL     OW25747   0.525   3.143  10.478 -0.3045 -0.2964 -0.4040
 4762SOL    HW125748   0.519   3.180  10.566  0.3462 -1.3894  0.1046
 4762SOL    HW225749   0.497   3.053  10.496  0.3856 -0.3840  0.2175
 4763SOL     OW25750   0.917   2.120   5.721 -0.1802  0.6430 -0.0531
 4763SOL    HW125751   0.930   2.052   5.787 -3.0429  0.1032 -0.0370
 4763SOL    HW225752   0.828   2.110   5.688 -0.4994  0.7732  0.7608
 4764SOL     OW25753   4.527   3.852   2.370  0.4551  0.3963 -0.3099
 4764SOL    HW125754   4.438   3.823   2.348  0.7474 -1.5035  0.9918
 4764SOL    HW225755   4.539   3.931   2.317  0.3885 -0.4955 -1.6187
 4765SOL     OW25756   0.878   0.182   2.853 -0.6385  0.1270 -0.1565
 4765SOL    HW125757   0.968   0.209   2.868 -0.5221 -0.3024 -0.0688
 4765SOL    HW225758   0.855   0.246   2.786  2.0478 -0.5721 -1.7106
 4766SOL     OW25759   2.229   1.947  17.259 -0.5814  0.2675  0.1656
 4766SOL    HW125760   2.299   1.895  17.299 -0.5540  0.3446  0.2176
 4766SOL    HW225761   2.250   1.934  17.167 -1.0114  1.8123 -0.1436
 4767SOL     OW25762   3.984   0.422  12.849  0.3299 -0.2551  0.6028
 4767SOL    HW125763   4.040   0.450  12.776 -0.5787  2.2857  0.8760
 4767SOL    HW225764   3.962   0.510  12.880 -1.5197  0.2190 -2.1309
 4768SOL     OW25765   4.445   0.984   1.088  0.3919  0.0295  0.0205
 4768SOL    HW125766   4.484   0.962   1.173 -0.0363 -0.0924  0.1828
 4768SOL    HW225767   4.351   0.988   1.105  0.7867  0.1716  2.1292
 4769SOL     OW25768   1.096   1.875   6.385 -0.1248  0.4683  0.7879
 4769SOL    HW125769   1.057   1.788   6.396  1.7917 -0.5365 -0.6004
 4769SOL    HW225770   1.082   1.921   6.469 -0.4902 -1.0852  1.5676
 4770SOL     OW25771   4.573   2.079   6.499  0.0967  0.1934 -0.3530
 4770SOL    HW125772   4.568   2.042   6.410 -1.5967 -2.3725  0.8191
 4770SOL    HW225773   4.557   2.001   6.551 -0.9990 -0.7814 -2.1371
 4771SOL     OW25774   1.084   2.812   6.872  0.4211  0.2164  0.5828
 4771SOL    HW125775   1.042   2.750   6.812 -1.6879  1.5280  0.6804
 4771SOL    HW225776   1.013   2.864   6.911  0.2706 -0.0059  0.6056
 4772SOL     OW25777   4.351   4.132  11.116  0.4511  0.6908 -0.1454
 4772SOL    HW125778   4.436   4.098  11.143 -0.4465 -1.6128 -0.2431
 4772SOL    HW225779   4.382   4.202  11.058  1.7188  1.1260  1.0397
 4773SOL     OW25780   0.886   0.302   0.282 -0.2859 -0.3110  0.0101
 4773SOL    HW125781   0.848   0.362   0.347  0.3607 -1.9809  1.9017
 4773SOL    HW225782   0.836   0.333   0.206  1.7593 -0.5721 -1.4461
 4774SOL     OW25783   3.651   1.557   7.937  0.1684 -0.1803  0.0031
 4774SOL    HW125784   3.652   1.652   7.927  0.7826 -0.2523 -0.6527
 4774SOL    HW225785   3.648   1.555   8.033 -2.0290 -0.0745 -0.0717
 4775SOL     OW25786   3.799   3.520   3.005  0.1444  0.4043 -0.1292
 4775SOL    HW125787   3.804   3.429   2.978 -0.4546 -0.1497  1.6111
 4775SOL    HW225788   3.814   3.560   2.919  0.3988 -0.4204 -0.4654
 4776SOL     OW25789   2.185   1.040   8.926  0.1059 -0.3255 -0.5394
 4776SOL    HW125790   2.253   1.108   8.935 -1.3307  0.8349  1.5788
 4776SOL    HW225791   2.223   0.968   8.976  0.6354 -1.0966 -2.0419
 4777SOL     OW25792   2.645   0.920   8.289 -0.3089  0.2251  0.0578
 4777SOL    HW125793   2.569   0.973   8.263  0.6428  1.6107  0.1113
 4777SOL    HW225794   2.663   0.953   8.377 -1.4740 -2.3617  1.2526
 4778SOL     OW25795   1.938   3.485  14.718 -0.7106  0.2116 -0.7210
 4778SOL    HW125796   1.942   3.511  14.626 -0.0102  0.5411 -0.5988
 4778SOL    HW225797   1.893   3.555  14.766 -1.2070 -0.9901  0.5817
 4779SOL     OW25798   2.676   4.295   4.307  0.7097  0.0019 -1.2463
 4779SOL    HW125799   2.726   4.377   4.312  1.6846 -0.8091  2.0289
 4779SOL    HW225800   2.741   4.228   4.329  0.8933  0.4904 -0.2815
 4780SOL     OW25801   4.050   3.751  11.156  0.0439  0.7073 -0.1796
 4780SOL    HW125802   3.963   3.782  11.132  0.5864  2.3529  0.0245
 4780SOL    HW225803   4.033   3.697  11.233 -0.8076 -0.7962 -1.4209
 4781SOL     OW25804   0.813   0.628   3.421 -0.0543 -0.2987  0.3611
 4781SOL    HW125805   0.771   0.657   3.340 -0.4388  0.1296  0.7134
 4781SOL    HW225806   0.901   0.612   3.388  0.4594  0.8508  1.1807
 4782SOL     OW25807   4.065   1.337  15.871  0.3935 -0.7136  0.1698
 4782SOL    HW125808   4.126   1.368  15.804 -2.1670 -2.5860 -2.9675
 4782SOL    HW225809   4.006   1.410  15.889  0.8119 -0.0945 -0.9411
 4783SOL     OW25810   1.343   3.224  17.403 -0.5684  0.2036 -0.4559
 4783SOL    HW125811   1.313   3.140  17.368  1.4027  0.8691 -3.6836
 4783SOL    HW225812   1.437   3.214  17.412 -0.6874  0.4268  1.0498
 4784SOL     OW25813   4.512   1.879  12.496 -0.2509  0.2762  0.0758
 4784SOL    HW125814   4.603   1.908  12.487 -0.2520  1.0758  2.5817
 4784SOL    HW225815   4.507   1.785  12.483  0.0390  0.0288  1.6503
 4785SOL     OW25816   2.636   4.610   2.985  0.2201 -0.2047 -0.6472
 4785SOL    HW125817   2.663   4.677   3.048 -0.5938 -0.4535 -0.0416
 4785SOL    HW225818   2.718   4.567   2.958  0.0582  0.7927 -2.7854
 4786SOL     OW25819   1.960   1.065   4.375  0.1056 -0.6497 -0.5234
 4786SOL    HW125820   1.980   0.983   4.329 -2.4681 -0.9693 -1.0682
 4786SOL    HW225821   1.905   1.034   4.446 -0.0294  0.7495 -0.0268
 4787SOL     OW25822   2.330   1.843   1.565  0.8516  0.2929  0.2194
 4787SOL    HW125823   2.406   1.871   1.617 -0.1406  0.7529  1.4477
 4787SOL    HW225824   2.332   1.912   1.499 -1.2327 -0.1893 -0.3548
 4788SOL     OW25825   0.407   4.474   4.611 -0.2953  0.1317  0.1013
 4788SOL    HW125826   0.438   4.492   4.522 -1.4906  1.2556 -0.0968
 4788SOL    HW225827   0.353   4.552   4.626  0.7730  0.6167  1.4652
 4789SOL     OW25828   0.501   4.588   6.000  0.2739  0.0248 -0.3897
 4789SOL    HW125829   0.501   4.600   6.095 -0.0944  0.2128 -0.4160
 4789SOL    HW225830   0.580   4.638   5.978 -0.0274  0.3771 -0.6677
 4790SOL     OW25831   3.051   0.353  11.172  0.4506 -0.2980 -0.3232
 4790SOL    HW125832   3.136   0.315  11.150  0.1477  0.5795 -3.0780
 4790SOL    HW225833   2.999   0.282  11.134 -0.7064  0.7507 -0.7053
 4791SOL     OW25834   4.698   3.564   8.912 -0.3057  0.3735 -0.5358
 4791SOL    HW125835   0.021   3.579   8.994 -0.8171  1.1332 -0.3813
 4791SOL    HW225836   4.610   3.563   8.950  0.0251 -0.9195  0.1768
 4792SOL     OW25837   2.370   1.940  16.529  0.0055  0.2601  0.2489
 4792SOL    HW125838   2.365   2.034  16.548  0.9296 -0.2695  3.1002
 4792SOL    HW225839   2.302   1.933  16.462  1.6325  0.0074 -1.3522
 4793SOL     OW25840   0.030   1.825  15.239 -0.5232  0.2839  0.2858
 4793SOL    HW125841   0.102   1.835  15.177  0.2822 -1.0592  1.0069
 4793SOL    HW225842   4.683   1.864  15.188 -2.7507  0.4743  3.4449
 4794SOL     OW25843   4.420   1.649   4.761  0.2404 -0.0969 -0.4297
 4794SOL    HW125844   4.359   1.585   4.724  1.7077 -0.8514 -1.5359
 4794SOL    HW225845   4.462   1.668   4.677  0.9839  2.5368  0.5521
 4795SOL     OW25846   2.702   2.402   8.185  0.0350  0.3049  0.2597
 4795SOL    HW125847   2.685   2.341   8.256 -0.8383 -1.3715 -1.3662
 4795SOL    HW225848   2.664   2.481   8.224 -1.7569  0.3409 -1.4957
 4796SOL     OW25849   2.829   0.872   5.505 -0.6293  0.3142  0.1459
 4796SOL    HW125850   2.792   0.863   5.593 -1.2475 -0.9547 -0.2559
 4796SOL    HW225851   2.782   0.795   5.473 -0.2892  0.3700 -0.4794
 4797SOL     OW25852   0.983   4.021   4.872  0.4292 -0.5551 -1.1096
 4797SOL    HW125853   0.950   4.106   4.902  1.0998 -2.1216  4.1183
 4797SOL    HW225854   0.962   4.013   4.779  0.3397  1.0609 -1.2213
 4798SOL     OW25855   2.377   1.328   2.185 -0.8629 -0.0177 -0.2240
 4798SOL    HW125856   2.322   1.398   2.150  0.8712  0.1507 -2.5869
 4798SOL    HW225857   2.459   1.374   2.171 -1.0563  0.7412  1.1271
 4799SOL     OW25858   0.102   3.276   4.226  0.2771 -0.5459 -0.0588
 4799SOL    HW125859   0.130   3.245   4.140 -2.3950 -1.9917 -0.4112
 4799SOL    HW225860   0.149   3.359   4.218  0.8276 -0.8536  0.0548
 4800SOL     OW25861   1.262   2.031   8.808 -0.6256  0.2173 -0.6125
 4800SOL    HW125862   1.191   2.039   8.871 -0.0564  1.5661 -0.1302
 4800SOL    HW225863   1.314   2.110   8.823 -0.2259  0.1830 -1.7993
 4801SOL     OW25864   3.384   0.818   6.501 -0.5138  0.6360  0.4930
 4801SOL    HW125865   3.420   0.741   6.544 -2.8202  0.5819  2.3011
 4801SOL    HW225866   3.459   0.878   6.504  0.0749  0.0037 -2.0117
 4802SOL     OW25867   4.043   4.045   9.026 -0.7405 -0.5076  0.0772
 4802SOL    HW125868   4.008   4.059   9.114  0.5365 -3.5941  1.0482
 4802SOL    HW225869   4.030   4.130   8.982  1.5901  0.3392  1.0582
 4803SOL     OW25870   0.787   4.456  15.274  0.1783 -0.4184  0.0921
 4803SOL    HW125871   0.872   4.439  15.233  0.1763  0.9096 -0.4352
 4803SOL    HW225872   0.729   4.413  15.210  0.0115  1.9952 -1.3655
 4804SOL     OW25873   4.135   0.836   6.853  0.3838  0.3195  0.2161
 4804SOL    HW125874   4.210   0.793   6.895 -1.0142 -0.4758  1.8785
 4804SOL    HW225875   4.173   0.909   6.805  1.3305  1.7559  3.1258
 4805SOL     OW25876   3.840   4.141   5.688 -0.8999  0.0740  0.0303
 4805SOL    HW125877   3.886   4.188   5.757 -1.2640  1.4491 -0.6668
 4805SOL    HW225878   3.835   4.052   5.725  0.5811 -0.5717 -1.3323
 4806SOL     OW25879   0.489   4.642   6.738  0.2153 -0.7914 -0.1671
 4806SOL    HW125880   0.420   4.588   6.776  0.0115 -0.4522 -0.0535
 4806SOL    HW225881   0.453   4.687   6.661  1.8780  1.1037  0.1793
 4807SOL     OW25882   3.918   0.549   3.458 -0.3891  0.3256 -0.0592
 4807SOL    HW125883   3.903   0.500   3.378  2.7681  1.6646 -1.4876
 4807SOL    HW225884   3.967   0.629   3.436 -0.3024  0.6698  1.3196
 4808SOL     OW25885   4.290   3.473  14.791  0.2450 -0.3720  0.0983
 4808SOL    HW125886   4.355   3.538  14.762 -0.1414  0.7758  1.7996
 4808SOL    HW225887   4.228   3.489  14.720  0.7979  0.4698 -0.2029
 4809SOL     OW25888   0.231   1.285  11.579 -0.0551 -0.3359  0.3495
 4809SOL    HW125889   0.197   1.339  11.651  1.3769  1.1874 -0.1060
 4809SOL    HW225890   0.224   1.199  11.619  2.2032 -0.8772 -0.3992
 4810SOL     OW25891   1.383   2.540   2.164 -0.3872  0.5324 -0.3093
 4810SOL    HW125892   1.423   2.572   2.245  0.0466  0.4113 -0.4729
 4810SOL    HW225893   1.331   2.609   2.123  0.2789  0.1656 -1.7932
 4811SOL     OW25894   3.068   2.550  10.503  0.2380  0.1940 -0.3097
 4811SOL    HW125895   3.090   2.622  10.443 -1.0426  0.0318 -0.9607
 4811SOL    HW225896   3.133   2.567  10.572 -1.2778  1.0084  0.8995
 4812SOL     OW25897   1.689   0.363  12.747  0.0823 -0.1853  0.1520
 4812SOL    HW125898   1.607   0.313  12.754 -0.9190  1.1650 -2.0754
 4812SOL    HW225899   1.707   0.377  12.840 -1.3870  1.8851  0.1247
 4813SOL     OW25900   3.684   2.014   8.236  0.3772  0.8476  0.3408
 4813SOL    HW125901   3.679   2.054   8.323 -0.5826  3.0251 -0.7211
 4813SOL    HW225902   3.613   1.951   8.234  0.2389  0.9220  2.2021
 4814SOL     OW25903   2.886   3.786  13.196  0.6308  0.2307 -0.3967
 4814SOL    HW125904   2.918   3.718  13.256  0.8040  1.1976  0.6125
 4814SOL    HW225905   2.798   3.751  13.180  1.0689 -2.7108  3.4330
 4815SOL     OW25906   2.150   2.187   8.999 -0.0399 -0.1025  0.1749
 4815SOL    HW125907   2.158   2.106   9.050 -1.3005 -0.3513 -0.0093
 4815SOL    HW225908   2.163   2.248   9.072 -2.4094  0.4386  0.1607
 4816SOL     OW25909   4.464   0.210  15.163  0.4075  0.2979 -0.2250
 4816SOL    HW125910   4.510   0.266  15.226  0.1144 -0.3904  0.5973
 4816SOL    HW225911   4.455   0.130  15.215 -0.7382 -0.9903 -2.4249
 4817SOL     OW25912   1.421   3.922   8.418 -0.3081 -0.1587 -0.4309
 4817SOL    HW125913   1.369   3.858   8.466  0.5816 -0.5573  0.0067
 4817SOL    HW225914   1.449   3.882   8.335  1.1725 -2.2130  1.0572
 4818SOL     OW25915   0.577   3.829   7.340 -0.6353 -0.3297 -0.3411
 4818SOL    HW125916   0.657   3.785   7.367  0.1623  0.6259 -1.1477
 4818SOL    HW225917   0.556   3.789   7.255 -1.0666 -0.1285 -0.3317
 4819SOL     OW25918   0.945   0.552   2.932 -0.2247  0.1029 -0.5530
 4819SOL    HW125919   0.991   0.629   2.898  2.4030 -1.5919 -0.8175
 4819SOL    HW225920   0.929   0.499   2.854 -0.6437  0.3178 -0.6177
 4820SOL     OW25921   2.104   3.087  10.294 -0.4008  0.2617 -0.3269
 4820SOL    HW125922   2.155   3.052  10.222 -2.1306  0.3935 -1.6130
 4820SOL    HW225923   2.161   3.163  10.309 -0.9416  0.3969  1.0779
 4821SOL     OW25924   0.094   3.231   4.614  0.2358 -0.0175 -0.5398
 4821SOL    HW125925   0.080   3.188   4.698  1.5133  1.4590  0.4176
 4821SOL    HW225926   0.120   3.320   4.637 -1.4251  0.2319  0.3284
 4822SOL     OW25927   3.588   0.438   8.491 -0.1707  0.0881 -0.5602
 4822SOL    HW125928   3.618   0.361   8.539 -3.3125 -0.3741  0.6111
 4822SOL    HW225929   3.507   0.392   8.469 -3.9450  5.0153  2.9708
 4823SOL     OW25930   1.331   1.295  16.981 -0.3957 -0.8892 -0.3441
 4823SOL    HW125931   1.342   1.284  17.076  0.1097  1.3765 -0.1447
 4823SOL    HW225932   1.236   1.307  16.983 -0.8080 -3.9277 -1.9226
 4824SOL     OW25933   3.848   0.111   7.026 -0.7896 -0.7321 -0.1637
 4824SOL    HW125934   3.890   0.077   6.948 -1.6705 -0.0255 -0.9435
 4824SOL    HW225935   3.775   0.160   6.987 -0.5871  1.7418  2.5291
 4825SOL     OW25936   0.054   4.186   0.779 -0.1282 -0.1666  0.0723
 4825SOL    HW125937   4.711   4.117   0.780  0.3197 -0.5918  0.5268
 4825SOL    HW225938   0.129   4.144   0.737  0.8044  1.3070  0.2867
 4826SOL     OW25939   4.634   2.668   8.499 -0.7021 -0.0909 -0.4895
 4826SOL    HW125940   4.699   2.686   8.431 -1.4981 -1.7307 -1.6620
 4826SOL    HW225941   4.667   2.729   8.566 -0.9692 -0.5044  0.0136
 4827SOL     OW25942   4.235   4.249  13.701  0.0033 -0.1368  0.2966
 4827SOL    HW125943   4.169   4.183  13.678 -0.1149 -0.4536  1.5393
 4827SOL    HW225944   4.275   4.204  13.775  1.6125  0.4852 -0.1987
 4828SOL     OW25945   4.265   4.518   3.394  0.5793  0.1377 -0.4331
 4828SOL    HW125946   4.182   4.475   3.372  0.1585  0.2787  0.8814
 4828SOL    HW225947   4.323   4.515   3.318 -0.2128  0.7223 -1.0600
 4829SOL     OW25948   3.920   0.237  12.195 -0.7892  0.1398  0.2118
 4829SOL    HW125949   3.834   0.208  12.166 -1.6877  1.3170  1.6901
 4829SOL    HW225950   3.972   0.194  12.127 -1.7260 -0.4096 -0.1551
 4830SOL     OW25951   1.534   3.033   8.672 -0.0447  0.4505 -0.6172
 4830SOL    HW125952   1.506   3.113   8.717  0.3951 -0.0620  0.5605
 4830SOL    HW225953   1.586   2.978   8.731  0.4286  1.1488 -0.3845
 4831SOL     OW25954   1.341   2.144  11.185  0.4452 -0.4116  0.1535
 4831SOL    HW125955   1.340   2.084  11.259  1.2010 -0.6724 -0.0477
 4831SOL    HW225956   1.433   2.171  11.177  0.4470  0.3022  2.5974
 4832SOL     OW25957   3.420   2.412   9.774 -0.4122 -0.2820  0.1995
 4832SOL    HW125958   3.494   2.358   9.802 -0.4291 -1.3354 -1.8189
 4832SOL    HW225959   3.463   2.476   9.718  0.4092 -1.2694 -0.3079
 4833SOL     OW25960   3.823   1.984  10.407  0.1061 -0.3873 -0.6375
 4833SOL    HW125961   3.752   2.024  10.459  2.1014  1.5823  0.5947
 4833SOL    HW225962   3.783   1.968  10.322  0.5967  2.2958 -1.3776
 4834SOL     OW25963   4.057   2.260  14.614 -0.6632  0.2819 -0.0799
 4834SOL    HW125964   3.988   2.279  14.677 -0.9881  1.4577 -0.8028
 4834SOL    HW225965   4.008   2.205  14.552  0.7371 -0.4448 -0.5499
 4835SOL     OW25966   4.069   3.240   6.903  0.2851 -0.0527 -0.1255
 4835SOL    HW125967   4.017   3.169   6.865 -0.6775  0.5993 -0.0168
 4835SOL    HW225968   4.069   3.217   6.996  0.4915 -0.1338 -0.1449
 4836SOL     OW25969   3.755   3.633  15.899  0.1386 -0.2544  0.0001
 4836SOL    HW125970   3.828   3.572  15.896 -0.1982 -0.5686 -1.7813
 4836SOL    HW225971   3.690   3.597  15.959  4.3026 -1.5245  3.7126
 4837SOL     OW25972   0.430   1.681   5.513 -0.6814 -0.0747 -0.3299
 4837SOL    HW125973   0.399   1.758   5.562 -3.1627 -1.6536  0.5821
 4837SOL    HW225974   0.406   1.614   5.577  1.6353 -0.7291 -0.1624
 4838SOL     OW25975   4.244   4.518   0.266  0.0128 -0.0063 -0.6874
 4838SOL    HW125976   4.266   4.552   0.180 -2.5446 -1.4566 -1.9178
 4838SOL    HW225977   4.305   4.443   0.268 -0.3275 -0.2511  0.4535
 4839SOL     OW25978   2.981   2.194  10.667 -0.4267 -0.5086  0.0005
 4839SOL    HW125979   2.989   2.280  10.709 -0.1885  0.3064 -1.7136
 4839SOL    HW225980   2.999   2.144  10.746 -3.8474 -0.2049  0.9813
 4840SOL     OW25981   1.628   1.836   7.258  0.4606 -0.1981 -0.4647
 4840SOL    HW125982   1.684   1.909   7.283 -1.1734  0.8386  0.1362
 4840SOL    HW225983   1.693   1.771   7.285  1.1789  1.0224  0.7403
 4841SOL     OW25984   4.152   2.694  13.978 -0.3155  0.1767  0.1044
 4841SOL    HW125985   4.079   2.736  13.932  0.6929  1.7338 -0.0851
 4841SOL    HW225986   4.225   2.718  13.922  1.0155  0.1233  1.8084
 4842SOL     OW25987   4.722   3.924   7.981 -0.0036 -0.2672  0.1153
 4842SOL    HW125988   4.672   3.860   7.930 -1.9899 -0.3185  2.1326
 4842SOL    HW225989   0.083   3.914   7.937 -1.0227 -1.6337 -1.5282
 4843SOL     OW25990   0.486   4.040   3.247  0.2138 -0.3766 -0.1873
 4843SOL    HW125991   0.514   3.952   3.272  2.2930 -0.3898 -2.5107
 4843SOL    HW225992   0.395   4.025   3.271 -0.3150 -0.6674 -2.3658
 4844SOL     OW25993   3.508   3.686   7.136 -0.4261 -0.1826 -0.1786
 4844SOL    HW125994   3.538   3.742   7.064 -1.3999 -0.2610 -0.6467
 4844SOL    HW225995   3.565   3.710   7.209  0.7638  1.8396 -1.7528
 4845SOL     OW25996   3.144   4.669   6.386  0.3894  0.3963  0.1191
 4845SOL    HW125997   3.153   0.029   6.340 -0.1155  0.0064 -0.6879
 4845SOL    HW225998   3.136   4.600   6.320 -2.5463  0.7696  0.1092
 4846SOL     OW25999   4.076   2.531  13.277  0.6598  0.2323 -0.1611
 4846SOL    HW126000   4.015   2.552  13.206 -0.4814  0.1298  0.7982
 4846SOL    HW226001   4.031   2.465  13.329 -1.1515  1.4056 -0.2603
 4847SOL     OW26002   0.775   2.225  16.094  0.4465 -0.2055  0.0499
 4847SOL    HW126003   0.868   2.243  16.079  0.5220  0.6190  1.4447
 4847SOL    HW226004   0.739   2.210  16.006 -3.1528  1.7698  1.1960
 4848SOL     OW26005   3.360   4.281   9.017 -0.0188 -0.2503 -0.0788
 4848SOL    HW126006   3.388   4.196   8.983 -1.3951 -1.1538  1.0584
 4848SOL    HW226007   3.274   4.253   9.049  1.2137 -2.3447  1.4159
 4849SOL     OW26008   1.036   1.665   8.216 -0.5788 -0.1891 -0.2080
 4849SOL    HW126009   0.982   1.735   8.253  0.0306 -0.2024  0.7052
 4849SOL    HW226010   1.023   1.603   8.288 -2.5521  0.0506 -0.3531
 4850SOL     OW26011   3.208   1.339   3.355 -0.9921  0.4694  0.1961
 4850SOL    HW126012   3.165   1.425   3.353 -2.0616 -0.0615  0.2212
 4850SOL    HW226013   3.243   1.328   3.266 -1.0211  1.7858  0.0141
 4851SOL     OW26014   2.748   1.636   0.657  1.0428  0.7106  0.4271
 4851SOL    HW126015   2.766   1.574   0.728 -1.2377 -0.5557 -0.0851
 4851SOL    HW226016   2.793   1.588   0.587  0.9742  0.4441  0.5665
 4852SOL     OW26017   4.721   1.730   7.976 -0.4742 -0.0738  0.8555
 4852SOL    HW126018   4.720   1.656   8.038  1.3039  0.0415  1.0265
 4852SOL    HW226019   0.086   1.722   7.942 -1.6782 -0.9907 -2.0218
 4853SOL     OW26020   1.741   4.301   0.659  0.1106  0.2448  0.3388
 4853SOL    HW126021   1.669   4.325   0.600  0.5573  1.7390  0.4064
 4853SOL    HW226022   1.727   4.206   0.666  0.7933  0.1085 -0.1784
 4854SOL     OW26023   3.792   2.621   3.746  0.1912  0.2247  0.2638
 4854SOL    HW126024   3.751   2.659   3.824 -0.0048  0.0906  0.2258
 4854SOL    HW226025   3.807   2.530   3.772 -2.6556 -0.1159  0.6213
 4855SOL     OW26026   1.208   0.610   9.969  0.0956 -0.1355 -0.0692
 4855SOL    HW126027   1.261   0.571  10.038 -1.5788  0.6008  1.6078
 4855SOL    HW226028   1.209   0.705   9.981  0.7490  0.2439 -2.9708
 4856SOL     OW26029   3.823   4.148  11.614 -0.0972 -0.5096  0.3231
 4856SOL    HW126030   3.835   4.053  11.607 -1.1336 -0.7571  2.0179
 4856SOL    HW226031   3.728   4.155  11.603 -0.3659 -1.5048  2.0296
 4857SOL     OW26032   0.925   0.037  14.078 -0.4245  0.3915 -0.1432
 4857SOL    HW126033   1.005   0.007  14.035  0.2684  0.3445  1.1621
 4857SOL    HW226034   0.937   0.128  14.105  0.3633  0.1289  0.3984
 4858SOL     OW26035   2.714   0.533  10.546 -0.1124 -0.3092 -0.3992
 4858SOL    HW126036   2.711   0.482  10.465 -2.3803 -0.8571  0.0288
 4858SOL    HW226037   2.638   0.499  10.594  1.2512  0.0434  1.9784
 4859SOL     OW26038   3.972   3.550   1.629 -0.0251  0.3799  0.3622
 4859SOL    HW126039   3.978   3.611   1.556  0.3848 -0.8430 -0.6247
 4859SOL    HW226040   3.885   3.513   1.611  1.5986 -1.7469 -2.9025
 4860SOL     OW26041   1.657   0.267  16.972 -0.3266 -0.2215 -0.0186
 4860SOL    HW126042   1.650   0.202  16.901  1.8341 -0.0408 -0.4157
 4860SOL    HW226043   1.733   0.241  17.024  0.2743 -1.8658 -1.7088
 4861SOL     OW26044   1.865   0.223   6.199  0.6935 -0.0285 -0.2648
 4861SOL    HW126045   1.897   0.185   6.118  1.9090 -1.0472  0.6902
 4861SOL    HW226046   1.813   0.150   6.235  1.4238 -1.1834 -1.5587
 4862SOL     OW26047   1.208   1.341   6.374  0.2801  0.3404 -0.4638
 4862SOL    HW126048   1.113   1.349   6.373  0.0868 -1.8050  0.2925
 4862SOL    HW226049   1.218   1.265   6.317  1.5728 -1.2101  1.7969
 4863SOL     OW26050   3.583   2.113   6.409  0.0830  0.6964 -0.0792
 4863SOL    HW126051   3.589   2.064   6.492 -1.4632  1.5987  0.5550
 4863SOL    HW226052   3.662   2.167   6.415 -0.2719  1.3358 -1.3619
 4864SOL     OW26053   2.618   0.833   7.906 -0.2310  0.0420  0.0827
 4864SOL    HW126054   2.604   0.897   7.836  1.8852  1.0154  0.5459
 4864SOL    HW226055   2.535   0.839   7.953  1.5452  0.0146  3.2187
 4865SOL     OW26056   3.379   1.717   1.700 -0.7297  0.4096 -0.0825
 4865SOL    HW126057   3.304   1.709   1.641 -0.8025 -0.1320  0.0845
 4865SOL    HW226058   3.440   1.649   1.674 -0.5926  0.0947  1.0603
 4866SOL     OW26059   2.747   3.576   8.838  0.5111  0.1671 -0.2255
 4866SOL    HW126060   2.811   3.537   8.778  0.2398 -2.9723  1.5070
 4866SOL    HW226061   2.729   3.501   8.894 -1.0727  2.1553  1.9272
 4867SOL     OW26062   1.334   0.462   8.210  0.1774 -0.4033 -0.6201
 4867SOL    HW126063   1.286   0.465   8.128 -0.7683  0.2859 -0.0416
 4867SOL    HW226064   1.341   0.367   8.216  1.3936 -0.1381  2.2344
 4868SOL     OW26065   2.929   1.720   7.834 -0.5079  0.6834  0.0988
 4868SOL    HW126066   2.865   1.766   7.888 -1.0037 -0.8757  0.8512
 4868SOL    HW226067   3.009   1.757   7.871  0.0337  0.8339 -1.1964
 4869SOL     OW26068   4.648   0.158  12.461 -0.0190 -0.1543  0.3323
 4869SOL    HW126069   4.717   0.180  12.525 -1.5647  0.7257  1.7036
 4869SOL    HW226070   4.603   0.242  12.452  3.3160  1.7469  1.2452
 4870SOL     OW26071   1.473   3.329  13.150 -0.4365  0.2410  0.0660
 4870SOL    HW126072   1.526   3.251  13.170 -2.0918 -0.9750 -0.2781
 4870SOL    HW226073   1.470   3.318  13.055  1.7253  1.3225 -0.1137
 4871SOL     OW26074   2.321   3.632  13.994  0.1827  0.1145  0.3280
 4871SOL    HW126075   2.277   3.548  14.004  0.2825 -0.0047 -0.2185
 4871SOL    HW226076   2.392   3.620  14.058 -1.4747  1.7893  2.4804
 4872SOL     OW26077   4.361   1.938   0.422 -0.4906 -0.2024 -0.3571
 4872SOL    HW126078   4.278   1.923   0.469  0.2301  0.2107  1.0304
 4872SOL    HW226079   4.345   1.879   0.349 -2.6263  0.5156 -0.4857
 4873SOL     OW26080   2.525   1.980  10.558  0.2715  0.2144 -0.4444
 4873SOL    HW126081   2.586   2.009  10.491  0.7082 -1.2421 -0.6780
 4873SOL    HW226082   2.584   1.926  10.612 -0.3023  0.3770  0.3496
 4874SOL     OW26083   4.328   2.807  13.798  0.0345  0.4558  0.1725
 4874SOL    HW126084   4.314   2.755  13.719  0.8546  0.6598 -0.1136
 4874SOL    HW226085   4.333   2.896  13.763 -1.6255  1.3147  2.1002
 4875SOL     OW26086   3.788   1.043   4.559 -0.8480 -0.2248 -0.1883
 4875SOL    HW126087   3.821   1.070   4.644 -0.2437  1.1244 -0.8532
 4875SOL    HW226088   3.826   1.116   4.509  1.5518 -1.2669  0.1319
 4876SOL     OW26089   1.145   4.627  12.543 -0.2790 -0.1340 -0.6044
 4876SOL    HW126090   1.175   4.619  12.634 -2.2444  0.4615  0.0880
 4876SOL    HW226091   1.159   4.720  12.526  2.1831 -0.3636  0.1779
 4877SOL     OW26092   2.392   1.212   8.964 -0.0671  0.2749 -0.1585
 4877SOL    HW126093   2.444   1.257   9.030 -0.4271  1.1570 -0.4858
 4877SOL    HW226094   2.407   1.258   8.881  1.3056  1.3570  0.6944
 4878SOL     OW26095   1.508   0.062   1.594 -0.4820  0.4594  0.3232
 4878SOL    HW126096   1.570   0.004   1.637 -1.0505  1.7510  2.9313
 4878SOL    HW226097   1.432   0.055   1.652  0.4802 -2.3727  1.2102
 4879SOL     OW26098   4.573   2.994   6.208 -0.4304  0.0765  0.0466
 4879SOL    HW126099   4.596   2.943   6.286 -1.3669 -1.9203 -1.0005
 4879SOL    HW226100   4.528   2.928   6.157  1.4490 -1.3491  0.2088
 4880SOL     OW26101   0.697   4.442   5.063 -0.0071  0.3578  0.0276
 4880SOL    HW126102   0.768   4.484   5.112  0.2378  1.7271 -1.5307
 4880SOL    HW226103   0.620   4.474   5.111 -0.7864 -2.7961  0.9035
 4881SOL     OW26104   3.866   3.220  12.392  0.1362 -0.0318  0.0967
 4881SOL    HW126105   3.847   3.310  12.365  1.5383  0.5754  1.0975
 4881SOL    HW226106   3.934   3.241  12.457  0.4674  0.3605 -0.3826
 4882SOL     OW26107   1.225   0.096   3.901 -0.3359  0.5197  0.1212
 4882SOL    HW126108   1.277   0.170   3.871 -0.5214  0.4744 -0.3164
 4882SOL    HW226109   1.140   0.140   3.913  0.5386  1.4314  3.1293
 4883SOL     OW26110   4.295   0.300   4.563  0.1641  0.1650 -0.1427
 4883SOL    HW126111   4.305   0.300   4.468  1.4723 -0.9749  0.0075
 4883SOL    HW226112   4.334   0.387   4.574  2.5690 -0.8146 -0.9787
 4884SOL     OW26113   4.709   0.089   5.784 -0.8635 -0.3226 -0.5413
 4884SOL    HW126114   4.721   0.154   5.715 -0.6042  0.7812  0.5442
 4884SOL    HW226115   0.074   0.057   5.805  0.1693  1.2978 -2.3708
 4885SOL     OW26116   4.597   3.570   5.887 -0.5831 -0.3827  0.0426
 4885SOL    HW126117   4.675   3.533   5.845  0.4572  2.6307 -0.7215
 4885SOL    HW226118   4.581   3.501   5.951  3.1405  0.7711  2.2195
 4886SOL     OW26119   0.465   0.075   6.222 -0.1703  0.3569 -0.4227
 4886SOL    HW126120   0.431   0.161   6.248 -1.2023 -1.2113  3.3328
 4886SOL    HW226121   0.389   0.045   6.172  0.1764 -0.9860 -0.1413
 4887SOL     OW26122   2.211   1.391  10.544  0.3491 -0.3449  0.0648
 4887SOL    HW126123   2.206   1.452  10.617 -0.0887  0.8499 -0.9616
 4887SOL    HW226124   2.161   1.441  10.479 -1.2757 -0.8838  0.8878
 4888SOL     OW26125   2.679   4.029   8.179  0.0759 -0.0157  0.6019
 4888SOL    HW126126   2.589   4.030   8.145  0.0772 -0.8318  0.5843
 4888SOL    HW226127   2.696   3.935   8.171 -0.5086  0.0523 -1.6879
 4889SOL     OW26128   1.017   1.817   5.107  0.3058  0.6050  0.3461
 4889SOL    HW126129   1.051   1.877   5.173 -1.3151  1.5953  0.2789
 4889SOL    HW226130   1.074   1.832   5.031  2.8170 -0.9999  1.8897
 4890SOL     OW26131   0.622   3.193   3.201  0.0003 -0.7370  0.1306
 4890SOL    HW126132   0.529   3.213   3.189 -0.0065 -1.4888 -1.1952
 4890SOL    HW226133   0.617   3.116   3.257 -1.8905 -0.8008 -0.1184
 4891SOL     OW26134   4.199   1.768  10.408  0.3772 -0.3998  0.1918
 4891SOL    HW126135   4.252   1.795  10.483  1.2300  0.2346 -0.6425
 4891SOL    HW226136   4.125   1.828  10.413  0.3148 -0.5023  0.5020
 4892SOL     OW26137   3.887   3.387   3.569 -0.4174  0.4113  0.2009
 4892SOL    HW126138   3.940   3.446   3.622  2.5590 -0.4381 -1.8548
 4892SOL    HW226139   3.954   3.340   3.519 -2.3888 -1.5627 -0.5645
 4893SOL     OW26140   4.604   1.998   3.009  0.2525 -0.2370 -0.6698
 4893SOL    HW126141   4.561   1.914   2.989 -3.2058  0.9869  1.6579
 4893SOL    HW226142   4.657   1.995   2.930  2.8735 -2.1100  1.1718
 4894SOL     OW26143   1.781   2.038   7.398 -0.4612  0.4922 -0.0638
 4894SOL    HW126144   1.746   1.990   7.473 -0.7388 -0.9656 -1.1481
 4894SOL    HW226145   1.853   2.083   7.444  0.7463 -2.2466  0.7541
 4895SOL     OW26146   1.191   4.216   1.677 -0.1338  0.1247 -0.2500
 4895SOL    HW126147   1.114   4.160   1.662  0.1843  0.0194 -1.4981
 4895SOL    HW226148   1.239   4.207   1.595 -0.0532  1.9750 -0.4078
 4896SOL     OW26149   4.238   3.985   3.189  0.0041 -0.7934  0.4221
 4896SOL    HW126150   4.232   3.900   3.233 -2.7578 -0.4940  0.6244
 4896SOL    HW226151   4.151   3.995   3.151  0.2179 -1.5149 -0.2444
 4897SOL     OW26152   1.679   1.918   8.302  0.3477 -0.3364  0.4124
 4897SOL    HW126153   1.615   1.983   8.275  0.0918 -0.2514  1.2553
 4897SOL    HW226154   1.638   1.858   8.364  0.2931 -0.5871  0.1357
 4898SOL     OW26155   3.715   4.504   0.604 -0.8178 -0.4320  0.0918
 4898SOL    HW126156   3.791   4.554   0.575 -0.0931 -0.6183  1.6605
 4898SOL    HW226157   3.659   4.573   0.640 -1.8428 -2.5816  2.6375
 4899SOL     OW26158   4.582   0.872   8.031 -0.4975 -0.2169 -0.0119
 4899SOL    HW126159   4.620   0.809   7.970 -3.4338  0.3784 -2.4291
 4899SOL    HW226160   4.655   0.933   8.022 -2.4256  1.7861 -1.9652
 4900SOL     OW26161   0.188   4.257   3.643  0.1889 -0.5868 -0.4276
 4900SOL    HW126162   0.109   4.305   3.668  0.8292 -0.2291  0.8503
 4900SOL    HW226163   0.183   4.175   3.693 -0.5281 -0.2435  0.0490
 4901SOL     OW26164   1.931   0.630   2.907 -0.2382 -0.2073  0.3509
 4901SOL    HW126165   1.858   0.576   2.877  0.6163 -0.9046 -0.4751
 4901SOL    HW226166   1.999   0.595   2.849  0.5503  0.6855  0.7500
 4902SOL     OW26167   4.278   2.373  12.325  0.1962 -0.0220 -0.0566
 4902SOL    HW126168   4.268   2.467  12.310 -1.0162 -0.4303 -1.8966
 4902SOL    HW226169   4.226   2.346  12.250  1.3671  1.1297 -1.2897
 4903SOL     OW26170   0.182   2.696  15.010  0.4208  0.1043  0.1263
 4903SOL    HW126171   0.205   2.636  14.939 -2.8488 -1.9095  0.7479
 4903SOL    HW226172   0.259   2.753  15.011  1.6109 -1.5221  1.0419
 4904SOL     OW26173   0.540   0.131   8.236 -0.1493 -0.0011 -0.1672
 4904SOL    HW126174   0.544   0.036   8.244 -0.0639 -0.0624 -0.9173
 4904SOL    HW226175   0.626   0.154   8.199  0.5728 -0.7250  1.1052
 4905SOL     OW26176   3.601   0.478  14.507 -0.2826 -0.0985 -0.3047
 4905SOL    HW126177   3.680   0.510  14.551  0.8371 -0.0827 -2.3114
 4905SOL    HW226178   3.532   0.517  14.560 -1.9526 -1.5798 -1.4169
 4906SOL     OW26179   0.403   2.458   7.314 -0.3582  0.2186  0.2628
 4906SOL    HW126180   0.335   2.524   7.326 -0.9520 -0.2129 -0.7346
 4906SOL    HW226181   0.471   2.504   7.363  1.0103 -1.4671 -0.0453
 4907SOL     OW26182   3.072   3.797   6.155 -0.5564 -0.4244  0.1189
 4907SOL    HW126183   3.071   3.734   6.083 -0.3552  1.3077 -1.4016
 4907SOL    HW226184   3.159   3.785   6.193 -1.1531 -2.0820  0.9703
 4908SOL     OW26185   2.436   3.260   2.990  0.6040 -0.0901  0.1529
 4908SOL    HW126186   2.523   3.255   3.031  0.5866 -0.2985  0.1648
 4908SOL    HW226187   2.377   3.279   3.063 -1.1770  1.7237 -1.7674
 4909SOL     OW26188   0.072   1.529  14.925 -0.2115  0.3449 -0.3603
 4909SOL    HW126189   0.116   1.462  14.978 -0.2037 -0.7973 -1.7960
 4909SOL    HW226190   0.146   1.587  14.906  1.1116 -0.8412  1.1459
 4910SOL     OW26191   3.509   4.260   0.079 -0.1030  0.3968  0.3453
 4910SOL    HW126192   3.588   4.242   0.027  1.7684  2.3166  2.5236
 4910SOL    HW226193   3.494   4.175   0.118 -1.0722 -0.5365 -2.0324
 4911SOL     OW26194   3.454   1.929  16.432 -0.9690 -0.4696  0.3620
 4911SOL    HW126195   3.392   1.987  16.387 -2.9009 -1.3757  1.8137
 4911SOL    HW226196   3.437   1.949  16.524  2.0217  6.6547 -0.5944
 4912SOL     OW26197   1.728   4.494   4.889 -0.1454  0.9707 -0.4853
 4912SOL    HW126198   1.656   4.530   4.942  0.0905 -0.2005  0.6479
 4912SOL    HW226199   1.759   4.427   4.950 -0.8338  0.8080 -0.3093
 4913SOL     OW26200   0.085   2.856   9.540  0.3412 -0.4902  0.5107
 4913SOL    HW126201   0.103   2.944   9.571  1.8404 -0.1240 -1.3491
 4913SOL    HW226202   0.140   2.801   9.597 -0.5209 -3.0171 -1.0594
 4914SOL     OW26203   2.117   0.050   7.564  0.3379  0.0056 -0.1455
 4914SOL    HW126204   2.080   0.088   7.484 -1.1971  1.5513  1.3188
 4914SOL    HW226205   2.174   4.706   7.526 -1.5423 -1.8472  0.3280
 4915SOL     OW26206   3.683   2.067   0.693 -0.1079  0.0415 -0.2219
 4915SOL    HW126207   3.663   2.153   0.657 -0.1504  0.2854  0.3845
 4915SOL    HW226208   3.657   2.005   0.625 -0.9584  1.0601 -0.8160
 4916SOL     OW26209   4.382   4.216   3.228 -0.2812  0.0187  0.0574
 4916SOL    HW126210   4.347   4.130   3.203  2.0268 -0.7779 -0.4299
 4916SOL    HW226211   4.327   4.273   3.175  0.8751  1.2887  0.2250
 4917SOL     OW26212   2.561   1.923   9.042  0.1803  0.0378 -0.0987
 4917SOL    HW126213   2.569   1.927   8.946 -1.0698  0.2242 -0.1893
 4917SOL    HW226214   2.573   2.013   9.073  0.3099 -0.6362  1.7851
 4918SOL     OW26215   2.745   3.245  10.147  0.6028  0.7225  0.9378
 4918SOL    HW126216   2.780   3.333  10.131 -1.9995  1.5777  0.0461
 4918SOL    HW226217   2.759   3.240  10.242 -2.8901  1.9129  1.5210
 4919SOL     OW26218   1.866   3.430   4.041 -0.0530  0.2239 -0.3119
 4919SOL    HW126219   1.904   3.357   3.993  1.2366 -1.4912  3.2688
 4919SOL    HW226220   1.928   3.426   4.113 -1.2011 -3.9561  0.4370
 4920SOL     OW26221   0.701   4.173   9.211  0.6741  0.1685  0.5929
 4920SOL    HW126222   0.670   4.126   9.289  1.7432  0.5754  1.2645
 4920SOL    HW226223   0.644   4.249   9.211  0.1284 -0.2478 -0.2036
 4921SOL     OW26224   2.940   2.050   6.846 -0.1136  0.4661 -0.0170
 4921SOL    HW126225   2.906   2.134   6.877 -0.7912 -0.6373  2.2547
 4921SOL    HW226226   2.858   2.000   6.846  0.3734 -0.3512 -1.2873
 4922SOL     OW26227   4.110   1.534   1.855  0.5020 -0.1029  0.1676
 4922SOL    HW126228   4.162   1.467   1.810 -0.8742 -0.3205 -1.0827
 4922SOL    HW226229   4.101   1.595   1.782 -0.1989 -0.6650 -0.2063
 4923SOL     OW26230   4.432   4.183   8.134  0.4404 -0.6622 -0.3286
 4923SOL    HW126231   4.353   4.165   8.185 -0.4851  1.2923 -1.0470
 4923SOL    HW226232   4.509   4.163   8.187  0.4204  2.4094  0.8979
 4924SOL     OW26233   2.245   3.036  15.661  0.2065  1.0118  0.2492
 4924SOL    HW126234   2.280   2.957  15.619 -1.4660  0.4337 -0.0835
 4924SOL    HW226235   2.289   3.098  15.603 -1.0637 -0.1722 -2.0091
 4925SOL     OW26236   0.941   0.955   1.341  0.2344  0.3407 -0.7547
 4925SOL    HW126237   0.951   1.030   1.400 -0.4525  1.8354 -2.5376
 4925SOL    HW226238   0.847   0.956   1.328  0.5151 -1.8735 -2.9944
 4926SOL     OW26239   0.479   3.830   7.056 -0.5777 -0.1266  0.2170
 4926SOL    HW126240   0.546   3.893   7.081 -0.5994  0.5103 -1.3734
 4926SOL    HW226241   0.410   3.893   7.040 -1.2346 -1.1441 -0.9613
 4927SOL     OW26242   3.992   3.396  11.056 -0.0855 -0.1675  0.2127
 4927SOL    HW126243   3.968   3.488  11.044  2.0010  0.3055 -0.2590
 4927SOL    HW226244   3.922   3.372  11.117 -0.1574  0.5471  0.4226
 4928SOL     OW26245   1.098   2.437   7.352 -0.4143  0.1654  0.0120
 4928SOL    HW126246   1.126   2.504   7.290 -2.1823  0.1456 -0.7917
 4928SOL    HW226247   1.163   2.469   7.415 -0.7636 -0.4610  0.6986
 4929SOL     OW26248   0.930   3.726   4.062 -0.3557  0.3124  0.0063
 4929SOL    HW126249   1.016   3.766   4.073  0.9103 -2.4858  0.1359
 4929SOL    HW226250   0.879   3.798   4.025  1.7869  0.8028 -1.9616
 4930SOL     OW26251   1.573   1.284   7.853  0.0372 -0.3199 -0.3173
 4930SOL    HW126252   1.593   1.191   7.864 -0.3208 -0.2479  0.9042
 4930SOL    HW226253   1.656   1.328   7.870 -0.9695  1.2303  0.5485
 4931SOL     OW26254   4.402   3.496   9.877 -0.4167 -0.3429 -0.0431
 4931SOL    HW126255   4.369   3.536   9.957 -0.6031 -0.3781 -0.1007
 4931SOL    HW226256   4.379   3.405   9.897 -0.4298 -0.5240 -0.8845
 4932SOL     OW26257   4.621   0.001  16.265 -0.2268 -1.1940 -0.3480
 4932SOL    HW126258   4.554   0.021  16.330  0.5133 -0.0445  0.0560
 4932SOL    HW226259   4.700   0.039  16.302 -0.2204  0.5500 -2.1553
 4933SOL     OW26260   1.290   1.924   3.905  0.0330  0.2845 -0.3704
 4933SOL    HW126261   1.300   1.970   3.822 -1.5928  0.2527 -0.5799
 4933SOL    HW226262   1.202   1.957   3.922  0.2075  0.3467  0.4172
 4934SOL     OW26263   4.138   4.381   3.131 -0.1277  0.0193 -0.0626
 4934SOL    HW126264   4.074   4.434   3.178 -0.2538 -1.0403  0.9492
 4934SOL    HW226265   4.107   4.291   3.138  0.9134 -0.2861  0.7393
 4935SOL     OW26266   2.131   1.428   8.664 -0.2213  0.3539 -0.0997
 4935SOL    HW126267   2.086   1.362   8.611  1.1296 -0.4562 -0.2166
 4935SOL    HW226268   2.209   1.376   8.685 -0.6829 -0.9048 -1.4977
 4936SOL     OW26269   4.206   2.567  17.680  0.0200 -1.1211 -0.4041
 4936SOL    HW126270   4.136   2.617  17.637  1.9838  0.3445 -1.9280
 4936SOL    HW226271   4.170   2.483   0.013  1.2924 -1.6158 -0.2595
 4937SOL     OW26272   0.880   4.485   1.183 -0.3307 -0.4877  0.4987
 4937SOL    HW126273   0.813   4.462   1.247  0.0173 -1.0060  0.6795
 4937SOL    HW226274   0.932   4.546   1.236  0.3743 -2.0860  1.6317
 4938SOL     OW26275   0.306   2.496   9.944  0.4992  0.4030 -0.1281
 4938SOL    HW126276   0.250   2.486  10.021  1.8062  1.4682  0.9539
 4938SOL    HW226277   0.394   2.478   9.977 -0.8384  1.2061  3.8233
 4939SOL     OW26278   4.123   3.139   1.524  0.0872  0.2126  0.8128
 4939SOL    HW126279   4.081   3.181   1.449  0.3729 -0.8468  0.0580
 4939SOL    HW226280   4.149   3.219   1.569  0.0871  0.7051 -0.0757
 4940SOL     OW26281   3.823   3.947  17.537  0.0736 -0.0302 -0.5716
 4940SOL    HW126282   3.852   3.871  17.488  2.9990  0.8131 -0.1557
 4940SOL    HW226283   3.888   4.016  17.525  1.8011 -1.8785 -1.7765
 4941SOL     OW26284   1.414   1.992   4.651 -0.4084  0.2525 -0.1764
 4941SOL    HW126285   1.369   2.028   4.575 -2.2845  1.0707  1.3246
 4941SOL    HW226286   1.460   1.917   4.615  1.4421  1.2142  0.1568
 4942SOL     OW26287   3.594   1.177   3.164 -0.3946  0.4259 -0.4908
 4942SOL    HW126288   3.579   1.093   3.120  0.1699  0.4043 -0.6439
 4942SOL    HW226289   3.660   1.215   3.107  2.4398 -0.1232  2.4591
 4943SOL     OW26290   0.047   2.378   7.130  0.3689  0.2693  0.6338
 4943SOL    HW126291   4.688   2.427   7.123 -0.1804 -0.9686 -1.6871
 4943SOL    HW226292   0.017   2.294   7.094  0.5697  0.0554  0.9694
 4944SOL     OW26293   1.110   4.530   6.544 -0.8216 -0.5210 -0.0710
 4944SOL    HW126294   1.057   4.609   6.534  2.7972  1.8268 -0.5845
 4944SOL    HW226295   1.198   4.563   6.562 -0.3111 -3.9322  3.5680
 4945SOL     OW26296   1.961   2.674  10.163  0.4461 -0.3683 -0.1951
 4945SOL    HW126297   1.963   2.657  10.257 -2.4409 -0.0715 -0.0594
 4945SOL    HW226298   1.949   2.767  10.178 -0.1548 -0.7425  1.7025
 4946SOL     OW26299   1.048   3.617   8.011  0.2579 -0.4378  0.2542
 4946SOL    HW126300   1.037   3.688   7.948 -1.7759 -1.4638 -0.5183
 4946SOL    HW226301   1.103   3.552   7.968 -0.4130 -0.2879 -0.8313
 4947SOL     OW26302   2.510   1.647   7.476 -0.1571 -0.2324 -0.4166
 4947SOL    HW126303   2.591   1.628   7.429 -0.0846 -0.9236 -0.0153
 4947SOL    HW226304   2.529   1.736   7.504 -0.7789 -0.3655  0.4161
 4948SOL     OW26305   1.592   2.221   6.643 -0.3831  0.2046  0.4588
 4948SOL    HW126306   1.659   2.290   6.646 -3.3096  3.0935 -0.0773
 4948SOL    HW226307   1.534   2.246   6.571 -0.1414 -0.1951  0.1268
 4949SOL     OW26308   4.142   1.482   2.814 -0.3432  0.2982  0.3794
 4949SOL    HW126309   4.214   1.461   2.873  0.3555 -1.9331 -1.2604
 4949SOL    HW226310   4.132   1.575   2.834  0.7162  0.4480  0.2115
 4950SOL     OW26311   0.370   1.156   3.582 -0.0749  0.1361 -0.3608
 4950SOL    HW126312   0.353   1.098   3.508 -1.2523  0.0875 -0.0508
 4950SOL    HW226313   0.417   1.226   3.536  2.3061 -1.9329 -1.1070
 4951SOL     OW26314   2.964   4.159   0.890  0.5906 -0.3963  0.8116
 4951SOL    HW126315   3.012   4.186   0.812  1.3920  2.4273  2.2517
 4951SOL    HW226316   2.890   4.112   0.851 -0.1828  0.7347  0.8857
 4952SOL     OW26317   1.127   3.819   7.188 -0.1249 -0.0024 -0.1982
 4952SOL    HW126318   1.207   3.769   7.171  0.2103  0.0131  1.2891
 4952SOL    HW226319   1.055   3.761   7.213  0.4704 -0.3568  0.7226
 4953SOL     OW26320   2.564   4.332  10.375 -0.2608 -0.3897 -0.1860
 4953SOL    HW126321   2.613   4.270  10.428  0.0979 -0.0881 -0.1698
 4953SOL    HW226322   2.637   4.385  10.342 -0.6876  0.5409  0.3434
 4954SOL     OW26323   2.503   0.450  10.682  0.0586 -0.4401  0.2978
 4954SOL    HW126324   2.485   0.478  10.772  2.1077 -0.3854  0.7049
 4954SOL    HW226325   2.478   0.359  10.670 -1.0506  0.0898 -1.4364
 4955SOL     OW26326   2.167   2.237   8.111  0.2047 -0.6789  0.4040
 4955SOL    HW126327   2.143   2.303   8.175 -1.7754  0.8492 -1.9196
 4955SOL    HW226328   2.156   2.293   8.034  1.4722  0.0406  0.7401
 4956SOL     OW26329   3.538   0.711  14.988 -0.3583  0.0867 -0.3600
 4956SOL    HW126330   3.543   0.803  14.964 -2.0212 -0.3918 -2.5181
 4956SOL    HW226331   3.539   0.708  15.084  3.5782 -0.5364 -0.4175
 4957SOL     OW26332   3.850   4.245   0.976  0.5928 -0.5586 -0.2363
 4957SOL    HW126333   3.806   4.255   1.061 -1.0225 -1.5549 -0.9671
 4957SOL    HW226334   3.785   4.292   0.923  0.8371 -1.3330 -1.2038
 4958SOL     OW26335   1.292   4.449  15.863 -0.4045 -0.2771  0.0038
 4958SOL    HW126336   1.218   4.395  15.836 -0.5836  0.7876 -1.6264
 4958SOL    HW226337   1.359   4.380  15.874  0.7711  0.9108  0.3292
 4959SOL     OW26338   3.893   0.523  11.220 -0.0397  0.3688  0.1688
 4959SOL    HW126339   3.946   0.579  11.163  2.5801 -1.8094  0.4717
 4959SOL    HW226340   3.817   0.580  11.208 -0.3599 -0.1712 -0.4062
 4960SOL     OW26341   3.212   0.211   5.529 -0.6770  0.0020  0.0605
 4960SOL    HW126342   3.261   0.138   5.567 -0.3586 -0.8711 -2.0149
 4960SOL    HW226343   3.191   0.173   5.444  1.5459 -1.8318  0.3474
 4961SOL     OW26344   3.082   3.770   2.660  0.2716  0.2766  0.5982
 4961SOL    HW126345   3.058   3.819   2.581  1.8109 -0.1677 -0.1419
 4961SOL    HW226346   3.089   3.846   2.718 -0.8996  1.4128 -0.7395
 4962SOL     OW26347   4.707   2.779   7.388  0.2944 -0.6984 -0.2575
 4962SOL    HW126348   4.723   2.869   7.418  1.3991 -1.6295  1.9413
 4962SOL    HW226349   4.628   2.795   7.336 -1.1216 -0.1595  2.0307
 4963SOL     OW26350   0.568   2.863   2.649 -0.3635 -0.2725  0.0711
 4963SOL    HW126351   0.640   2.917   2.683 -0.1615 -1.4089  1.4485
 4963SOL    HW226352   0.566   2.890   2.557  0.5594  0.7342  0.3368
 4964SOL     OW26353   3.779   0.984   3.937  0.0050 -0.3327 -0.0394
 4964SOL    HW126354   3.723   1.048   3.893  0.3482 -1.2949 -1.9030
 4964SOL    HW226355   3.841   0.964   3.867 -2.0238 -2.0425 -1.3584
 4965SOL     OW26356   2.746   0.770   7.523  0.0786 -0.2382 -0.3896
 4965SOL    HW126357   2.779   0.699   7.469 -1.5570 -2.1071  1.0809
 4965SOL    HW226358   2.710   0.826   7.454  0.9158 -0.4968 -1.0457
 4966SOL     OW26359   0.769   0.520   3.908  0.2713 -0.7270  0.0145
 4966SOL    HW126360   0.808   0.502   3.823  1.2035  0.1430  0.2456
 4966SOL    HW226361   0.675   0.530   3.894  0.8030 -0.2146 -2.9869
 4967SOL     OW26362   2.935   0.565  11.771  0.0544 -0.4799 -0.2587
 4967SOL    HW126363   3.029   0.546  11.766  0.1007 -0.1891 -0.5160
 4967SOL    HW226364   2.920   0.660  11.766 -1.7903 -0.7009  1.3349
 4968SOL     OW26365   1.538   3.310   5.173 -0.1116 -0.8196  0.2230
 4968SOL    HW126366   1.591   3.233   5.193  1.1817 -0.6015 -2.3419
 4968SOL    HW226367   1.548   3.333   5.080 -0.4743  1.8477  0.8380
 4969SOL     OW26368   3.596   2.332   1.823 -0.0637  0.1398  1.0030
 4969SOL    HW126369   3.500   2.334   1.830 -0.0847 -0.7949  1.0392
 4969SOL    HW226370   3.608   2.239   1.843 -0.4964 -0.3805 -1.1492
 4970SOL     OW26371   0.674   3.151   7.498  0.0256 -0.1585 -0.1926
 4970SOL    HW126372   0.746   3.107   7.453  1.6630  2.0762  0.2452
 4970SOL    HW226373   0.623   3.077   7.530 -0.5575 -0.0103 -0.7837
 4971SOL     OW26374   3.332   4.705  17.221 -0.5783 -0.2629 -0.1141
 4971SOL    HW126375   3.304   4.646  17.150 -0.4347 -0.7214  0.2103
 4971SOL    HW226376   3.318   4.641  17.291  1.4055 -0.1948  0.3449
 4972SOL     OW26377   4.016   4.137   9.278 -0.1740 -0.3315 -0.5099
 4972SOL    HW126378   3.961   4.205   9.319  2.5780  1.9386 -0.6024
 4972SOL    HW226379   4.099   4.184   9.267 -1.6266  2.0493 -1.3433
 4973SOL     OW26380   3.080   2.490   7.331  0.0930 -0.1476 -0.4602
 4973SOL    HW126381   3.000   2.535   7.304  0.5974  0.2994 -1.1989
 4973SOL    HW226382   3.139   2.499   7.256  0.3494 -0.7718 -0.3317
 4974SOL     OW26383   3.032   0.089  10.116 -0.1269 -0.2193  0.1821
 4974SOL    HW126384   3.061   0.173  10.153 -0.4140  0.1754 -0.4995
 4974SOL    HW226385   2.964   0.060  10.177 -0.6238  2.5959  0.9458
 4975SOL     OW26386   1.508   4.390   2.416 -0.1063  0.1695  0.0950
 4975SOL    HW126387   1.509   4.315   2.357 -2.2094  0.3572 -0.1782
 4975SOL    HW226388   1.429   4.374   2.468 -0.0256 -0.6425 -0.0405
 4976SOL     OW26389   0.265   3.746   4.863 -0.2848  0.0882  0.2013
 4976SOL    HW126390   0.230   3.801   4.792  0.1616  2.8571  2.1275
 4976SOL    HW226391   0.190   3.704   4.905  1.6096 -1.1622  2.3302
 4977SOL     OW26392   4.500   3.841   8.740 -0.8548  0.2150  0.5118
 4977SOL    HW126393   4.471   3.904   8.806 -2.3642  1.0958 -0.9896
 4977SOL    HW226394   4.431   3.864   8.678  0.9817  2.3780 -0.7167
 4978SOL     OW26395   0.409   2.749  15.175 -1.0413  0.4225  0.0828
 4978SOL    HW126396   0.501   2.765  15.197 -0.9900  1.9986 -1.3057
 4978SOL    HW226397   0.363   2.744  15.259 -1.5314  2.2219 -0.0780
 4979SOL     OW26398   1.455   2.481  15.174 -0.7385  0.6259 -0.2353
 4979SOL    HW126399   1.478   2.390  15.193  1.2007  0.9069 -1.2218
 4979SOL    HW226400   1.370   2.484  15.219  1.1565 -1.1217  3.4619
 4980SOL     OW26401   2.054   1.645   8.172 -0.1073 -0.5594  0.0516
 4980SOL    HW126402   2.104   1.655   8.253  1.0026  1.0380 -0.8291
 4980SOL    HW226403   1.964   1.633   8.202  0.3249 -0.5360  1.3825
 4981SOL     OW26404   3.769   0.447   4.612  0.6974 -0.4318 -0.0077
 4981SOL    HW126405   3.852   0.491   4.595  0.9520 -0.9753 -0.1722
 4981SOL    HW226406   3.783   0.359   4.577  0.4848 -0.5661  0.2466
 4982SOL     OW26407   1.763   1.195   2.002  0.0358 -0.6692 -0.2177
 4982SOL    HW126408   1.813   1.118   2.028  3.9669  1.0675 -2.5856
 4982SOL    HW226409   1.792   1.260   2.066  1.1105 -0.5711 -0.7877
 4983SOL     OW26410   0.864   4.678  15.391 -0.0405  0.2787 -0.1900
 4983SOL    HW126411   0.820   4.598  15.363  1.4337 -1.3224  2.0269
 4983SOL    HW226412   0.876   4.650  15.482 -2.8802  2.7714  0.9478
 4984SOL     OW26413   4.253   0.780  15.552 -0.3518  0.2048 -0.3565
 4984SOL    HW126414   4.306   0.849  15.514  0.0906 -0.4895 -0.9850
 4984SOL    HW226415   4.313   0.706  15.549 -0.6847 -0.1394  1.3060
 4985SOL     OW26416   3.964   0.526   5.362  0.1507  0.4855 -0.2290
 4985SOL    HW126417   3.869   0.520   5.369  0.1675 -0.0161 -0.4295
 4985SOL    HW226418   3.974   0.615   5.395  2.9429 -0.2369  0.9212
 4986SOL     OW26419   4.592   1.947   6.261 -0.4948 -0.3625  1.0814
 4986SOL    HW126420   4.577   1.940   6.167 -0.1949 -0.7655  1.0665
 4986SOL    HW226421   4.686   1.956   6.273 -0.5286  1.0122  0.3306
 4987SOL     OW26422   4.058   3.217  12.596 -0.0945 -0.6899  0.0199
 4987SOL    HW126423   4.071   3.273  12.672  0.5002 -1.4321  0.4643
 4987SOL    HW226424   4.106   3.270  12.532 -2.5469  0.2651 -1.0232
 4988SOL     OW26425   2.941   0.373  16.210 -0.6766 -0.2283 -0.4786
 4988SOL    HW126426   2.994   0.328  16.144 -0.6922  0.3540 -0.8842
 4988SOL    HW226427   2.860   0.383  16.160  0.2539 -0.0340 -1.9346
 4989SOL     OW26428   3.503   3.147   4.567 -0.2264  0.0679 -0.3471
 4989SOL    HW126429   3.508   3.224   4.623 -1.5217 -2.1951  2.8705
 4989SOL    HW226430   3.564   3.086   4.609  0.2006  0.3625 -0.5392
 4990SOL     OW26431   4.031   1.314  12.227 -0.4312  0.0533  0.2826
 4990SOL    HW126432   4.067   1.397  12.259  1.3172 -0.4143 -0.4857
 4990SOL    HW226433   4.048   1.325  12.134  0.0085  0.9033  0.4559
 4991SOL     OW26434   2.029   4.656   7.155 -0.2646  0.4414 -0.1269
 4991SOL    HW126435   2.024   4.722   7.224 -0.5797 -2.5141  2.6889
 4991SOL    HW226436   2.118   4.661   7.120 -0.4955  0.5591 -0.6937
 4992SOL     OW26437   1.982   1.763   4.738  0.3073 -0.1759 -0.5079
 4992SOL    HW126438   2.007   1.678   4.774  2.1467  0.6722  0.1952
 4992SOL    HW226439   2.039   1.772   4.661 -1.8436 -1.1652 -2.2227
 4993SOL     OW26440   3.905   3.112   1.783 -0.5850 -0.4493  0.3995
 4993SOL    HW126441   3.965   3.067   1.723 -1.5806 -0.5933 -0.5000
 4993SOL    HW226442   3.821   3.082   1.748 -0.9750 -0.7484  1.6180
 4994SOL     OW26443   0.626   0.057  12.598 -0.3855  0.3060 -0.1515
 4994SOL    HW126444   0.551   0.024  12.648 -0.1879 -1.2599 -0.8921
 4994SOL    HW226445   0.680   4.705  12.577  1.5243  1.6896 -0.2167
 4995SOL     OW26446   3.547   3.794   0.468 -0.0462 -0.2792  0.2003
 4995SOL    HW126447   3.512   3.811   0.380  1.3877  2.4597  0.1673
 4995SOL    HW226448   3.640   3.810   0.452 -0.3345 -1.0312 -2.2557
 4996SOL     OW26449   1.323   1.162   4.447  0.0319 -0.1024 -0.1935
 4996SOL    HW126450   1.366   1.203   4.522  0.5652 -2.0569  0.5711
 4996SOL    HW226451   1.320   1.233   4.384 -1.3430 -0.4409 -0.5085
 4997SOL     OW26452   2.591   2.996   2.093 -0.1819 -0.5070 -0.3846
 4997SOL    HW126453   2.634   2.986   2.178 -0.0350  0.4857 -0.3430
 4997SOL    HW226454   2.649   2.932   2.050  1.1693  1.4721 -1.5271
 4998SOL     OW26455   2.302   0.599   2.400 -0.4053  0.0967  0.0946
 4998SOL    HW126456   2.212   0.565   2.399  0.8127 -3.0218 -2.0510
 4998SOL    HW226457   2.312   0.623   2.308 -2.5364  1.3701  0.1805
 4999SOL     OW26458   2.588   3.505   6.711  0.2319  0.4432  0.3680
 4999SOL    HW126459   2.534   3.583   6.698 -1.1475 -0.4943  0.4343
 4999SOL    HW226460   2.525   3.435   6.728  0.8322  0.1795  1.4911
 5000SOL     OW26461   3.608   3.432   7.147  0.1165  0.1847 -0.4624
 5000SOL    HW126462   3.571   3.520   7.157 -0.2115 -0.1202  1.0585
 5000SOL    HW226463   3.587   3.411   7.056  1.7671  1.0601 -1.0334
 5001SOL     OW26464   3.453   3.251   7.356 -0.0488  0.5496  0.1206
 5001SOL    HW126465   3.416   3.305   7.286  1.0963  1.3005  0.1080
 5001SOL    HW226466   3.400   3.172   7.345  0.4788  0.1427  0.5452
 5002SOL     OW26467   3.462   0.615   8.683  0.1116 -0.2222  0.0068
 5002SOL    HW126468   3.450   0.694   8.630 -0.7004  0.4003  1.1006
 5002SOL    HW226469   3.517   0.558   8.630 -2.1305 -1.1318 -1.3363
 5003SOL     OW26470   0.005   2.918   8.396 -0.2053  0.4837 -0.3012
 5003SOL    HW126471   4.641   2.880   8.404  0.2445 -0.0997  1.9214
 5003SOL    HW226472   4.719   2.970   8.476  0.7923 -0.7383  0.6120
 5004SOL     OW26473   3.602   4.475  16.483 -0.1831  0.4721 -0.2469
 5004SOL    HW126474   3.627   4.447  16.395 -1.6050  1.4673 -0.9753
 5004SOL    HW226475   3.571   4.560  16.452 -2.1447  0.1312  0.7232
 5005SOL     OW26476   0.128   0.502   8.217 -0.1460  0.2952 -0.5153
 5005SOL    HW126477   0.168   0.588   8.201 -0.5245  0.5187 -0.2692
 5005SOL    HW226478   0.051   0.531   8.266 -1.1126  3.0015 -3.5642
 5006SOL     OW26479   4.252   1.746  11.891  0.7136 -0.5880 -0.4890
 5006SOL    HW126480   4.269   1.833  11.927  1.8341 -0.3197 -1.6684
 5006SOL    HW226481   4.169   1.758  11.845 -0.6927  0.4799  2.3527
 5007SOL     OW26482   4.061   3.781   3.272 -0.0031 -0.3311 -0.1856
 5007SOL    HW126483   3.969   3.764   3.254  0.6137 -2.4263 -1.4560
 5007SOL    HW226484   4.057   3.794   3.366  0.0620  0.0006 -0.2285
 5008SOL     OW26485   1.094   0.217  17.351  0.5156  0.2278  0.4735
 5008SOL    HW126486   1.011   0.257  17.327  2.3619  3.0410 -1.2800
 5008SOL    HW226487   1.156   0.250  17.285  0.4236 -1.8539 -0.6538
 5009SOL     OW26488   1.117   1.934   3.610  0.0641  0.2242 -0.0302
 5009SOL    HW126489   1.087   1.921   3.700 -1.0209  1.3321 -0.2314
 5009SOL    HW226490   1.144   1.845   3.590 -1.2579  0.3262 -2.2555
 5010SOL     OW26491   0.760   3.189   8.675 -0.4803  0.6803 -0.6483
 5010SOL    HW126492   0.674   3.212   8.711 -0.0031 -1.3712  1.7713
 5010SOL    HW226493   0.817   3.220   8.745 -1.2594 -0.8174  0.6540
 5011SOL     OW26494   3.226   2.382   3.119 -0.1529 -0.1220 -0.2636
 5011SOL    HW126495   3.217   2.461   3.066  0.1541  0.7458  0.9794
 5011SOL    HW226496   3.178   2.412   3.196  0.5171  0.6210 -0.1395
 5012SOL     OW26497   0.898   4.662   6.920 -0.1026  0.2787  0.3107
 5012SOL    HW126498   0.950   0.000   6.868  0.0852  1.2316  1.6333
 5012SOL    HW226499   0.827   4.635   6.862  0.5810 -2.1952  0.6510
 5013SOL     OW26500   2.065   2.031   1.354 -0.0047 -0.4392  0.0109
 5013SOL    HW126501   2.004   2.085   1.304  1.7250  0.9907 -0.5748
 5013SOL    HW226502   2.135   2.032   1.288  1.2536  1.7487  1.3853
 5014SOL     OW26503   3.072   4.682   1.853  0.6479 -0.3375 -0.0663
 5014SOL    HW126504   3.068   4.694   1.948  1.6062 -0.7185  0.0221
 5014SOL    HW226505   3.047   4.590   1.848 -2.3078  0.4950 -0.4510
 5015SOL     OW26506   2.793   2.030   1.571  0.4174 -0.1390  0.2029
 5015SOL    HW126507   2.734   2.103   1.552  0.7781 -0.2340 -1.2666
 5015SOL    HW226508   2.802   2.025   1.666  3.2800 -1.2255 -0.1465
 5016SOL     OW26509   0.708   0.619   0.924 -0.1924 -0.4323 -0.4710
 5016SOL    HW126510   0.798   0.642   0.945 -0.8673  1.4939  0.2740
 5016SOL    HW226511   0.725   0.537   0.877 -1.6770 -0.3510 -1.1422
 5017SOL     OW26512   2.648   2.401   7.693  0.2717  0.2110  0.5493
 5017SOL    HW126513   2.666   2.348   7.771  0.5418  0.0430  0.3763
 5017SOL    HW226514   2.569   2.443   7.725  0.3256  1.7894 -1.4104
 5018SOL     OW26515   2.528   4.364  11.443  0.1012  0.1956  0.6854
 5018SOL    HW126516   2.594   4.398  11.503  1.0767  2.6997 -1.8167
 5018SOL    HW226517   2.518   4.430  11.375  0.3318 -2.0497 -1.5444
 5019SOL     OW26518   1.523   0.934   3.182  0.5671  0.0171 -0.4288
 5019SOL    HW126519   1.468   0.899   3.252 -0.1038  1.5342 -0.2046
 5019SOL    HW226520   1.538   0.859   3.125 -0.1856  0.2866 -0.9840
 5020SOL     OW26521   4.623   2.801   6.424 -0.2583 -0.0838  0.1820
 5020SOL    HW126522   4.577   2.733   6.374  1.0183 -1.8291  1.4294
 5020SOL    HW226523   4.561   2.821   6.494 -2.9738 -0.1160 -2.2099
 5021SOL     OW26524   1.877   1.457   7.120 -0.2131  0.0735  0.8135
 5021SOL    HW126525   1.822   1.384   7.148 -2.3344  0.9979 -0.8939
 5021SOL    HW226526   1.958   1.417   7.149 -0.6675  1.4003  3.9681
 5022SOL     OW26527   0.930   3.496   6.144  0.1095 -0.3497 -0.1819
 5022SOL    HW126528   0.997   3.442   6.103  0.3403 -2.0695  2.5043
 5022SOL    HW226529   0.988   3.571   6.161 -1.4596  0.8441 -0.0338
 5023SOL     OW26530   3.420   0.293  11.648  0.4990 -0.7008  0.2919
 5023SOL    HW126531   3.389   0.330  11.565 -1.3104  0.2500  1.3829
 5023SOL    HW226532   3.513   0.304  11.627  0.3210 -0.1247 -0.2237
 5024SOL     OW26533   3.277   1.164   8.474  0.1399 -0.5517  0.0613
 5024SOL    HW126534   3.233   1.244   8.503  0.0376 -0.3773 -0.5836
 5024SOL    HW226535   3.221   1.094   8.506 -1.7336  0.9301 -0.0196
 5025SOL     OW26536   4.668   1.093   2.765  0.0811  0.0997  0.5225
 5025SOL    HW126537   0.024   1.052   2.796  1.0416  1.6614  0.1057
 5025SOL    HW226538   4.696   1.185   2.761 -1.0818  0.3780 -1.3913
 5026SOL     OW26539   1.779   4.475  12.475  0.1083 -0.1604 -0.0798
 5026SOL    HW126540   1.856   4.420  12.460  1.3775  1.8861 -1.0536
 5026SOL    HW226541   1.802   4.558  12.434 -1.0962 -0.0711 -0.5739
 5027SOL     OW26542   0.978   1.171   2.144 -0.5870 -0.2970 -0.3894
 5027SOL    HW126543   0.941   1.084   2.126 -0.4258 -0.6207  0.8153
 5027SOL    HW226544   1.000   1.204   2.057 -0.5866  0.1868 -0.2050
 5028SOL     OW26545   1.772   0.986   7.157 -0.6282  0.2299  0.3137
 5028SOL    HW126546   1.845   0.968   7.217 -1.5405 -1.9680  0.7349
 5028SOL    HW226547   1.796   0.926   7.087 -1.6026 -0.1508  0.3119
 5029SOL     OW26548   0.498   3.583   6.316  0.3692 -0.1195  0.1466
 5029SOL    HW126549   0.493   3.585   6.220  0.9248 -1.1993  0.0926
 5029SOL    HW226550   0.590   3.558   6.328 -0.0226 -0.5515  2.1748
 5030SOL     OW26551   0.188   2.764   6.500 -0.5361  0.0066  0.2861
 5030SOL    HW126552   0.152   2.721   6.578 -1.2915 -0.2411 -0.1995
 5030SOL    HW226553   0.106   2.764   6.452 -0.6838  1.0375  0.5304
 5031SOL     OW26554   0.045   3.708   5.190 -0.5551 -0.3861  0.2993
 5031SOL    HW126555   4.714   3.782   5.163  0.0693  0.7383  2.0970
 5031SOL    HW226556   4.708   3.656   5.243 -0.5124 -1.2101 -0.4732
 5032SOL     OW26557   0.867   3.352   8.869 -0.4951  0.6247 -0.1922
 5032SOL    HW126558   0.880   3.350   8.964 -0.9571  0.8443 -0.1253
 5032SOL    HW226559   0.828   3.439   8.865 -1.3665  0.1523 -1.9492
 5033SOL     OW26560   0.748   4.526   1.979 -0.7335 -0.4416 -0.4144
 5033SOL    HW126561   0.807   4.593   2.012  0.3762 -2.3808  1.4944
 5033SOL    HW226562   0.698   4.500   2.056 -0.7806 -0.3424 -0.4120
 5034SOL     OW26563   2.196   0.428   3.233  0.4525 -0.1178 -0.9109
 5034SOL    HW126564   2.102   0.443   3.230  0.3058 -0.5419  1.3720
 5034SOL    HW226565   2.215   0.479   3.155  2.0791 -2.5700 -2.1161
 5035SOL     OW26566   0.737   1.716   3.372  0.3604  0.5533 -0.1049
 5035SOL    HW126567   0.779   1.640   3.412  0.7456  1.7855  1.8720
 5035SOL    HW226568   0.789   1.779   3.421  1.0460  1.4196 -1.9548
 5036SOL     OW26569   1.701   2.110  17.028  0.2721 -0.1017 -0.2185
 5036SOL    HW126570   1.699   2.042  17.095 -3.5416  0.3030  0.0619
 5036SOL    HW226571   1.794   2.134  17.027  0.9534 -2.7500  0.7373
 5037SOL     OW26572   2.167   1.124   6.307  0.1009 -0.1428 -0.0793
 5037SOL    HW126573   2.107   1.054   6.336  0.3458 -0.5740 -0.6129
 5037SOL    HW226574   2.113   1.186   6.259  0.3863 -0.3504 -0.6641
 5038SOL     OW26575   4.540   4.216   3.847 -0.4654 -0.5689 -0.4276
 5038SOL    HW126576   4.470   4.263   3.891 -2.5937 -3.2206 -0.9800
 5038SOL    HW226577   4.586   4.276   3.788  0.9163  0.6727  1.9340
 5039SOL     OW26578   0.589   1.683   4.129 -0.2122 -0.0933  0.0451
 5039SOL    HW126579   0.623   1.701   4.216 -0.5631 -1.8588  0.5359
 5039SOL    HW226580   0.652   1.730   4.074  0.2625  1.0717  1.5798
 5040SOL     OW26581   3.269   1.259   4.404  0.3346 -0.5224 -0.4132
 5040SOL    HW126582   3.290   1.352   4.406 -2.3287  0.0808 -0.1345
 5040SOL    HW226583   3.217   1.260   4.324 -1.5568  0.3030  0.8383
 5041SOL     OW26584   3.987   3.501  10.032  0.2746  0.1611  0.1371
 5041SOL    HW126585   3.908   3.487  10.084  0.7909 -3.4788 -0.0945
 5041SOL    HW226586   3.959   3.568   9.970  0.6894  0.5621  0.3795
 5042SOL     OW26587   3.792   2.755   1.193  0.1501  0.2142  0.1222
 5042SOL    HW126588   3.784   2.735   1.286  0.0569  0.9054  0.2656
 5042SOL    HW226589   3.767   2.848   1.196  0.3995  0.2970 -0.3629
 5043SOL     OW26590   3.133   0.625  11.229  0.5230 -0.2828  0.0891
 5043SOL    HW126591   3.159   0.546  11.277  1.5883 -0.7572 -1.2629
 5043SOL    HW226592   3.037   0.621  11.222  0.8929 -4.0239 -2.8901
 5044SOL     OW26593   0.094   4.238   1.368  0.0497 -0.1617  0.2715
 5044SOL    HW126594   0.038   4.283   1.432  2.8680  3.0492  0.4802
 5044SOL    HW226595   0.067   4.146   1.365  0.2644 -0.1290 -2.6765
 5045SOL     OW26596   3.423   4.448   0.628 -0.6642  0.2088  0.4753
 5045SOL    HW126597   3.487   4.434   0.559 -0.0488 -0.2473  1.1404
 5045SOL    HW226598   3.343   4.473   0.581 -1.6019 -1.0071  1.4333
 5046SOL     OW26599   3.835   2.346   1.993  0.4296  0.2100  0.0003
 5046SOL    HW126600   3.787   2.409   2.047 -1.5216 -1.4212  0.1670
 5046SOL    HW226601   3.779   2.313   1.923 -1.6696  3.9130 -0.0873
 5047SOL     OW26602   4.651   3.939   0.439  0.3961 -0.2745 -0.7679
 5047SOL    HW126603   0.023   3.935   0.444  0.1708 -0.4160  3.4984
 5047SOL    HW226604   4.621   3.909   0.525 -0.8957 -2.0069 -1.8411
 5048SOL     OW26605   0.813   2.187   4.794  0.0357 -0.3397  0.0191
 5048SOL    HW126606   0.852   2.269   4.766  0.5184  0.3337  2.6548
 5048SOL    HW226607   0.816   2.147   4.707  0.4658  0.5535 -0.3740
 5049SOL     OW26608   2.133   0.596   5.790 -0.5770 -0.0537 -0.3641
 5049SOL    HW126609   2.038   0.587   5.800 -0.8847  3.4884 -0.0129
 5049SOL    HW226610   2.128   0.605   5.695 -1.8060 -1.3186 -0.4138
 5050SOL     OW26611   2.422   0.758   7.251  0.2999 -0.1001  0.4637
 5050SOL    HW126612   2.386   0.700   7.185 -1.0656  1.1207  0.1539
 5050SOL    HW226613   2.363   0.748   7.325 -0.4346  3.2986  0.3119
 5051SOL     OW26614   0.234   1.674   6.750  0.1749  0.4338  0.9287
 5051SOL    HW126615   0.175   1.725   6.695  0.7569 -0.2735 -0.3499
 5051SOL    HW226616   0.262   1.744   6.810 -1.3888  1.8224  0.0253
 5052SOL     OW26617   3.289   0.945   4.244  0.4836 -0.5521 -0.3845
 5052SOL    HW126618   3.290   0.866   4.298  0.0347 -0.9932 -1.0210
 5052SOL    HW226619   3.370   0.989   4.270  1.3295 -1.3011 -1.7647
 5053SOL     OW26620   4.561   2.552   7.144 -0.5793 -0.6615 -0.2560
 5053SOL    HW126621   4.546   2.562   7.050  1.9574  0.6860 -0.5214
 5053SOL    HW226622   4.560   2.639   7.183  1.7827  0.7440 -3.3898
 5054SOL     OW26623   2.766   0.973  12.836 -0.1329  0.1733 -0.2215
 5054SOL    HW126624   2.809   1.000  12.755  1.4217 -0.4208  0.4055
 5054SOL    HW226625   2.740   0.889  12.798 -2.5642  0.5629  0.6291
 5055SOL     OW26626   1.179   3.821   5.607  0.0141 -0.8732 -0.2908
 5055SOL    HW126627   1.234   3.747   5.579  1.5584  0.5609 -1.0738
 5055SOL    HW226628   1.192   3.879   5.532  0.7787 -1.2940 -0.4893
 5056SOL     OW26629   3.939   1.393   6.052 -0.5637  0.7964 -0.2119
 5056SOL    HW126630   3.930   1.312   6.002  0.7731 -1.5074  3.2298
 5056SOL    HW226631   3.936   1.469   5.994  1.2000  0.0572 -1.2636
 5057SOL     OW26632   0.623   1.720   8.767  0.0514  0.0464 -0.2097
 5057SOL    HW126633   0.638   1.715   8.673  1.3845 -2.4093  0.1126
 5057SOL    HW226634   0.552   1.784   8.759 -0.2847 -0.2263  0.5546
 5058SOL     OW26635   1.239   4.555   5.825 -0.0666  0.2576  0.4232
 5058SOL    HW126636   1.292   4.476   5.833 -0.4385  0.1085  1.4845
 5058SOL    HW226637   1.287   4.620   5.875  2.5508 -1.6191  0.3633
 5059SOL     OW26638   1.634   3.177   3.572  0.1232 -0.3895 -0.4322
 5059SOL    HW126639   1.553   3.171   3.623  0.8947 -0.4823  0.7759
 5059SOL    HW226640   1.627   3.257   3.519 -1.3178  0.1192  0.5291
 5060SOL     OW26641   4.001   4.495   7.070  0.4317 -0.1072 -0.2568
 5060SOL    HW126642   3.945   4.422   7.043 -1.4299  2.2152 -2.6846
 5060SOL    HW226643   3.985   4.558   7.000  0.9822 -0.3002 -0.5604
 5061SOL     OW26644   0.894   3.707   5.191  0.5051  0.3667 -0.0197
 5061SOL    HW126645   0.864   3.797   5.208  0.1548  0.7560 -2.7128
 5061SOL    HW226646   0.966   3.699   5.253 -1.3071 -0.1299  2.0095
 5062SOL     OW26647   0.473   4.122   2.721 -0.0459 -0.0391 -0.3326
 5062SOL    HW126648   0.392   4.151   2.763 -0.0939  3.3047 -2.7149
 5062SOL    HW226649   0.535   4.187   2.755 -0.2477 -0.7591  1.4395
 5063SOL     OW26650   1.508   1.080   5.541 -0.4317 -0.4170  0.0997
 5063SOL    HW126651   1.443   1.137   5.500 -0.4485 -1.3659 -1.1663
 5063SOL    HW226652   1.510   1.004   5.483  0.1171 -0.1172 -0.2789
 5064SOL     OW26653   3.396   4.461   0.260 -0.6381 -0.2180 -0.3781
 5064SOL    HW126654   3.414   4.378   0.216 -1.3686  0.3276 -1.6975
 5064SOL    HW226655   3.387   4.516   0.183 -1.0849 -1.6822 -1.3796
 5065SOL     OW26656   4.506   1.332   3.768  0.2714 -0.0419 -1.1278
 5065SOL    HW126657   4.437   1.387   3.805  1.1723  0.3375 -0.0173
 5065SOL    HW226658   4.463   1.249   3.749  0.7584 -0.6100  0.2404
 5066SOL     OW26659   1.706   1.804   2.984 -0.1234  0.3660  0.4105
 5066SOL    HW126660   1.638   1.851   2.935 -0.6305  0.0756  0.8298
 5066SOL    HW226661   1.755   1.877   3.022  0.9353  0.1598 -0.5790
 5067SOL     OW26662   0.074   2.599   6.705  0.2038  0.4802  0.0067
 5067SOL    HW126663   4.713   2.567   6.737 -1.1422 -0.1272 -4.1889
 5067SOL    HW226664   0.124   2.604   6.787 -2.8167 -0.6450  1.9268
 5068SOL     OW26665   3.728   2.864   9.277  0.2500 -0.2996 -0.0386
 5068SOL    HW126666   3.757   2.822   9.358  3.6872  2.1712  0.0412
 5068SOL    HW226667   3.660   2.924   9.307  0.4207 -0.4191  0.5965
 5069SOL     OW26668   1.621   2.376  11.091 -0.1721 -0.2969 -0.0655
 5069SOL    HW126669   1.558   2.354  11.023 -1.1501 -0.0641  0.7611
 5069SOL    HW226670   1.700   2.352  11.043  1.2226 -0.8354  2.4888
 5070SOL     OW26671   4.101   2.667   5.984 -0.5136 -0.2084 -0.1005
 5070SOL    HW126672   4.098   2.703   6.072 -1.4583 -1.6010  0.4379
 5070SOL    HW226673   4.195   2.668   5.967 -0.2826 -0.4633  1.2252
 5071SOL     OW26674   0.412   2.803  14.270  0.2198  0.5834  0.3616
 5071SOL    HW126675   0.485   2.856  14.238 -0.6074  1.4020 -0.1728
 5071SOL    HW226676   0.377   2.762  14.191  2.2692 -0.0067 -0.2374
 5072SOL     OW26677   1.582   2.435   8.327  0.3938  0.1483  0.2770
 5072SOL    HW126678   1.500   2.407   8.367 -1.3563  3.3901 -0.9976
 5072SOL    HW226679   1.635   2.377   8.381  2.6753  0.7038 -1.3459
 5073SOL     OW26680   2.942   1.384   8.963 -0.1631 -0.2714 -0.9571
 5073SOL    HW126681   2.998   1.307   8.963  1.0044  0.5799  1.4927
 5073SOL    HW226682   2.852   1.351   8.957 -0.4711  0.8723 -2.8255
 5074SOL     OW26683   2.419   1.045   3.864  0.5728  0.0620  0.0221
 5074SOL    HW126684   2.505   1.027   3.825  0.0742 -2.2370  0.0032
 5074SOL    HW226685   2.435   1.044   3.958  0.7847  0.7014 -0.0019
 5075SOL     OW26686   4.133   3.757   3.986 -0.5371  0.1410 -0.4433
 5075SOL    HW126687   4.152   3.849   3.969 -0.3046  0.5456  2.0341
 5075SOL    HW226688   4.124   3.717   3.899  1.2974 -1.0981 -0.0438
 5076SOL     OW26689   4.274   2.998   3.740  0.0562  0.5408  0.1100
 5076SOL    HW126690   4.266   2.908   3.710  1.9054  0.5405 -0.4074
 5076SOL    HW226691   4.195   3.031   3.698 -0.9036 -0.3285  1.2407
 5077SOL     OW26692   2.194   0.280   7.740  0.1925  0.0146  0.4686
 5077SOL    HW126693   2.244   0.349   7.697  2.7357 -1.2513  1.4086
 5077SOL    HW226694   2.118   0.270   7.682  1.8246 -0.1432 -1.6555
 5078SOL     OW26695   4.570   4.072  13.734  0.2847  0.2662  0.0539
 5078SOL    HW126696   4.636   4.089  13.800 -0.3517  0.5362  0.6226
 5078SOL    HW226697   4.523   3.999  13.774 -1.1498  0.4877 -1.2052
 5079SOL     OW26698   3.304   2.136   2.102 -0.4413  0.1107  0.6141
 5079SOL    HW126699   3.213   2.131   2.070  0.4910  1.1529 -2.2173
 5079SOL    HW226700   3.313   2.049   2.142 -0.7000 -0.0634  0.3010
 5080SOL     OW26701   3.831   4.716  16.360  0.1353 -0.2351  0.0345
 5080SOL    HW126702   3.804   4.664  16.284 -2.4967  0.7951  0.2797
 5080SOL    HW226703   3.817   0.082  16.330 -1.4226 -0.6884 -0.5610
 5081SOL     OW26704   0.101   0.747  10.257 -0.0251  0.0785  0.5508
 5081SOL    HW126705   0.130   0.656  10.256 -3.0320 -0.8662 -0.9946
 5081SOL    HW226706   0.058   0.745  10.343  1.6152 -0.3244  1.3671
 5082SOL     OW26707   4.083   0.299   1.801  0.0219 -0.0355  0.1061
 5082SOL    HW126708   4.177   0.279   1.800 -0.3085 -1.5833 -1.3073
 5082SOL    HW226709   4.064   0.267   1.889  0.2799 -1.9775 -0.5521
 5083SOL     OW26710   1.632   1.276   2.433 -0.0919 -0.2846  0.0425
 5083SOL    HW126711   1.703   1.326   2.393  0.2698 -1.0015 -0.2209
 5083SOL    HW226712   1.675   1.192   2.447 -1.2219 -1.0699 -1.2296
 5084SOL     OW26713   1.667   3.396   5.636 -1.2393 -0.1325  0.1953
 5084SOL    HW126714   1.693   3.385   5.545 -0.9467  4.0297 -0.2311
 5084SOL    HW226715   1.752   3.405   5.679 -2.1794  2.2199  1.5546
 5085SOL     OW26716   1.038   1.713   9.840  1.3820  0.1247  0.2761
 5085SOL    HW126717   1.027   1.682   9.930 -0.3604 -2.0003 -0.6530
 5085SOL    HW226718   0.998   1.800   9.844  1.2325 -0.0204  1.8476
 5086SOL     OW26719   3.737   0.009  14.106  0.2477 -0.3703 -0.0430
 5086SOL    HW126720   3.700   4.654  14.147  0.8761 -0.9680 -0.6178
 5086SOL    HW226721   3.814   0.015  14.161  2.3764  0.3665 -3.0796
 5087SOL     OW26722   2.250   0.166   2.864  0.1416 -0.1917 -0.7257
 5087SOL    HW126723   2.220   0.234   2.804  0.3833  1.9039  1.5145
 5087SOL    HW226724   2.198   0.087   2.851 -1.6111  0.9123 -0.4495
 5088SOL     OW26725   0.083   3.016   6.599  0.1840 -0.2425 -0.0075
 5088SOL    HW126726   0.051   2.978   6.681 -0.0002 -0.6016 -0.2433
 5088SOL    HW226727   0.137   2.943   6.567  2.3145  0.6801  1.5021
 5089SOL     OW26728   4.177   2.231   6.427  0.2191  0.2214  0.3683
 5089SOL    HW126729   4.200   2.285   6.351 -0.0976  0.3453  0.3608
 5089SOL    HW226730   4.224   2.150   6.410  0.0410 -0.0131  0.9770
 5090SOL     OW26731   2.938   1.599  15.642 -0.0265 -0.2396 -0.0169
 5090SOL    HW126732   2.892   1.578  15.723 -2.8581  1.7331 -1.1435
 5090SOL    HW226733   2.984   1.680  15.663  1.4992 -1.4031  1.1710
 5091SOL     OW26734   3.986   2.211   7.169 -0.1407 -0.3163 -0.2752
 5091SOL    HW126735   3.909   2.242   7.215  1.4376 -0.3024  2.3422
 5091SOL    HW226736   3.962   2.122   7.141 -1.6204  0.5715 -1.8139
 5092SOL     OW26737   3.510   3.507   9.081 -0.0100 -0.1527  0.1347
 5092SOL    HW126738   3.504   3.502   8.986  0.0788  1.4307  0.0452
 5092SOL    HW226739   3.428   3.548   9.109 -0.7523 -2.3320  1.1575
 5093SOL     OW26740   3.746   3.678   6.630 -0.5078  0.1391  0.4390
 5093SOL    HW126741   3.748   3.688   6.535 -0.5776  1.0586  0.5392
 5093SOL    HW226742   3.779   3.588   6.636  0.0532  0.2114 -1.6303
 5094SOL     OW26743   1.397   1.832  14.284 -1.0237  0.1288 -0.4824
 5094SOL    HW126744   1.403   1.907  14.344  0.1448 -0.2038 -0.1782
 5094SOL    HW226745   1.382   1.755  14.338  1.1448  0.9509  1.3317
 5095SOL     OW26746   1.021   1.847  14.558 -0.0237  0.2081 -0.4530
 5095SOL    HW126747   0.941   1.898  14.566  1.2424  2.2515 -0.8480
 5095SOL    HW226748   1.086   1.892  14.612 -0.0046 -0.9187  0.4738
 5096SOL     OW26749   1.641   2.449  16.349 -0.3304  0.1733 -0.3455
 5096SOL    HW126750   1.634   2.353  16.350  1.3500  0.0403 -1.9062
 5096SOL    HW226751   1.585   2.467  16.424 -1.3011 -0.6990 -0.8693
 5097SOL     OW26752   2.927   3.463   1.230 -0.5248  0.1200  0.2691
 5097SOL    HW126753   2.853   3.447   1.289 -0.3563 -1.1331  0.1396
 5097SOL    HW226754   2.942   3.557   1.237  0.8266 -0.0990  0.3561
 5098SOL     OW26755   2.875   4.324   8.455 -0.1412 -0.0014  0.1996
 5098SOL    HW126756   2.819   4.400   8.475  0.5382  0.4856  0.2342
 5098SOL    HW226757   2.911   4.336   8.367  0.4888  1.0172  0.5931
 5099SOL     OW26758   0.068   1.119   4.205  0.6879  0.2086 -0.0336
 5099SOL    HW126759   0.007   1.140   4.134 -0.3613 -1.3592  0.4174
 5099SOL    HW226760   0.104   1.206   4.222  0.3018  0.2286  0.6926
 5100SOL     OW26761   2.211   2.837   4.997  0.4195 -0.7181  0.3495
 5100SOL    HW126762   2.290   2.867   5.041  1.5976  0.3019 -2.4870
 5100SOL    HW226763   2.236   2.845   4.905 -3.1943  0.0240 -0.5834
 5101SOL     OW26764   2.847   0.988   6.677 -0.2261 -0.6631  0.6749
 5101SOL    HW126765   2.838   1.017   6.587  0.8111 -1.3379  0.3465
 5101SOL    HW226766   2.810   0.900   6.670 -1.4892 -0.1044  0.3601
 5102SOL     OW26767   3.934   2.274   3.946 -0.1665  0.0407 -0.5201
 5102SOL    HW126768   3.970   2.296   3.860 -0.0120  3.1536  0.3610
 5102SOL    HW226769   3.919   2.362   3.980 -0.3416 -1.1262  2.4037
 5103SOL     OW26770   3.337   4.283   6.661 -0.5237  0.2641  0.5072
 5103SOL    HW126771   3.307   4.192   6.660 -1.5951  0.5981  2.9083
 5103SOL    HW226772   3.429   4.260   6.675 -0.0833  1.1328 -0.9305
 5104SOL     OW26773   0.274   1.635   1.204  0.0405 -0.1030 -0.1910
 5104SOL    HW126774   0.327   1.715   1.205  0.4918 -0.3872 -1.4516
 5104SOL    HW226775   0.340   1.575   1.240 -1.6279 -1.1364  1.0890
 5105SOL     OW26776   4.539   2.113  11.699  0.0220  0.3689 -0.0198
 5105SOL    HW126777   4.585   2.030  11.717 -0.2097  0.3372  0.4346
 5105SOL    HW226778   4.599   2.175  11.741 -0.0469  0.3928  0.0420
 5106SOL     OW26779   0.328   4.467   4.175  0.0059  0.1951 -0.3532
 5106SOL    HW126780   0.356   4.390   4.125  1.2274  1.3976 -1.5197
 5106SOL    HW226781   0.236   4.466   4.146 -0.8760 -0.1102  2.4051
 5107SOL     OW26782   1.496   1.093  10.936 -0.2503  0.1041  0.0588
 5107SOL    HW126783   1.570   1.034  10.953 -1.9419 -2.5161 -1.7052
 5107SOL    HW226784   1.499   1.158  11.006 -3.3276 -0.3681  0.6105
 5108SOL     OW26785   0.871   1.836   8.379 -0.1147  0.5226  0.1701
 5108SOL    HW126786   0.871   1.928   8.353  1.2272  0.6961  0.7719
 5108SOL    HW226787   0.792   1.829   8.433 -0.3278  0.3623 -0.1598
 5109SOL     OW26788   0.753   0.836   2.700  0.3179 -0.0369  0.0055
 5109SOL    HW126789   0.712   0.916   2.733 -0.0660 -0.5401  0.7467
 5109SOL    HW226790   0.833   0.875   2.664  1.9004 -2.9801  0.3372
 5110SOL     OW26791   1.196   1.216   7.226  0.1095  0.0183  0.3538
 5110SOL    HW126792   1.279   1.226   7.179  0.3782  0.8798  1.0037
 5110SOL    HW226793   1.194   1.298   7.276  0.5775  0.8055 -0.9115
 5111SOL     OW26794   3.484   3.030   5.594  0.2730 -0.0576 -0.0256
 5111SOL    HW126795   3.402   3.040   5.643 -0.5227 -0.3514 -1.3045
 5111SOL    HW226796   3.470   3.098   5.528 -0.1296 -0.6107 -0.5091
 5112SOL     OW26797   3.043   2.221   7.456  0.3139  0.0418  0.2953
 5112SOL    HW126798   2.955   2.253   7.478  0.5887 -0.1429  1.6698
 5112SOL    HW226799   3.080   2.280   7.390 -0.9494 -0.5312 -0.9237
 5113SOL     OW26800   2.787   1.294   2.035 -0.2465 -0.1918  0.5988
 5113SOL    HW126801   2.758   1.274   1.945  4.3794 -1.6103 -0.5900
 5113SOL    HW226802   2.764   1.218   2.088  1.1655 -1.3854 -0.4940
 5114SOL     OW26803   2.147   0.782   4.626  0.0161 -0.4340  0.0199
 5114SOL    HW126804   2.165   0.875   4.633 -0.3981 -0.2363 -1.6509
 5114SOL    HW226805   2.052   0.765   4.629 -0.2707  0.9954 -1.4025
 5115SOL     OW26806   0.169   3.399   8.833  0.3725 -0.0603 -0.6922
 5115SOL    HW126807   0.109   3.471   8.853 -1.2595 -1.6211 -0.0711
 5115SOL    HW226808   0.173   3.409   8.737 -1.4120 -0.8701 -0.8463
 5116SOL     OW26809   3.985   0.818   4.700  0.3763 -0.4853 -0.3991
 5116SOL    HW126810   4.010   0.859   4.783 -0.8709  0.0917 -0.3095
 5116SOL    HW226811   3.892   0.807   4.721  0.0631 -1.8288 -2.4598
 5117SOL     OW26812   0.391   2.417   8.045  0.6993  0.0578 -0.7494
 5117SOL    HW126813   0.408   2.464   7.963  0.5993 -0.3076 -0.9814
 5117SOL    HW226814   0.461   2.454   8.099 -0.3415 -1.1641  1.4041
 5118SOL     OW26815   3.406   3.113   0.504 -0.5188 -0.2926  0.1354
 5118SOL    HW126816   3.368   3.180   0.560 -1.6073 -1.1507  0.4126
 5118SOL    HW226817   3.452   3.164   0.436 -0.1979  2.0810  2.1396
 5119SOL     OW26818   3.598   0.734   5.913 -0.1333 -0.6330 -0.3254
 5119SOL    HW126819   3.560   0.739   6.001 -0.6556 -2.6709 -0.4259
 5119SOL    HW226820   3.522   0.766   5.864  1.0014  0.0454 -1.6085
 5120SOL     OW26821   0.383   1.734   1.990 -0.0621  0.1632 -0.4579
 5120SOL    HW126822   0.366   1.641   2.007  0.0263 -0.1733 -2.1455
 5120SOL    HW226823   0.469   1.744   2.032 -0.3421 -0.2888  0.2230
 5121SOL     OW26824   2.873   3.882   4.959  0.2697 -0.0741  0.2718
 5121SOL    HW126825   2.896   3.842   5.043 -2.3303 -1.3925  0.3544
 5121SOL    HW226826   2.778   3.879   4.958  0.3145 -0.9838 -0.5434
 5122SOL     OW26827   0.045   4.520   0.271 -0.0862  0.7640 -0.2823
 5122SOL    HW126828   0.015   4.524   0.180 -0.1253  1.1670 -0.2508
 5122SOL    HW226829   0.066   4.427   0.274  0.5917  0.9559  1.1085
 5123SOL     OW26830   1.496   2.573   4.647 -0.4593 -0.0877  0.4310
 5123SOL    HW126831   1.534   2.490   4.677 -0.3660  0.2399  1.2100
 5123SOL    HW226832   1.414   2.531   4.622 -1.1272  1.4193  0.1158
 5124SOL     OW26833   1.214   3.274   0.390 -0.3077  0.0362 -0.9633
 5124SOL    HW126834   1.302   3.306   0.372  0.2020 -0.2305  1.0786
 5124SOL    HW226835   1.170   3.353   0.422  1.5076  0.6354 -0.0002
 5125SOL     OW26836   2.611   4.436   3.274  0.3879 -0.3280 -0.4671
 5125SOL    HW126837   2.617   4.341   3.289  1.2235 -0.5355 -2.0910
 5125SOL    HW226838   2.520   4.437   3.304  0.1155 -1.2197 -1.2554
 5126SOL     OW26839   4.610   2.307   5.035  0.1827  0.1383  0.3996
 5126SOL    HW126840   4.656   2.258   5.104 -1.4299 -2.5084 -0.4254
 5126SOL    HW226841   4.591   2.234   4.976 -0.8624  0.5040  0.2942
 5127SOL     OW26842   1.495   4.599   5.043  0.0195  0.0061  0.5200
 5127SOL    HW126843   1.415   4.547   5.043  0.9041 -1.3612  1.7009
 5127SOL    HW226844   1.472   4.646   5.123 -0.8667  0.7050 -0.1478
 5128SOL     OW26845   0.381   4.026   6.717  0.5222 -0.2252 -0.0422
 5128SOL    HW126846   0.406   3.934   6.729  0.2229 -0.3067 -0.0384
 5128SOL    HW226847   0.326   4.016   6.639  1.2940 -2.3340 -0.3255
 5129SOL     OW26848   0.001   1.092   1.402  0.2759  0.0288 -0.0095
 5129SOL    HW126849   0.002   1.005   1.362 -1.6465 -0.1900  0.4265
 5129SOL    HW226850   4.680   1.150   1.341 -0.8402 -2.1138 -1.2232
 5130SOL     OW26851   3.176   4.289  15.338 -0.5830  0.2924  0.2119
 5130SOL    HW126852   3.170   4.324  15.250  0.5506 -3.7928 -1.4941
 5130SOL    HW226853   3.183   4.197  15.314  0.4736  0.2564  0.6536
 5131SOL     OW26854   0.835   2.152   3.827 -0.3777 -0.2526 -0.3366
 5131SOL    HW126855   0.804   2.100   3.752  1.0301  1.0075 -1.8044
 5131SOL    HW226856   0.768   2.219   3.840  0.2023  0.5162 -1.2568
 5132SOL     OW26857   4.123   3.145   8.936 -0.2327  0.0117 -0.2826
 5132SOL    HW126858   4.182   3.099   8.996  0.1246  0.4970 -0.2617
 5132SOL    HW226859   4.067   3.072   8.912 -0.1480 -0.0133 -0.4033
 5133SOL     OW26860   2.491   2.609   7.779 -0.2656 -0.1928 -0.1219
 5133SOL    HW126861   2.421   2.618   7.713  1.4844 -1.6731 -2.1824
 5133SOL    HW226862   2.447   2.597   7.863 -1.5457  4.0143 -0.1799
 5134SOL     OW26863   4.520   3.518   8.681 -0.4555 -0.5040  1.4735
 5134SOL    HW126864   4.461   3.529   8.755 -0.3519 -1.6559  1.7153
 5134SOL    HW226865   4.536   3.424   8.680 -0.0335 -0.4207  0.3859
 5135SOL     OW26866   3.015   0.457   5.147 -0.5476 -0.0049  0.3537
 5135SOL    HW126867   3.022   0.466   5.052 -1.7471  0.1546  0.2821
 5135SOL    HW226868   2.981   0.543   5.170 -0.6181  0.4244 -1.4199
 5136SOL     OW26869   3.877   3.078  13.364 -0.2400  0.0758 -0.2754
 5136SOL    HW126870   3.962   3.044  13.339  0.7002  0.0454  2.9047
 5136SOL    HW226871   3.844   3.107  13.279 -0.0437  2.1678  0.3647
 5137SOL     OW26872   1.801   3.840  11.001  0.5843 -0.4476  0.4181
 5137SOL    HW126873   1.795   3.916  11.059  0.8885  0.5086 -0.8158
 5137SOL    HW226874   1.812   3.771  11.067  0.3463  0.1212  1.0550
 5138SOL     OW26875   0.998   1.605  10.927  0.3585  0.4249  0.0820
 5138SOL    HW126876   1.080   1.572  10.964 -0.5975 -0.3616  1.5036
 5138SOL    HW226877   0.937   1.539  10.959  0.1110 -0.5230 -2.3556
 5139SOL     OW26878   4.046   4.070  11.322 -0.8131  0.1577 -1.1328
 5139SOL    HW126879   3.960   4.026  11.325 -1.7067  1.9243 -0.9151
 5139SOL    HW226880   4.023   4.160  11.345  1.3045 -0.0908  1.8019
 5140SOL     OW26881   1.300   1.190  14.008  0.4763 -0.8166 -0.1814
 5140SOL    HW126882   1.330   1.160  14.093 -0.1635 -0.3277  0.2170
 5140SOL    HW226883   1.326   1.281  14.018  0.9374 -1.1255  1.3422
 5141SOL     OW26884   0.181   0.147   4.508  0.9391  0.0638  0.4386
 5141SOL    HW126885   0.087   0.156   4.526  1.0488  1.4802  0.2996
 5141SOL    HW226886   0.182   0.140   4.413 -2.4283 -0.4078  0.4401
 5142SOL     OW26887   2.634   0.990  14.669 -0.0524 -0.0458 -0.0295
 5142SOL    HW126888   2.581   1.018  14.594 -1.2823 -0.2940  0.7406
 5142SOL    HW226889   2.573   0.955  14.734  1.8962 -1.7423  0.8831
 5143SOL     OW26890   3.854   3.535   8.583  0.6312  0.5156  0.3458
 5143SOL    HW126891   3.794   3.481   8.635  1.2766 -1.2648 -0.7633
 5143SOL    HW226892   3.928   3.479   8.559 -0.6096 -0.5618 -0.9144
 5144SOL     OW26893   3.898   1.129   6.018  0.4449 -0.5566  0.0847
 5144SOL    HW126894   3.932   1.153   6.104 -1.6627 -0.0428  0.7771
 5144SOL    HW226895   3.933   1.039   6.014  1.5934 -0.1653  1.3473
 5145SOL     OW26896   3.572   0.688   4.423 -0.1537 -0.0104 -0.8366
 5145SOL    HW126897   3.664   0.713   4.415 -0.0433  0.5407  1.9294
 5145SOL    HW226898   3.570   0.656   4.514  1.7126 -1.6808 -1.3819
 5146SOL     OW26899   1.727   4.299  10.259 -0.0690 -0.6655 -0.4239
 5146SOL    HW126900   1.755   4.210  10.280 -1.1340 -0.9530 -0.2534
 5146SOL    HW226901   1.785   4.342  10.321  1.6668 -0.2693 -2.2941
 5147SOL     OW26902   0.955   2.743   0.406  0.2661  0.5548  0.1526
 5147SOL    HW126903   1.042   2.783   0.410  0.9930 -0.9597 -0.9318
 5147SOL    HW226904   0.939   2.743   0.500 -1.0508  1.6105 -0.0671
 5148SOL     OW26905   3.542   4.509  15.844  0.0052 -0.3361  0.9414
 5148SOL    HW126906   3.452   4.492  15.816 -0.0067 -1.1416  1.4838
 5148SOL    HW226907   3.527   4.595  15.884 -0.0196 -0.2579  0.7662
 5149SOL     OW26908   2.175   0.149   0.109  0.3459  0.1979 -0.6063
 5149SOL    HW126909   2.119   0.071   0.105  0.0451  0.2991  2.0027
 5149SOL    HW226910   2.115   0.222   0.095 -0.4280 -0.1445  0.9892
 5150SOL     OW26911   2.776   4.682   3.511 -0.3781  0.5604  0.8013
 5150SOL    HW126912   2.732   4.668   3.427 -0.7324  0.1231  1.0587
 5150SOL    HW226913   2.832   4.605   3.523 -0.1039  0.6355  0.0133
 5151SOL     OW26914   3.238   2.465   5.885  0.0825  0.0698 -0.0555
 5151SOL    HW126915   3.186   2.520   5.944 -1.5923  0.0487 -1.4933
 5151SOL    HW226916   3.318   2.445   5.934  0.2618  0.8804 -0.0164
 5152SOL     OW26917   3.883   3.439   0.188 -0.1854  0.1525  0.1190
 5152SOL    HW126918   3.900   3.450   0.282 -0.6316 -0.1753  0.2383
 5152SOL    HW226919   3.951   3.372   0.179 -1.2887 -1.3765  3.0423
 5153SOL     OW26920   4.167   0.653   1.125 -0.2069  0.1008 -0.4563
 5153SOL    HW126921   4.150   0.615   1.039 -0.2076  0.0282 -0.4247
 5153SOL    HW226922   4.142   0.578   1.179  1.3567 -3.4159 -4.6330
 5154SOL     OW26923   0.182   3.278   3.543 -0.4398 -0.0879 -0.0114
 5154SOL    HW126924   0.217   3.217   3.478 -0.6060  0.8345 -0.9737
 5154SOL    HW226925   0.110   3.225   3.577  2.2730 -3.5871  0.2292
 5155SOL     OW26926   2.339   1.416   4.210  0.3737  0.0124 -0.1763
 5155SOL    HW126927   2.423   1.371   4.201  0.2770 -0.5239  1.6863
 5155SOL    HW226928   2.302   1.349   4.268 -0.6214  0.1566 -0.6453
 5156SOL     OW26929   4.057   0.989   9.309  0.2219  0.1923  0.2252
 5156SOL    HW126930   4.038   0.972   9.401 -2.1276  0.9888 -0.1305
 5156SOL    HW226931   4.100   1.075   9.311 -1.1173  0.7571  3.2338
 5157SOL     OW26932   1.869   1.971   3.144 -0.0463  0.4727 -0.1159
 5157SOL    HW126933   1.941   1.908   3.140  1.4055  1.9827  2.4107
 5157SOL    HW226934   1.836   1.942   3.229 -1.3539  0.1118 -0.7440
 5158SOL     OW26935   2.454   0.240   3.878 -0.0222  0.1174  0.2183
 5158SOL    HW126936   2.385   0.185   3.914 -0.2656  0.6545  0.5813
 5158SOL    HW226937   2.515   0.174   3.845 -1.2891 -1.5800  1.2565
 5159SOL     OW26938   0.333   0.639  12.035  0.1230 -0.2446 -0.6279
 5159SOL    HW126939   0.324   0.607  11.945  2.0162 -0.3583 -0.7808
 5159SOL    HW226940   0.334   0.557  12.085 -0.2246  0.6670  0.8597
 5160SOL     OW26941   4.212   4.635   7.288 -0.1114 -0.1357  0.1272
 5160SOL    HW126942   4.274   4.672   7.351  2.4584 -2.6446 -0.9364
 5160SOL    HW226943   4.267   4.636   7.210 -1.7288 -0.8965 -1.0260
 5161SOL     OW26944   1.200   3.515  15.839 -0.3882 -0.0266  0.0593
 5161SOL    HW126945   1.251   3.490  15.762  0.4541  1.2760  0.1797
 5161SOL    HW226946   1.136   3.574  15.799  0.3735 -1.6996 -3.6360
 5162SOL     OW26947   3.331   4.630   4.687  0.0975  0.1695  0.7901
 5162SOL    HW126948   3.338   4.602   4.595  0.3619 -0.3497  0.9696
 5162SOL    HW226949   3.421   4.628   4.719  0.1998 -0.6938  0.4574
 5163SOL     OW26950   0.152   3.994   7.373  0.6516  0.0031  0.0420
 5163SOL    HW126951   0.105   3.961   7.296  0.4545  0.1578  0.0953
 5163SOL    HW226952   0.103   4.071   7.401  1.4407  1.2273 -1.9952
 5164SOL     OW26953   2.968   0.155  11.473 -0.4197  0.2264 -0.6999
 5164SOL    HW126954   2.973   0.087  11.406  0.1283 -0.5046  0.0911
 5164SOL    HW226955   2.925   0.112  11.547  0.6953  1.8576  0.8946
 5165SOL     OW26956   3.924   3.121  13.079  0.3008  0.2997 -0.4286
 5165SOL    HW126957   4.007   3.079  13.102 -1.3925 -0.6715  3.8718
 5165SOL    HW226958   3.950   3.141  12.989  1.3240  2.3428  0.3111
 5166SOL     OW26959   3.816   0.288  16.298 -0.4588  0.0901  0.1423
 5166SOL    HW126960   3.848   0.356  16.239 -0.5605  0.7891  0.8902
 5166SOL    HW226961   3.726   0.279  16.268  0.4191  2.8014 -3.2729
 5167SOL     OW26962   0.046   1.165   2.465  0.3384  0.0292 -0.3430
 5167SOL    HW126963   0.030   1.259   2.454 -1.1691 -0.3924 -1.7154
 5167SOL    HW226964   0.142   1.161   2.471  0.2136 -0.8371  1.1196
 5168SOL     OW26965   3.206   3.287   4.351 -0.3346  0.0064 -0.7092
 5168SOL    HW126966   3.227   3.262   4.261  0.4269 -0.2000 -0.4770
 5168SOL    HW226967   3.160   3.209   4.381 -0.7660  1.5683  2.7031
 5169SOL     OW26968   1.194   1.673  14.059  0.5831 -0.1137 -0.1988
 5169SOL    HW126969   1.229   1.761  14.048 -0.9508  0.7251  1.5850
 5169SOL    HW226970   1.135   1.686  14.133 -0.1795 -4.5561 -0.0183
 5170SOL     OW26971   4.523   2.576   8.004 -0.3011 -0.3005 -0.2113
 5170SOL    HW126972   4.468   2.629   8.061  1.0801  1.5083 -0.5726
 5170SOL    HW226973   4.612   2.575   8.039  0.1517  1.7782 -1.2801
 5171SOL     OW26974   3.907   2.842  13.901  0.1050 -0.0983  0.0281
 5171SOL    HW126975   3.881   2.793  13.824 -1.6241  0.5176  0.2191
 5171SOL    HW226976   3.824   2.848  13.948  0.3060 -1.9722  0.6081
 5172SOL     OW26977   1.124   4.265   6.024 -0.3214 -0.3093 -0.1335
 5172SOL    HW126978   1.115   4.243   6.117  0.5487 -0.5942 -0.1179
 5172SOL    HW226979   1.219   4.269   6.015 -0.3553  1.8053  0.6390
 5173SOL     OW26980   1.869   2.930   7.084 -0.1434 -0.5511  0.2366
 5173SOL    HW126981   1.925   2.957   7.157 -0.0089 -0.8118  0.2344
 5173SOL    HW226982   1.788   2.904   7.129 -1.1343  0.5519 -0.9355
 5174SOL     OW26983   1.152   3.503   3.190 -0.5493 -0.4792  0.0074
 5174SOL    HW126984   1.062   3.523   3.215 -0.4500  0.1227 -0.1369
 5174SOL    HW226985   1.151   3.479   3.097 -0.9229  1.5145 -0.4874
 5175SOL     OW26986   3.093   0.221   1.837  0.1543 -0.3041  0.6461
 5175SOL    HW126987   3.080   0.126   1.834  0.0027 -0.3389  2.5733
 5175SOL    HW226988   3.111   0.239   1.744 -0.2060 -2.4274  0.1714
 5176SOL     OW26989   0.335   2.521  15.516  0.1393 -0.2571 -0.2155
 5176SOL    HW126990   0.339   2.612  15.489 -0.3822 -0.1679  0.0222
 5176SOL    HW226991   0.305   2.498  15.427 -0.2878  1.7141 -0.5806
 5177SOL     OW26992   1.487   3.454   5.937 -0.2688  0.0047  0.5536
 5177SOL    HW126993   1.540   3.528   5.969  1.1359 -0.5876 -0.4068
 5177SOL    HW226994   1.490   3.484   5.846  0.7268 -0.4040  0.4516
 5178SOL     OW26995   4.219   1.247   9.321 -0.1978 -0.7111  0.0208
 5178SOL    HW126996   4.276   1.197   9.263 -0.0619  0.6236 -1.0049
 5178SOL    HW226997   4.290   1.291   9.368  0.2878 -0.8292 -0.6184
 5179SOL     OW26998   3.343   1.112  11.654  0.1309 -0.2779 -0.5964
 5179SOL    HW126999   3.335   1.039  11.715 -1.4394  0.5591  0.2061
 5179SOL    HW227000   3.257   1.155  11.659  0.6041  0.4059  1.8095
 5180SOL     OW27001   4.007   3.937   5.867 -0.4888 -0.0624  0.8178
 5180SOL    HW127002   3.958   3.854   5.863  0.8864 -0.7207 -2.8263
 5180SOL    HW227003   4.096   3.905   5.850 -0.7108 -0.1624 -0.1537
 5181SOL     OW27004   1.284   1.705   5.404  0.1142  0.1113  0.0826
 5181SOL    HW127005   1.190   1.721   5.418  0.2733  2.1605 -1.1695
 5181SOL    HW227006   1.323   1.790   5.425 -0.9744  1.2126 -2.3285
 5182SOL     OW27007   2.036   0.416   4.792 -0.5357  0.0048  0.1008
 5182SOL    HW127008   1.998   0.337   4.830  1.9763  0.0383  2.6763
 5182SOL    HW227009   2.034   0.478   4.865  1.4182 -1.7398  1.6582
 5183SOL     OW27010   2.042   3.528  13.471 -0.0452  0.3914 -0.1484
 5183SOL    HW127011   1.975   3.477  13.517 -1.5303  2.3105 -0.1911
 5183SOL    HW227012   2.011   3.615  13.496  2.8306  1.5444 -0.6012
 5184SOL     OW27013   2.172   2.749  13.777  0.0288 -0.1741  0.0002
 5184SOL    HW127014   2.222   2.799  13.712 -0.1252  0.7985  0.6177
 5184SOL    HW227015   2.170   2.662  13.738  0.7031 -0.3893  0.4407
 5185SOL     OW27016   4.671   3.034   4.997 -0.5036 -0.1577  0.5653
 5185SOL    HW127017   4.649   3.020   5.089  0.2039 -0.0079  0.7578
 5185SOL    HW227018   0.033   2.992   5.000 -0.4049 -0.1442 -2.5269
 5186SOL     OW27019   4.514   0.024  14.950 -0.0356  0.1570 -0.4170
 5186SOL    HW127020   4.515   0.118  14.968  2.2271  0.4760 -2.2187
 5186SOL    HW227021   4.439   4.710  14.996 -1.3973  3.1948 -0.1092
 5187SOL     OW27022   3.329   1.125  15.390  0.3370 -0.2450 -0.2123
 5187SOL    HW127023   3.419   1.116  15.359  0.4154 -1.1404  0.2629
 5187SOL    HW227024   3.302   1.038  15.420  1.3409 -0.1837  0.8725
 5188SOL     OW27025   2.695   0.508   7.055 -0.7591  0.3211  0.7691
 5188SOL    HW127026   2.773   0.453   7.055 -0.4977  0.6691 -1.2505
 5188SOL    HW227027   2.631   0.437   7.049 -2.4656  1.8081  1.5233
 5189SOL     OW27028   2.348   4.682   5.181 -0.0667  0.9589  0.2367
 5189SOL    HW127029   2.379   0.048   5.174  1.8728  0.1000 -2.4007
 5189SOL    HW227030   2.402   4.639   5.114 -2.0616 -1.8585  0.4557
 5190SOL     OW27031   4.126   4.386   8.604 -0.2006 -0.0440 -0.1843
 5190SOL    HW127032   4.191   4.431   8.551 -0.9903  0.9805 -0.2672
 5190SOL    HW227033   4.095   4.456   8.661 -0.4069 -0.0510 -0.2859
 5191SOL     OW27034   2.673   3.278   5.917 -0.1036  0.0424 -0.5125
 5191SOL    HW127035   2.584   3.269   5.950 -0.4738 -0.9831 -1.7472
 5191SOL    HW227036   2.660   3.272   5.822 -3.8608  1.5792 -0.0806
 5192SOL     OW27037   2.977   4.009  12.549 -0.3324  0.5205  0.0713
 5192SOL    HW127038   2.903   4.062  12.576 -0.4069  1.3736 -1.7890
 5192SOL    HW227039   3.014   3.997  12.637  0.3817 -1.1794 -0.4473
 5193SOL     OW27040   0.719   3.343  14.038 -0.3148  0.2690 -0.2386
 5193SOL    HW127041   0.666   3.278  14.083 -0.4072  0.6074  0.1348
 5193SOL    HW227042   0.655   3.374  13.973 -0.3004  0.4216 -0.1793
 5194SOL     OW27043   3.752   0.596   7.495 -0.8643  0.4665 -0.2019
 5194SOL    HW127044   3.737   0.686   7.524  2.0291  0.9703 -0.2566
 5194SOL    HW227045   3.710   0.594   7.409 -1.8402  0.8120  0.2745
 5195SOL     OW27046   0.717   1.703   5.440 -0.7350  0.1385  0.1519
 5195SOL    HW127047   0.732   1.774   5.377 -0.3307 -0.4963 -0.4595
 5195SOL    HW227048   0.621   1.700   5.435 -0.7426  1.2148 -0.4255
 5196SOL     OW27049   2.311   1.550   5.032 -0.2981  0.1567 -0.6515
 5196SOL    HW127050   2.358   1.475   4.995  0.2338 -0.1221  0.5861
 5196SOL    HW227051   2.333   1.627   4.980 -0.0938  1.0657  0.8070
 5197SOL     OW27052   3.723   0.022   3.508  0.5762  0.4970  0.2718
 5197SOL    HW127053   3.804   0.029   3.559 -0.3950 -1.2015  2.0384
 5197SOL    HW227054   3.706   0.116   3.501 -0.7470  0.2926  0.8118
 5198SOL     OW27055   2.110   1.319   7.746  0.3125  0.0825 -0.3755
 5198SOL    HW127056   2.194   1.306   7.789  0.3752 -0.7252 -0.7300
 5198SOL    HW227057   2.085   1.403   7.783  0.5817 -0.1746  0.3815
 5199SOL     OW27058   2.045   2.682   3.312  0.5587  0.2045 -0.2223
 5199SOL    HW127059   1.970   2.708   3.260 -0.0830 -0.5301  0.3349
 5199SOL    HW227060   1.999   2.606   3.349  3.7192 -2.0622 -0.8867
 5200SOL     OW27061   4.232   4.410   4.998  0.6397  0.1286 -0.1867
 5200SOL    HW127062   4.179   4.338   5.032  0.1183  1.4268  1.7573
 5200SOL    HW227063   4.313   4.375   5.034  1.9740  1.9713 -1.4446
 5201SOL     OW27064   0.833   1.777   6.799  0.5516  0.0832  0.1148
 5201SOL    HW127065   0.902   1.800   6.861  0.9535  1.2439 -0.7670
 5201SOL    HW227066   0.782   1.857   6.787  0.8558  0.2999  0.2864
 5202SOL     OW27067   2.066   2.506   7.790 -0.5356  0.2462  0.8579
 5202SOL    HW127068   1.976   2.493   7.761 -0.4249  1.3270  0.0280
 5202SOL    HW227069   2.053   2.572   7.858  2.1376  1.2795  0.3547
 5203SOL     OW27070   1.664   3.382   4.886 -0.2770 -0.1331 -0.9227
 5203SOL    HW127071   1.714   3.300   4.886 -1.2107 -0.6992 -0.2677
 5203SOL    HW227072   1.670   3.414   4.796  0.1273 -3.6032 -2.1450
 5204SOL     OW27073   0.490   2.070  13.071 -0.3953  0.0637 -0.5449
 5204SOL    HW127074   0.480   2.142  13.009 -0.1743 -0.3985 -1.1235
 5204SOL    HW227075   0.577   2.040  13.043 -1.2303 -1.7590 -1.2166
 5205SOL     OW27076   1.353   4.447  10.246  0.3087 -0.2738 -0.5588
 5205SOL    HW127077   1.265   4.413  10.262  0.4051 -0.1325  0.2509
 5205SOL    HW227078   1.338   4.533  10.206  1.6577 -0.7092 -2.0156
 5206SOL     OW27079   4.084   2.610  16.455  0.1665 -0.0630 -0.4551
 5206SOL    HW127080   4.052   2.700  16.447 -0.4493 -0.0346  2.3116
 5206SOL    HW227081   4.090   2.601  16.550 -1.8785  1.3649 -0.1934
 5207SOL     OW27082   3.819   2.809   6.579  0.0207  0.4605 -0.0322
 5207SOL    HW127083   3.734   2.812   6.623 -0.3253  2.7538 -0.8289
 5207SOL    HW227084   3.854   2.727   6.613  0.7126 -0.3520 -2.7536
 5208SOL     OW27085   4.241   3.301   4.458 -0.6236 -0.0488 -0.2136
 5208SOL    HW127086   4.240   3.278   4.365  1.1546  2.2139 -0.7775
 5208SOL    HW227087   4.246   3.215   4.499  0.0550  0.0641 -0.0662
 5209SOL     OW27088   1.204   3.135   6.782 -0.1082  0.8406  0.2490
 5209SOL    HW127089   1.231   3.182   6.704  0.9331  0.1096  0.1791
 5209SOL    HW227090   1.120   3.094   6.760  0.0431  0.3759  0.5426
 5210SOL     OW27091   4.040   1.190   7.996 -0.5251 -0.2019  0.3105
 5210SOL    HW127092   4.091   1.270   7.988  0.8708 -1.2275 -1.0507
 5210SOL    HW227093   4.090   1.150   8.067 -0.3580 -1.3234 -0.4379
 5211SOL     OW27094   3.461   0.320   4.758  0.2447  0.0459  0.7754
 5211SOL    HW127095   3.400   0.345   4.689  0.5808  1.9285  1.1743
 5211SOL    HW227096   3.425   0.241   4.800  0.5461 -0.2742  0.4363
 5212SOL     OW27097   2.439   1.248   2.482  0.1388 -0.2753 -0.2170
 5212SOL    HW127098   2.391   1.273   2.403 -0.3773 -2.1743 -0.5250
 5212SOL    HW227099   2.382   1.284   2.550  1.2544  1.1128 -0.0359
 5213SOL     OW27100   2.877   0.905   8.669 -0.2016 -0.0347  0.3707
 5213SOL    HW127101   2.921   0.827   8.703  0.3098  0.8763  1.7457
 5213SOL    HW227102   2.789   0.869   8.656 -0.2956  0.1280  0.5626
 5214SOL     OW27103   1.167   3.758   3.645 -0.1658  0.2641 -0.2802
 5214SOL    HW127104   1.248   3.781   3.599  1.5127  0.2745  2.7429
 5214SOL    HW227105   1.199   3.703   3.715  0.1942  0.1843 -0.5078
 5215SOL     OW27106   4.040   4.500   1.993  0.0949  0.1223 -0.1341
 5215SOL    HW127107   4.117   4.548   1.962  0.4403 -0.2415  0.1615
 5215SOL    HW227108   3.978   4.500   1.920 -0.7099  0.1639  0.5467
 5216SOL     OW27109   4.262   1.406   4.965  0.0793 -0.0254 -0.0545
 5216SOL    HW127110   4.192   1.341   4.957  0.8583 -0.7729 -0.7103
 5216SOL    HW227111   4.262   1.442   4.876  0.2108  0.6975  0.2432
 5217SOL     OW27112   3.974   4.472   6.229  0.1673 -0.4238  0.1380
 5217SOL    HW127113   3.888   4.467   6.270 -0.4997  1.3168 -1.0384
 5217SOL    HW227114   4.026   4.537   6.278  1.5182 -0.4293 -1.2989
 5218SOL     OW27115   1.895   3.511  10.085  0.0807  0.2076  0.3974
 5218SOL    HW127116   1.978   3.468  10.103 -0.0788 -1.0817 -1.9202
 5218SOL    HW227117   1.931   3.596  10.058 -1.9660  1.4925  1.7078
 5219SOL     OW27118   2.893   1.041  12.613 -0.3855 -0.2983  0.7464
 5219SOL    HW127119   2.939   1.121  12.638 -2.8624  0.8040  1.8294
 5219SOL    HW227120   2.956   1.014  12.547  0.7354  2.9702  0.4803
 5220SOL     OW27121   3.390   2.095  13.745 -0.3741 -0.0951  0.6531
 5220SOL    HW127122   3.368   2.188  13.736  0.2220 -0.0166  0.0810
 5220SOL    HW227123   3.360   2.077  13.834 -1.6950 -0.8280  0.0717
 5221SOL     OW27124   3.568   3.059   9.406 -0.0233 -0.1192 -0.9026
 5221SOL    HW127125   3.610   3.145   9.415  0.8344 -0.5510 -0.7759
 5221SOL    HW227126   3.475   3.081   9.412  0.2265  0.4491  0.9602
 5222SOL     OW27127   1.083   1.579   5.981 -0.4077  0.0195  0.1655
 5222SOL    HW127128   1.132   1.613   6.055  0.9589  0.5890 -1.0010
 5222SOL    HW227129   1.137   1.509   5.945 -0.2321  1.0244 -1.5262
 5223SOL     OW27130   2.407   2.522   2.103 -0.0279 -0.2978  0.8758
 5223SOL    HW127131   2.391   2.430   2.123  0.4743  0.4326  4.6718
 5223SOL    HW227132   2.322   2.546   2.066  0.8756  2.2845  0.4893
 5224SOL     OW27133   1.682   0.912  11.020  0.7891  0.1176 -0.3303
 5224SOL    HW127134   1.754   0.853  11.039  1.4831  0.8788 -0.5817
 5224SOL    HW227135   1.614   0.860  11.061  0.9002  0.4385  0.2668
 5225SOL     OW27136   2.571   1.538  16.174  0.2741 -0.3364 -0.1756
 5225SOL    HW127137   2.657   1.579  16.176  0.2043 -0.1385 -1.3562
 5225SOL    HW227138   2.520   1.618  16.184 -0.5777 -0.8443 -0.3749
 5226SOL     OW27139   2.730   4.282   3.845 -0.1217  0.2656 -0.0060
 5226SOL    HW127140   2.697   4.233   3.920 -2.3031 -0.0551 -1.1723
 5226SOL    HW227141   2.824   4.268   3.853 -0.1279 -0.6071 -1.4575
 5227SOL     OW27142   4.323   0.979   8.627 -0.2465 -0.2457 -0.0144
 5227SOL    HW127143   4.348   1.045   8.692 -2.5870  2.1230 -1.5373
 5227SOL    HW227144   4.287   1.029   8.554 -0.9010 -0.7234 -0.0177
 5228SOL     OW27145   0.710   3.275   4.660  0.0003 -0.8640  0.4638
 5228SOL    HW127146   0.664   3.305   4.582  0.6978  1.3763  0.9344
 5228SOL    HW227147   0.792   3.320   4.643 -1.1645  1.1899  0.2779
 5229SOL     OW27148   4.477   0.238   4.762 -0.1707  0.1848  0.2579
 5229SOL    HW127149   4.461   0.239   4.857  0.8283  1.8677  0.4073
 5229SOL    HW227150   4.389   0.252   4.727  0.0054 -1.6169 -0.9122
 5230SOL     OW27151   0.904   2.593   8.383  0.4783 -0.1095  0.0336
 5230SOL    HW127152   0.891   2.654   8.456  0.2210 -0.1421  0.0148
 5230SOL    HW227153   0.863   2.643   8.312  1.6050 -0.3089 -0.7395
 5231SOL     OW27154   0.720   4.691   8.849  0.2257  0.4335  0.2462
 5231SOL    HW127155   0.690   4.640   8.924 -1.8090 -1.7678 -2.0354
 5231SOL    HW227156   0.683   0.055   8.861  0.6560  0.6043  0.2896
 5232SOL     OW27157   4.003   2.364   4.889  0.2824 -0.4551  0.1214
 5232SOL    HW127158   3.971   2.307   4.819  0.7955 -0.6276  0.0253
 5232SOL    HW227159   4.050   2.303   4.947 -1.6847 -0.3289  1.8391
 5233SOL     OW27160   2.724   1.393   7.851  0.1623 -0.2674  0.1070
 5233SOL    HW127161   2.759   1.450   7.783 -1.4945 -0.1242 -0.6379
 5233SOL    HW227162   2.675   1.340   7.788  0.3018 -0.1471 -0.1032
 5234SOL     OW27163   1.562   1.778  11.702  0.3899 -0.0729  0.6609
 5234SOL    HW127164   1.593   1.809  11.617  1.2559  0.4806  1.1784
 5234SOL    HW227165   1.468   1.790  11.696  0.2213 -0.9744  1.4176
 5235SOL     OW27166   3.489   3.969   8.034 -0.1003 -0.0956 -0.2217
 5235SOL    HW127167   3.563   3.920   7.997  0.5231  0.0705  0.8090
 5235SOL    HW227168   3.423   3.965   7.965  1.2830 -0.3902 -1.5365
 5236SOL     OW27169   2.487   3.285   4.519  0.2968  0.2889 -0.6398
 5236SOL    HW127170   2.556   3.246   4.572 -0.5940  1.1010  1.1362
 5236SOL    HW227171   2.409   3.234   4.541  0.5967 -0.8002 -2.1309
 5237SOL     OW27172   0.392   0.828   6.410 -0.2507 -0.1128  0.3524
 5237SOL    HW127173   0.303   0.854   6.386 -0.0139 -1.3207 -1.7986
 5237SOL    HW227174   0.420   0.897   6.471 -0.9578 -0.9804  1.6679
 5238SOL     OW27175   3.950   2.739  14.690  0.0196 -0.5028  0.4746
 5238SOL    HW127176   3.910   2.676  14.631 -3.2182  1.9819  0.0425
 5238SOL    HW227177   4.035   2.741  14.646 -0.7728 -2.3811 -1.1269
 5239SOL     OW27178   2.659   3.124  16.713  0.3344  0.0479 -0.1121
 5239SOL    HW127179   2.641   3.217  16.703 -1.0597 -0.1080  0.9743
 5239SOL    HW227180   2.582   3.079  16.678  0.0168  1.9429 -1.8516
 5240SOL     OW27181   0.057   4.592   4.513  0.0499 -0.1026  0.4267
 5240SOL    HW127182   4.694   4.561   4.540  0.3391 -0.7136  0.6544
 5240SOL    HW227183   0.055   4.593   4.417 -1.6821 -0.6004  0.4532
 5241SOL     OW27184   1.626   1.682   3.652  0.1425  0.5433 -0.3410
 5241SOL    HW127185   1.677   1.615   3.606 -0.1320 -1.0765  1.7438
 5241SOL    HW227186   1.697   1.726   3.698 -1.1943 -0.4381  2.6017
 5242SOL     OW27187   4.054   0.905  13.503  0.0756  0.7758 -0.0045
 5242SOL    HW127188   3.972   0.907  13.454  0.1490 -2.6085 -0.2445
 5242SOL    HW227189   4.116   0.909  13.430  1.5885 -0.8859  1.1889
 5243SOL     OW27190   1.900   0.793  10.828  0.2827 -0.3947 -0.0821
 5243SOL    HW127191   1.861   0.761  10.910 -1.9432  0.6923 -0.7125
 5243SOL    HW227192   1.841   0.749  10.767 -1.6405 -0.2976  1.6900
 5244SOL     OW27193   3.165   4.185   3.794  0.7348 -0.1181  0.1353
 5244SOL    HW127194   3.115   4.225   3.723 -1.1841 -0.2561  1.3954
 5244SOL    HW227195   3.253   4.176   3.758  0.6268  2.2079 -0.7171
 5245SOL     OW27196   4.247   4.358   3.618 -0.0474  0.5233 -0.4294
 5245SOL    HW127197   4.304   4.411   3.562 -1.4105  2.7640  0.3393
 5245SOL    HW227198   4.211   4.304   3.548 -0.0843  1.0874 -0.8486
 5246SOL     OW27199   0.085   2.812   4.521  0.4923  0.1857 -0.0341
 5246SOL    HW127200   0.051   2.871   4.454  1.5471  2.0011  1.0521
 5246SOL    HW227201   0.149   2.866   4.566  1.3684 -0.1866 -0.8354
 5247SOL     OW27202   1.704   2.586  10.485 -1.1271 -0.0676 -0.0441
 5247SOL    HW127203   1.800   2.588  10.484 -1.1687  1.7099 -0.7116
 5247SOL    HW227204   1.692   2.592  10.580 -0.0912  0.8422  0.0224
 5248SOL     OW27205   3.046   0.341  10.218  0.1347  0.5909  0.0763
 5248SOL    HW127206   3.043   0.434  10.241  1.3255  0.6192  0.1164
 5248SOL    HW227207   3.010   0.296  10.294  1.2105  1.2312  0.9671
 5249SOL     OW27208   1.759   2.927   4.220 -0.2516 -0.0817  0.1285
 5249SOL    HW127209   1.694   2.892   4.281 -0.6969  1.2849  0.4450
 5249SOL    HW227210   1.778   2.845   4.175 -0.2949  0.0934 -0.2092
 5250SOL     OW27211   2.008   2.529  14.248  0.5006  0.1432  0.1742
 5250SOL    HW127212   1.972   2.602  14.299 -0.7550  0.2155 -0.8183
 5250SOL    HW227213   1.961   2.455  14.287  0.6466  0.7366  1.4891
 5251SOL     OW27214   0.180   3.824  15.740 -0.3169  0.4814  0.3789
 5251SOL    HW127215   0.173   3.751  15.678 -1.0931 -0.6527  1.8053
 5251SOL    HW227216   0.241   3.803  15.810 -1.9787  1.1344  2.0145
 5252SOL     OW27217   3.149   0.498   6.960 -0.4354 -0.4570  0.5113
 5252SOL    HW127218   3.182   0.409   6.975  0.7168 -0.2999 -1.1324
 5252SOL    HW227219   3.228   0.549   6.978 -2.2760  1.6855  2.4083
 5253SOL     OW27220   3.886   3.833   1.003  0.0985  0.5187  0.1324
 5253SOL    HW127221   3.969   3.878   0.986 -0.0140 -0.0697 -1.9553
 5253SOL    HW227222   3.829   3.864   0.933 -0.2840  0.3151  0.3553
 5254SOL     OW27223   1.374   1.350   3.673  0.6147 -0.1624 -0.4768
 5254SOL    HW127224   1.413   1.272   3.636  2.3279  0.2063  0.5199
 5254SOL    HW227225   1.406   1.350   3.764 -0.4439 -1.5429 -0.1096
 5255SOL     OW27226   2.368   0.744   8.573  0.1299  0.6375  0.0437
 5255SOL    HW127227   2.341   0.730   8.482 -2.2777  1.3774  0.6556
 5255SOL    HW227228   2.290   0.708   8.615  0.4614  0.4399  0.4841
 5256SOL     OW27229   2.431   1.885   6.871  0.5397  0.7845  0.6119
 5256SOL    HW127230   2.417   1.872   6.964  2.1405  2.0843  1.0226
 5256SOL    HW227231   2.475   1.970   6.866 -1.2923  1.7471  0.7308
 5257SOL     OW27232   0.262   0.922   2.223  0.4208  0.1974  0.7389
 5257SOL    HW127233   0.283   0.930   2.316  0.0165 -0.6373  0.9027
 5257SOL    HW227234   0.171   0.950   2.235  0.6354 -0.0719  2.9869
 5258SOL     OW27235   3.487   0.166   9.190 -0.3679 -0.4085 -0.9615
 5258SOL    HW127236   3.531   0.083   9.207 -2.4442 -1.5308 -1.0779
 5258SOL    HW227237   3.544   0.197   9.120 -0.1853  1.4390  0.0084
 5259SOL     OW27238   2.102   2.058   0.898 -0.1873  0.3474 -0.1189
 5259SOL    HW127239   2.149   2.080   0.979  2.7568 -3.0876 -0.8621
 5259SOL    HW227240   2.023   2.111   0.897 -1.2103 -1.1935  0.2196
 5260SOL     OW27241   4.511   3.684   8.278  0.3504  0.1594  0.3107
 5260SOL    HW127242   4.605   3.697   8.282  0.5925 -1.5612  0.1072
 5260SOL    HW227243   4.512   3.697   8.183 -0.6911 -1.0444  0.1397
 5261SOL     OW27244   1.889   3.979  15.867  0.0104  0.6538 -0.0720
 5261SOL    HW127245   1.964   4.030  15.899 -0.1350 -0.2464  1.6781
 5261SOL    HW227246   1.928   3.892  15.874  0.8242  1.2558  2.7523
 5262SOL     OW27247   2.666   3.179   4.693 -0.7170 -0.1220 -0.2667
 5262SOL    HW127248   2.729   3.112   4.667 -2.2548 -1.5930 -0.1311
 5262SOL    HW227249   2.647   3.154   4.783 -1.2097 -4.0182 -1.4618
 5263SOL     OW27250   3.612   4.193  16.774 -0.6299  0.7834 -0.1962
 5263SOL    HW127251   3.588   4.263  16.835 -4.3579 -1.9058  1.4650
 5263SOL    HW227252   3.556   4.210  16.699  0.6268 -0.7931 -1.5040
 5264SOL     OW27253   2.772   3.016   0.208 -0.6158 -0.1447  0.0469
 5264SOL    HW127254   2.781   2.925   0.180  3.1523 -0.4354  2.2071
 5264SOL    HW227255   2.797   3.003   0.300 -1.6941 -0.2758  0.3260
 5265SOL     OW27256   2.221   4.367   3.110  0.2615  0.4382 -0.2351
 5265SOL    HW127257   2.218   4.402   3.021 -1.1092  1.4174  0.1951
 5265SOL    HW227258   2.129   4.356   3.132  0.4326 -1.4097 -0.4473
 5266SOL     OW27259   2.400   0.133   0.262  0.3733 -0.2615 -0.7788
 5266SOL    HW127260   2.361   0.172   0.341  1.6757 -0.8500  0.1585
 5266SOL    HW227261   2.320   0.117   0.212  0.7077  1.3015 -1.7838
 5267SOL     OW27262   3.739   4.391  16.248 -0.2780  0.3274  0.4135
 5267SOL    HW127263   3.663   4.370  16.195 -0.0243  1.8840 -0.5425
 5267SOL    HW227264   3.804   4.389  16.178  0.1032  1.1853  0.7303
 5268SOL     OW27265   1.866   2.120   5.537  0.3748  0.0146 -0.0059
 5268SOL    HW127266   1.773   2.105   5.518  0.6019 -0.9949 -0.2939
 5268SOL    HW227267   1.902   2.032   5.538 -1.2401 -0.6376  0.6076
 5269SOL     OW27268   4.194   3.625  16.253 -0.0743  0.3967  0.8084
 5269SOL    HW127269   4.103   3.610  16.279  0.1555 -3.5323 -0.5778
 5269SOL    HW227270   4.183   3.578  16.170  0.8958  0.0655  0.8605
 5270SOL     OW27271   3.574   1.874   1.307  0.0970  0.6774  0.1846
 5270SOL    HW127272   3.496   1.915   1.270 -0.1991  0.6279  0.7585
 5270SOL    HW227273   3.574   1.792   1.257  0.4865  1.6075 -1.3354
 5271SOL     OW27274   4.349   4.004   4.112  0.3028 -0.0012  0.0800
 5271SOL    HW127275   4.380   3.949   4.184  3.5740 -0.2915 -1.5234
 5271SOL    HW227276   4.345   4.093   4.148  0.0061 -0.4089  1.0643
 5272SOL     OW27277   3.212   2.750  15.157  0.0306 -0.0832 -0.2682
 5272SOL    HW127278   3.127   2.710  15.138 -0.5345  1.6034 -1.2271
 5272SOL    HW227279   3.272   2.705  15.098 -0.0430 -0.8001  0.2013
 5273SOL     OW27280   4.566   2.840   1.573  0.2221  0.3873  0.0817
 5273SOL    HW127281   4.501   2.773   1.591  1.9144 -1.6311 -1.3610
 5273SOL    HW227282   4.637   2.825   1.636  1.3026  1.6681 -0.8274
 5274SOL     OW27283   1.381   0.002   6.343 -0.2972  0.2980  0.1054
 5274SOL    HW127284   1.366   0.041   6.429  2.4102 -0.5322  0.9519
 5274SOL    HW227285   1.353   0.068   6.279  1.2318  1.3405  0.5048
 5275SOL     OW27286   1.696   1.787   4.084 -0.3497  0.4835 -0.1025
 5275SOL    HW127287   1.624   1.810   4.026 -1.8735 -1.8672  0.9107
 5275SOL    HW227288   1.669   1.699   4.107 -0.0451  0.7827  1.3844
 5276SOL     OW27289   4.313   4.121  11.778 -0.0040 -0.2186 -0.6876
 5276SOL    HW127290   4.238   4.151  11.727 -1.8357  0.3547  2.3486
 5276SOL    HW227291   4.348   4.048  11.727 -3.2762 -1.8857 -0.5757
 5277SOL     OW27292   3.845   1.476   2.873 -0.5655 -0.3159  0.6866
 5277SOL    HW127293   3.939   1.461   2.859 -0.9049 -1.6820 -0.1835
 5277SOL    HW227294   3.821   1.511   2.787  0.4757 -0.2036  0.4306
 5278SOL     OW27295   1.707   4.169   2.829 -0.2002 -0.2659 -0.4140
 5278SOL    HW127296   1.752   4.234   2.883 -3.4876  1.4807  0.2195
 5278SOL    HW227297   1.629   4.211   2.792 -0.6876  0.8526  1.9008
 5279SOL     OW27298   3.901   0.530   7.734  0.2592  0.0866 -0.0844
 5279SOL    HW127299   3.837   0.523   7.664 -1.5013  1.9691  1.3386
 5279SOL    HW227300   3.932   0.619   7.717  0.0613 -0.1008 -1.4183
 5280SOL     OW27301   3.920   2.470  14.485  0.3376  0.0629 -0.5011
 5280SOL    HW127302   3.971   2.410  14.538  0.5329 -1.0405 -1.9275
 5280SOL    HW227303   3.852   2.485  14.551 -0.8255  0.7523 -1.8326
 5281SOL     OW27304   0.874   1.485   3.443 -0.3769  1.2756  0.2981
 5281SOL    HW127305   0.926   1.526   3.512  1.4037  0.0485 -0.3197
 5281SOL    HW227306   0.925   1.405   3.428  1.5162  2.6244 -0.4874
 5282SOL     OW27307   2.149   1.768  11.007 -0.5909 -0.7573  0.3933
 5282SOL    HW127308   2.078   1.704  11.008 -1.5885  0.3175 -1.5030
 5282SOL    HW227309   2.142   1.792  10.915  0.9634 -0.6155  0.3117
 5283SOL     OW27310   0.804   2.578   0.664 -0.1660  0.0701  0.4162
 5283SOL    HW127311   0.833   2.594   0.754 -0.9734 -4.3112  1.4530
 5283SOL    HW227312   0.889   2.547   0.633  0.2377  1.4600  0.1175
 5284SOL     OW27313   4.716   2.220   5.816 -0.5350  0.9651  0.3732
 5284SOL    HW127314   4.709   2.253   5.906  1.4362  0.9075  0.5490
 5284SOL    HW227315   4.674   2.290   5.766 -3.5626 -0.4763  0.9546
 5285SOL     OW27316   1.596   4.120   5.545  0.0401  0.4139  0.4120
 5285SOL    HW127317   1.574   4.122   5.452  0.3159  3.1607  0.3967
 5285SOL    HW227318   1.544   4.188   5.588 -0.2164  0.4962 -0.0222
 5286SOL     OW27319   3.705   1.531  11.381  0.1895 -0.2253 -0.0247
 5286SOL    HW127320   3.779   1.471  11.369  0.0169 -0.7628  1.5699
 5286SOL    HW227321   3.682   1.512  11.472  1.0413 -0.7441  0.0892
 5287SOL     OW27322   2.097   2.165   7.438  0.3734  0.3193  0.5325
 5287SOL    HW127323   2.031   2.173   7.506  0.1001  0.8054  0.2105
 5287SOL    HW227324   2.180   2.203   7.468  0.1265  1.5554 -0.3365
 5288SOL     OW27325   4.083   1.412   3.598 -0.0624 -0.0089 -0.0946
 5288SOL    HW127326   3.990   1.420   3.616  0.4161  2.7395  1.2310
 5288SOL    HW227327   4.094   1.498   3.557  0.9051  0.0227  0.2118
 5289SOL     OW27328   3.349   3.882  13.495 -0.3491  0.4464 -0.0220
 5289SOL    HW127329   3.370   3.790  13.478 -0.2901  0.5160 -0.3215
 5289SOL    HW227330   3.389   3.879  13.582  1.2013 -0.0596 -0.7396
 5290SOL     OW27331   2.917   0.301  14.956 -0.0724 -0.3673  0.4233
 5290SOL    HW127332   2.842   0.276  15.010 -0.6002 -0.8453 -0.5420
 5290SOL    HW227333   2.936   0.395  14.955  0.8342 -0.5231  1.5568
 5291SOL     OW27334   2.348   2.204   4.539  0.0115  0.4900  0.1456
 5291SOL    HW127335   2.362   2.220   4.633  1.3110  0.4175 -0.0339
 5291SOL    HW227336   2.367   2.295   4.515 -1.6966 -0.2284 -3.8900
 5292SOL     OW27337   1.403   1.807   5.021 -0.1655  0.4253  0.1947
 5292SOL    HW127338   1.397   1.779   4.929 -1.8144  0.5765  0.2517
 5292SOL    HW227339   1.361   1.892   5.031  1.9068  1.2911  1.5141
 5293SOL     OW27340   3.059   0.742  14.459  0.5226  0.9407 -0.6819
 5293SOL    HW127341   3.015   0.677  14.514  0.3209  1.1468 -0.6033
 5293SOL    HW227342   3.084   0.812  14.519 -0.7992 -0.2565  1.2494
 5294SOL     OW27343   3.544   0.701   1.162 -0.1698  0.9054  0.2853
 5294SOL    HW127344   3.598   0.686   1.084  0.2119  1.1528  0.5058
 5294SOL    HW227345   3.560   0.624   1.215 -0.5367  0.5005 -0.1882
 5295SOL     OW27346   3.633   3.131   3.832 -0.5045 -0.3140 -0.1626
 5295SOL    HW127347   3.625   3.136   3.737  0.7463  2.4840 -0.1021
 5295SOL    HW227348   3.587   3.211   3.858  1.0814 -0.1802  2.1818
 5296SOL     OW27349   4.108   3.670   6.745 -0.3963 -0.3119  0.1559
 5296SOL    HW127350   4.187   3.685   6.798 -0.1636  1.2260 -0.6052
 5296SOL    HW227351   4.104   3.576   6.726 -3.4939  0.0084 -0.6626
 5297SOL     OW27352   2.717   2.227  16.994  0.0288 -0.0958  0.5429
 5297SOL    HW127353   2.706   2.142  16.951  0.8909 -0.6276  1.3747
 5297SOL    HW227354   2.627   2.258  16.991  0.2973  0.6224  0.0874
 5298SOL     OW27355   4.247   1.900   4.689  0.1162 -0.2132  0.2319
 5298SOL    HW127356   4.293   1.856   4.618 -0.9306 -1.3127  0.2289
 5298SOL    HW227357   4.300   1.864   4.761 -1.1144 -0.6756  0.9220
 5299SOL     OW27358   4.483   4.392   7.238  0.3465 -0.3602 -0.2701
 5299SOL    HW127359   4.467   4.394   7.333 -0.1730  2.3918 -0.4262
 5299SOL    HW227360   4.539   4.469   7.244  0.0412 -0.1564 -0.0551
 5300SOL     OW27361   4.004   2.791   2.747 -0.0124  0.1862 -0.7647
 5300SOL    HW127362   4.054   2.711   2.762  1.8416  1.8072  1.8514
 5300SOL    HW227363   3.947   2.758   2.678 -0.6304 -0.3887  0.0278
 5301SOL     OW27364   3.576   3.536  10.938  0.0657  0.0827 -0.4864
 5301SOL    HW127365   3.497   3.483  10.949 -0.4680  1.5632  2.7673
 5301SOL    HW227366   3.603   3.517  10.848 -2.1083  0.8980 -1.3072
 5302SOL     OW27367   3.444   2.072   4.271 -0.1874 -0.7748  0.1651
 5302SOL    HW127368   3.529   2.065   4.314 -0.8873  1.1375  1.8552
 5302SOL    HW227369   3.422   2.159   4.304  1.2369 -0.6006  0.6497
 5303SOL     OW27370   3.935   4.473   6.583 -0.1832  0.1204 -0.6192
 5303SOL    HW127371   3.883   4.400   6.550  0.5249  0.6363 -2.8623
 5303SOL    HW227372   3.893   4.545   6.537  0.5167  2.2299  2.0094
 5304SOL     OW27373   0.391   1.279   8.697  0.6013 -0.1845 -0.6687
 5304SOL    HW127374   0.437   1.345   8.749  1.7697 -0.7653 -0.9439
 5304SOL    HW227375   0.402   1.203   8.754 -1.6905 -0.2166 -0.2680
 5305SOL     OW27376   1.625   4.338   8.743  0.0141 -0.6374 -0.2844
 5305SOL    HW127377   1.593   4.272   8.682 -2.5823  1.2731 -0.9712
 5305SOL    HW227378   1.546   4.373   8.783  0.1205 -0.3624 -0.3145
 5306SOL     OW27379   1.629   1.840  16.757  0.1813 -0.1159  0.2220
 5306SOL    HW127380   1.593   1.757  16.725  1.2941  0.0765 -1.5226
 5306SOL    HW227381   1.562   1.895  16.718  0.9025  0.8956  0.4189
 5307SOL     OW27382   4.665   3.415  13.734 -0.1623 -0.4499 -0.3415
 5307SOL    HW127383   0.010   3.420  13.668  1.2521 -0.2481  1.1428
 5307SOL    HW227384   4.606   3.353  13.692  0.9820 -1.1815 -0.8396
 5308SOL     OW27385   0.244   4.659   8.349 -0.6043  0.1891 -0.1790
 5308SOL    HW127386   0.229   4.584   8.292  0.4112 -0.2479  0.1221
 5308SOL    HW227387   0.262   4.723   8.280  1.2548 -0.6488 -0.4493
 5309SOL     OW27388   4.646   2.315   4.425  0.0373  0.0091  0.0158
 5309SOL    HW127389   4.716   2.299   4.489 -0.6869  1.5283  1.1881
 5309SOL    HW227390   4.578   2.339   4.488 -0.3792 -2.0293  0.3429
 5310SOL     OW27391   4.075   3.450   6.349 -0.1337  0.1838  0.9152
 5310SOL    HW127392   4.162   3.447   6.390  0.2983 -0.8202 -0.0694
 5310SOL    HW227393   4.058   3.356   6.359 -0.7041 -0.0434 -2.4780
 5311SOL     OW27394   0.325   4.001   0.932 -0.1030 -0.1134 -0.1606
 5311SOL    HW127395   0.339   4.064   0.862 -1.6258 -0.0345 -0.4076
 5311SOL    HW227396   0.409   3.955   0.927 -0.6076 -0.8776 -1.6439
 5312SOL     OW27397   2.034   4.054   2.143 -0.3885  0.3397 -0.2540
 5312SOL    HW127398   1.952   4.086   2.181 -0.7216 -1.7265  0.7522
 5312SOL    HW227399   2.018   3.964   2.116 -0.4261  0.3311 -0.2031
 5313SOL     OW27400   1.935   0.847   3.051  0.1125  0.0191  0.5904
 5313SOL    HW127401   1.942   0.777   2.986  0.7156  0.1866  0.4729
 5313SOL    HW227402   2.024   0.843   3.086 -0.2388  1.7572  1.7004
 5314SOL     OW27403   0.026   2.406   1.640  0.3738 -0.4273 -0.4825
 5314SOL    HW127404   4.681   2.449   1.589  1.2381 -0.9739 -2.1186
 5314SOL    HW227405   0.034   2.459   1.719  0.4577 -1.0040 -0.1061
 5315SOL     OW27406   1.080   1.284   8.818  0.4040  0.1927 -0.3543
 5315SOL    HW127407   1.097   1.305   8.726 -1.4685  1.3063 -0.4553
 5315SOL    HW227408   1.111   1.362   8.863  0.3211 -2.1913  3.7962
 5316SOL     OW27409   1.144   0.170   8.528 -0.2146 -0.4838 -0.7045
 5316SOL    HW127410   1.226   0.166   8.577 -1.4049  0.7210  1.3586
 5316SOL    HW227411   1.134   0.265   8.522  1.5758 -0.1805  1.3507
 5317SOL     OW27412   0.713   3.300  13.386  0.0155 -0.9061 -0.2387
 5317SOL    HW127413   0.736   3.240  13.457  0.8313 -1.3419 -0.8622
 5317SOL    HW227414   0.793   3.354  13.385  0.7776 -2.0643 -2.6992
 5318SOL     OW27415   2.164   1.521   4.708  0.2762 -0.7758  0.4301
 5318SOL    HW127416   2.218   1.498   4.633  0.1649 -0.6055  0.2982
 5318SOL    HW227417   2.134   1.437   4.744  1.0385 -0.7326  1.1716
 5319SOL     OW27418   1.692   2.945   2.166  0.8245  0.1472 -0.0192
 5319SOL    HW127419   1.673   3.018   2.107 -1.9914 -1.0990 -0.6679
 5319SOL    HW227420   1.628   2.958   2.236 -0.5598 -0.9597 -1.0814
 5320SOL     OW27421   1.225   4.572   5.536 -0.0830 -0.1889 -0.6432
 5320SOL    HW127422   1.209   4.555   5.628 -0.4018 -1.7579 -0.9807
 5320SOL    HW227423   1.135   4.572   5.504 -0.1203 -0.2946 -0.5362
 5321SOL     OW27424   0.450   3.607   8.021 -0.2090  0.0959 -0.8772
 5321SOL    HW127425   0.421   3.657   7.945 -0.4031  0.4200 -0.5898
 5321SOL    HW227426   0.536   3.576   7.993  0.6423  0.4029  1.3705
 5322SOL     OW27427   0.915   4.143   8.790  0.5122  0.0091  0.0764
 5322SOL    HW127428   0.984   4.197   8.829  1.9871 -0.8693 -1.3457
 5322SOL    HW227429   0.948   4.151   8.701 -0.7025 -2.4520 -0.5835
 5323SOL     OW27430   4.255   3.338   2.092  0.3005 -0.1916  0.1829
 5323SOL    HW127431   4.256   3.300   2.004  1.6340 -0.2051  0.2036
 5323SOL    HW227432   4.339   3.382   2.105  0.4317 -0.3733 -0.0465
 5324SOL     OW27433   2.427   4.576  14.894  0.3184  0.1383 -0.0914
 5324SOL    HW127434   2.360   4.578  14.825  0.3136 -0.2990 -0.0977
 5324SOL    HW227435   2.386   4.500  14.935  2.0380 -1.1448 -0.7333
 5325SOL     OW27436   3.111   4.530   5.017 -0.6928 -0.1431 -0.5306
 5325SOL    HW127437   3.199   4.557   5.042 -0.6945 -0.0330 -0.6436
 5325SOL    HW227438   3.108   4.435   5.026 -0.7988 -0.1718 -0.8430
 5326SOL     OW27439   0.170   1.370   4.327  0.1092  0.2012 -0.6119
 5326SOL    HW127440   0.241   1.336   4.380  1.4072  2.3253 -0.9720
 5326SOL    HW227441   0.148   1.447   4.380  1.9859  1.3283 -1.4648
 5327SOL     OW27442   3.272   3.362   7.164 -0.6957  0.2546  0.1096
 5327SOL    HW127443   3.315   3.415   7.097 -0.9437  1.0973  0.6160
 5327SOL    HW227444   3.244   3.429   7.226 -0.3745  1.5348 -1.1305
 5328SOL     OW27445   1.237   4.560  17.074  0.3758 -0.2972  0.3927
 5328SOL    HW127446   1.158   4.577  17.126 -0.2741 -1.9365 -0.0495
 5328SOL    HW227447   1.216   4.468  17.055 -2.1399 -0.0586  2.0005
 5329SOL     OW27448   1.445   0.918   6.753 -0.1224  0.3183  0.4256
 5329SOL    HW127449   1.403   0.996   6.789  0.4052 -0.4141  2.5879
 5329SOL    HW227450   1.371   0.872   6.713 -0.4556 -0.3407  1.7953
 5330SOL     OW27451   1.479   3.310   0.453  0.4665  0.0309  0.3282
 5330SOL    HW127452   1.487   3.399   0.486 -0.1991  0.2929 -0.2077
 5330SOL    HW227453   1.481   3.253   0.530  4.1633  0.0054  0.2045
 5331SOL     OW27454   0.929   4.719   6.319 -0.1056  0.0518 -0.8306
 5331SOL    HW127455   0.916   4.680   6.232 -0.8027 -1.1038 -0.2086
 5331SOL    HW227456   0.939   0.089   6.300 -0.0777  0.5282  1.4931
 5332SOL     OW27457   2.883   1.207  11.487  0.2011 -0.6867  0.0292
 5332SOL    HW127458   2.884   1.112  11.498 -0.4897 -0.6594  0.3478
 5332SOL    HW227459   2.962   1.212  11.434 -1.0381  1.0230 -1.6549
 5333SOL     OW27460   2.540   0.063  11.457  0.1348 -0.6185  0.6535
 5333SOL    HW127461   2.555   0.107  11.373 -1.9768 -0.1904  0.5048
 5333SOL    HW227462   2.491   4.708  11.435 -1.2847  0.5831 -0.4676
 5334SOL     OW27463   2.388   2.695   8.203  0.2445 -0.0816 -0.4174
 5334SOL    HW127464   2.341   2.636   8.262 -0.5014 -0.1874 -1.1141
 5334SOL    HW227465   2.445   2.746   8.260 -0.1778  1.5750 -1.4624
 5335SOL     OW27466   0.738   3.711  16.821  0.1205 -0.2641 -0.2823
 5335SOL    HW127467   0.671   3.653  16.785  0.3526  0.1311 -1.3381
 5335SOL    HW227468   0.819   3.689  16.776  0.3305  1.5442 -0.7949
 5336SOL     OW27469   2.387   0.390  13.854  0.7285  0.3260 -0.2813
 5336SOL    HW127470   2.479   0.388  13.883  1.3715 -1.4158 -2.4413
 5336SOL    HW227471   2.390   0.356  13.765  0.0439  2.5598 -1.1464
 5337SOL     OW27472   4.085   1.589   6.891  0.4461 -0.0088 -0.3216
 5337SOL    HW127473   4.137   1.533   6.834  1.0417  0.4180 -0.1971
 5337SOL    HW227474   4.006   1.601   6.839  1.3072 -0.7764 -1.8069
 5338SOL     OW27475   4.056   0.233   3.806 -0.5284  0.0950  0.2077
 5338SOL    HW127476   4.139   0.209   3.767 -0.4238 -0.4218  0.7529
 5338SOL    HW227477   4.075   0.218   3.899 -0.2139  0.8499  0.2686
 5339SOL     OW27478   1.734   3.098   6.340 -0.2285 -0.1010  0.2449
 5339SOL    HW127479   1.675   3.155   6.289 -0.7398  0.9668  2.0360
 5339SOL    HW227480   1.805   3.099   6.275 -1.0176 -0.2277 -0.6209
 5340SOL     OW27481   1.235   0.884  10.032 -0.0284  0.4333 -0.1341
 5340SOL    HW127482   1.192   0.932   9.961 -2.7135 -1.1703  0.4219
 5340SOL    HW227483   1.303   0.947  10.056  2.0623 -1.7997 -0.1099
 5341SOL     OW27484   2.153   0.706   1.662 -0.5281  0.2837 -0.0003
 5341SOL    HW127485   2.143   0.631   1.604  1.0262  1.1431 -1.3891
 5341SOL    HW227486   2.069   0.708   1.708  0.0613 -0.7273  1.1069
 5342SOL     OW27487   0.187   1.862   3.289 -0.3444 -0.0690  0.0068
 5342SOL    HW127488   0.163   1.896   3.375  1.5815 -0.2947  0.6358
 5342SOL    HW227489   0.275   1.825   3.300 -0.4099 -0.4868 -0.8768
 5343SOL     OW27490   4.371   1.822   8.792  0.2650  0.9818  0.1160
 5343SOL    HW127491   4.325   1.906   8.801 -3.8633 -1.0616 -1.6332
 5343SOL    HW227492   4.293   1.775   8.764  1.4281 -0.1643 -1.2210
 5344SOL     OW27493   3.134   3.391   6.125  0.5572 -0.0263  0.4032
 5344SOL    HW127494   3.125   3.443   6.205 -0.9378  1.6418 -0.8550
 5344SOL    HW227495   3.043   3.389   6.096  0.5947  1.2243  0.2083
 5345SOL     OW27496   1.438   1.810   6.616  0.8523 -0.1439 -0.3617
 5345SOL    HW127497   1.368   1.843   6.671  0.0892 -1.3330 -0.6272
 5345SOL    HW227498   1.396   1.795   6.531  0.3370 -2.1329  0.2437
 5346SOL     OW27499   4.130   0.300   9.746 -0.0189  0.0579 -0.1244
 5346SOL    HW127500   4.140   0.277   9.654 -0.3443  1.5647 -0.5291
 5346SOL    HW227501   4.049   0.346   9.726  0.3841 -0.3997 -2.7541
 5347SOL     OW27502   0.629   1.758   8.498  0.0333 -0.1706 -0.3716
 5347SOL    HW127503   0.586   1.843   8.501  2.4846  1.1304 -1.9287
 5347SOL    HW227504   0.593   1.718   8.419 -1.7378  0.3104  0.2004
 5348SOL     OW27505   2.853   4.692  12.687  0.2132 -0.8099 -0.3258
 5348SOL    HW127506   2.764   4.658  12.689  0.1373 -0.6346 -0.6872
 5348SOL    HW227507   2.844   0.058  12.720 -0.1052 -1.3036  0.9013
 5349SOL     OW27508   2.139   1.028   2.708  0.6425 -0.2785  0.2504
 5349SOL    HW127509   2.046   1.015   2.720  0.2211  0.5629 -1.9821
 5349SOL    HW227510   2.159   1.084   2.783  0.0409 -0.3969  0.4962
 5350SOL     OW27511   1.542   1.160   3.833 -0.3558 -0.0513  0.2385
 5350SOL    HW127512   1.479   1.133   3.900  0.6662 -3.1867 -0.0687
 5350SOL    HW227513   1.566   1.079   3.788 -0.0206 -0.2892  0.8466
 5351SOL     OW27514   1.854   3.724  16.170  0.3218  0.4624  0.3225
 5351SOL    HW127515   1.886   3.815  16.170  2.4479 -0.2826  0.1737
 5351SOL    HW227516   1.766   3.735  16.135  0.0407  2.3245  1.5828
 5352SOL     OW27517   0.642   1.166   9.911 -0.1785  0.2103  0.1369
 5352SOL    HW127518   0.706   1.097   9.897 -2.7317 -2.5443  1.8850
 5352SOL    HW227519   0.678   1.190   9.996 -3.4386  1.7658  1.1045
 5353SOL     OW27520   1.669   0.803   4.650 -0.1551 -0.1301 -0.2374
 5353SOL    HW127521   1.631   0.746   4.583  0.8223 -2.1213  0.9128
 5353SOL    HW227522   1.694   0.729   4.706 -1.0798 -0.6261 -0.4668
 5354SOL     OW27523   4.181   2.581   6.718  0.3693 -0.0776 -0.0980
 5354SOL    HW127524   4.207   2.532   6.796 -0.3211 -0.8515 -0.3500
 5354SOL    HW227525   4.121   2.513   6.685 -0.5675 -1.5751  4.7425
 5355SOL     OW27526   3.665   4.020   4.274 -0.2848  0.5886 -0.0579
 5355SOL    HW127527   3.752   4.052   4.247 -0.1064 -0.7904 -1.1079
 5355SOL    HW227528   3.613   4.064   4.207 -0.9649 -2.0604 -1.2668
 5356SOL     OW27529   1.837   1.837   6.559 -0.0178 -0.2430 -0.3734
 5356SOL    HW127530   1.864   1.746   6.545  1.6893 -0.0843  1.9624
 5356SOL    HW227531   1.785   1.852   6.637 -0.6257 -3.0248 -0.2564
 5357SOL     OW27532   4.162   0.978   6.565 -0.5478  0.0264 -0.2578
 5357SOL    HW127533   4.240   1.030   6.548  0.3780 -1.9242 -1.9056
 5357SOL    HW227534   4.203   0.892   6.554  0.3779  0.3511  0.6205
 5358SOL     OW27535   3.426   3.562  15.150  0.2393 -0.4139  0.4042
 5358SOL    HW127536   3.487   3.517  15.208 -0.6447  0.5461  2.0773
 5358SOL    HW227537   3.481   3.579  15.073 -1.9090  0.9259 -0.8235
 5359SOL     OW27538   1.694   2.911  13.342 -0.3197  0.0652 -0.2334
 5359SOL    HW127539   1.716   2.827  13.382 -1.6101 -0.5584 -0.8226
 5359SOL    HW227540   1.672   2.968  13.416  0.7436  0.5123 -0.2580
 5360SOL     OW27541   4.704   2.273   7.975 -0.5027  0.5141  0.0650
 5360SOL    HW127542   4.623   2.295   8.021 -0.7366 -0.1415 -0.0380
 5360SOL    HW227543   0.020   2.359   7.989 -1.8363  0.7394  2.5466
 5361SOL     OW27544   2.885   1.536   9.584 -0.1186 -0.6770 -0.1945
 5361SOL    HW127545   2.939   1.573   9.654 -1.4360 -1.6873  1.3393
 5361SOL    HW227546   2.921   1.578   9.506  2.7264 -2.1947  0.2780
 5362SOL     OW27547   1.680   2.795  11.309  0.3227  0.1417 -0.0767
 5362SOL    HW127548   1.636   2.869  11.351 -2.5882 -0.7539 -1.5449
 5362SOL    HW227549   1.605   2.738  11.329 -1.3807  1.6752 -2.0721
 5363SOL     OW27550   1.204   3.222   5.097 -0.0430  0.4120 -0.2356
 5363SOL    HW127551   1.118   3.236   5.057  0.6615  1.1081 -1.4898
 5363SOL    HW227552   1.205   3.126   5.097  2.0824  0.4006  4.2641
 5364SOL     OW27553   0.819   1.638  16.892 -0.4159 -0.1122 -0.3898
 5364SOL    HW127554   0.745   1.582  16.916 -3.1794  4.1241  0.9439
 5364SOL    HW227555   0.847   1.677  16.974  0.0101 -2.6698  0.6765
 5365SOL     OW27556   2.908   2.013   7.289  0.2246 -0.0691 -0.0828
 5365SOL    HW127557   2.900   1.963   7.371 -1.3806 -1.4270 -1.0715
 5365SOL    HW227558   2.912   2.100   7.330  0.0499 -1.2358  2.4447
 5366SOL     OW27559   4.491   3.692   4.674  0.1771 -0.4703  0.6211
 5366SOL    HW127560   4.532   3.654   4.596  0.9970  0.6631  0.4995
 5366SOL    HW227561   4.398   3.675   4.658  0.5008 -2.2699  0.6275
 5367SOL     OW27562   0.949   0.054   6.664  0.0552 -0.1394  0.2281
 5367SOL    HW127563   1.035   0.080   6.697  0.2260  0.2704 -0.5261
 5367SOL    HW227564   0.911   0.138   6.638  0.1719 -1.2195 -3.5372
 5368SOL     OW27565   3.229   2.831   8.323  0.9451 -0.2396 -0.5014
 5368SOL    HW127566   3.169   2.833   8.248 -2.1057 -1.4876  1.8744
 5368SOL    HW227567   3.271   2.916   8.323 -0.1352  0.2992 -0.2311
 5369SOL     OW27568   0.670   2.478  14.683  0.1725 -0.2446 -0.0037
 5369SOL    HW127569   0.667   2.386  14.655 -0.6251 -1.0183  2.6008
 5369SOL    HW227570   0.731   2.514  14.618  0.3094 -0.7328 -0.1471
 5370SOL     OW27571   3.809   3.951  11.357  0.2424  0.1661 -0.0601
 5370SOL    HW127572   3.796   3.862  11.325  2.3408  0.6659 -2.2958
 5370SOL    HW227573   3.784   3.939  11.448  3.5077 -0.1388  0.8022
 5371SOL     OW27574   4.142   3.174   0.559  0.9498 -0.0046  0.0963
 5371SOL    HW127575   4.168   3.131   0.478  1.3239  1.2649 -0.4633
 5371SOL    HW227576   4.181   3.108   0.617 -1.3010 -0.7917  0.7229
 5372SOL     OW27577   2.852   2.316   6.945 -0.6733  0.3221  0.3388
 5372SOL    HW127578   2.858   2.411   6.943 -1.1989  0.3517  0.1146
 5372SOL    HW227579   2.760   2.290   6.945 -0.8596  0.9936  0.8402
 5373SOL     OW27580   0.328   0.497   3.880  0.0705  0.3340  0.2362
 5373SOL    HW127581   0.233   0.484   3.882 -0.0268  1.0552  0.3460
 5373SOL    HW227582   0.343   0.442   3.803 -0.0738 -0.6131  0.8840
 5374SOL     OW27583   3.136   1.081   7.031 -0.0230 -0.3052  0.2599
 5374SOL    HW127584   3.157   1.170   7.060 -1.5280  0.1050  0.0795
 5374SOL    HW227585   3.050   1.099   6.993  0.1688  0.4048  0.1491
 5375SOL     OW27586   1.589   4.061   4.917 -0.3679 -0.9102  0.0786
 5375SOL    HW127587   1.656   4.115   4.958 -1.8734  1.6625 -0.8713
 5375SOL    HW227588   1.558   4.006   4.989 -0.4661 -0.6248  0.2527
 5376SOL     OW27589   4.545   2.717  15.832 -0.5580  0.7712  0.0044
 5376SOL    HW127590   4.548   2.676  15.746  1.4473  1.8243 -0.4227
 5376SOL    HW227591   4.540   2.811  15.814 -0.6309  1.0386  1.4144
 5377SOL     OW27592   2.640   0.263  12.469 -0.0204  0.0671  0.0091
 5377SOL    HW127593   2.681   0.189  12.425  0.2609  0.0682  0.2659
 5377SOL    HW227594   2.585   0.209  12.526 -2.2713  2.0088 -0.3137
 5378SOL     OW27595   2.517   3.552  13.602 -0.3994 -0.0499  0.1448
 5378SOL    HW127596   2.445   3.555  13.539 -1.3058  1.5792  1.2515
 5378SOL    HW227597   2.482   3.484  13.660 -1.6994  1.3324  0.9804
 5379SOL     OW27598   1.535   2.254   3.546 -0.6925 -0.2735 -0.0445
 5379SOL    HW127599   1.510   2.346   3.552 -0.6730 -0.2601 -0.1640
 5379SOL    HW227600   1.615   2.246   3.597  0.2743 -1.9685 -1.8237
 5380SOL     OW27601   3.999   4.051   2.300  0.4963  0.2781 -0.2969
 5380SOL    HW127602   3.970   4.067   2.390 -1.0653 -0.4508 -0.6695
 5380SOL    HW227603   4.094   4.064   2.306  0.8740 -2.1201 -0.9259
 5381SOL     OW27604   2.606   2.826  13.782 -0.1572 -0.4473 -1.0361
 5381SOL    HW127605   2.631   2.890  13.716 -1.0692  0.8725 -0.0938
 5381SOL    HW227606   2.510   2.822  13.776 -0.2393  0.6154 -0.4410
 5382SOL     OW27607   4.235   3.832   8.574  0.5549 -0.4806  0.0444
 5382SOL    HW127608   4.216   3.865   8.662 -0.1285 -1.8071  0.3785
 5382SOL    HW227609   4.213   3.739   8.572 -3.4959  0.4839  1.7316
 5383SOL     OW27610   3.750   2.044   4.322  0.5969 -0.1778  0.4427
 5383SOL    HW127611   3.745   1.949   4.318 -0.2859 -0.1149  0.0773
 5383SOL    HW227612   3.823   2.058   4.261  0.0542  0.3213 -0.0981
 5384SOL     OW27613   0.914   1.913   7.591  0.2658 -0.1703  0.2407
 5384SOL    HW127614   0.990   1.945   7.544 -0.0826 -0.6774 -0.6887
 5384SOL    HW227615   0.962   1.887   7.669 -0.3043 -1.1721  0.2657
 5385SOL     OW27616   3.225   2.968   0.372  0.1117 -0.3973 -0.9669
 5385SOL    HW127617   3.291   3.002   0.431 -1.5943 -0.8566  1.2324
 5385SOL    HW227618   3.283   2.961   0.297  4.2692 -0.0163  2.2100
 5386SOL     OW27619   3.971   0.408   7.943 -0.1068  0.4818 -0.1238
 5386SOL    HW127620   3.940   0.449   7.862 -0.3405  0.8405  0.1441
 5386SOL    HW227621   4.053   0.457   7.957  1.0424 -1.2876 -0.7117
 5387SOL     OW27622   1.345   0.557  10.181 -0.0557 -0.5893  0.8909
 5387SOL    HW127623   1.301   0.613  10.245  2.3825 -0.0240  2.0574
 5387SOL    HW227624   1.383   0.485  10.231  1.0738 -1.5332 -1.3448
 5388SOL     OW27625   2.814   1.103   1.789  0.2821 -0.3731 -0.3223
 5388SOL    HW127626   2.840   1.023   1.835  0.1576 -0.6933 -0.8042
 5388SOL    HW227627   2.893   1.154   1.773 -0.6887  1.0953 -0.5045
 5389SOL     OW27628   3.964   0.240  12.472  0.4258  0.3090 -0.7188
 5389SOL    HW127629   3.975   0.246  12.377  2.8651  3.0815 -0.2823
 5389SOL    HW227630   3.986   0.149  12.493 -1.5006  0.2699  1.0391
 5390SOL     OW27631   2.285   0.324   6.072 -0.1909 -0.4122  0.2806
 5390SOL    HW127632   2.230   0.283   6.007  0.5333 -0.4884 -0.2848
 5390SOL    HW227633   2.234   0.392   6.115  1.1337  0.2081  0.8937
 5391SOL     OW27634   0.859   4.641  12.558  0.5655  0.2905  0.2155
 5391SOL    HW127635   0.856   4.641  12.654 -3.3384  2.3277  0.0971
 5391SOL    HW227636   0.954   4.641  12.547  0.4111 -0.5232 -1.0609
 5392SOL     OW27637   1.136   2.303   6.826 -0.4033  0.0061 -0.3473
 5392SOL    HW127638   1.192   2.329   6.753  0.1002  1.3642  0.5021
 5392SOL    HW227639   1.154   2.375   6.888 -0.8481  2.2352 -2.7948
 5393SOL     OW27640   3.936   1.676  16.469 -0.1791 -0.3079  0.2559
 5393SOL    HW127641   3.961   1.670  16.377 -1.5723 -2.8034  0.0166
 5393SOL    HW227642   3.864   1.739  16.468  0.7665  0.7422 -2.9922
 5394SOL     OW27643   0.324   3.806   1.841  0.1152  0.3599  0.1877
 5394SOL    HW127644   0.352   3.716   1.859  0.2420  0.2468 -0.5654
 5394SOL    HW227645   0.362   3.820   1.754  0.0937 -0.4787  0.0429
 5395SOL     OW27646   0.733   3.307   0.763 -0.1551  0.2800  0.4451
 5395SOL    HW127647   0.728   3.400   0.782  0.3984  0.8666 -2.3003
 5395SOL    HW227648   0.660   3.269   0.813 -0.2560 -2.7163 -2.0244
 5396SOL     OW27649   4.356   3.331   6.215 -0.2345 -0.3353  0.3381
 5396SOL    HW127650   4.325   3.337   6.305  1.1165 -2.1510  0.9461
 5396SOL    HW227651   4.276   3.300   6.172  0.7597  0.4683 -2.1165
 5397SOL     OW27652   4.526   1.244   7.183 -0.4549 -0.0220  0.1233
 5397SOL    HW127653   4.497   1.179   7.119 -2.7717  0.9484  0.2247
 5397SOL    HW227654   4.483   1.210   7.261 -1.3195 -1.8231 -1.1362
 5398SOL     OW27655   1.431   1.276   5.347 -0.0179  0.1866 -0.9990
 5398SOL    HW127656   1.342   1.277   5.311 -0.3748  0.8718 -0.0756
 5398SOL    HW227657   1.485   1.291   5.269 -0.0952  3.0675 -0.4745
 5399SOL     OW27658   0.131   1.646   6.394 -0.1802  0.4594  0.2073
 5399SOL    HW127659   0.158   1.565   6.351  1.6172  2.2090 -1.9830
 5399SOL    HW227660   0.197   1.706   6.357  0.4953 -0.0255  0.6173
 5400SOL     OW27661   4.529   4.142   5.281  0.4033 -0.1585  0.1362
 5400SOL    HW127662   4.534   4.220   5.336  3.5493 -0.6517  0.5435
 5400SOL    HW227663   4.440   4.107   5.290  0.5289 -0.9600 -1.7461
 5401SOL     OW27664   0.844   4.350   1.581 -0.2891  0.5648  0.1219
 5401SOL    HW127665   0.886   4.318   1.660 -0.7727  0.2213  0.2350
 5401SOL    HW227666   0.852   4.445   1.591 -2.1425  0.7680 -0.3884
 5402SOL     OW27667   1.556   1.021   9.817  0.3754  0.5356  0.0573
 5402SOL    HW127668   1.522   1.048   9.903  1.2519  1.2801  0.1685
 5402SOL    HW227669   1.553   0.925   9.823 -0.6595  0.6160  1.0202
 5403SOL     OW27670   2.610   1.594   3.240 -0.5674  0.0063  0.0367
 5403SOL    HW127671   2.655   1.663   3.290 -0.0723  2.0784 -3.3123
 5403SOL    HW227672   2.653   1.606   3.156  1.7882  1.7846  1.5131
 5404SOL     OW27673   3.709   1.951   8.657 -0.2615 -0.1153 -0.6863
 5404SOL    HW127674   3.661   1.885   8.607 -1.6855  0.2548  0.1762
 5404SOL    HW227675   3.649   1.969   8.730 -0.2471 -0.6917 -0.5337
 5405SOL     OW27676   0.326   4.686   3.036  0.2307 -0.7313  0.1143
 5405SOL    HW127677   0.359   4.622   3.099  0.1177 -0.2298  0.6790
 5405SOL    HW227678   0.341   0.044   3.084 -1.3963 -1.0805  1.1835
 5406SOL     OW27679   1.488   2.227   8.744 -0.3447 -0.6917 -0.0202
 5406SOL    HW127680   1.445   2.281   8.677  0.0306  0.8117  0.9536
 5406SOL    HW227681   1.583   2.229   8.730 -0.7648 -3.2595 -3.2556
 5407SOL     OW27682   2.668   0.699   0.155 -0.4021  0.7075 -0.6176
 5407SOL    HW127683   2.751   0.719   0.111  0.7229  0.2666  1.3289
 5407SOL    HW227684   2.618   0.770   0.115 -0.3793  0.7599 -0.5530
 5408SOL     OW27685   0.291   3.359   6.427 -0.3050 -0.1717 -0.7090
 5408SOL    HW127686   0.350   3.286   6.447  0.5219  0.2804 -1.4446
 5408SOL    HW227687   0.217   3.321   6.474 -0.0209 -0.7204 -0.7015
 5409SOL     OW27688   1.481   4.371   5.907  0.1210 -0.0925  0.1724
 5409SOL    HW127689   1.501   4.393   5.816 -0.5236  0.2173  0.1096
 5409SOL    HW227690   1.523   4.286   5.921  2.2472  1.0188  0.5956
 5410SOL     OW27691   3.039   1.654   7.334  0.7971 -0.2455  0.2659
 5410SOL    HW127692   3.046   1.592   7.261 -0.5120  0.7876 -0.7469
 5410SOL    HW227693   3.098   1.620   7.401  1.6407 -1.9137 -1.3081
 5411SOL     OW27694   1.894   1.478   4.571  0.2620  0.1608  0.6403
 5411SOL    HW127695   1.853   1.529   4.501 -0.2863  1.0527  1.6008
 5411SOL    HW227696   1.986   1.495   4.549  0.1638  1.2268  1.0217
 5412SOL     OW27697   4.712   0.123   9.469  0.2053 -0.1147  0.1684
 5412SOL    HW127698   0.082   0.126   9.490  0.2718 -0.2431 -0.1048
 5412SOL    HW227699   4.716   0.059   9.398 -0.2104  0.8671 -0.7416
 5413SOL     OW27700   3.658   0.536   3.028  0.5432 -0.3107  0.7504
 5413SOL    HW127701   3.714   0.500   2.959  0.7798  0.2338  0.6618
 5413SOL    HW227702   3.639   0.624   2.995  0.3568 -0.0066  1.6638
 5414SOL     OW27703   3.884   3.115   3.379  0.0157 -0.1270  0.5104
 5414SOL    HW127704   3.843   3.199   3.361 -1.0410 -0.4188  1.6214
 5414SOL    HW227705   3.975   3.120   3.349  0.0628  0.7802  0.8169
 5415SOL     OW27706   4.709   4.015  10.372  0.0208  0.0457 -0.7737
 5415SOL    HW127707   4.670   3.936  10.335 -1.1826  0.3271 -0.1002
 5415SOL    HW227708   4.704   3.996  10.465  1.6597  2.3427 -0.2246
 5416SOL     OW27709   1.429   1.493  16.819  0.1859 -0.0864  0.2087
 5416SOL    HW127710   1.410   1.407  16.857  2.2988 -0.5965  0.1268
 5416SOL    HW227711   1.406   1.561  16.882 -1.6604 -0.9898  0.5012
 5417SOL     OW27712   2.691   2.968   4.374 -0.3842 -0.6420  0.3956
 5417SOL    HW127713   2.725   3.019   4.301  0.6295 -2.3164 -0.3124
 5417SOL    HW227714   2.681   3.031   4.445 -0.6647 -0.3521  0.0938
 5418SOL     OW27715   2.376   4.651   3.029 -0.1289  0.1812  0.0482
 5418SOL    HW127716   2.472   4.643   3.032 -0.0768  0.4451 -1.1661
 5418SOL    HW227717   2.354   4.559   3.042  0.6797 -0.1376 -0.7970
 5419SOL     OW27718   2.775   1.676   1.986 -0.2019 -0.0692  0.4158
 5419SOL    HW127719   2.686   1.698   1.960  0.5881  1.5356 -1.0091
 5419SOL    HW227720   2.788   1.606   1.921  0.9074  0.6021 -0.0986
 5420SOL     OW27721   2.407   1.486   7.669  0.6527 -0.3144 -0.2443
 5420SOL    HW127722   2.451   1.546   7.609 -1.2256  0.0607 -1.2561
 5420SOL    HW227723   2.317   1.506   7.643  0.5377  1.2720  1.3803
 5421SOL     OW27724   1.606   3.503  16.615  0.1748 -0.2408 -0.0990
 5421SOL    HW127725   1.668   3.519  16.543  1.9976  2.1251  1.9921
 5421SOL    HW227726   1.632   3.575  16.673 -0.1123  0.4224 -0.7892
 5422SOL     OW27727   3.933   2.115   8.663  0.6137 -0.0021  0.1691
 5422SOL    HW127728   3.868   2.046   8.680 -1.4570  1.7604 -0.5874
 5422SOL    HW227729   3.876   2.172   8.611  1.0099 -0.4213 -0.7373
 5423SOL     OW27730   3.380   1.242   6.788  0.3822 -0.0646 -0.4052
 5423SOL    HW127731   3.310   1.202   6.736  0.5468 -1.9579  0.8049
 5423SOL    HW227732   3.344   1.328   6.809  0.0931 -0.4153  0.5437
 5424SOL     OW27733   0.424   2.305   4.597 -0.0003 -0.4606  0.6285
 5424SOL    HW127734   0.474   2.223   4.599  1.1227  0.2088  0.0470
 5424SOL    HW227735   0.456   2.333   4.682  0.5250  0.2494  0.1915
 5425SOL     OW27736   2.458   3.289  17.389  0.4229 -0.1216 -0.3255
 5425SOL    HW127737   2.415   3.221  17.440  1.7286 -0.4843  0.2951
 5425SOL    HW227738   2.511   3.335  17.454  0.0760  0.5135 -0.4926
 5426SOL     OW27739   2.897   1.354  14.740 -0.0515  0.1170 -0.4211
 5426SOL    HW127740   2.865   1.441  14.763  1.9926  0.2689  1.9020
 5426SOL    HW227741   2.882   1.346  14.646  0.7973 -0.0567 -0.5426
 5427SOL     OW27742   1.234   1.058  17.379  0.4656 -0.0853  0.0984
 5427SOL    HW127743   1.214   1.036  17.288  0.1850  1.8193 -0.3045
 5427SOL    HW227744   1.164   1.011  17.425  0.5247 -1.7665 -1.5432
 5428SOL     OW27745   3.294   0.795   5.407  0.2755  0.0056  0.4103
 5428SOL    HW127746   3.254   0.708   5.417  2.3484 -1.1723 -1.8582
 5428SOL    HW227747   3.370   0.767   5.457  0.1393 -0.3609  0.4184
 5429SOL     OW27748   3.038   0.688   6.764 -0.4629  0.5309  0.0092
 5429SOL    HW127749   3.069   0.625   6.829  1.8320  0.9194 -0.7270
 5429SOL    HW227750   3.098   0.755   6.794  2.0603 -1.5190 -0.4405
 5430SOL     OW27751   2.078   1.141   3.679  0.2688  0.3941  0.1703
 5430SOL    HW127752   2.000   1.131   3.625 -0.8420  0.0793  1.8469
 5430SOL    HW227753   2.144   1.195   3.634 -1.5056  2.3099 -0.1576
 5431SOL     OW27754   1.747   3.974   6.424 -0.2005  0.6423  0.2458
 5431SOL    HW127755   1.758   4.063   6.390 -1.1242  0.0974 -1.4538
 5431SOL    HW227756   1.771   3.925   6.345 -2.6208 -0.0861 -0.0178
 5432SOL     OW27757   0.738   4.416   0.940 -0.1691 -0.3809 -0.2787
 5432SOL    HW127758   0.810   4.430   1.001  1.5301 -1.8985 -1.9191
 5432SOL    HW227759   0.696   4.502   0.932  0.7382  0.1148  0.3062
 5433SOL     OW27760   1.808   2.072  16.771 -0.5265 -0.6400 -0.5136
 5433SOL    HW127761   1.747   2.000  16.787 -0.1600 -1.1181 -1.2771
 5433SOL    HW227762   1.781   2.088  16.680 -0.9752  1.0711 -0.0870
 5434SOL     OW27763   2.402   0.493   8.270 -0.0479 -0.0382  0.4213
 5434SOL    HW127764   2.323   0.445   8.246  0.4837  0.4359 -2.1741
 5434SOL    HW227765   2.371   0.581   8.291  0.1855 -0.3802  2.2317
 5435SOL     OW27766   2.682   0.436   8.220 -0.4097  0.0395  0.1759
 5435SOL    HW127767   2.693   0.509   8.159  0.5351  0.4933  0.8872
 5435SOL    HW227768   2.590   0.450   8.240 -0.3387 -1.1081  1.3079
 5436SOL     OW27769   3.094   1.595   4.423  0.3070  0.2431  0.2254
 5436SOL    HW127770   3.085   1.647   4.343  0.3297  0.1385  0.1564
 5436SOL    HW227771   3.119   1.509   4.391 -2.2202 -0.1355 -0.7056
 5437SOL     OW27772   3.065   3.641   5.928  0.5585  0.6753  0.1141
 5437SOL    HW127773   3.022   3.557   5.942 -1.9832  1.9079 -0.3496
 5437SOL    HW227774   3.101   3.635   5.840  1.6821 -0.8728  0.6728
 5438SOL     OW27775   2.099   3.974   9.882  0.2201  0.4552  0.6020
 5438SOL    HW127776   2.048   4.020   9.948 -0.9889  0.0585 -0.0511
 5438SOL    HW227777   2.184   3.958   9.924 -0.6317  0.5954  2.3463
 5439SOL     OW27778   1.097   4.698   7.642 -0.1452  0.0666  0.3373
 5439SOL    HW127779   1.041   0.050   7.626 -0.6332 -0.1799  0.8660
 5439SOL    HW227780   1.044   4.623   7.614 -0.0997  0.1361  0.0665
 5440SOL     OW27781   2.734   3.344   8.136  0.8572 -0.5258  0.2359
 5440SOL    HW127782   2.717   3.408   8.067  1.6529  0.3264  0.8224
 5440SOL    HW227783   2.762   3.271   8.081  1.1785  0.7708 -1.2948
 5441SOL     OW27784   3.094   1.357   4.228  0.2339  0.0447  0.0613
 5441SOL    HW127785   3.069   1.272   4.191 -2.2211  0.3580  1.0218
 5441SOL    HW227786   3.118   1.410   4.151 -0.6806  2.2043  1.2726
 5442SOL     OW27787   1.637   4.425   6.348  0.4911 -0.5267  0.2900
 5442SOL    HW127788   1.615   4.499   6.291 -2.0766 -2.1831 -0.8788
 5442SOL    HW227789   1.554   4.411   6.395 -0.6102  1.7590 -0.9702
 5443SOL     OW27790   0.616   0.996   9.500 -0.3888  0.2787  0.3540
 5443SOL    HW127791   0.549   1.064   9.496  0.2785  0.8548 -0.9636
 5443SOL    HW227792   0.603   0.935   9.428 -1.7704  1.5510 -0.4783
 5444SOL     OW27793   1.617   4.023   8.561 -0.6335 -0.5350  0.0725
 5444SOL    HW127794   1.545   3.976   8.518  0.1059 -0.5719 -1.1475
 5444SOL    HW227795   1.685   4.000   8.498  0.1758  1.6756  0.1417
 5445SOL     OW27796   4.652   1.863   9.569 -0.3945 -0.1891 -0.4654
 5445SOL    HW127797   4.668   1.936   9.629  0.6905  1.1070 -2.3287
 5445SOL    HW227798   4.716   1.805   9.610  0.8078  1.3351 -0.1861
 5446SOL     OW27799   2.229   2.408   9.168  0.4742 -0.0613 -0.3225
 5446SOL    HW127800   2.196   2.414   9.257 -2.4052 -1.7214 -1.2812
 5446SOL    HW227801   2.321   2.388   9.187 -0.2363 -0.2017  2.8942
 5447SOL     OW27802   1.728   3.399   8.547 -0.0198 -0.1838 -0.2764
 5447SOL    HW127803   1.696   3.485   8.520  0.9681  0.6239  1.1663
 5447SOL    HW227804   1.696   3.395   8.637  2.0531 -0.2746  0.4320
 5448SOL     OW27805   1.164   4.576   4.768  0.3068  0.2443  0.1845
 5448SOL    HW127806   1.245   4.618   4.738  0.1529 -1.3338 -2.4297
 5448SOL    HW227807   1.204   4.530   4.842 -0.1837  0.1671  0.4015
 5449SOL     OW27808   3.728   1.652   8.997  0.1842  0.6092 -0.9898
 5449SOL    HW127809   3.674   1.674   8.922 -0.0814 -0.1175 -1.0119
 5449SOL    HW227810   3.694   1.710   9.065  2.3256  1.5973 -0.7472
 5450SOL     OW27811   0.633   2.620   9.228  0.5430  0.0936 -0.0067
 5450SOL    HW127812   0.700   2.553   9.218 -0.2777 -0.8605  0.8725
 5450SOL    HW227813   0.561   2.575   9.184  1.0935  0.4084 -1.2143
 5451SOL     OW27814   4.623   0.804   2.402  0.7288  0.2320  0.6523
 5451SOL    HW127815   4.641   0.826   2.311  0.6983 -1.1925  0.2990
 5451SOL    HW227816   4.701   0.751   2.419 -0.7316 -3.0436 -2.9346
 5452SOL     OW27817   2.259   2.457  14.453  0.2194 -1.1739  0.2129
 5452SOL    HW127818   2.188   2.477  14.392 -1.5021 -0.6426  2.4128
 5452SOL    HW227819   2.265   2.539  14.501  4.7741 -1.1170 -0.4507
 5453SOL     OW27820   0.973   4.114   7.126 -0.6437 -0.1685 -0.3197
 5453SOL    HW127821   0.987   4.209   7.124 -1.1211 -0.1207 -1.3748
 5453SOL    HW227822   1.064   4.101   7.153 -0.8671 -0.0417  0.4831
 5454SOL     OW27823   3.830   4.508   5.973  0.3869  0.1934  0.2685
 5454SOL    HW127824   3.857   4.521   6.063 -0.5077 -1.0413  0.7252
 5454SOL    HW227825   3.736   4.528   5.971  0.3817 -0.0468 -3.5567
 5455SOL     OW27826   3.489   0.372  11.911  0.0413 -0.2044 -0.1078
 5455SOL    HW127827   3.577   0.408  11.926 -0.4304  1.5209 -1.5106
 5455SOL    HW227828   3.498   0.371  11.816  0.6193  0.9892 -0.0634
 5456SOL     OW27829   3.697   0.319  11.604 -0.4505  0.1500 -0.1489
 5456SOL    HW127830   3.757   0.256  11.643  1.1863  1.4598 -0.5647
 5456SOL    HW227831   3.694   0.298  11.510 -2.1036  0.4232 -0.1562
 5457SOL     OW27832   1.236   1.124   6.218  0.1081  0.0119 -0.2891
 5457SOL    HW127833   1.296   1.155   6.150 -0.4004 -2.5345 -1.9052
 5457SOL    HW227834   1.203   1.041   6.184 -2.4907  0.4488  1.1432
 5458SOL     OW27835   1.872   3.996   9.649  0.3849  0.2101  0.0224
 5458SOL    HW127836   1.931   3.958   9.715 -2.6087 -0.6081  2.2342
 5458SOL    HW227837   1.911   4.082   9.636 -2.5150  1.2086 -2.0219
 5459SOL     OW27838   2.291   4.473   1.581 -0.2783 -0.7024  0.0109
 5459SOL    HW127839   2.242   4.537   1.530 -0.2354  1.0597  2.2301
 5459SOL    HW227840   2.325   4.400   1.528  1.0383  0.5587 -0.9080
 5460SOL     OW27841   2.722   3.065  15.428 -0.4504  0.3156  0.4638
 5460SOL    HW127842   2.735   3.106  15.343 -0.5326  0.1753  0.3830
 5460SOL    HW227843   2.700   2.976  15.401  1.5030 -0.1282  0.3958
 5461SOL     OW27844   0.073   0.610   5.696 -0.0238  0.1628 -0.1414
 5461SOL    HW127845   0.097   0.564   5.616  2.2012 -1.7276  1.6213
 5461SOL    HW227846   0.035   0.547   5.757 -1.0900  1.4199  0.4986
 5462SOL     OW27847   1.911   0.049   5.473 -0.0568 -0.3855 -0.1461
 5462SOL    HW127848   1.949   4.685   5.462  0.8555  0.0836 -0.7495
 5462SOL    HW227849   1.944   0.101   5.400  1.8582  3.3892  3.4334
 5463SOL     OW27850   3.699   3.160  13.565 -0.4937 -0.3933 -0.6380
 5463SOL    HW127851   3.767   3.181  13.628  0.5041 -1.9892 -1.1679
 5463SOL    HW227852   3.753   3.113  13.500  0.5610  0.2916 -0.2532
 5464SOL     OW27853   1.261   1.551   1.284  0.0534  0.1246  0.1238
 5464SOL    HW127854   1.288   1.473   1.236 -1.0835 -0.1143 -0.1321
 5464SOL    HW227855   1.207   1.591   1.216  0.1901  0.1795  0.0470
 5465SOL     OW27856   2.936   3.765  13.552 -0.2189  0.0495 -0.2936
 5465SOL    HW127857   2.862   3.752  13.611  0.2800  1.5062  0.6403
 5465SOL    HW227858   2.999   3.811  13.607  0.9672 -0.9919 -0.7874
 5466SOL     OW27859   0.887   4.246   4.422  0.2598 -0.0116 -0.0774
 5466SOL    HW127860   0.842   4.204   4.349  1.1867 -0.0011 -0.6564
 5466SOL    HW227861   0.951   4.304   4.382 -0.5805  0.2396 -1.0330
 5467SOL     OW27862   1.161   1.736   4.090  0.4479  0.3704 -0.1951
 5467SOL    HW127863   1.139   1.809   4.148 -4.0790 -1.3524  0.2429
 5467SOL    HW227864   1.205   1.793   4.027 -1.4714  0.6504 -1.2811
 5468SOL     OW27865   2.778   3.744   1.789  0.5870 -0.0501 -0.1824
 5468SOL    HW127866   2.836   3.705   1.855  0.2137 -0.8689 -0.3340
 5468SOL    HW227867   2.818   3.715   1.707  0.3912  2.3340 -1.0997
 5469SOL     OW27868   3.438   1.654   5.087 -0.3522  0.0951 -0.3419
 5469SOL    HW127869   3.357   1.691   5.053  0.3008  0.9833 -0.9348
 5469SOL    HW227870   3.447   1.569   5.043  0.6605 -1.4343  2.8715
 5470SOL     OW27871   1.117   4.344   8.809  0.0759  0.4013  0.5179
 5470SOL    HW127872   1.076   4.409   8.751  1.4901 -1.3465 -2.4322
 5470SOL    HW227873   1.211   4.348   8.789 -0.0349  0.6413  0.0589
 5471SOL     OW27874   3.865   4.146   6.622  0.0763 -0.6637  0.2589
 5471SOL    HW127875   3.824   4.194   6.551  1.1399 -0.2596 -0.0809
 5471SOL    HW227876   3.924   4.095   6.567  1.1205 -0.1380  0.8966
 5472SOL     OW27877   3.842   2.785   6.025 -0.1133  0.0383 -0.2568
 5472SOL    HW127878   3.930   2.753   6.003 -0.3508 -1.1613  0.5109
 5472SOL    HW227879   3.856   2.879   6.025  2.4697 -0.3286 -0.9811
 5473SOL     OW27880   1.974   1.082  10.739  0.1174 -0.1803  0.0583
 5473SOL    HW127881   1.972   1.115  10.650 -0.5634  0.7011  0.4054
 5473SOL    HW227882   1.993   0.989  10.723  2.8135  0.4521 -0.3964
 5474SOL     OW27883   2.821   2.993   6.854  0.0858  0.3716 -0.4352
 5474SOL    HW127884   2.738   2.970   6.814 -0.5198  2.8453 -0.5951
 5474SOL    HW227885   2.878   2.998   6.778 -0.9009  1.8687 -1.0697
 5475SOL     OW27886   2.831   0.241   7.575 -0.4849  0.1243 -0.3558
 5475SOL    HW127887   2.799   0.230   7.485  0.1422 -0.9502 -0.4350
 5475SOL    HW227888   2.773   0.310   7.608 -1.9999 -1.8119  1.0266
 5476SOL     OW27889   4.159   3.599   8.994  0.8116 -0.2376  0.0923
 5476SOL    HW127890   4.138   3.665   9.059 -1.1453 -1.1062  0.3588
 5476SOL    HW227891   4.120   3.521   9.034 -1.6014  0.4019 -1.0107
 5477SOL     OW27892   1.539   1.517   9.729  0.3790 -0.1427  0.3715
 5477SOL    HW127893   1.509   1.442   9.780  0.6153  0.0039  0.7267
 5477SOL    HW227894   1.471   1.524   9.662 -0.0505  1.9822  1.0230
 5478SOL     OW27895   1.438   3.439   2.768  0.3667  0.6721  0.1902
 5478SOL    HW127896   1.361   3.445   2.711 -0.9061  0.9289  1.9406
 5478SOL    HW227897   1.412   3.365   2.822  1.9428 -0.9504 -1.2897
 5479SOL     OW27898   0.246   4.683   3.572  0.3552  0.5997  0.1023
 5479SOL    HW127899   0.185   4.662   3.502  0.5827 -1.3709  0.4918
 5479SOL    HW227900   0.311   4.620   3.540  1.1660  1.4903 -0.0081
 5480SOL     OW27901   0.307   3.874  14.586 -0.2505 -0.6628 -0.3591
 5480SOL    HW127902   0.324   3.968  14.577 -2.9017 -0.0024  1.4951
 5480SOL    HW227903   0.218   3.865  14.552 -0.2615 -1.5747 -0.0715
 5481SOL     OW27904   3.299   3.151   8.441  0.7552 -0.3833 -0.2629
 5481SOL    HW127905   3.332   3.239   8.426  0.6796 -0.3376 -0.1621
 5481SOL    HW227906   3.337   3.112   8.362 -2.1857  0.7691 -2.2518
 5482SOL     OW27907   0.578   0.355  11.071  0.5608  0.1935  0.1287
 5482SOL    HW127908   0.550   0.345  11.162  1.7985 -2.9977  0.1609
 5482SOL    HW227909   0.671   0.369  11.091  0.9957 -1.3568 -0.8283
 5483SOL     OW27910   2.567   0.898  11.586  0.5182 -0.3276  0.9326
 5483SOL    HW127911   2.659   0.886  11.611  0.6545 -0.6292  0.2677
 5483SOL    HW227912   2.534   0.943  11.664 -0.4683  0.4480  0.0721
 5484SOL     OW27913   0.932   3.809  12.313  0.0096  0.2463 -0.6559
 5484SOL    HW127914   0.946   3.721  12.347 -1.0455 -0.1633 -1.2751
 5484SOL    HW227915   0.897   3.856  12.389 -0.9258  0.2964 -1.1106
 5485SOL     OW27916   2.685   3.484   9.659 -0.1300  0.0930  0.4264
 5485SOL    HW127917   2.655   3.526   9.579  1.0463  0.1287 -0.0043
 5485SOL    HW227918   2.686   3.554   9.725 -1.3402 -2.2360  2.9220
 5486SOL     OW27919   2.515   3.878   9.292  0.2154 -0.4508  0.0740
 5486SOL    HW127920   2.530   3.973   9.299  2.0749 -0.8513  1.4563
 5486SOL    HW227921   2.568   3.859   9.215 -0.9296 -1.4331 -0.4719
 5487SOL     OW27922   0.147   4.282   0.227 -0.2725  0.4018  0.0654
 5487SOL    HW127923   0.185   4.292   0.140 -0.9751  1.4706 -0.1099
 5487SOL    HW227924   0.219   4.233   0.268 -1.4310 -2.3232 -1.1821
 5488SOL     OW27925   2.265   3.339   7.548  0.0553  0.4583 -0.3408
 5488SOL    HW127926   2.315   3.408   7.505  0.5678  0.1868 -0.1795
 5488SOL    HW227927   2.210   3.399   7.599 -0.0976  2.2849 -2.5986
 5489SOL     OW27928   1.377   2.863   5.688 -0.3958  0.1768  0.3747
 5489SOL    HW127929   1.391   2.769   5.695 -2.4632 -0.0456  1.6068
 5489SOL    HW227930   1.432   2.881   5.612  2.1232 -0.4948  2.0514
 5490SOL     OW27931   0.569   2.224   0.515  0.3090  0.0200  0.4486
 5490SOL    HW127932   0.624   2.288   0.560  1.0092  0.5086 -1.0980
 5490SOL    HW227933   0.616   2.141   0.522 -0.2974 -0.5349 -1.8977
 5491SOL     OW27934   1.581   3.469  12.836 -0.1814  0.3636  0.0259
 5491SOL    HW127935   1.504   3.525  12.839 -0.5918 -0.2433  0.8564
 5491SOL    HW227936   1.542   3.385  12.860 -0.9251  0.9814  0.9814
 5492SOL     OW27937   1.686   4.483   6.861  0.1561  0.1614  0.0013
 5492SOL    HW127938   1.600   4.493   6.902  0.8932  0.7307  1.4247
 5492SOL    HW227939   1.686   4.553   6.796 -3.1852  0.9253  0.7988
 5493SOL     OW27940   4.059   2.773   6.240 -0.0299  0.0268  0.0524
 5493SOL    HW127941   4.108   2.719   6.302 -2.0607 -1.2490  0.5574
 5493SOL    HW227942   4.096   2.857   6.267 -0.0745 -0.2590  1.0348
 5494SOL     OW27943   2.576   1.265   7.669 -0.1812  0.3735  0.7217
 5494SOL    HW127944   2.608   1.274   7.579 -2.0905 -3.8257 -0.3785
 5494SOL    HW227945   2.505   1.329   7.676 -0.9532 -0.2744 -1.1890
 5495SOL     OW27946   3.095   1.111   5.880 -0.1780  0.7820  0.0422
 5495SOL    HW127947   3.114   1.076   5.967  0.8465 -1.2102 -0.9868
 5495SOL    HW227948   3.010   1.156   5.882 -0.7535 -0.3254  0.8516
 5496SOL     OW27949   0.713   4.025   9.975 -0.3542 -0.0149 -0.5751
 5496SOL    HW127950   0.689   3.951   9.919 -2.2408  0.2760 -0.1428
 5496SOL    HW227951   0.728   4.092   9.908  0.1970  2.4250  1.9939
 5497SOL     OW27952   4.393   4.183   4.812  1.0047  0.1267  0.0087
 5497SOL    HW127953   4.461   4.124   4.779 -0.3279 -2.5885  2.1041
 5497SOL    HW227954   4.433   4.212   4.893  0.7384  1.4013 -0.3134
 5498SOL     OW27955   4.248   2.658  12.312 -0.1011  0.0241 -0.0870
 5498SOL    HW127956   4.196   2.682  12.236  0.2127  1.5330  0.1647
 5498SOL    HW227957   4.229   2.720  12.383 -1.3263 -2.9437  2.1741
 5499SOL     OW27958   2.689   1.815   3.788  0.0007 -0.0971  0.2791
 5499SOL    HW127959   2.780   1.836   3.806  0.5289  0.5991 -3.1998
 5499SOL    HW227960   2.666   1.746   3.850  1.6478 -0.2994  0.6670
 5500SOL     OW27961   4.314   4.022  10.559  0.5688 -0.2098  0.0168
 5500SOL    HW127962   4.266   3.944  10.585 -1.7324  1.0607 -0.3769
 5500SOL    HW227963   4.248   4.077  10.518  0.6894  0.5846  0.8677
 5501SOL     OW27964   4.013   2.702  14.349 -0.6561 -0.2902 -0.2248
 5501SOL    HW127965   4.061   2.677  14.427 -0.3181 -2.4215 -1.1018
 5501SOL    HW227966   3.931   2.654  14.360 -0.6817 -0.1759  0.0632
 5502SOL     OW27967   1.586   0.173   6.492  0.6692  0.9870 -0.0586
 5502SOL    HW127968   1.519   0.226   6.449  0.8229  0.6806 -0.6753
 5502SOL    HW227969   1.617   0.246   6.545 -1.9268  2.0566 -0.0127
 5503SOL     OW27970   3.625   0.273   6.393 -0.3121  0.1151  0.0325
 5503SOL    HW127971   3.720   0.258   6.390  0.0158  1.5538  3.2517
 5503SOL    HW227972   3.613   0.309   6.481 -1.3922 -0.1120 -0.0181
 5504SOL     OW27973   0.791   2.797   4.162  0.2435 -0.2241 -0.2293
 5504SOL    HW127974   0.824   2.884   4.140  1.7085 -0.6233  0.3459
 5504SOL    HW227975   0.813   2.744   4.086  0.1311 -2.0794  1.0462
 5505SOL     OW27976   2.609   2.150   2.787 -0.0168 -0.4937  0.0506
 5505SOL    HW127977   2.549   2.077   2.798  0.1320 -0.5908  0.2289
 5505SOL    HW227978   2.687   2.095   2.792 -0.9083 -1.4473  3.1868
 5506SOL     OW27979   4.667   4.691   7.004  0.7590  0.0165  0.0232
 5506SOL    HW127980   4.701   0.057   7.005  0.1638  0.2366  0.5987
 5506SOL    HW227981   4.692   4.661   7.091  0.6104 -2.5298 -0.7922
 5507SOL     OW27982   0.600   2.944  11.432 -0.5601  0.0497 -0.1714
 5507SOL    HW127983   0.568   2.906  11.350  2.2524  0.1816 -1.3439
 5507SOL    HW227984   0.606   2.857  11.471 -0.2221 -0.5691 -1.6115
 5508SOL     OW27985   0.397   2.994   7.299 -0.1069 -0.1178  0.0945
 5508SOL    HW127986   0.457   3.062   7.327 -0.9523  0.4878  0.4331
 5508SOL    HW227987   0.442   2.919   7.338  0.9350  1.1713  1.3752
 5509SOL     OW27988   4.140   4.473  12.663  0.1330  0.1971  0.0950
 5509SOL    HW127989   4.201   4.465  12.590  0.4369  0.3283  0.3355
 5509SOL    HW227990   4.171   4.414  12.732 -1.2674  0.3316  0.8322
 5510SOL     OW27991   2.086   0.145   8.834 -0.6125  0.9096 -0.1538
 5510SOL    HW127992   2.105   0.239   8.830 -1.3578  1.0384 -0.6940
 5510SOL    HW227993   2.040   0.142   8.918  2.1648 -0.7362  1.3188
 5511SOL     OW27994   4.692   4.708  16.020  0.1647 -0.3533  0.0714
 5511SOL    HW127995   4.610   0.024  15.991  1.2368  0.4345 -1.8729
 5511SOL    HW227996   4.675   0.002  16.113 -0.2592 -3.4675  0.5875
 5512SOL     OW27997   2.135   2.594  10.694 -0.5822  0.5945 -0.0345
 5512SOL    HW127998   2.199   2.524  10.707 -0.8566  0.2783 -0.3781
 5512SOL    HW227999   2.192   2.669  10.677  0.3821 -0.0000  0.5802
 5513SOL     OW28000   0.895   3.930   6.713 -0.3045 -0.2700 -0.6282
 5513SOL    HW128001   0.907   3.846   6.669  2.2155 -0.8808  1.1795
 5513SOL    HW228002   0.816   3.906   6.761 -0.8448 -0.5327 -1.6504
 5514SOL     OW28003   1.641   1.123  14.056  0.2584  0.0492 -0.0757
 5514SOL    HW128004   1.547   1.135  14.070 -0.0053 -1.0469 -0.8942
 5514SOL    HW228005   1.674   1.212  14.064  1.1178 -0.2545 -0.2786
 5515SOL     OW28006   2.048   3.704   9.195  0.1230 -0.0226 -0.0993
 5515SOL    HW128007   2.111   3.775   9.202  3.7257 -3.0675 -1.2536
 5515SOL    HW228008   2.085   3.640   9.256 -0.0685 -0.2120 -0.1771
 5516SOL     OW28009   3.068   4.319   3.587  0.5935  0.3732 -0.4158
 5516SOL    HW128010   3.047   4.323   3.493  0.9380 -0.3807 -0.5212
 5516SOL    HW228011   3.012   4.388   3.622  0.9938 -0.7872  2.5116
 5517SOL     OW28012   2.258   1.608  17.102 -0.2207 -0.3256 -0.1299
 5517SOL    HW128013   2.258   1.690  17.053  0.0233 -0.7672 -0.8638
 5517SOL    HW228014   2.298   1.549  17.039  1.2810 -0.2670  0.7784
 5518SOL     OW28015   4.169   4.107   1.178  0.2727  0.0780 -0.6039
 5518SOL    HW128016   4.126   4.188   1.204  0.0953  0.1335 -1.0661
 5518SOL    HW228017   4.119   4.083   1.100 -1.0506  1.3791 -0.1682
 5519SOL     OW28018   2.251   3.221   5.128 -0.8623  0.1214 -0.1012
 5519SOL    HW128019   2.179   3.180   5.080 -1.9738  0.6071  1.1385
 5519SOL    HW228020   2.238   3.315   5.116 -0.2376 -0.0770 -2.3619
 5520SOL     OW28021   0.472   2.773   6.021 -0.5798 -0.3030  0.1811
 5520SOL    HW128022   0.490   2.726   5.939 -3.0934  0.2867 -0.6855
 5520SOL    HW228023   0.538   2.739   6.082  0.6670  0.6978 -0.5852
 5521SOL     OW28024   2.875   3.103   2.183 -0.2525  0.0880 -0.6667
 5521SOL    HW128025   2.813   3.050   2.233  0.0824  0.0227 -0.3198
 5521SOL    HW228026   2.962   3.063   2.192 -1.9374 -2.6945  3.2875
 5522SOL     OW28027   3.336   2.922   8.819 -0.0194 -0.7054  1.0426
 5522SOL    HW128028   3.393   2.852   8.851 -0.5296 -0.6453  2.0934
 5522SOL    HW228029   3.305   2.891   8.734  2.7876  0.7885 -0.5341
 5523SOL     OW28030   1.043   3.977   3.361 -0.3306 -0.0147  0.0196
 5523SOL    HW128031   1.015   3.999   3.272  0.5190 -0.0873 -0.2691
 5523SOL    HW228032   1.135   3.959   3.342 -0.4479  1.0888 -1.6419
 5524SOL     OW28033   3.060   1.073   6.167  0.2648 -0.5514 -0.1042
 5524SOL    HW128034   3.105   1.114   6.242 -1.8568 -0.2770  1.0305
 5524SOL    HW228035   3.121   1.008   6.133  0.1145 -0.7950  0.0877
 5525SOL     OW28036   3.790   3.554   3.893 -0.1985  0.2179 -0.9055
 5525SOL    HW128037   3.774   3.648   3.898 -2.2265 -0.1699 -0.1527
 5525SOL    HW228038   3.751   3.532   3.977 -0.1544  2.3522 -0.3374
 5526SOL     OW28039   1.640   0.116  16.734  0.1923  0.5412  0.2116
 5526SOL    HW128040   1.620   0.029  16.701 -2.0778  0.7570  0.9941
 5526SOL    HW228041   1.641   0.170  16.655 -1.3729  0.8564  0.3893
 5527SOL     OW28042   1.422   2.350   6.472  0.1765  0.6160  0.2697
 5527SOL    HW128043   1.472   2.412   6.419 -2.5954  1.9444 -0.7902
 5527SOL    HW228044   1.386   2.413   6.534 -2.0851 -0.1183 -0.3086
 5528SOL     OW28045   4.404   2.111   5.578  0.0131 -0.4736  0.5649
 5528SOL    HW128046   4.355   2.089   5.499 -0.0105 -1.6923  0.9199
 5528SOL    HW228047   4.493   2.094   5.548 -1.1264  1.4517 -3.9063
 5529SOL     OW28048   3.093   3.343  10.580  0.1150 -0.3330  0.1878
 5529SOL    HW128049   3.177   3.340  10.626  0.8231 -0.6506 -1.1292
 5529SOL    HW228050   3.034   3.311  10.648 -0.9637  0.1578 -0.5147
 5530SOL     OW28051   2.708   0.073   8.389 -0.9231 -0.5661 -0.2384
 5530SOL    HW128052   2.770   0.003   8.413 -0.3012 -0.4496 -1.4969
 5530SOL    HW228053   2.707   0.126   8.469  0.1704 -1.2782  0.2681
 5531SOL     OW28054   2.022   4.392   5.284 -0.0143 -0.2941 -0.4035
 5531SOL    HW128055   2.065   4.393   5.199  0.5206 -0.4286 -0.1383
 5531SOL    HW228056   2.099   4.392   5.341  0.1219  0.2536 -0.5869
 5532SOL     OW28057   0.319   3.659   7.779  0.0565 -0.3496 -0.1018
 5532SOL    HW128058   0.355   3.691   7.695 -1.0620 -2.5667 -1.4199
 5532SOL    HW228059   0.225   3.678   7.766 -0.5836 -1.0515  3.7695
 5533SOL     OW28060   4.057   0.598   6.618  0.0167  0.1508 -0.8644
 5533SOL    HW128061   4.118   0.666   6.590  2.9521 -2.2060 -0.1688
 5533SOL    HW228062   4.108   0.544   6.678 -1.0332 -0.6633 -0.6876
 5534SOL     OW28063   1.103   3.269   3.834 -0.6441  0.1548 -0.0539
 5534SOL    HW128064   1.043   3.200   3.806 -0.3887 -0.6029  1.2511
 5534SOL    HW228065   1.084   3.276   3.927  0.1953 -0.9315  0.1992
 5535SOL     OW28066   1.772   2.507  13.572 -0.0861  0.3758  0.5554
 5535SOL    HW128067   1.724   2.469  13.645 -1.5204 -0.1691 -0.6711
 5535SOL    HW228068   1.775   2.599  13.598 -0.6144  0.9759 -1.5112
 5536SOL     OW28069   2.871   3.453   4.433  0.1472  0.4315 -0.3511
 5536SOL    HW128070   2.952   3.447   4.482  0.6107 -0.8295 -1.2641
 5536SOL    HW228071   2.818   3.514   4.485  1.9655  1.3331  0.4484
 5537SOL     OW28072   3.999   0.834  12.214 -0.2458 -0.0465  0.0840
 5537SOL    HW128073   4.066   0.772  12.243  0.1821  1.0382  1.4749
 5537SOL    HW228074   3.945   0.851  12.292 -0.8384 -0.0342 -0.3297
 5538SOL     OW28075   3.755   4.112   6.151 -0.1068  0.1234  0.1942
 5538SOL    HW128076   3.788   4.030   6.187 -0.5028 -0.2766 -0.3511
 5538SOL    HW228077   3.834   4.120   6.098 -0.2607 -0.9173 -0.1982
 5539SOL     OW28078   2.024   0.531  15.895  0.0127  0.0701 -0.0452
 5539SOL    HW128079   2.053   0.622  15.897  0.4095  0.0978 -5.4428
 5539SOL    HW228080   2.000   0.520  15.987 -1.5354  0.9839 -0.3407
 5540SOL     OW28081   3.534   2.447   6.006 -0.2409 -0.1944  0.6541
 5540SOL    HW128082   3.615   2.426   6.053  1.0232  1.7964 -0.6363
 5540SOL    HW228083   3.561   2.538   5.996  1.9522 -0.5940  2.7388
 5541SOL     OW28084   2.984   2.518  12.491 -0.2469 -0.5140 -0.0189
 5541SOL    HW128085   2.958   2.603  12.527  1.7605 -0.5908  1.5711
 5541SOL    HW228086   2.953   2.528  12.401 -0.5155  0.2659  0.1592
 5542SOL     OW28087   4.304   2.002   9.402  0.0732 -0.1774 -0.4124
 5542SOL    HW128088   4.311   2.096   9.384  1.0975 -0.4757 -1.5304
 5542SOL    HW228089   4.386   1.967   9.368  1.0098  0.9461  0.6727
 5543SOL     OW28090   3.849   1.366   3.703 -0.1173  1.0812  0.7318
 5543SOL    HW128091   3.836   1.408   3.788  0.4668  2.3927  0.1716
 5543SOL    HW228092   3.780   1.300   3.700 -0.3327  1.2819  1.3572
 5544SOL     OW28093   4.291   1.204   4.523  0.2711 -0.1803  0.0412
 5544SOL    HW128094   4.206   1.164   4.542  0.4506 -0.9117 -0.6687
 5544SOL    HW228095   4.267   1.233   4.435 -0.2851 -2.1602 -0.4478
 5545SOL     OW28096   0.678   3.494   6.026  0.7307  0.5848 -0.0972
 5545SOL    HW128097   0.664   3.411   6.071 -1.0169  0.6976 -0.4428
 5545SOL    HW228098   0.767   3.509   6.060  1.3840 -0.4527 -1.3571
 5546SOL     OW28099   3.713   4.680   4.166 -0.0859  0.7332  0.1334
 5546SOL    HW128100   3.740   4.697   4.076  3.9718 -0.0058  1.2331
 5546SOL    HW228101   3.625   4.718   4.161 -0.0704  0.4910 -1.7122
 5547SOL     OW28102   3.496   1.327   9.401  0.6494 -0.9487 -0.1112
 5547SOL    HW128103   3.419   1.375   9.430 -1.3571 -2.6207 -2.6785
 5547SOL    HW228104   3.553   1.402   9.420  0.0062 -0.7139  0.8699
 5548SOL     OW28105   3.616   2.573   5.214  0.1863 -0.5389  0.5135
 5548SOL    HW128106   3.631   2.490   5.259 -1.0510 -1.0130  0.0676
 5548SOL    HW228107   3.570   2.530   5.141  0.0336  2.0572 -0.8977
 5549SOL     OW28108   3.036   0.132   3.566 -0.0499  0.1621  0.4415
 5549SOL    HW128109   3.105   0.143   3.500  0.2058 -0.3945  0.6197
 5549SOL    HW228110   3.003   0.050   3.530  0.0937  0.9546 -1.5447
 5550SOL     OW28111   0.707   1.016   2.429 -0.1822 -0.3070 -0.0296
 5550SOL    HW128112   0.677   0.926   2.438  1.8763 -0.9393  0.5370
 5550SOL    HW228113   0.801   1.001   2.413 -0.2665 -0.0337 -0.7816
 5551SOL     OW28114   3.764   3.157   8.155  0.4098 -0.2834 -0.8594
 5551SOL    HW128115   3.766   3.249   8.184  1.1526 -0.8906  1.0408
 5551SOL    HW228116   3.853   3.143   8.188  0.4758  2.9153  0.3763
 5552SOL     OW28117   4.580   0.705  17.116 -0.4756  0.5026  0.2158
 5552SOL    HW128118   4.638   0.658  17.056  0.8577  0.4216  1.5688
 5552SOL    HW228119   4.648   0.752  17.165  0.2965  0.5967 -0.9477
 5553SOL     OW28120   0.607   2.207   9.108 -0.2709 -0.1089 -0.1589
 5553SOL    HW128121   0.613   2.193   9.202  0.7179 -0.2019 -0.2373
 5553SOL    HW228122   0.546   2.281   9.115 -0.0797  0.1688 -1.3876
 5554SOL     OW28123   4.435   1.102   3.664  0.0174  0.0272 -0.2464
 5554SOL    HW128124   4.489   1.041   3.715  1.2840  2.8242  1.7594
 5554SOL    HW228125   4.371   1.044   3.621  1.2905 -0.5627 -1.3449
 5555SOL     OW28126   0.330   2.540   8.369 -0.4763 -0.3302 -0.1513
 5555SOL    HW128127   0.238   2.556   8.349 -0.0268  0.3304 -1.6577
 5555SOL    HW228128   0.360   2.631   8.373  1.8242 -1.0882  0.2066
 5556SOL     OW28129   0.876   4.031   5.878 -0.5664 -0.2220 -0.4548
 5556SOL    HW128130   0.958   3.990   5.906  0.0725 -0.0242 -2.0178
 5556SOL    HW228131   0.908   4.116   5.847 -0.2217 -0.0312  0.4223
 5557SOL     OW28132   0.845   0.493  13.384  0.2924 -0.0754 -0.3261
 5557SOL    HW128133   0.824   0.459  13.471 -1.8682  0.7337 -0.5378
 5557SOL    HW228134   0.936   0.465  13.371  0.2899 -0.6444  0.8961
 5558SOL     OW28135   2.606   3.757   4.113  0.4536  0.3066 -0.0351
 5558SOL    HW128136   2.561   3.754   4.028  1.7809 -1.3857 -0.6670
 5558SOL    HW228137   2.649   3.672   4.110  2.0639  1.0837  1.3366
 5559SOL     OW28138   1.844   1.414   6.352 -0.5071  0.2251  0.2277
 5559SOL    HW128139   1.810   1.340   6.403 -0.3336 -2.2392 -3.2470
 5559SOL    HW228140   1.773   1.477   6.356 -1.4881 -1.0085  2.1526
 5560SOL     OW28141   4.155   0.080   9.036  0.1074  0.3953  0.2020
 5560SOL    HW128142   4.077   0.077   9.092  0.4448  0.8817  0.6877
 5560SOL    HW228143   4.220   0.119   9.094  0.3169  0.3248  0.0163
 5561SOL     OW28144   3.246   4.421  12.551  0.0155 -0.0799 -0.4414
 5561SOL    HW128145   3.263   4.334  12.514 -0.9353 -0.4274 -0.0589
 5561SOL    HW228146   3.333   4.461  12.556  0.4039 -1.0096  0.1603
 5562SOL     OW28147   0.952   1.693  10.270 -0.3967  0.0025 -0.6576
 5562SOL    HW128148   0.907   1.761  10.321 -2.0135 -1.5266 -0.0283
 5562SOL    HW228149   0.876   1.650  10.232 -0.2876 -2.1896  1.5596
 5563SOL     OW28150   4.406   3.571   3.261  0.4071 -0.2773  0.4106
 5563SOL    HW128151   4.358   3.607   3.335 -0.1045  2.1113 -1.1109
 5563SOL    HW228152   4.462   3.504   3.301 -1.1519  0.7122  4.2877
 5564SOL     OW28153   1.305   3.959   7.661  0.4312  0.3919  0.1938
 5564SOL    HW128154   1.343   3.929   7.744  1.6670 -1.2941 -1.0016
 5564SOL    HW228155   1.377   3.963   7.599  0.9647  2.4813  0.9250
 5565SOL     OW28156   0.383   4.317   9.513 -0.0817 -0.2341 -0.0872
 5565SOL    HW128157   0.455   4.362   9.558  0.4351  0.7192 -1.8541
 5565SOL    HW228158   0.330   4.392   9.485  1.9889  1.8782  1.5557
 5566SOL     OW28159   1.181   3.857   1.689  0.4258  0.0065  0.3296
 5566SOL    HW128160   1.158   3.923   1.623 -0.6423 -0.4567  0.2280
 5566SOL    HW228161   1.260   3.818   1.652  0.4650  1.0659 -0.7239
 5567SOL     OW28162   1.028   4.371   4.217  0.2053  0.1827 -0.2255
 5567SOL    HW128163   1.018   4.297   4.157 -0.1227 -1.0611  1.3631
 5567SOL    HW228164   1.040   4.445   4.158 -2.3733 -0.0612 -1.0783
 5568SOL     OW28165   4.308   2.806   8.211  0.2400  0.4905 -0.2141
 5568SOL    HW128166   4.345   2.845   8.290  2.1222 -0.8640 -0.4136
 5568SOL    HW228167   4.365   2.846   8.145  1.8443 -0.3607  0.6435
 5569SOL     OW28168   0.990   1.005   4.792  0.0643  0.0382 -0.1933
 5569SOL    HW128169   1.040   0.976   4.716 -0.0306  0.4767 -0.4222
 5569SOL    HW228170   0.961   0.923   4.832 -4.6253  0.5464 -2.4702
 5570SOL     OW28171   4.706   3.288  12.499  0.2528 -0.3899 -0.2280
 5570SOL    HW128172   4.683   3.256  12.412 -0.7007  2.7884 -1.1451
 5570SOL    HW228173   4.624   3.336  12.513 -0.0401 -0.8655 -0.3100
 5571SOL     OW28174   1.263   1.398  16.187 -0.6074 -0.3447 -0.0712
 5571SOL    HW128175   1.339   1.372  16.239 -0.4843  0.6950  0.2716
 5571SOL    HW228176   1.191   1.362  16.238 -0.3632  0.1712  0.6394
 5572SOL     OW28177   3.491   3.595   4.535 -0.1064  0.2072  0.3041
 5572SOL    HW128178   3.510   3.584   4.628  2.0016  0.2912 -0.1075
 5572SOL    HW228179   3.504   3.506   4.503  0.6367  1.1283 -1.9854
 5573SOL     OW28180   1.057   4.614   1.328  0.1380 -0.1317 -0.3030
 5573SOL    HW128181   1.071   4.599   1.421  1.1266  0.4741 -0.3525
 5573SOL    HW228182   1.142   4.614   1.285  0.6004 -1.7831  0.6546
 5574SOL     OW28183   1.933   0.257   3.036  0.1584  0.3448 -0.1381
 5574SOL    HW128184   1.907   0.247   2.945 -0.7389 -0.3100  0.1905
 5574SOL    HW228185   2.024   0.227   3.037  0.5238  1.4604 -0.0634
 5575SOL     OW28186   3.822   0.609   1.693 -0.2997  0.1855 -0.2504
 5575SOL    HW128187   3.733   0.619   1.725 -0.0009 -0.9172  0.9487
 5575SOL    HW228188   3.815   0.639   1.603  0.8048  0.9992 -0.0712
 5576SOL     OW28189   2.519   0.059  13.086  0.3047 -0.3788  0.0541
 5576SOL    HW128190   2.566   0.088  13.163 -1.7726  0.9469  0.8092
 5576SOL    HW228191   2.436   0.025  13.121 -1.9333  1.9657 -2.9904
 5577SOL     OW28192   4.313   3.005   1.801 -0.3824 -0.1911 -0.3938
 5577SOL    HW128193   4.387   2.955   1.767  0.5292  0.7405  0.2169
 5577SOL    HW228194   4.322   2.977   1.892  0.4128 -1.4393 -0.8530
 5578SOL     OW28195   4.374   0.747   2.268 -0.3371  0.3884 -0.4660
 5578SOL    HW128196   4.427   0.756   2.348 -0.7066  1.1229 -0.3049
 5578SOL    HW228197   4.440   0.735   2.200  2.9796  2.3761  2.3869
 5579SOL     OW28198   0.992   2.903   0.636  0.4410 -0.0856  0.0895
 5579SOL    HW128199   1.029   2.977   0.588 -0.4024  0.8323  0.8280
 5579SOL    HW228200   0.990   2.941   0.724 -1.1065  1.4474 -0.5901
 5580SOL     OW28201   3.548   3.675   1.413 -0.5805 -0.2065  0.1773
 5580SOL    HW128202   3.590   3.597   1.449  0.4113  0.8571  1.3173
 5580SOL    HW228203   3.594   3.682   1.329 -0.9849 -2.6813 -0.2665
 5581SOL     OW28204   0.212   3.318  10.518  0.1668 -0.1892  0.1265
 5581SOL    HW128205   0.181   3.394  10.470  1.5385 -0.1920 -0.7666
 5581SOL    HW228206   0.281   3.357  10.571  0.6546 -1.3311  0.3475
 5582SOL     OW28207   0.132   4.322   7.889 -0.0657 -0.3719 -0.5726
 5582SOL    HW128208   0.216   4.307   7.932 -0.1843  1.2142  0.2350
 5582SOL    HW228209   0.141   4.417   7.900 -1.9649 -0.3398  0.8400
 5583SOL     OW28210   3.588   1.197   1.098 -0.9700 -0.0069 -0.7901
 5583SOL    HW128211   3.564   1.107   1.079  0.6006 -0.5247 -0.3463
 5583SOL    HW228212   3.505   1.245   1.103 -0.1640  1.2704  0.4799
 5584SOL     OW28213   0.742   1.545   4.786 -0.3155 -0.0669  0.4161
 5584SOL    HW128214   0.796   1.466   4.792  2.1356  1.5369 -0.5161
 5584SOL    HW228215   0.806   1.597   4.738  0.1172  0.1342  1.2265
 5585SOL     OW28216   0.925   3.100   3.751 -0.2182  0.2900 -0.0515
 5585SOL    HW128217   0.891   3.166   3.691 -0.2743 -2.1378 -2.6955
 5585SOL    HW228218   0.940   3.022   3.697 -0.2024 -0.3072  0.8170
 5586SOL     OW28219   3.222   1.401  16.061 -0.4205  0.0843 -0.0893
 5586SOL    HW128220   3.165   1.334  16.023 -0.9209  0.5513 -0.1535
 5586SOL    HW228221   3.215   1.466  15.991 -2.8273 -1.2095 -1.0588
 5587SOL     OW28222   4.016   0.047   8.071  0.3322  0.1725  0.3403
 5587SOL    HW128223   4.012   4.694   8.128  1.3135 -1.3231 -1.5793
 5587SOL    HW228224   4.112   0.053   8.066  0.5052 -1.4913  1.7074
 5588SOL     OW28225   3.040   2.444   6.170  0.2700  0.0731 -0.1443
 5588SOL    HW128226   2.951   2.417   6.189 -0.7243  3.7575  0.5050
 5588SOL    HW228227   3.031   2.525   6.119 -0.3955 -0.0134 -0.1621
 5589SOL     OW28228   3.079   0.632   7.241 -0.0157  0.2210  0.2760
 5589SOL    HW128229   3.113   0.721   7.236  0.3169 -0.0951 -3.6441
 5589SOL    HW228230   3.084   0.591   7.154 -0.5807  0.1211  0.2884
 5590SOL     OW28231   3.708   3.195   7.442  0.0353  0.5922  0.1534
 5590SOL    HW128232   3.754   3.138   7.380 -0.8267  0.4783 -0.3904
 5590SOL    HW228233   3.627   3.202   7.392  0.4747 -0.9680 -0.7874
 5591SOL     OW28234   3.662   3.748  16.333 -0.0921 -0.3832  0.2625
 5591SOL    HW128235   3.602   3.717  16.401  2.0333 -1.1862  1.7981
 5591SOL    HW228236   3.690   3.832  16.371 -0.3517 -0.2477  0.1505
 5592SOL     OW28237   3.473   3.465  10.197 -0.3316 -0.0663  0.3601
 5592SOL    HW128238   3.459   3.395  10.134 -1.1398  1.6827 -1.4071
 5592SOL    HW228239   3.394   3.453  10.251  1.2781  0.9895  2.9615
 5593SOL     OW28240   1.886   3.357  16.422 -0.4493  0.6519 -0.4002
 5593SOL    HW128241   1.907   3.350  16.329 -1.4239  0.0836 -0.5867
 5593SOL    HW228242   1.963   3.314  16.458 -0.6282  0.5827 -0.0882
 5594SOL     OW28243   4.563   2.042   4.617  0.2888  0.0046  0.3599
 5594SOL    HW128244   4.597   1.962   4.657  1.2171  0.2608  0.0939
 5594SOL    HW228245   4.491   2.008   4.564  0.7310 -0.0624 -0.2029
 5595SOL     OW28246   4.623   0.421  12.380  0.3510 -0.0381  0.4597
 5595SOL    HW128247   4.612   0.485  12.309  0.1768  0.2413  0.7433
 5595SOL    HW228248   4.603   0.466  12.461  0.3402  0.6412  0.0810
 5596SOL     OW28249   1.147   4.236   8.079 -0.1014  0.1647 -0.2725
 5596SOL    HW128250   1.237   4.265   8.061 -0.3063  0.3601 -0.9778
 5596SOL    HW228251   1.177   4.149   8.106  0.3300 -0.0535 -1.4484
 5597SOL     OW28252   2.363   1.010   4.363  0.1075 -0.0836 -0.5930
 5597SOL    HW128253   2.407   1.022   4.447 -2.2391 -1.5578  0.8329
 5597SOL    HW228254   2.335   0.919   4.371  4.6273 -1.5476 -1.6641
 5598SOL     OW28255   2.184   3.716   8.496  0.1534  0.0035 -0.6146
 5598SOL    HW128256   2.100   3.755   8.470  0.2530  0.2803 -0.5220
 5598SOL    HW228257   2.151   3.673   8.574  0.8899 -1.0265 -0.8802
 5599SOL     OW28258   3.607   2.501   8.458 -0.0359 -0.2358 -0.2523
 5599SOL    HW128259   3.524   2.546   8.439 -0.5129 -0.7645  0.5932
 5599SOL    HW228260   3.615   2.545   8.543 -2.0576 -1.3182  0.5101
 5600SOL     OW28261   2.504   4.283  11.851 -0.2709  0.1094 -0.3909
 5600SOL    HW128262   2.445   4.255  11.781 -0.6819 -1.8911  0.7718
 5600SOL    HW228263   2.536   4.367  11.819  0.1523  0.2061  0.2784
 5601SOL     OW28264   1.197   1.756  10.355 -0.0005  0.8144  1.1552
 5601SOL    HW128265   1.208   1.687  10.420 -1.0822 -2.4066 -2.0472
 5601SOL    HW228266   1.101   1.753  10.345  0.2594 -0.1027 -1.0649
 5602SOL     OW28267   3.108   1.068  16.625  0.0091 -0.1611  0.5435
 5602SOL    HW128268   3.150   1.086  16.541 -1.4359  0.2335 -0.1002
 5602SOL    HW228269   3.022   1.031  16.606 -0.1916  0.9739 -0.7835
 5603SOL     OW28270   3.894   2.962  14.219 -0.0429  0.4996  0.3637
 5603SOL    HW128271   3.946   2.891  14.257 -0.5102 -0.5568 -0.9795
 5603SOL    HW228272   3.823   2.914  14.177  1.1745 -1.4379  0.4687
 5604SOL     OW28273   4.620   3.042   1.408 -0.0599 -0.1202 -0.5880
 5604SOL    HW128274   4.617   2.956   1.450 -0.9168  0.8255  1.2920
 5604SOL    HW228275   4.712   3.034   1.382  0.1457 -1.1027  0.4067
 5605SOL     OW28276   2.220   1.089   7.002  0.2619 -0.8350 -0.0967
 5605SOL    HW128277   2.263   1.052   6.924  1.5769 -1.6750  1.0300
 5605SOL    HW228278   2.181   1.169   6.967 -0.6106 -1.5892 -0.8377
 5606SOL     OW28279   0.102   0.854   7.194  0.0391 -0.0500  0.0826
 5606SOL    HW128280   0.170   0.903   7.149  0.5437  0.8146  1.8021
 5606SOL    HW228281   0.120   0.863   7.288  0.0048 -0.4325  0.1277
 5607SOL     OW28282   0.922   0.452   7.758  0.1015 -0.3462 -0.1842
 5607SOL    HW128283   0.900   0.518   7.693 -0.3632 -0.6088 -0.2915
 5607SOL    HW228284   1.016   0.463   7.776  0.5166 -3.1521 -0.6108
 5608SOL     OW28285   2.723   2.772   0.113  0.0732 -0.3688 -0.9574
 5608SOL    HW128286   2.634   2.797   0.136  0.3007 -0.7247  0.3118
 5608SOL    HW228287   2.709   2.739   0.025 -0.2117 -0.5352 -0.8485
 5609SOL     OW28288   2.569   3.313   8.375 -0.5735 -0.3776 -0.4720
 5609SOL    HW128289   2.584   3.318   8.281 -1.4341 -0.4818 -0.6173
 5609SOL    HW228290   2.481   3.351   8.380 -1.1380 -1.5326 -1.6224
 5610SOL     OW28291   2.258   1.756  13.125  0.5676  0.2937  0.3783
 5610SOL    HW128292   2.306   1.692  13.179 -0.7179 -0.4039  0.6852
 5610SOL    HW228293   2.318   1.831  13.123  0.7163  0.1936  1.0313
 5611SOL     OW28294   0.420   4.388   2.512 -0.4399 -0.3720  0.2429
 5611SOL    HW128295   0.512   4.382   2.538 -0.5178  0.5502  0.7358
 5611SOL    HW228296   0.380   4.396   2.599  2.2850 -0.6873  1.5336
 5612SOL     OW28297   3.450   2.375  11.205 -0.3017  0.8863  0.7224
 5612SOL    HW128298   3.426   2.376  11.297 -2.7682 -1.1216  0.1058
 5612SOL    HW228299   3.451   2.463  11.169  1.4855  0.1911 -0.9842
 5613SOL     OW28300   1.952   3.414   7.527  0.5117 -0.1079 -0.6028
 5613SOL    HW128301   2.021   3.445   7.468  1.7035 -0.1732  0.7485
 5613SOL    HW228302   1.903   3.350   7.475  0.2468 -1.7590  1.6597
 5614SOL     OW28303   0.519   1.151   4.266 -0.8970  0.0949  0.3247
 5614SOL    HW128304   0.585   1.159   4.335  1.0358  1.3350 -1.6508
 5614SOL    HW228305   0.525   1.233   4.217  0.1489 -0.5860 -0.6647
 5615SOL     OW28306   4.246   3.063   4.576 -0.1262 -0.2444  0.6243
 5615SOL    HW128307   4.181   3.105   4.633  0.3530 -1.0372  1.7548
 5615SOL    HW228308   4.226   2.969   4.580 -0.4629 -0.1869  0.3164
 5616SOL     OW28309   1.737   1.563  15.384  0.1884 -0.5015  0.3789
 5616SOL    HW128310   1.820   1.588  15.343 -0.0729  0.2352  0.3038
 5616SOL    HW228311   1.768   1.480  15.421  3.1735  1.3454  2.0112
 5617SOL     OW28312   2.269   2.627   1.337 -0.4205 -0.1913  0.0584
 5617SOL    HW128313   2.317   2.581   1.268 -3.8619 -1.3001 -1.6414
 5617SOL    HW228314   2.339   2.654   1.396  1.0866  0.3344 -1.9635
 5618SOL     OW28315   1.472   2.462   3.881  0.0060  0.2238  0.1475
 5618SOL    HW128316   1.497   2.372   3.902 -1.0157 -0.0881  0.0696
 5618SOL    HW228317   1.450   2.456   3.788  0.0960  1.4620  0.0528
 5619SOL     OW28318   2.711   3.951   8.696 -0.8700  0.7832 -0.5031
 5619SOL    HW128319   2.631   3.985   8.658  0.4746  2.5105 -1.7976
 5619SOL    HW228320   2.769   3.965   8.621  1.2010 -3.2732  0.3228
 5620SOL     OW28321   1.054   2.983   5.133  0.2098  0.0488  0.1377
 5620SOL    HW128322   0.962   3.003   5.114  0.6039  0.4632 -1.3955
 5620SOL    HW228323   1.050   2.987   5.228 -1.1775 -0.3433  0.0956
 5621SOL     OW28324   2.741   2.150   8.341  0.4557  0.1594  0.2220
 5621SOL    HW128325   2.755   2.058   8.318  2.6309  0.6825 -0.5937
 5621SOL    HW228326   2.708   2.144   8.430 -0.3411 -0.1662 -0.0946
 5622SOL     OW28327   2.037   0.488   2.432 -0.4873 -0.2700  0.7182
 5622SOL    HW128328   1.975   0.464   2.363 -0.0410 -1.3526  0.6922
 5622SOL    HW228329   2.033   0.414   2.492 -0.5210 -0.5408  0.3847
 5623SOL     OW28330   2.887   3.840   5.915  0.1198 -0.0385  0.0893
 5623SOL    HW128331   2.954   3.780   5.947 -1.1532 -1.5488 -0.0423
 5623SOL    HW228332   2.897   3.821   5.821 -0.9651  0.5996 -0.1503
 5624SOL     OW28333   0.074   2.040   3.522 -0.6851 -0.2021  0.0985
 5624SOL    HW128334   4.723   2.094   3.496 -0.9757 -0.4491  0.4225
 5624SOL    HW228335   0.137   2.110   3.540 -2.8938  1.7326  0.3716
 5625SOL     OW28336   2.939   4.511   4.593  1.0541 -0.0856  0.2798
 5625SOL    HW128337   2.898   4.562   4.663 -0.6656  1.3997 -1.8339
 5625SOL    HW228338   2.934   4.421   4.625  1.0051 -0.7218 -1.5156
 5626SOL     OW28339   2.393   2.105   1.409 -0.2844  0.8740 -0.1380
 5626SOL    HW128340   2.487   2.124   1.411 -0.3370  1.1544 -0.2771
 5626SOL    HW228341   2.393   2.057   1.326  2.3405 -0.1030  0.4272
 5627SOL     OW28342   0.337   1.279  14.127 -0.5935  0.3050 -0.1797
 5627SOL    HW128343   0.377   1.256  14.043 -1.0977 -1.3176  0.0197
 5627SOL    HW228344   0.395   1.245  14.195 -0.9287 -0.0658 -0.0752
 5628SOL     OW28345   3.309   2.415   1.768 -0.1320  0.5520 -0.3105
 5628SOL    HW128346   3.216   2.436   1.767 -0.0010  1.0839 -1.4943
 5628SOL    HW228347   3.336   2.466   1.845 -3.2516  0.4877  0.8204
 5629SOL     OW28348   0.649   2.243   7.494 -0.5349  0.4547 -0.3866
 5629SOL    HW128349   0.737   2.232   7.531 -0.9589  0.1693  0.5374
 5629SOL    HW228350   0.639   2.173   7.430  2.8146 -1.1832  0.8695
 5630SOL     OW28351   1.467   3.366   4.252  0.6329  0.0619 -0.2809
 5630SOL    HW128352   1.520   3.394   4.178 -0.1460  3.0863  0.3269
 5630SOL    HW228353   1.425   3.443   4.290 -0.6215  0.2652 -2.0810
 5631SOL     OW28354   0.878   3.992  17.222  0.8867  0.1487 -0.2409
 5631SOL    HW128355   0.923   3.913  17.252  0.9493 -0.3996 -1.7850
 5631SOL    HW228356   0.866   3.959  17.133  1.3744 -0.3818 -0.1134
 5632SOL     OW28357   1.217   3.457  17.351 -0.2794  0.9287 -0.3187
 5632SOL    HW128358   1.161   3.447  17.274  1.5896  0.3135 -1.5956
 5632SOL    HW228359   1.270   3.379  17.364  0.5643  0.9444 -3.6285
 5633SOL     OW28360   1.392   3.356  11.818 -0.4118  0.0834 -0.1428
 5633SOL    HW128361   1.442   3.420  11.868  2.1864  0.0760 -2.7675
 5633SOL    HW228362   1.390   3.408  11.738  1.4602  0.0458 -0.2072
 5634SOL     OW28363   3.759   1.954   7.441  0.0502 -0.2062 -0.3557
 5634SOL    HW128364   3.813   1.990   7.511 -2.1660  2.1982  0.1273
 5634SOL    HW228365   3.809   1.880   7.407  0.3685 -0.1712  0.0401
 5635SOL     OW28366   1.096   2.615   2.936  0.0705  0.0264  0.1523
 5635SOL    HW128367   1.037   2.565   2.993  1.1702  1.5627  2.6517
 5635SOL    HW228368   1.123   2.692   2.986 -2.3034  0.6415  0.4583
 5636SOL     OW28369   2.588   3.267   2.056  0.3204  0.5122 -0.3740
 5636SOL    HW128370   2.506   3.283   2.104  0.6801 -0.4645  0.5609
 5636SOL    HW228371   2.581   3.172   2.053 -1.0899  0.5442  2.3627
 5637SOL     OW28372   1.876   3.261  15.612  0.6255 -0.3665  0.1378
 5637SOL    HW128373   1.909   3.215  15.690  2.0119 -0.5815 -0.5783
 5637SOL    HW228374   1.786   3.231  15.600  0.0585 -0.1663  3.7722
 5638SOL     OW28375   2.782   3.436   0.789  0.3667  0.1396 -0.1601
 5638SOL    HW128376   2.810   3.386   0.712  3.2869 -2.5019  2.6163
 5638SOL    HW228377   2.686   3.434   0.788  0.3727 -0.8504  0.7762
 5639SOL     OW28378   0.904   0.892   2.257 -0.0545  0.5624 -0.3513
 5639SOL    HW128379   0.841   0.855   2.194 -0.2113 -2.7022  1.7085
 5639SOL    HW228380   0.977   0.830   2.248  0.7555  1.5861 -0.7826
 5640SOL     OW28381   1.359   3.389   3.932  0.4680  0.0880 -0.4755
 5640SOL    HW128382   1.323   3.335   4.003  0.1143  2.2575  0.9822
 5640SOL    HW228383   1.440   3.420   3.972 -0.4628  0.7295  0.9202
 5641SOL     OW28384   1.632   4.382   5.668  0.0374 -0.0616 -0.1433
 5641SOL    HW128385   1.601   4.425   5.588  1.3677 -1.4333 -1.3941
 5641SOL    HW228386   1.727   4.378   5.660  0.0664  0.8741 -0.3291
 5642SOL     OW28387   1.853   1.630   9.360  0.4843 -0.0666 -0.2805
 5642SOL    HW128388   1.941   1.607   9.392  0.7648  0.9889 -0.3046
 5642SOL    HW228389   1.861   1.589   9.274  0.4791  0.1390 -0.3783
 5643SOL     OW28390   1.547   2.122   6.253  0.1536 -0.1048 -0.4903
 5643SOL    HW128391   1.585   2.142   6.339  2.9925  2.0038 -2.2433
 5643SOL    HW228392   1.454   2.140   6.266 -0.4690 -2.9441 -0.9274
 5644SOL     OW28393   2.032   1.121   8.701 -0.2937 -0.4186 -0.3573
 5644SOL    HW128394   2.069   1.040   8.667  1.7419  1.2232 -2.0373
 5644SOL    HW228395   2.082   1.121   8.782  1.0860  0.7720 -1.2133
 5645SOL     OW28396   4.153   0.040   5.092  0.0391  0.0079  0.2197
 5645SOL    HW128397   4.132   0.131   5.111  0.1083  0.6085 -2.6368
 5645SOL    HW228398   4.154   0.003   5.180 -0.8894  2.8967  1.4380
 5646SOL     OW28399   2.926   1.796   8.752 -0.2970 -0.2446 -0.6733
 5646SOL    HW128400   2.898   1.888   8.752  0.1233 -0.1257 -1.6090
 5646SOL    HW228401   2.940   1.787   8.847  0.7245 -1.4319 -0.9311
 5647SOL     OW28402   0.605   3.180   5.838 -0.1529 -0.0433  0.1453
 5647SOL    HW128403   0.527   3.172   5.892  0.8958  2.7048  2.0550
 5647SOL    HW228404   0.632   3.088   5.833  0.5435  0.0897  1.5907
 5648SOL     OW28405   4.372   1.357   8.681 -0.3259  0.4418  0.2771
 5648SOL    HW128406   4.466   1.343   8.695 -0.5357  1.7955  3.1881
 5648SOL    HW228407   4.341   1.318   8.762  0.0959 -0.2983  0.0764
 5649SOL     OW28408   2.669   1.201   7.401  0.1269 -0.1920  0.2867
 5649SOL    HW128409   2.711   1.218   7.317 -1.7418  0.5302 -0.5027
 5649SOL    HW228410   2.590   1.155   7.371 -1.4039  1.6960  1.4050
 5650SOL     OW28411   0.327   0.798  13.866 -0.3851 -0.3295  0.4582
 5650SOL    HW128412   0.287   0.855  13.801  3.9231 -0.3056 -2.1716
 5650SOL    HW228413   0.288   0.715  13.838 -1.7155  0.8767 -1.2619
 5651SOL     OW28414   3.815   0.657   1.394 -0.1272 -0.8592 -0.5421
 5651SOL    HW128415   3.850   0.594   1.330  2.7210  0.5716 -0.3759
 5651SOL    HW228416   3.883   0.724   1.400 -1.4198  0.5492 -1.5764
 5652SOL     OW28417   1.445   4.149   2.690  0.0674  0.1380 -0.8800
 5652SOL    HW128418   1.461   4.124   2.599 -1.0121 -1.0497 -0.7320
 5652SOL    HW228419   1.411   4.070   2.731  1.9973  0.9623  2.2863
 5653SOL     OW28420   1.288   3.708   5.060 -0.4701 -0.2842 -0.5267
 5653SOL    HW128421   1.209   3.697   5.007 -0.6223 -0.2700 -0.2997
 5653SOL    HW228422   1.326   3.620   5.058 -0.8180 -0.4556  0.4364
 5654SOL     OW28423   4.699   2.325  11.760  0.8127  0.0213 -0.2681
 5654SOL    HW128424   4.623   2.346  11.706  0.8779 -1.0769 -0.7944
 5654SOL    HW228425   4.717   2.418  11.774  0.7195  0.2130 -1.4819
 5655SOL     OW28426   0.020   4.246   6.726  0.7293 -0.4006 -0.0793
 5655SOL    HW128427   0.096   4.265   6.672  1.0195  0.2819  0.5748
 5655SOL    HW228428   4.673   4.284   6.673  2.3000  0.2667 -1.6825
 5656SOL     OW28429   2.124   1.761   7.719  0.0936 -0.2649 -0.3415
 5656SOL    HW128430   2.155   1.710   7.644 -1.0987 -1.2302 -0.1892
 5656SOL    HW228431   2.090   1.691   7.775  1.2699 -0.3793  0.2304
 5657SOL     OW28432   3.906   1.866   9.531  0.0641  0.4953  0.4039
 5657SOL    HW128433   3.863   1.828   9.608 -1.0442  0.9084 -0.0118
 5657SOL    HW228434   3.973   1.918   9.575  1.1297 -0.1185 -0.4961
 5658SOL     OW28435   0.965   3.242  14.072 -0.8738 -0.1505  0.2301
 5658SOL    HW128436   1.031   3.296  14.029 -0.7364 -0.0929  0.5163
 5658SOL    HW228437   0.884   3.287  14.047 -2.2659 -2.6423  0.1586
 5659SOL     OW28438   3.361   4.351   1.295  0.6300  0.6526  0.0543
 5659SOL    HW128439   3.419   4.314   1.361 -0.4746 -0.5306  0.3657
 5659SOL    HW228440   3.311   4.276   1.264 -0.0933  1.5498 -0.9693
 5660SOL     OW28441   3.018   2.459  16.647  0.1902 -0.1886  0.3775
 5660SOL    HW128442   2.994   2.366  16.650 -0.8097 -0.0713 -3.2013
 5660SOL    HW228443   2.939   2.494  16.688 -0.6973 -0.7047 -0.8752
 5661SOL     OW28444   1.507   3.937  16.828  0.5092 -0.2261 -0.1701
 5661SOL    HW128445   1.471   4.016  16.868  0.1605 -0.8826  0.8210
 5661SOL    HW228446   1.469   3.951  16.742  0.2767  2.4309  0.3661
 5662SOL     OW28447   2.761   0.948   6.394 -0.3662 -0.7559  0.0174
 5662SOL    HW128448   2.666   0.939   6.401 -0.3096 -0.4986  1.2609
 5662SOL    HW228449   2.774   1.027   6.342 -1.1317 -1.3576 -1.0815
 5663SOL     OW28450   0.357   0.255   5.816  0.1909  0.4809  0.6532
 5663SOL    HW128451   0.448   0.243   5.790  0.1129  0.8287  0.2305
 5663SOL    HW228452   0.310   0.292   5.741 -0.5681 -2.6102 -0.3961
 5664SOL     OW28453   4.618   0.669   6.674  0.0483  0.0035 -0.0188
 5664SOL    HW128454   4.656   0.619   6.747  0.9579  0.1887 -0.3627
 5664SOL    HW228455   4.603   0.605   6.604  0.7884  1.1658 -1.2393
 5665SOL     OW28456   1.559   2.093   2.587  0.3570 -0.0665 -0.1973
 5665SOL    HW128457   1.512   2.173   2.610 -1.3227 -0.3768 -2.5299
 5665SOL    HW228458   1.578   2.109   2.494 -0.7363  1.1022 -0.2240
 5666SOL     OW28459   2.827   2.231   1.093  0.4649  0.0008 -0.4467
 5666SOL    HW128460   2.804   2.292   1.023  0.0603  0.9466  0.5139
 5666SOL    HW228461   2.757   2.167   1.099 -0.9038  1.5245 -0.2070
 5667SOL     OW28462   1.290   0.253   4.587  0.5727 -0.2805 -0.4790
 5667SOL    HW128463   1.201   0.281   4.609  0.7501 -0.3240  0.3126
 5667SOL    HW228464   1.269   0.205   4.507  2.0565 -1.9786  0.1498
 5668SOL     OW28465   0.535   1.515   5.718 -0.5558 -0.0277 -0.4177
 5668SOL    HW128466   0.631   1.513   5.709 -0.2615  0.7664  2.3303
 5668SOL    HW228467   0.520   1.598   5.764 -2.1195 -0.5225 -0.0624
 5669SOL     OW28468   2.583   3.034   9.066 -0.2860 -0.2063 -0.6643
 5669SOL    HW128469   2.623   2.969   9.008  0.8151 -0.3076  0.2121
 5669SOL    HW228470   2.603   2.994   9.151 -1.1474  0.4293 -0.1623
 5670SOL     OW28471   0.158   1.364  16.717 -0.3027  0.6201  0.6128
 5670SOL    HW128472   0.103   1.385  16.642  1.1896 -1.3621 -1.0448
 5670SOL    HW228473   0.134   1.439  16.770  0.3152  1.0875  0.2282
 5671SOL     OW28474   0.084   4.349   7.011 -0.1770 -0.1976 -0.8698
 5671SOL    HW128475   4.714   4.332   7.004 -0.1047 -0.6506 -0.7401
 5671SOL    HW228476   0.104   4.377   6.922  0.0941  0.7448 -0.5191
 5672SOL     OW28477   2.629   3.019   1.287 -0.3882  0.0796  0.3650
 5672SOL    HW128478   2.576   3.099   1.294  1.4798  1.3607  0.1085
 5672SOL    HW228479   2.672   3.024   1.201 -1.6368 -0.6978 -0.3025
 5673SOL     OW28480   0.480   3.215   9.442  0.0760 -0.0365  0.1103
 5673SOL    HW128481   0.563   3.264   9.447  1.4769 -2.3518 -0.2606
 5673SOL    HW228482   0.446   3.214   9.531 -2.0332 -2.3771 -0.7259
 5674SOL     OW28483   1.007   4.226   5.768 -0.1739 -0.3603  0.5524
 5674SOL    HW128484   1.035   4.238   5.859  0.4100 -0.7315  0.4217
 5674SOL    HW228485   0.932   4.283   5.755 -0.1535  0.0035  1.9669
 5675SOL     OW28486   4.483   2.533  17.409  0.7241 -0.2606 -0.4956
 5675SOL    HW128487   4.483   2.470  17.338  1.1072  1.1521 -1.7427
 5675SOL    HW228488   4.400   2.579  17.398  1.0655 -0.0305 -2.1084
 5676SOL     OW28489   2.026   1.583   6.565  0.2644  0.4828 -0.2860
 5676SOL    HW128490   2.069   1.623   6.641 -3.0730  1.1160  1.2739
 5676SOL    HW228491   1.994   1.501   6.601 -0.5860 -0.2219 -2.6179
 5677SOL     OW28492   2.760   1.678  10.432  0.7699  0.0485 -0.4079
 5677SOL    HW128493   2.738   1.700  10.523  1.8479  1.2906 -0.4503
 5677SOL    HW228494   2.845   1.720  10.419 -0.0572  2.2255  1.1427
 5678SOL     OW28495   4.057   3.013  16.262 -0.2294 -0.3756 -0.1185
 5678SOL    HW128496   4.040   2.946  16.196  1.9222 -0.2530 -0.8142
 5678SOL    HW228497   4.142   3.041  16.228 -0.6000 -2.4461 -2.7833
 5679SOL     OW28498   2.110   3.568   7.357 -0.5531  0.5708  0.5843
 5679SOL    HW128499   2.175   3.559   7.287 -2.1365  0.8096 -0.9414
 5679SOL    HW228500   2.034   3.600   7.308 -0.1521 -0.5822 -0.8174
 5680SOL     OW28501   2.741   4.117   7.395  0.4914  0.4360  0.6616
 5680SOL    HW128502   2.830   4.153   7.399  1.8554 -2.5649 -2.1249
 5680SOL    HW228503   2.753   4.048   7.461  0.0539 -0.1318  0.1533
 5681SOL     OW28504   4.131   4.169   4.798 -0.1870  0.7765 -0.1861
 5681SOL    HW128505   4.222   4.186   4.823 -0.6270 -1.0139  2.7285
 5681SOL    HW228506   4.101   4.237   4.738 -1.6819  0.2352 -0.0621
 5682SOL     OW28507   1.268   0.575   9.254  0.4803 -0.5248  0.0374
 5682SOL    HW128508   1.227   0.621   9.181  0.6383  0.7165  0.7262
 5682SOL    HW228509   1.193   0.546   9.305 -1.2836 -0.6818 -2.6556
 5683SOL     OW28510   2.970   3.495   7.532  0.3677 -0.0716 -0.1067
 5683SOL    HW128511   3.062   3.521   7.537  0.3748 -0.0378 -0.3811
 5683SOL    HW228512   2.949   3.525   7.443 -2.1971 -1.5729 -0.0069
 5684SOL     OW28513   2.036   2.299   3.802  0.0358 -0.0423 -0.6071
 5684SOL    HW128514   2.062   2.365   3.866 -2.9479 -1.9147  2.5724
 5684SOL    HW228515   2.007   2.345   3.724 -2.2783 -2.1006 -0.9639
 5685SOL     OW28516   2.930   3.473   2.932  0.5207  0.0794 -0.3373
 5685SOL    HW128517   2.856   3.521   2.968  0.6903 -1.5492  2.1544
 5685SOL    HW228518   2.931   3.516   2.847 -0.1069 -0.3339 -0.5513
 5686SOL     OW28519   4.476   1.614  12.439  0.3482 -0.1043 -0.6006
 5686SOL    HW128520   4.520   1.538  12.402  1.0737  0.4087 -0.7860
 5686SOL    HW228521   4.440   1.574  12.518 -2.2601 -0.7378 -2.1091
 5687SOL     OW28522   1.609   0.612   7.165  0.2892  0.3171 -0.4354
 5687SOL    HW128523   1.527   0.564   7.170  1.1783 -1.2623 -1.0052
 5687SOL    HW228524   1.573   0.670   7.097 -0.3865 -1.5200 -1.6483
 5688SOL     OW28525   2.323   2.260   2.067 -0.7299 -0.9549  0.0989
 5688SOL    HW128526   2.239   2.287   2.031 -0.9636  0.3426  1.6023
 5688SOL    HW228527   2.294   2.189   2.124  1.1077 -1.4926  0.3690
 5689SOL     OW28528   0.622   0.913   5.846  0.2011 -0.0373  0.2020
 5689SOL    HW128529   0.679   0.989   5.860  1.4701 -1.3067  1.8804
 5689SOL    HW228530   0.570   0.927   5.926 -2.0860 -2.3709 -0.8854
 5690SOL     OW28531   1.038   0.136   9.006  0.0814  0.1671 -0.3119
 5690SOL    HW128532   0.954   0.175   8.980  0.5878  1.6800  0.3331
 5690SOL    HW228533   1.011   0.093   9.087  0.6251 -0.4598 -0.4681
 5691SOL     OW28534   4.622   3.461  17.079  0.4546  0.0268 -0.1658
 5691SOL    HW128535   4.568   3.384  17.098 -0.4381  0.6736 -0.1155
 5691SOL    HW228536   4.581   3.499  17.002  0.6918 -0.6804 -0.6460
 5692SOL     OW28537   0.084   1.358   7.533 -0.0088  0.2623  0.2793
 5692SOL    HW128538   0.026   1.298   7.485  0.3861  1.6849 -1.9984
 5692SOL    HW228539   0.152   1.296   7.557  0.7596  0.9944 -0.0035
 5693SOL     OW28540   4.205   4.662   3.959 -0.4053  0.1084  0.1239
 5693SOL    HW128541   4.131   4.604   3.980  0.6665 -0.6824  1.7302
 5693SOL    HW228542   4.191   4.685   3.868 -2.4506  1.7716  0.8442
 5694SOL     OW28543   3.184   2.382  12.587  0.2429 -0.5656  0.2705
 5694SOL    HW128544   3.173   2.331  12.667  1.5883 -1.2173  0.0509
 5694SOL    HW228545   3.097   2.420  12.575  0.6908  0.8516  1.4390
 5695SOL     OW28546   0.329   3.812   8.902 -0.0407  0.1642  0.1595
 5695SOL    HW128547   0.406   3.787   8.952  0.4114 -0.6758 -0.9534
 5695SOL    HW228548   0.357   3.794   8.813  1.0165  1.8652  0.1522
 5696SOL     OW28549   0.929   2.242   7.514 -0.0111  0.1982  0.2794
 5696SOL    HW128550   0.965   2.287   7.438  1.8122 -1.8691 -0.0812
 5696SOL    HW228551   1.007   2.209   7.558  0.0895 -0.8549 -0.7145
 5697SOL     OW28552   1.869   1.027  13.147  0.1565 -0.2798  0.0438
 5697SOL    HW128553   1.814   1.041  13.224 -0.4378 -1.8462 -0.0914
 5697SOL    HW228554   1.807   1.008  13.077  1.4150  2.1939 -1.7467
 5698SOL     OW28555   1.946   0.951   3.823  0.0822  0.0943 -0.0020
 5698SOL    HW128556   1.995   1.010   3.766 -1.8609  0.1484 -1.6229
 5698SOL    HW228557   2.015   0.886   3.835 -0.5736 -0.0556  3.0068
 5699SOL     OW28558   2.686   0.902  12.474  0.2261 -0.0316 -0.5664
 5699SOL    HW128559   2.633   0.970  12.515 -1.8829 -2.1804  0.2854
 5699SOL    HW228560   2.709   0.853  12.553  0.8357  0.7240 -0.2732
 5700SOL     OW28561   1.053   1.134   1.554  0.1154 -0.3282  0.0863
 5700SOL    HW128562   1.038   1.209   1.611 -0.6341  0.4511 -1.1228
 5700SOL    HW228563   1.116   1.174   1.495  0.4136 -1.4883 -0.3803
 5701SOL     OW28564   0.698   2.849  17.256  0.0274 -0.1028  0.5561
 5701SOL    HW128565   0.720   2.935  17.221 -1.3705  0.7272  1.7039
 5701SOL    HW228566   0.676   2.819  17.168  1.0023 -0.1222  0.3171
 5702SOL     OW28567   0.018   3.451   7.744  0.4232  0.2578  0.5654
 5702SOL    HW128568   4.716   3.477   7.832 -0.5975 -0.0095  0.3445
 5702SOL    HW228569   4.675   3.498   7.695 -1.2408 -1.6376  1.0049
 5703SOL     OW28570   1.139   3.843  15.836 -0.0647  0.3444  0.0315
 5703SOL    HW128571   1.075   3.905  15.802 -0.1511  0.7660  0.9402
 5703SOL    HW228572   1.081   3.784  15.883  1.4907 -0.8490  0.4733
 5704SOL     OW28573   1.067   2.664   6.409  0.1964 -0.1753 -0.4300
 5704SOL    HW128574   1.157   2.644   6.385 -0.1412 -1.2112 -0.8515
 5704SOL    HW228575   1.030   2.583   6.443 -1.4603  0.3981 -0.8444
 5705SOL     OW28576   3.067   0.138   5.021 -0.0425  0.1683  0.4952
 5705SOL    HW128577   3.139   0.080   4.999 -0.1561  0.2229 -0.0173
 5705SOL    HW228578   3.048   0.176   4.935 -1.1568  1.5270  1.3408
 5706SOL     OW28579   0.856   2.498   6.492  0.6208  0.1096 -0.2989
 5706SOL    HW128580   0.796   2.521   6.420 -1.0964 -2.1462  0.4116
 5706SOL    HW228581   0.872   2.405   6.480 -0.2449  0.1250 -1.6091
 5707SOL     OW28582   2.507   0.778   3.602  0.4623 -0.0523  0.1495
 5707SOL    HW128583   2.494   0.700   3.656  0.9863 -0.9756 -1.0488
 5707SOL    HW228584   2.601   0.792   3.610 -0.2355  4.6912  0.1286
 5708SOL     OW28585   1.810   0.111   9.551  0.1527 -0.0495 -0.4089
 5708SOL    HW128586   1.901   0.134   9.534  0.5569 -0.8438  0.6560
 5708SOL    HW228587   1.768   0.168   9.486  2.0895 -1.2843 -2.7173
 5709SOL     OW28588   1.821   2.697   3.132  0.0677 -0.4410  0.0250
 5709SOL    HW128589   1.742   2.735   3.171  1.1428  2.0587 -0.2018
 5709SOL    HW228590   1.876   2.775   3.122  0.5927 -0.9367 -0.9568
 5710SOL     OW28591   2.222   2.332   1.387 -0.0484 -0.2738 -0.2050
 5710SOL    HW128592   2.247   2.401   1.326  4.4285 -0.0546  1.8847
 5710SOL    HW228593   2.263   2.250   1.360 -0.6282 -0.9890  1.0652
 5711SOL     OW28594   0.283   0.805   5.389 -0.3701 -0.5416 -0.3275
 5711SOL    HW128595   0.282   0.852   5.305 -2.2829  0.7922  0.4638
 5711SOL    HW228596   0.372   0.770   5.392 -0.1412  0.4180  3.1910
 5712SOL     OW28597   2.108   2.447   2.700  0.1889  0.2913 -0.4967
 5712SOL    HW128598   2.076   2.524   2.748 -1.4984 -1.6814  1.5868
 5712SOL    HW228599   2.107   2.483   2.612 -0.2993 -0.5258 -0.8238
 5713SOL     OW28600   4.356   0.676  16.352 -0.1244 -0.3031  0.5150
 5713SOL    HW128601   4.333   0.648  16.441 -0.0630 -1.6821  0.0988
 5713SOL    HW228602   4.270   0.704  16.321 -1.0942 -3.7259  0.1583
 5714SOL     OW28603   3.211   0.398   8.919 -0.0025  0.1116 -0.4413
 5714SOL    HW128604   3.194   0.491   8.905  0.5444  0.0856 -1.3200
 5714SOL    HW228605   3.300   0.396   8.955  0.6041 -1.6879 -2.0271
 5715SOL     OW28606   4.413   3.701   0.311  0.5461  0.1516 -0.0780
 5715SOL    HW128607   4.470   3.776   0.291 -0.3034  1.0679  0.9560
 5715SOL    HW228608   4.326   3.729   0.285 -0.0312 -1.4310  0.1587
 5716SOL     OW28609   0.178   4.714   5.312  0.0696  0.2315  0.6728
 5716SOL    HW128610   0.218   0.055   5.254 -0.7294  0.6312  0.5741
 5716SOL    HW228611   0.239   4.723   5.384  0.1303  2.2011  0.3816
 5717SOL     OW28612   4.287   2.378   4.131  0.0964 -0.6231  0.6052
 5717SOL    HW128613   4.254   2.449   4.076 -0.9945  0.2256  2.3724
 5717SOL    HW228614   4.365   2.416   4.171 -0.8321  0.9361  0.9230
 5718SOL     OW28615   1.958   0.164   4.846 -0.1798 -0.2218 -0.8017
 5718SOL    HW128616   2.034   0.110   4.868  0.7336  1.1668 -0.4994
 5718SOL    HW228617   1.946   0.155   4.752  0.1046  0.5944 -0.9233
 5719SOL     OW28618   2.843   3.043   5.823  0.7238  0.1846  0.1728
 5719SOL    HW128619   2.811   2.967   5.774  0.9583 -1.0853  1.9950
 5719SOL    HW228620   2.769   3.091   5.860  0.2139  1.5244 -2.4954
 5720SOL     OW28621   0.577   2.082  14.452  0.3199  0.2471  0.0556
 5720SOL    HW128622   0.531   2.151  14.403 -2.2523 -1.0364  0.6761
 5720SOL    HW228623   0.517   2.008  14.447  0.8329 -0.2063  0.6593
 5721SOL     OW28624   1.640   0.322  15.661 -0.4129 -0.1626  0.0163
 5721SOL    HW128625   1.627   0.227  15.667  0.0499 -0.1921  0.5017
 5721SOL    HW228626   1.685   0.329  15.576  3.7574 -1.1407  2.1606
 5722SOL     OW28627   3.293   0.261  10.451  0.4336 -0.0564 -0.2960
 5722SOL    HW128628   3.319   0.314  10.376 -0.2749  1.0957  0.2680
 5722SOL    HW228629   3.317   0.326  10.518  5.2469 -1.7032 -0.3975
 5723SOL     OW28630   1.832   1.287   5.923 -0.3475  0.4142 -0.2198
 5723SOL    HW128631   1.795   1.328   5.845 -0.8946  0.9429  0.3223
 5723SOL    HW228632   1.886   1.361   5.950  2.6199 -2.8407  2.8908
 5724SOL     OW28633   4.666   3.767  15.860  1.1003  0.0162  0.4119
 5724SOL    HW128634   4.678   3.678  15.826 -1.8462 -0.2990  0.1519
 5724SOL    HW228635   0.007   3.814  15.808 -0.9965  0.3825 -1.8256
 5725SOL     OW28636   0.626   2.028   2.869 -0.6840 -0.0266  0.6562
 5725SOL    HW128637   0.571   2.079   2.810 -3.5232 -1.0870  2.3778
 5725SOL    HW228638   0.697   2.089   2.884 -2.1443  0.9332  3.6673
 5726SOL     OW28639   0.105   2.892   6.904 -0.0433  0.8256  0.2167
 5726SOL    HW128640   0.182   2.942   6.879  1.0500 -0.8668  0.2312
 5726SOL    HW228641   0.141   2.804   6.917  0.7523  1.1588  0.2810
 5727SOL     OW28642   3.982   3.677   9.198 -0.2982 -0.0107  0.4936
 5727SOL    HW128643   3.906   3.638   9.242  0.0064  0.1933  1.2099
 5727SOL    HW228644   3.954   3.763   9.228 -1.4510 -0.8913  2.0317
 5728SOL     OW28645   0.447   1.178   5.931 -0.5452 -0.7274  0.1563
 5728SOL    HW128646   0.501   1.204   5.856  0.6895 -1.0224  0.9460
 5728SOL    HW228647   0.385   1.124   5.883 -0.6639  0.6170 -1.2271
 5729SOL     OW28648   1.663   4.493   1.401 -0.2153  0.0059  0.2127
 5729SOL    HW128649   1.603   4.505   1.327  1.8669  0.9161 -1.3265
 5729SOL    HW228650   1.625   4.557   1.462 -0.3441 -0.2265  0.3730
 5730SOL     OW28651   3.346   1.316   3.126  0.1642 -0.3759  0.2130
 5730SOL    HW128652   3.412   1.250   3.148 -1.8504 -2.2770  0.5055
 5730SOL    HW228653   3.402   1.387   3.096 -2.0498  0.0904 -2.8932
 5731SOL     OW28654   2.852   4.159   5.734  0.1845 -0.4433 -0.5743
 5731SOL    HW128655   2.848   4.254   5.741 -0.6737 -0.6515  1.8163
 5731SOL    HW228656   2.851   4.143   5.828 -1.0598  0.3666 -0.4484
 5732SOL     OW28657   0.300   4.717  12.444  0.4452  0.2243 -0.1154
 5732SOL    HW128658   0.248   4.645  12.411  0.6090 -0.0473  0.2198
 5732SOL    HW228659   0.255   0.015  12.526 -1.8018  0.1439 -1.3160
 5733SOL     OW28660   1.086   2.943   7.603 -0.1113  0.1238  0.4838
 5733SOL    HW128661   1.145   3.018   7.600 -0.2000  0.1786  0.0443
 5733SOL    HW228662   1.028   2.974   7.534 -0.1052 -0.7660  0.0844
 5734SOL     OW28663   2.549   2.900   8.012  0.0318  0.0489 -0.0513
 5734SOL    HW128664   2.607   2.839   8.058 -0.7000 -0.3188  0.3874
 5734SOL    HW228665   2.582   2.868   7.928 -0.3102 -0.9379  0.1876
 5735SOL     OW28666   1.728   0.770   2.138 -0.1628 -0.3271  0.4193
 5735SOL    HW128667   1.665   0.830   2.098  0.1604 -0.8693 -0.9077
 5735SOL    HW228668   1.702   0.684   2.106  1.2355 -1.1415  1.4492
 5736SOL     OW28669   1.940   2.259   1.196  0.2080 -0.3641  0.2631
 5736SOL    HW128670   1.938   2.322   1.268  1.6126  1.4227 -1.2813
 5736SOL    HW228671   1.997   2.301   1.132  1.2410 -1.4648  0.4580
 5737SOL     OW28672   4.566   0.667   5.930  0.2313  0.4707  0.2169
 5737SOL    HW128673   4.607   0.748   5.902  2.7702 -1.1062 -0.6857
 5737SOL    HW228674   4.617   0.596   5.889  1.1347  0.6932  0.9442
 5738SOL     OW28675   3.497   0.950   7.164  0.4038  0.1142  0.4552
 5738SOL    HW128676   3.522   0.906   7.083  0.6420  2.2856 -0.6273
 5738SOL    HW228677   3.587   0.976   7.187  0.4167  0.5626 -0.1045
 5739SOL     OW28678   4.640   1.484  10.445  0.2765 -0.4617 -0.1642
 5739SOL    HW128679   4.545   1.488  10.430  0.1298  0.5728  1.0623
 5739SOL    HW228680   4.656   1.544  10.517 -0.6966  0.0199 -0.3573
 5740SOL     OW28681   3.053   4.224   9.464  0.1776  0.2858  0.1625
 5740SOL    HW128682   3.094   4.140   9.486  0.4504 -0.1264 -1.9919
 5740SOL    HW228683   3.074   4.274   9.543 -0.9912  1.3724 -0.2165
 5741SOL     OW28684   2.326   2.157   6.497 -0.5341  0.0712 -0.7344
 5741SOL    HW128685   2.320   2.111   6.413  0.9994 -0.7931 -0.3694
 5741SOL    HW228686   2.411   2.131   6.533 -1.2330 -0.4284  0.5772
 5742SOL     OW28687   4.443   2.441   4.620  0.8922  0.5303  0.1511
 5742SOL    HW128688   4.520   2.494   4.645 -0.0566  1.5555  0.8962
 5742SOL    HW228689   4.372   2.502   4.639 -0.4382 -0.7127 -0.9567
 5743SOL     OW28690   2.830   2.778  11.978 -0.2377  0.4027 -0.0795
 5743SOL    HW128691   2.891   2.816  11.915  0.1677 -1.1323 -0.6037
 5743SOL    HW228692   2.757   2.780  11.916 -1.9583  0.5886  1.9651
 5744SOL     OW28693   4.192   3.370   9.524 -0.5518  0.0560 -0.2478
 5744SOL    HW128694   4.270   3.353   9.577 -2.7058 -1.6091  2.3802
 5744SOL    HW228695   4.126   3.388   9.590 -0.6659 -0.8932 -0.0923
 5745SOL     OW28696   3.345   2.245   6.382  0.6047  0.0453 -0.4984
 5745SOL    HW128697   3.313   2.236   6.293  1.0635  1.3135 -0.7890
 5745SOL    HW228698   3.428   2.197   6.385 -0.3103 -1.3980  2.0176
 5746SOL     OW28699   2.945   2.504  17.456 -0.5565  0.3072  0.0453
 5746SOL    HW128700   2.930   2.413  17.480 -0.6099  0.0838 -0.8211
 5746SOL    HW228701   3.041   2.500  17.459 -0.4878  2.6812  1.1145
 5747SOL     OW28702   1.640   1.415  16.619 -0.2768 -0.3398 -0.6646
 5747SOL    HW128703   1.590   1.436  16.698 -0.5228 -2.1194 -0.3507
 5747SOL    HW228704   1.724   1.456  16.637 -0.0295 -1.0696 -0.1565
 5748SOL     OW28705   3.999   3.613   2.713  0.2399  0.1882 -0.1323
 5748SOL    HW128706   4.034   3.539   2.763  2.0373  0.3759 -1.1283
 5748SOL    HW228707   3.930   3.565   2.666  0.3265  1.9837 -2.0812
 5749SOL     OW28708   0.566   1.395   8.498  0.3458  0.3808 -0.4601
 5749SOL    HW128709   0.639   1.364   8.553 -0.3986 -1.0696 -0.2852
 5749SOL    HW228710   0.514   1.448   8.559  0.2642  0.3200 -0.4778
 5750SOL     OW28711   1.456   2.956   7.795 -0.2292  0.7350 -0.2349
 5750SOL    HW128712   1.466   2.913   7.880 -0.1630  0.7608 -0.2298
 5750SOL    HW228713   1.448   3.049   7.814 -0.5322  0.6825 -0.1061
 5751SOL     OW28714   4.464   1.053   2.375 -0.0398 -0.0588 -0.0550
 5751SOL    HW128715   4.457   0.972   2.325 -0.4115  0.8977 -1.5528
 5751SOL    HW228716   4.455   1.116   2.302 -2.1154 -1.0032 -0.6304
 5752SOL     OW28717   3.297   0.507  12.038  0.0260 -0.2298  0.4207
 5752SOL    HW128718   3.291   0.590  11.990 -0.4202 -0.1437  0.6331
 5752SOL    HW228719   3.372   0.467  11.993 -0.8668 -3.2157  1.6076
 5753SOL     OW28720   3.330   4.311   4.565  0.5007 -0.1531 -0.8932
 5753SOL    HW128721   3.373   4.238   4.520 -0.2123 -1.3826  0.4243
 5753SOL    HW228722   3.341   4.389   4.511 -2.0841  1.7855  1.3789
 5754SOL     OW28723   3.845   2.353   5.881  0.4716  1.1139  0.6887
 5754SOL    HW128724   3.752   2.353   5.857  1.0673 -1.8207 -1.6656
 5754SOL    HW228725   3.857   2.335   5.974 -2.2509 -1.2956  0.5702
 5755SOL     OW28726   3.645   3.205   0.708 -0.0749  0.0920 -0.3390
 5755SOL    HW128727   3.718   3.165   0.662 -0.1461 -0.5820  0.1140
 5755SOL    HW228728   3.578   3.176   0.646 -0.7451 -1.0024  0.8870
 5756SOL     OW28729   3.291   0.960   6.016 -0.4424  0.1316 -0.9193
 5756SOL    HW128730   3.290   0.892   5.949  0.0640  0.6038 -1.4127
 5756SOL    HW228731   3.383   0.959   6.044  0.3023  2.5989 -3.3214
 5757SOL     OW28732   0.978   3.522   0.296  0.3092  0.0412  0.3547
 5757SOL    HW128733   0.996   3.512   0.389 -1.7724  1.1829  0.8692
 5757SOL    HW228734   0.919   3.596   0.296 -0.5768 -0.6666 -0.2727
 5758SOL     OW28735   0.982   2.088   6.931  0.5387 -0.4155 -0.2070
 5758SOL    HW128736   0.923   2.158   6.905  2.0432  0.9254 -0.0140
 5758SOL    HW228737   1.067   2.121   6.901  1.3009 -0.9355  1.3721
 5759SOL     OW28738   0.607   1.058   3.061  0.2323  0.2944 -0.1406
 5759SOL    HW128739   0.561   1.142   3.052 -1.0758 -0.0924  2.9670
 5759SOL    HW228740   0.539   1.003   3.101  1.1804 -0.0363  1.0084
 5760SOL     OW28741   2.074   1.859   9.390 -0.5995  0.2906  0.1865
 5760SOL    HW128742   2.134   1.934   9.394 -0.1043 -0.0997  0.1428
 5760SOL    HW228743   1.995   1.910   9.373 -0.3785  0.2680 -0.8968
 5761SOL     OW28744   3.354   1.469   1.983  0.1169  0.3834  0.1052
 5761SOL    HW128745   3.433   1.522   1.978  0.7876 -0.6127  0.1370
 5761SOL    HW228746   3.376   1.424   2.065 -1.9214 -0.6563  0.0909
 5762SOL     OW28747   1.364   3.254   1.051  0.1637  0.4430 -0.0628
 5762SOL    HW128748   1.400   3.330   1.097  2.0369 -0.9903  0.8398
 5762SOL    HW228749   1.361   3.274   0.958  3.9182  0.0764 -0.2852
 5763SOL     OW28750   0.657   0.426   8.855  0.0632 -0.8158  0.3861
 5763SOL    HW128751   0.593   0.355   8.851  0.0020 -0.9576  3.3095
 5763SOL    HW228752   0.737   0.373   8.851  1.8598  1.9000  0.8495
 5764SOL     OW28753   2.854   1.213   5.811 -0.1446 -0.8429 -0.2537
 5764SOL    HW128754   2.910   1.239   5.738 -0.9273  1.1449 -0.1506
 5764SOL    HW228755   2.766   1.226   5.776 -1.0894 -0.9535  2.0843
 5765SOL     OW28756   1.808   1.611  10.823  0.2336  0.0715  0.0829
 5765SOL    HW128757   1.779   1.679  10.883 -1.0052  1.1734 -1.7614
 5765SOL    HW228758   1.743   1.542  10.837 -0.1715  1.1712  3.4517
 5766SOL     OW28759   2.075   1.134  12.027  0.0013 -0.0245  0.0703
 5766SOL    HW128760   2.010   1.157  11.961  0.2562  2.9488  0.8724
 5766SOL    HW228761   2.082   1.041  12.006  2.3311 -0.2471  1.8323
 5767SOL     OW28762   0.800   3.395   0.110  0.0162 -0.0399 -0.3936
 5767SOL    HW128763   0.831   3.409   0.020 -0.8567 -0.2951 -0.7365
 5767SOL    HW228764   0.845   3.463   0.160 -0.5856 -0.1257  0.2558
 5768SOL     OW28765   1.986   3.197   6.945 -0.1440  0.3983  0.2573
 5768SOL    HW128766   1.973   3.190   6.850  1.8999 -1.5092  0.1341
 5768SOL    HW228767   1.903   3.156   6.969 -0.7405  2.3464  1.5544
 5769SOL     OW28768   0.109   0.208   6.373 -0.1503 -0.6626 -0.1145
 5769SOL    HW128769   0.152   0.145   6.315 -1.0912 -1.9997  0.6301
 5769SOL    HW228770   0.161   0.286   6.356 -0.8074 -0.2448 -0.2315
 5770SOL     OW28771   4.437   1.297   4.054  0.3197 -0.2358 -0.4006
 5770SOL    HW128772   4.485   1.319   3.974  0.2202 -1.8558 -0.9002
 5770SOL    HW228773   4.459   1.204   4.055 -1.0462 -0.5459  0.9542
 5771SOL     OW28774   0.013   1.102   6.346  0.3266  0.8988 -0.0615
 5771SOL    HW128775   4.667   1.153   6.387 -0.9011 -2.3766  1.9084
 5771SOL    HW228776   0.055   1.072   6.426 -2.3857 -2.0299  0.2689
 5772SOL     OW28777   3.493   3.895  14.542 -0.0240  0.0076  0.4412
 5772SOL    HW128778   3.444   3.878  14.622 -0.3169 -1.2434  0.0062
 5772SOL    HW228779   3.506   3.989  14.551 -2.7284  0.2159  2.1160
 5773SOL     OW28780   2.800   1.041  13.424 -0.0094  0.1516 -0.1308
 5773SOL    HW128781   2.765   1.082  13.345  3.0686 -0.6881 -1.9321
 5773SOL    HW228782   2.840   1.119  13.461 -0.0493  1.5888 -3.1296
 5774SOL     OW28783   1.810   2.239   9.015  0.6969 -0.0171 -0.3594
 5774SOL    HW128784   1.838   2.298   9.086 -0.6945 -0.6395  0.7185
 5774SOL    HW228785   1.746   2.181   9.057 -0.0524  0.2142 -1.1778
 5775SOL     OW28786   4.596   3.522   2.895 -0.7953 -0.1863  0.2626
 5775SOL    HW128787   4.575   3.454   2.959 -0.8472  0.2530  0.7022
 5775SOL    HW228788   4.638   3.582   2.956  0.8803  0.1048 -1.1699
 5776SOL     OW28789   1.613   4.155   2.261  0.3986  0.5144  0.1004
 5776SOL    HW128790   1.684   4.091   2.264  0.6326  0.7770  0.1694
 5776SOL    HW228791   1.663   4.228   2.224  0.1672 -0.7157 -2.6817
 5777SOL     OW28792   1.057   4.105   4.104  0.4497 -0.5573  0.5501
 5777SOL    HW128793   1.112   4.065   4.036 -1.1541 -2.1320  0.2036
 5777SOL    HW228794   1.105   4.101   4.186 -1.8256  0.4150  1.9329
 5778SOL     OW28795   4.124   4.062   4.289  0.1896 -0.5341  0.3144
 5778SOL    HW128796   4.187   4.083   4.358  0.4467 -1.8828  0.4926
 5778SOL    HW228797   4.137   3.967   4.278  1.5319 -0.4719  1.3193
 5779SOL     OW28798   1.069   2.059   5.223  0.1485 -0.8517 -0.1268
 5779SOL    HW128799   1.066   2.061   5.318 -1.9558 -0.2254 -0.2006
 5779SOL    HW228800   1.025   2.141   5.198  2.0184  0.1918 -0.0222
 5780SOL     OW28801   1.105   0.912  14.144 -0.1713  0.0659  0.1090
 5780SOL    HW128802   1.092   0.920  14.049 -1.5830 -1.2671  0.1841
 5780SOL    HW228803   1.189   0.865  14.152 -0.1987 -0.4768 -2.8597
 5781SOL     OW28804   0.444   3.276   5.071 -0.1008 -0.7442 -0.1428
 5781SOL    HW128805   0.371   3.307   5.018 -0.6982 -0.1608  1.0257
 5781SOL    HW228806   0.515   3.267   5.007 -0.5692 -0.8976 -0.6384
 5782SOL     OW28807   0.815   1.894   4.374 -0.0416  0.3042  0.0603
 5782SOL    HW128808   0.761   1.816   4.387  1.7458 -0.8580  0.4456
 5782SOL    HW228809   0.753   1.966   4.365 -0.5584 -0.1657 -0.1450
 5783SOL     OW28810   1.416   3.058   4.938 -0.1733  0.2071  0.3155
 5783SOL    HW128811   1.444   3.071   5.028 -1.3800  0.8177  0.5923
 5783SOL    HW228812   1.439   2.966   4.925 -1.3553 -0.0872  0.2518
 5784SOL     OW28813   1.377   1.941   9.912  0.5597 -0.3043  0.6145
 5784SOL    HW128814   1.416   2.020   9.949 -0.3512  0.1521  0.6167
 5784SOL    HW228815   1.304   1.967   9.855  1.4939  0.7342 -0.0916
 5785SOL     OW28816   0.211   3.613   7.386  0.0175 -0.0967  0.5163
 5785SOL    HW128817   0.139   3.656   7.432  0.1266  0.9433 -0.3010
 5785SOL    HW228818   0.282   3.665   7.424  0.2548 -2.1334  2.8742
 5786SOL     OW28819   2.191   1.477   5.825  0.0087 -0.3018 -0.4517
 5786SOL    HW128820   2.211   1.481   5.918 -1.5797  0.5128 -0.1358
 5786SOL    HW228821   2.218   1.559   5.784  0.8647 -0.4212 -0.1096
 5787SOL     OW28822   2.663   2.987  14.673 -0.4220  0.4971 -0.1279
 5787SOL    HW128823   2.593   2.965  14.734  0.4955 -2.8584 -0.2960
 5787SOL    HW228824   2.638   2.922  14.608 -0.4374 -0.0445  0.4180
 5788SOL     OW28825   0.049   1.070   4.739 -0.1690 -0.0833  0.8999
 5788SOL    HW128826   4.684   1.040   4.760 -0.2887 -0.4565 -0.1199
 5788SOL    HW228827   0.036   1.071   4.644 -1.7161  1.3493  1.1313
 5789SOL     OW28828   0.010   1.169  12.245 -0.4272 -0.4430  0.1074
 5789SOL    HW128829   4.722   1.147  12.153  1.5579 -0.2334 -0.1926
 5789SOL    HW228830   0.091   1.120  12.260  0.7255  1.8517  1.4933
 5790SOL     OW28831   2.530   2.152   5.414 -0.2236  0.1632  0.2835
 5790SOL    HW128832   2.457   2.130   5.356 -1.4813 -0.4560  2.1088
 5790SOL    HW228833   2.496   2.166   5.502 -0.3021  1.1578  0.0964
 5791SOL     OW28834   0.138   0.177   2.769  0.1433  0.4527 -0.1176
 5791SOL    HW128835   0.170   0.102   2.719  0.1729 -0.6460  1.5446
 5791SOL    HW228836   0.047   0.174   2.743  1.1004  0.4518 -3.4241
 5792SOL     OW28837   3.400   4.444   5.307  0.0677 -0.5993  0.3081
 5792SOL    HW128838   3.358   4.366   5.342 -1.3678 -0.1921 -0.4878
 5792SOL    HW228839   3.487   4.407   5.294  1.5099  2.1225  2.2525
 5793SOL     OW28840   0.707   0.836   5.458  0.3324  0.5497  0.2143
 5793SOL    HW128841   0.633   0.815   5.515  1.4038 -2.8428  0.3651
 5793SOL    HW228842   0.720   0.928   5.480 -0.4744  1.0887 -1.5183
 5794SOL     OW28843   1.082   2.130  14.278  0.3161  0.0322 -0.1338
 5794SOL    HW128844   1.108   2.201  14.219  1.5527 -0.4446 -0.1396
 5794SOL    HW228845   1.093   2.170  14.365  1.2124 -1.9171  0.6479
 5795SOL     OW28846   1.242   1.094   1.836  0.1442  0.2478  0.5914
 5795SOL    HW128847   1.228   1.032   1.764 -2.0447  0.1260  1.1087
 5795SOL    HW228848   1.314   1.143   1.797 -0.3383  2.1979  2.1145
 5796SOL     OW28849   2.727   1.890   4.217 -0.0463  0.0811  0.3279
 5796SOL    HW128850   2.739   1.943   4.296 -3.2453  2.0462 -0.4772
 5796SOL    HW228851   2.634   1.910   4.204 -0.6359 -1.3520  2.3838
 5797SOL     OW28852   4.145   4.183   8.225 -0.1919  0.4866 -0.0738
 5797SOL    HW128853   4.079   4.117   8.205  0.1081 -0.2000  1.1868
 5797SOL    HW228854   4.119   4.215   8.312 -0.3416  0.0231  0.0473
 5798SOL     OW28855   1.626   3.153  15.557 -0.3539  0.1131 -0.1699
 5798SOL    HW128856   1.627   3.057  15.560 -0.0696  0.1267  0.2105
 5798SOL    HW228857   1.621   3.180  15.466  0.2941 -0.2982 -0.3297
 5799SOL     OW28858   0.334   2.798   7.101  0.4618 -0.7872 -0.2483
 5799SOL    HW128859   0.315   2.731   7.166  1.0264  0.9498  1.7122
 5799SOL    HW228860   0.330   2.868   7.166 -0.2237 -0.2656 -0.8590
 5800SOL     OW28861   3.629   2.817  11.902 -0.1996  0.2378  0.1246
 5800SOL    HW128862   3.649   2.796  11.810 -0.2491  0.4341  0.0687
 5800SOL    HW228863   3.540   2.785  11.909  0.3599 -0.6798  2.9569
 5801SOL     OW28864   4.477   0.416   2.935  0.5430  0.4482 -0.6420
 5801SOL    HW128865   4.439   0.363   3.004  0.9815  0.4297 -0.4120
 5801SOL    HW228866   4.505   0.493   2.984  0.1300  0.3407 -0.2404
 5802SOL     OW28867   4.103   0.590   3.127 -0.0397  0.0332  0.0439
 5802SOL    HW128868   4.077   0.641   3.051 -2.3794 -0.7081  0.3571
 5802SOL    HW228869   4.052   0.510   3.116  0.6969 -0.5321  0.7208
 5803SOL     OW28870   2.990   4.544  12.473  0.4756  0.1118 -0.1780
 5803SOL    HW128871   2.934   4.598  12.528  0.3267 -0.1846 -0.0351
 5803SOL    HW228872   3.066   4.513  12.522 -0.0291  1.6177  1.5350
 5804SOL     OW28873   3.554   3.885   2.266  0.3762  0.6499 -0.8949
 5804SOL    HW128874   3.638   3.908   2.224  0.4779 -0.6302 -1.4040
 5804SOL    HW228875   3.493   3.937   2.214 -0.8480  0.5739  0.4851
 5805SOL     OW28876   4.665   0.772   4.530  0.5520 -0.1723  0.6020
 5805SOL    HW128877   4.685   0.864   4.513  2.8643 -0.8310 -0.2102
 5805SOL    HW228878   0.023   0.724   4.514  0.6255  0.7083 -1.6909
 5806SOL     OW28879   1.093   1.876   7.817  0.2067 -0.0047  0.4081
 5806SOL    HW128880   1.035   1.923   7.878  0.2059 -0.2925  0.6286
 5806SOL    HW228881   1.101   1.790   7.856 -0.6589 -0.2922 -0.0357
 5807SOL     OW28882   1.981   3.110  13.188  0.3631 -0.3449 -0.3041
 5807SOL    HW128883   2.005   3.041  13.250 -0.2191 -0.3538 -0.0978
 5807SOL    HW228884   1.977   3.199  13.224 -0.6933 -0.8819  0.8745
 5808SOL     OW28885   1.438   1.703   1.108 -0.0782 -0.7510 -0.1977
 5808SOL    HW128886   1.449   1.697   1.013  0.3680  1.6889 -0.2989
 5808SOL    HW228887   1.412   1.611   1.118 -2.1364 -0.0021  1.3093
 5809SOL     OW28888   3.171   3.113   4.095  0.1812  0.0386 -0.1646
 5809SOL    HW128889   3.143   3.140   4.008 -0.2510  2.1404  0.6363
 5809SOL    HW228890   3.266   3.119   4.091  0.0607 -0.7283 -4.2586
 5810SOL     OW28891   1.933   0.479  12.072  1.0007 -0.0071  0.2003
 5810SOL    HW128892   1.998   0.526  12.123  1.2902  0.9013 -1.0216
 5810SOL    HW228893   1.981   0.473  11.990  0.6095 -1.4167  0.0607
 5811SOL     OW28894   1.182   1.657   3.114  0.3711 -0.3161  0.2047
 5811SOL    HW128895   1.118   1.592   3.085 -0.6217 -0.5857  2.9789
 5811SOL    HW228896   1.138   1.707   3.183 -0.5914 -0.7593 -0.0902
 5812SOL     OW28897   0.609   2.663   6.616 -0.2680 -0.1287 -0.2678
 5812SOL    HW128898   0.694   2.703   6.597  0.3751 -0.7905  1.1601
 5812SOL    HW228899   0.625   2.650   6.710  1.7098  2.3290 -0.2665
 5813SOL     OW28900   3.176   0.498   5.475 -0.1612  0.6111  0.1459
 5813SOL    HW128901   3.227   0.430   5.520  1.2548  1.0452 -0.7937
 5813SOL    HW228902   3.157   0.459   5.390  1.3686 -0.3950  0.2495
 5814SOL     OW28903   3.360   2.593   8.405 -0.6052 -0.1851 -0.2768
 5814SOL    HW128904   3.321   2.674   8.373 -0.0655 -0.8855 -2.7213
 5814SOL    HW228905   3.338   2.601   8.498 -1.2180  0.0305 -0.4368
 5815SOL     OW28906   3.601   0.574   3.450 -0.6559 -0.0534 -0.4418
 5815SOL    HW128907   3.527   0.604   3.396 -1.1313 -1.1658 -0.4009
 5815SOL    HW228908   3.611   0.648   3.509 -1.7976 -0.7682  0.6493
 5816SOL     OW28909   0.663   0.588   2.652 -0.1794  0.4006  0.3602
 5816SOL    HW128910   0.692   0.678   2.669 -0.1644  0.6253 -0.8596
 5816SOL    HW228911   0.620   0.600   2.568 -0.4252  1.5510  0.6417
 5817SOL     OW28912   1.397   1.240   8.758 -0.1455 -0.3748  0.0429
 5817SOL    HW128913   1.439   1.193   8.830 -0.0697 -3.1856 -1.8215
 5817SOL    HW228914   1.340   1.172   8.724  0.3969 -2.5975  3.6972
 5818SOL     OW28915   1.555   1.195   6.621 -0.4624  0.4285 -0.3019
 5818SOL    HW128916   1.484   1.140   6.588 -0.4480  0.8085 -0.9656
 5818SOL    HW228917   1.618   1.179   6.551  0.9796  0.5088  0.9791
 5819SOL     OW28918   3.465   1.410   6.081 -0.2301 -0.1194 -0.4043
 5819SOL    HW128919   3.375   1.422   6.113  0.9138  1.3006  2.2787
 5819SOL    HW228920   3.470   1.315   6.066 -0.9756 -0.2651  0.2900
 5820SOL     OW28921   0.128   0.292   3.969  0.8894  0.3491  0.0471
 5820SOL    HW128922   0.170   0.208   3.991 -0.6574 -0.3728  0.2437
 5820SOL    HW228923   0.089   0.267   3.885 -0.9022 -0.5122  1.1393
 5821SOL     OW28924   3.989   1.894   9.107  0.6075  0.1957  0.0941
 5821SOL    HW128925   3.961   1.869   9.019  1.1729  0.8037 -0.2591
 5821SOL    HW228926   4.079   1.861   9.100 -0.1394 -1.7048 -0.4825
 5822SOL     OW28927   1.448   2.067   8.332  0.2868  0.2175 -0.3599
 5822SOL    HW128928   1.378   2.008   8.304  0.5619 -1.1964  1.8907
 5822SOL    HW228929   1.411   2.144   8.289 -0.4765 -0.6779 -1.3092
 5823SOL     OW28930   4.480   0.511   5.085  0.1452  0.1426  0.2272
 5823SOL    HW128931   4.407   0.543   5.032 -0.4413 -2.8933 -0.7692
 5823SOL    HW228932   4.469   0.420   5.060  3.3045 -0.2316  0.2570
 5824SOL     OW28933   2.268   0.737  11.602  0.5864  0.0894  0.6066
 5824SOL    HW128934   2.298   0.646  11.601  0.7855  0.1567 -0.9206
 5824SOL    HW228935   2.348   0.790  11.603 -0.4753  1.7108 -0.9898
 5825SOL     OW28936   4.504   4.490  10.334 -0.0673  0.2994 -0.0588
 5825SOL    HW128937   4.514   4.396  10.352  3.3582  1.1408  2.4362
 5825SOL    HW228938   4.443   4.512  10.405  0.5149  2.0194 -0.0970
 5826SOL     OW28939   2.065   0.590   0.255  0.3443  0.1082  0.1505
 5826SOL    HW128940   2.011   0.524   0.211 -2.3618  1.4444  1.4559
 5826SOL    HW228941   2.148   0.541   0.254 -0.2292 -0.8604 -0.0793
 5827SOL     OW28942   2.517   0.544   5.734 -0.7022  0.1205 -0.1773
 5827SOL    HW128943   2.471   0.471   5.775 -0.0413  0.0668  0.4608
 5827SOL    HW228944   2.600   0.502   5.710  0.1803  1.0136  1.3999
 5828SOL     OW28945   3.887   1.764   2.076 -0.3479  0.4154 -0.0683
 5828SOL    HW128946   3.815   1.767   2.014 -0.7346  2.2293  0.4503
 5828SOL    HW228947   3.951   1.806   2.019  0.1636 -2.0920 -1.3200
 5829SOL     OW28948   1.579   0.963   1.280 -0.1938 -0.4214  0.6328
 5829SOL    HW128949   1.666   1.001   1.296  0.6192 -1.7590 -0.5288
 5829SOL    HW228950   1.515   1.026   1.313  0.4856  0.4908  0.2121
 5830SOL     OW28951   1.809   2.354   6.273 -0.1190  0.3135 -0.2284
 5830SOL    HW128952   1.882   2.300   6.303 -3.9629 -3.8818  1.6534
 5830SOL    HW228953   1.859   2.424   6.232 -0.2551  1.2062  1.1446
 5831SOL     OW28954   2.664   3.702   0.606  0.2079 -0.8480  0.2528
 5831SOL    HW128955   2.614   3.773   0.567  0.7250 -0.2880  0.6139
 5831SOL    HW228956   2.684   3.740   0.691 -0.7951 -0.9505  0.5326
 5832SOL     OW28957   0.415   4.630   4.373  0.1948  0.8096  0.5788
 5832SOL    HW128958   0.383   4.585   4.295 -1.8735  0.8816  1.3808
 5832SOL    HW228959   0.413   4.723   4.351  0.7247  1.1048  1.7838
 5833SOL     OW28960   2.284   1.445   6.105  0.8714 -0.4991  0.8057
 5833SOL    HW128961   2.356   1.409   6.156 -0.3358 -2.6945  0.9407
 5833SOL    HW228962   2.215   1.392   6.143 -0.1929 -0.2835 -0.8249
 5834SOL     OW28963   0.968   0.684   5.329 -0.3129  0.2802  0.0777
 5834SOL    HW128964   0.965   0.598   5.287 -0.0933 -0.6098  1.9080
 5834SOL    HW228965   0.947   0.664   5.420  1.0362  0.5740  0.4595
 5835SOL     OW28966   1.322   0.724   8.037 -0.3535 -0.0969  0.2861
 5835SOL    HW128967   1.235   0.714   7.997 -0.1802  0.2399 -0.1619
 5835SOL    HW228968   1.305   0.794   8.099 -0.0561 -0.7777  1.1369
 5836SOL     OW28969   1.785   1.018   5.929 -0.4076  0.1501  0.3515
 5836SOL    HW128970   1.802   1.108   5.957  1.2294  0.1000 -0.4966
 5836SOL    HW228971   1.713   1.031   5.868 -0.0085 -2.5013 -0.6961
 5837SOL     OW28972   4.143   2.892  12.421 -0.0806  0.4169 -0.4910
 5837SOL    HW128973   4.057   2.915  12.456  0.3028  0.1939  0.5997
 5837SOL    HW228974   4.135   2.943  12.340 -2.4651 -1.0051 -1.1583
 5838SOL     OW28975   4.435   2.731   5.529  0.2629  0.3143 -0.7315
 5838SOL    HW128976   4.475   2.746   5.615  2.9388 -1.0845 -1.7392
 5838SOL    HW228977   4.443   2.821   5.496 -2.2567  1.4393  1.6744
 5839SOL     OW28978   4.072   4.280   9.603  0.4191  0.3277 -0.3202
 5839SOL    HW128979   4.030   4.357   9.563 -1.0737 -0.3378 -0.0242
 5839SOL    HW228980   4.005   4.212   9.603  0.0611  0.6809  0.6262
 5840SOL     OW28981   2.856   4.549   3.242 -0.3328  0.0152 -0.0834
 5840SOL    HW128982   2.894   4.481   3.186 -2.1983 -2.3781  1.5621
 5840SOL    HW228983   2.766   4.517   3.244  0.0631 -1.0927  0.0592
 5841SOL     OW28984   2.815   3.831   8.898  0.2528 -0.0460  0.0029
 5841SOL    HW128985   2.794   3.741   8.872  0.7748 -0.8077  2.2582
 5841SOL    HW228986   2.792   3.875   8.816  0.7719 -0.0085 -0.1216
 5842SOL     OW28987   4.081   0.318   2.857  0.3987  0.2861 -0.2979
 5842SOL    HW128988   4.151   0.368   2.898  0.1266 -0.2042  0.7581
 5842SOL    HW228989   4.126   0.236   2.839  0.7107  0.1624  1.0863
 5843SOL     OW28990   4.562   2.876   9.741  0.0824  0.3614 -0.7198
 5843SOL    HW128991   4.626   2.829   9.795  0.0952  1.3426  0.1219
 5843SOL    HW228992   4.549   2.821   9.663  0.2347 -1.8301  0.8023
 5844SOL     OW28993   1.252   1.595   4.695 -0.4073 -0.5641  0.3847
 5844SOL    HW128994   1.222   1.616   4.606 -1.9715  1.4350  1.3638
 5844SOL    HW228995   1.332   1.645   4.706  0.1313 -1.4750  0.5480
 5845SOL     OW28996   1.104   2.925   8.669  0.5043 -0.3745  0.5942
 5845SOL    HW128997   1.122   3.017   8.689  1.0793 -0.4750  0.5290
 5845SOL    HW228998   1.186   2.886   8.698  0.4101 -1.5165 -0.6716
 5846SOL     OW28999   2.986   4.082  16.560 -0.9488  0.2145 -0.0878
 5846SOL    HW129000   2.942   4.043  16.484 -0.6300  0.7008 -0.5275
 5846SOL    HW229001   3.035   4.150  16.513  0.9436 -1.4002 -0.4738
 5847SOL     OW29002   2.965   0.072   3.176 -0.0798 -0.0667 -0.1237
 5847SOL    HW129003   2.970   0.055   3.082 -0.7964  0.1343 -0.1998
 5847SOL    HW229004   2.932   4.710   3.202  1.2096  0.6028  3.6197
 5848SOL     OW29005   1.364   0.134   8.677 -0.0085 -0.4742 -0.6378
 5848SOL    HW129006   1.319   0.116   8.759  2.3057 -0.5805  0.5913
 5848SOL    HW229007   1.391   0.222   8.703 -0.0345 -1.5486  2.9262
 5849SOL     OW29008   2.196   2.987  12.341 -0.8043  0.2538  0.6348
 5849SOL    HW129009   2.115   3.038  12.342 -0.7437  0.3593  0.1041
 5849SOL    HW229010   2.222   2.983  12.249  0.1576 -0.8576  0.9475
 5850SOL     OW29011   3.432   2.619   1.299  0.4150  0.0647  0.2483
 5850SOL    HW129012   3.448   2.531   1.332 -1.6889 -0.2049  0.5654
 5850SOL    HW229013   3.497   2.620   1.229  2.3185 -0.8775  2.0096
 5851SOL     OW29014   0.823   2.687   4.419  0.0825  0.2522  0.4318
 5851SOL    HW129015   0.906   2.640   4.412 -0.9111 -1.2034 -1.7564
 5851SOL    HW229016   0.805   2.693   4.325 -1.6858 -2.4361  0.5755
 5852SOL     OW29017   3.200   4.105   1.302 -0.1555  0.0861 -0.4254
 5852SOL    HW129018   3.185   4.010   1.305  0.7054 -0.0407 -0.2682
 5852SOL    HW229019   3.212   4.130   1.393 -0.8763 -1.2978  0.0564
 5853SOL     OW29020   1.026   0.941   3.566  0.7333  0.0428  0.2041
 5853SOL    HW129021   1.114   0.977   3.581  0.8904  0.0798 -0.8242
 5853SOL    HW229022   1.055   0.874   3.505  1.2230  0.0690  0.4053
 5854SOL     OW29023   0.415   1.856   9.039  0.1651  0.3123  0.5845
 5854SOL    HW129024   0.489   1.888   9.091 -0.3422  0.4171  1.2383
 5854SOL    HW229025   0.351   1.845   9.110  1.0102 -0.3646  1.2479
 5855SOL     OW29026   1.119   3.789   2.216 -0.2380  0.1636  0.2387
 5855SOL    HW129027   1.109   3.694   2.222 -0.1525  0.0478 -1.4142
 5855SOL    HW229028   1.120   3.799   2.120  0.1001  0.7173  0.3034
 5856SOL     OW29029   3.620   4.205   2.217  0.1426 -0.0354 -0.4065
 5856SOL    HW129030   3.620   4.267   2.144 -2.2467 -0.3509 -0.6603
 5856SOL    HW229031   3.527   4.181   2.220 -0.1531  0.8355 -2.3661
 5857SOL     OW29032   2.536   2.040  11.350 -0.2768 -0.3733 -0.3981
 5857SOL    HW129033   2.451   1.997  11.340 -1.7382  2.2914  0.3563
 5857SOL    HW229034   2.576   1.974  11.406 -2.3985  0.0083  1.5587
 5858SOL     OW29035   3.644   3.433   5.550  0.0841 -0.0825 -0.3543
 5858SOL    HW129036   3.629   3.415   5.642  0.4115 -0.0529 -0.2954
 5858SOL    HW229037   3.698   3.354   5.550  1.9965  1.2178  0.9304
 5859SOL     OW29038   0.275   0.981   4.857 -0.1271  0.4183 -0.1620
 5859SOL    HW129039   0.191   1.008   4.819 -0.3720  1.0791  0.8340
 5859SOL    HW229040   0.336   1.030   4.802 -0.1343 -1.5078 -1.8904
 5860SOL     OW29041   3.273   1.149   3.535  0.1037 -0.1295  0.0758
 5860SOL    HW129042   3.253   1.215   3.469  4.7438  0.6391 -0.5371
 5860SOL    HW229043   3.345   1.103   3.493  0.6366 -0.0040  0.8410
 5861SOL     OW29044   4.499   4.708   9.273  0.0656  0.0754  0.1119
 5861SOL    HW129045   4.532   4.712   9.183 -2.1082 -1.7424 -0.7587
 5861SOL    HW229046   4.420   0.039   9.264  0.7394  1.0067 -0.1013
 5862SOL     OW29047   2.228   1.294   8.339  1.0147 -0.5978 -0.6113
 5862SOL    HW129048   2.300   1.351   8.367  1.5856 -1.1760 -0.9247
 5862SOL    HW229049   2.245   1.226   8.404  1.1878  0.1507  0.1386
 5863SOL     OW29050   1.487   3.197   4.490 -0.0808  0.6727 -0.2155
 5863SOL    HW129051   1.513   3.173   4.401  1.4030 -2.5694  1.1013
 5863SOL    HW229052   1.483   3.292   4.482  1.3001  0.8346  0.9889
 5864SOL     OW29053   4.354   3.852  11.214  0.0470  0.0622  0.0109
 5864SOL    HW129054   4.372   3.798  11.290  1.4962 -1.0830 -1.1516
 5864SOL    HW229055   4.444   3.857  11.182 -0.2019  1.0655 -0.5361
 5865SOL     OW29056   1.247   3.673  12.291  0.2124 -0.0308 -0.6546
 5865SOL    HW129057   1.239   3.744  12.354  0.0063 -1.0122  0.4201
 5865SOL    HW229058   1.225   3.715  12.207  0.3882  2.1433  0.3826
 5866SOL     OW29059   2.559   3.099   4.937  0.1990  0.2069 -0.3110
 5866SOL    HW129060   2.583   3.150   5.014  1.0096  0.5458 -0.7917
 5866SOL    HW229061   2.506   3.028   4.975  0.8967 -0.2460 -0.1774
 5867SOL     OW29062   0.410   0.026   6.499  0.1532 -0.2407  0.3571
 5867SOL    HW129063   0.502   0.048   6.485 -0.0984  0.3158 -0.3884
 5867SOL    HW229064   0.390   4.700   6.420  0.6674  0.1000  0.0113
 5868SOL     OW29065   3.987   1.325   1.580  0.3035 -0.1549  0.1517
 5868SOL    HW129066   4.040   1.370   1.514  0.3595 -0.3717  0.0491
 5868SOL    HW229067   3.957   1.408   1.619  0.5979 -0.4726  1.0703
 5869SOL     OW29068   3.740   2.513  11.189  0.0744  0.1174 -0.0383
 5869SOL    HW129069   3.829   2.520  11.225  0.0260 -0.9181  0.2760
 5869SOL    HW229070   3.724   2.420  11.202  0.6419  0.0083 -0.1186
 5870SOL     OW29071   1.358   1.735   6.348 -0.1151  0.1881 -0.3312
 5870SOL    HW129072   1.319   1.667   6.293 -1.3409  0.6105  0.0256
 5870SOL    HW229073   1.396   1.790   6.280 -0.2844 -0.6743 -1.1277
 5871SOL     OW29074   4.248   4.699   2.116 -0.2922 -0.3358 -0.4218
 5871SOL    HW129075   4.252   4.678   2.209  1.7158 -0.7398 -0.5877
 5871SOL    HW229076   4.341   4.693   2.094 -0.1331  0.4154  0.0302
 5872SOL     OW29077   3.242   1.684   7.784 -0.3540  0.3650  0.6351
 5872SOL    HW129078   3.280   1.769   7.806  1.9295 -0.3907 -0.4046
 5872SOL    HW229079   3.271   1.629   7.857  2.0413  2.5480  1.3200
 5873SOL     OW29080   3.755   4.633  12.387 -0.4964 -0.4335  0.6256
 5873SOL    HW129081   3.774   4.628  12.481  0.5736  1.1492  0.4948
 5873SOL    HW229082   3.845   4.639  12.355 -0.2907 -2.7659  0.7641
 5874SOL     OW29083   3.679   3.741   8.646 -0.6140  0.3135 -0.0451
 5874SOL    HW129084   3.734   3.663   8.638  1.0150  1.2948  1.5335
 5874SOL    HW229085   3.749   3.804   8.664  1.4678 -2.2488  0.8668
 5875SOL     OW29086   4.336   1.367  12.530 -0.4126  0.3693 -0.1668
 5875SOL    HW129087   4.405   1.341  12.590  0.1965  2.4075 -0.0033
 5875SOL    HW229088   4.363   1.305  12.462 -1.7043  0.3060 -0.6261
 5876SOL     OW29089   2.652   1.146   7.986 -0.4602 -0.2961  0.1581
 5876SOL    HW129090   2.677   1.220   7.930 -2.1402 -1.4319 -2.0694
 5876SOL    HW229091   2.588   1.194   8.038  1.2250  0.2974  1.7148
 5877SOL     OW29092   1.015   0.271   4.708 -0.2545  0.1524  0.2585
 5877SOL    HW129093   0.965   0.225   4.641 -0.3326 -0.1949  0.5536
 5877SOL    HW229094   0.965   0.257   4.789 -0.3471 -1.7490 -0.1330
 5878SOL     OW29095   2.546   3.897   3.515  0.0618  0.3397  0.3427
 5878SOL    HW129096   2.513   3.810   3.540 -0.3805  1.2672  2.9697
 5878SOL    HW229097   2.631   3.880   3.555  0.9025 -1.4674 -2.2128
 5879SOL     OW29098   4.710   1.035   4.484 -0.0037 -0.4051 -0.1606
 5879SOL    HW129099   0.021   1.108   4.432  0.6413 -0.3315  0.3648
 5879SOL    HW229100   4.631   1.023   4.432  0.3797 -0.5858 -0.6932
 5880SOL     OW29101   1.132   2.586   4.304  0.1611  0.1184  0.5253
 5880SOL    HW129102   1.084   2.530   4.364 -0.1216  0.4620  0.6168
 5880SOL    HW229103   1.179   2.507   4.276  2.4143  1.4561  0.5649
 5881SOL     OW29104   1.379   4.179  16.895 -0.2122 -0.2828  0.1500
 5881SOL    HW129105   1.320   4.170  16.820 -0.2408  0.7824  0.0399
 5881SOL    HW229106   1.325   4.238  16.948 -0.4716  0.1110 -0.5537
 5882SOL     OW29107   3.138   1.937   8.494  0.5006 -0.2125  0.0492
 5882SOL    HW129108   3.113   1.982   8.575 -0.5667 -0.3990 -0.1821
 5882SOL    HW229109   3.062   1.953   8.438 -2.4906 -1.5778  3.7235
 5883SOL     OW29110   1.226   4.463   8.425 -0.0886 -0.1201 -0.0462
 5883SOL    HW129111   1.298   4.508   8.380 -0.4265 -1.4610 -1.9086
 5883SOL    HW229112   1.259   4.374   8.422  0.5335  0.0517  1.9436
 5884SOL     OW29113   3.789   2.569   4.469  0.1562 -0.5580  0.0547
 5884SOL    HW129114   3.807   2.475   4.463  1.4787 -0.4226  1.7915
 5884SOL    HW229115   3.872   2.592   4.511 -0.6156  1.6721  0.3666
 5885SOL     OW29116   0.123   4.312  15.495 -0.1482 -1.0434 -0.0498
 5885SOL    HW129117   0.141   4.273  15.410  2.9539  1.5219 -0.5377
 5885SOL    HW229118   0.097   4.230  15.539  0.9190 -1.8385 -0.9247
 5886SOL     OW29119   0.626   2.869  13.579  0.1045  0.0753  0.1562
 5886SOL    HW129120   0.679   2.790  13.576  0.2168  0.2627 -2.3385
 5886SOL    HW229121   0.609   2.886  13.486 -0.6294 -2.0788 -0.0940
 5887SOL     OW29122   3.491   0.958   3.011  0.2191  0.0959 -0.5958
 5887SOL    HW129123   3.545   0.881   2.993 -0.9394 -0.7660 -0.3945
 5887SOL    HW229124   3.448   0.961   2.926 -1.2672  0.1150  0.1505
 5888SOL     OW29125   3.613   1.722   5.289 -0.1523  0.1588 -0.6603
 5888SOL    HW129126   3.673   1.649   5.276 -1.3407 -1.1778  1.2590
 5888SOL    HW229127   3.534   1.709   5.237 -0.7314 -1.0444  0.5074
 5889SOL     OW29128   2.946   3.465   8.682  0.3168  0.2694  0.2709
 5889SOL    HW129129   2.965   3.440   8.591 -1.1252 -1.8077  0.5269
 5889SOL    HW229130   3.000   3.408   8.737 -0.3332  0.0278  0.6577
 5890SOL     OW29131   4.622   3.180  11.784  0.0817 -0.2805 -0.0198
 5890SOL    HW129132   4.694   3.166  11.846 -0.0141  0.6970  0.3172
 5890SOL    HW229133   4.550   3.190  11.846 -0.1225  1.2402 -0.4834
 5891SOL     OW29134   2.491   2.304  11.230 -0.6086 -0.4355 -0.3831
 5891SOL    HW129135   2.549   2.376  11.255 -0.2431 -0.7316 -0.3898
 5891SOL    HW229136   2.482   2.251  11.309 -0.9578  0.7067  0.3451
 5892SOL     OW29137   1.369   4.302   5.478  0.4858  0.1375  0.0361
 5892SOL    HW129138   1.342   4.223   5.524  0.6129 -0.2580 -0.5629
 5892SOL    HW229139   1.301   4.365   5.503  0.8787  0.7484 -0.4208
 5893SOL     OW29140   1.188   1.065   9.594 -0.4146 -0.0640  0.6884
 5893SOL    HW129141   1.162   1.157   9.583 -1.5982 -0.6132 -1.1367
 5893SOL    HW229142   1.267   1.061   9.647  1.2084 -1.8041 -1.8547
 5894SOL     OW29143   3.823   2.463   7.802  0.0985 -0.4389  0.0394
 5894SOL    HW129144   3.847   2.516   7.879  2.2372  0.1768 -1.0419
 5894SOL    HW229145   3.743   2.419   7.830  0.3712 -0.5348  0.6860
 5895SOL     OW29146   1.139   3.623   0.783  0.6219  0.2206 -0.1241
 5895SOL    HW129147   1.097   3.621   0.869  0.0643 -1.7187 -0.4345
 5895SOL    HW229148   1.229   3.593   0.801  0.1800 -2.1525 -1.8300
 5896SOL     OW29149   4.602   1.619   3.631 -0.4145 -0.1635  0.5768
 5896SOL    HW129150   4.518   1.664   3.640  0.2188  0.8843  1.2311
 5896SOL    HW229151   4.605   1.578   3.718 -3.6032 -1.5377  0.0552
 5897SOL     OW29152   2.926   1.530   0.486 -0.2067 -0.0589  0.4121
 5897SOL    HW129153   2.978   1.455   0.516 -1.2577 -0.4644  1.2172
 5897SOL    HW229154   2.888   1.497   0.405  3.5639  1.6896 -2.0759
 5898SOL     OW29155   1.231   2.386   5.218  0.0896 -0.2002  0.1911
 5898SOL    HW129156   1.197   2.381   5.128  1.7753 -1.0193 -0.3923
 5898SOL    HW229157   1.196   2.473   5.240 -2.8819 -1.2383 -0.3345
 5899SOL     OW29158   4.489   2.522  17.055 -0.0735 -0.1317  0.2179
 5899SOL    HW129159   4.447   2.475  17.127 -0.1959  1.2772  1.0735
 5899SOL    HW229160   4.581   2.495  17.054  0.5918  2.2553 -1.4550
 5900SOL     OW29161   2.825   0.154   2.116 -0.0470  0.5371  0.4628
 5900SOL    HW129162   2.772   0.078   2.141 -0.4977  1.4569  2.2393
 5900SOL    HW229163   2.905   0.120   2.157 -0.1052  1.4989  1.3421
 5901SOL     OW29164   0.662   2.936  13.309  0.5231 -0.4339  0.5455
 5901SOL    HW129165   0.736   2.978  13.266  0.4362  0.4727  1.2781
 5901SOL    HW229166   0.593   2.971  13.252  0.6465  0.1855  0.7781
 5902SOL     OW29167   4.149   4.542   0.813  0.1760  0.1305  0.1235
 5902SOL    HW129168   4.198   4.574   0.737  0.6906 -1.5154 -0.2272
 5902SOL    HW229169   4.067   4.524   0.766 -0.5121 -1.4364  1.9608
 5903SOL     OW29170   2.363   3.784   9.856  0.0591 -0.2755 -0.0464
 5903SOL    HW129171   2.329   3.855   9.912 -0.4019  0.7116 -1.5790
 5903SOL    HW229172   2.388   3.720   9.922  1.6622  2.1264  1.7263
 5904SOL     OW29173   1.541   2.940  11.542 -0.1038 -0.0875  0.0420
 5904SOL    HW129174   1.510   3.029  11.527 -0.7135 -0.2215  0.5173
 5904SOL    HW229175   1.465   2.885  11.524 -0.2785 -0.1341  0.9151
 5905SOL     OW29176   1.011   1.904   9.541  0.5126 -0.2480 -0.1528
 5905SOL    HW129177   1.105   1.923   9.540  0.2341  1.0793 -1.1079
 5905SOL    HW229178   0.982   1.988   9.577 -1.0961 -0.5412 -0.7924
 5906SOL     OW29179   1.010   3.691  11.266 -0.6586 -0.2176 -0.0188
 5906SOL    HW129180   1.033   3.619  11.325 -0.1368  0.7101  0.9079
 5906SOL    HW229181   0.914   3.685  11.265 -0.6417 -0.6168  0.5190
 5907SOL     OW29182   3.682   1.540   8.220  0.1045 -0.0508 -0.4202
 5907SOL    HW129183   3.596   1.502   8.238  0.2607 -0.7012 -1.0233
 5907SOL    HW229184   3.718   1.548   8.308 -1.1062 -3.6715  0.4215
 5908SOL     OW29185   1.729   4.006   9.015 -0.6524  0.1618 -0.4743
 5908SOL    HW129186   1.637   4.031   9.030 -0.8991 -1.2930  0.3543
 5908SOL    HW229187   1.754   3.966   9.098 -1.7186  0.2785 -0.0949
 5909SOL     OW29188   2.516   0.920   0.060  0.1159  0.1597  0.0597
 5909SOL    HW129189   2.425   0.895   0.073  0.7536 -2.0993  0.1017
 5909SOL    HW229190   2.496   1.007   0.025  1.3170  0.3106 -0.2322
 5910SOL     OW29191   4.631   0.089   8.007 -0.1169 -0.3901 -0.0514
 5910SOL    HW129192   4.560   0.152   7.993 -0.7278 -1.2523 -0.8389
 5910SOL    HW229193   4.677   0.103   7.924 -2.7513 -0.0319 -1.4471
 5911SOL     OW29194   1.273   0.874   0.994  0.0229  0.3411  0.1830
 5911SOL    HW129195   1.285   0.968   1.007 -2.7543  0.8409 -0.7669
 5911SOL    HW229196   1.239   0.853   1.082  1.9519  0.2842  0.9252
 5912SOL     OW29197   1.723   4.579  17.573  0.5117 -0.3246 -0.8612
 5912SOL    HW129198   1.716   4.506  17.512  0.2069 -1.1953  0.2184
 5912SOL    HW229199   1.758   4.549  17.656 -0.6631 -0.0095 -0.2520
 5913SOL     OW29200   2.691   3.125   6.569 -0.2080  0.0155  0.8934
 5913SOL    HW129201   2.687   3.051   6.508  0.2533  0.3559  0.4549
 5913SOL    HW229202   2.784   3.136   6.589  0.0496  1.0666 -0.9914
 5914SOL     OW29203   2.268   4.347   6.332  0.9296  0.5724  0.0785
 5914SOL    HW129204   2.198   4.404   6.362  0.1961 -0.2477 -0.0537
 5914SOL    HW229205   2.311   4.320   6.413 -1.0527  0.1934  1.0125
 5915SOL     OW29206   3.502   1.973   5.307  0.7515  0.0315 -0.3945
 5915SOL    HW129207   3.530   2.003   5.394  1.5447  1.5731 -1.1775
 5915SOL    HW229208   3.540   1.887   5.296  2.6300  0.7997  0.1303
 5916SOL     OW29209   0.889   2.923   6.993 -0.1020  0.0711 -0.1712
 5916SOL    HW129210   0.822   2.972   6.945 -0.2313  1.7226  1.7507
 5916SOL    HW229211   0.918   2.992   7.052  3.2598 -0.2752 -1.4503
 5917SOL     OW29212   1.272   2.521   0.273 -0.0413  0.2362  0.2232
 5917SOL    HW129213   1.271   2.571   0.354 -1.2317 -3.1845  2.3500
 5917SOL    HW229214   1.340   2.454   0.282 -1.7201 -1.4978  0.0517
 5918SOL     OW29215   0.368   3.035   5.930 -0.1629  0.2702 -0.4014
 5918SOL    HW129216   0.329   2.967   5.875  0.0673  0.1387 -0.4040
 5918SOL    HW229217   0.401   2.982   6.002  0.8100  2.1783  0.5762
 5919SOL     OW29218   3.781   4.117  15.013 -0.1380  0.6956 -0.4584
 5919SOL    HW129219   3.707   4.175  15.028  0.1817  1.4733 -1.9312
 5919SOL    HW229220   3.854   4.168  15.048 -0.2340  1.3446 -1.2099
 5920SOL     OW29221   2.539   2.572   2.984  0.0811 -0.1086  0.3196
 5920SOL    HW129222   2.451   2.552   3.014 -0.2974 -0.9650 -1.3601
 5920SOL    HW229223   2.566   2.615   3.065  0.8089 -2.1281  1.1265
 5921SOL     OW29224   0.352   2.596  13.447  0.1460 -0.3327 -0.5825
 5921SOL    HW129225   0.313   2.608  13.533 -0.3550  1.6604 -1.0779
 5921SOL    HW229226   0.424   2.542  13.480  0.3524  1.5459  2.0410
 5922SOL     OW29227   4.157   4.361   5.996 -0.0083 -0.0612 -0.5492
 5922SOL    HW129228   4.230   4.423   5.998 -1.3045  1.4580 -1.1063
 5922SOL    HW229229   4.104   4.387   6.071 -1.3865  1.7053 -2.1429
 5923SOL     OW29230   0.484   1.237   9.533 -0.3074 -0.0131 -0.9280
 5923SOL    HW129231   0.570   1.281   9.533 -1.0861  1.4876  2.0864
 5923SOL    HW229232   0.439   1.282   9.462 -0.1073  2.7382  0.6787
 5924SOL     OW29233   1.418   2.505   3.605  0.0650 -0.6017  0.1806
 5924SOL    HW129234   1.347   2.497   3.541  2.2526  1.5204 -2.4890
 5924SOL    HW229235   1.448   2.596   3.601  2.3085 -1.4794 -2.9430
 5925SOL     OW29236   3.516   2.479   3.830 -0.2387  0.0737 -0.0036
 5925SOL    HW129237   3.540   2.537   3.758  0.7194 -0.2600  0.0436
 5925SOL    HW229238   3.537   2.520   3.914 -1.3760 -0.1010  0.3646
 5926SOL     OW29239   1.476   0.228   8.199 -0.4364  0.3726  0.3432
 5926SOL    HW129240   1.547   0.244   8.137  0.0273 -0.4420  0.6534
 5926SOL    HW229241   1.503   0.280   8.274 -0.1232  2.6572 -1.3583
 5927SOL     OW29242   0.669   1.023  14.105 -0.2161  0.2890 -0.2426
 5927SOL    HW129243   0.648   1.036  14.012  2.4525 -1.5988 -1.0877
 5927SOL    HW229244   0.625   0.939  14.115 -0.0546  0.1813 -0.4642
 5928SOL     OW29245   0.237   4.149   8.675  0.5302 -0.5852 -0.0422
 5928SOL    HW129246   0.266   4.128   8.764  1.5318 -1.2361 -0.5201
 5928SOL    HW229247   0.145   4.125   8.684  0.6420  0.1874  3.1455
 5929SOL     OW29248   2.828   1.514  15.384  0.3681 -0.0904  0.5178
 5929SOL    HW129249   2.876   1.524  15.467 -0.2531  1.7965  0.6504
 5929SOL    HW229250   2.763   1.448  15.408 -0.5127  1.3729  2.1653
 5930SOL     OW29251   4.095   4.068   6.925  0.7520  0.0602  0.0155
 5930SOL    HW129252   4.084   4.012   6.848  0.0383  0.9698 -0.5492
 5930SOL    HW229253   4.002   4.072   6.948  0.7269 -0.7364  0.0316
 5931SOL     OW29254   4.026   1.941  10.588  0.3690 -0.1767  0.0910
 5931SOL    HW129255   3.984   1.959  10.672 -0.1927  2.0660 -0.6814
 5931SOL    HW229256   3.958   1.962  10.524 -1.2786 -0.1797  1.8694
 5932SOL     OW29257   0.743   2.409   5.810 -0.1530 -0.0323 -0.3675
 5932SOL    HW129258   0.727   2.333   5.754 -2.2569 -0.4887  0.8849
 5932SOL    HW229259   0.815   2.449   5.761  1.4756 -1.1642  1.1004
 5933SOL     OW29260   0.050   3.722   8.260  0.2433  0.3215 -0.2150
 5933SOL    HW129261   0.109   3.671   8.204 -1.5750 -0.4037 -1.5158
 5933SOL    HW229262   0.102   3.800   8.242  0.0287  0.4672 -0.2076
 5934SOL     OW29263   0.303   1.534   7.413 -0.0561 -0.6641 -0.2919
 5934SOL    HW129264   0.244   1.473   7.458 -1.1239  0.7174  0.1697
 5934SOL    HW229265   0.264   1.614   7.449  1.1034 -0.6832  1.0237
 5935SOL     OW29266   0.434   4.462   3.568 -0.3338  0.7538  0.6064
 5935SOL    HW129267   0.436   4.412   3.649  2.4278 -0.0760  0.0350
 5935SOL    HW229268   0.464   4.396   3.506  2.8856  1.5487  1.3110
 5936SOL     OW29269   0.806   4.469  14.347  0.3010 -0.1895  0.1874
 5936SOL    HW129270   0.784   4.463  14.254  2.4824 -2.0461 -0.2011
 5936SOL    HW229271   0.816   4.561  14.370  2.7309 -0.9263  2.1157
 5937SOL     OW29272   1.857   3.699  11.600  0.4117  0.1073  0.1642
 5937SOL    HW129273   1.928   3.712  11.538 -1.6956 -0.9725 -2.4970
 5937SOL    HW229274   1.790   3.646  11.556  0.2598  0.3246  0.1360
 5938SOL     OW29275   1.627   4.537   1.708 -0.0441 -0.2523 -0.1253
 5938SOL    HW129276   1.555   4.515   1.767 -0.9644 -1.6164 -1.7433
 5938SOL    HW229277   1.698   4.513   1.767  0.9839  0.6641 -0.9823
 5939SOL     OW29278   1.553   1.068   5.826 -0.5718  0.7382  0.0350
 5939SOL    HW129279   1.495   1.113   5.887  0.6987  2.1058  0.2665
 5939SOL    HW229280   1.519   1.086   5.738 -1.3086 -1.6033 -0.1377
 5940SOL     OW29281   0.325   1.767   0.105 -0.2213  0.3289 -0.4412
 5940SOL    HW129282   0.331   1.759   0.200  0.1203  2.8201 -0.2489
 5940SOL    HW229283   0.272   1.696   0.069  1.4738 -0.5779 -1.1356
 5941SOL     OW29284   3.006   1.317  15.631  0.3563 -0.7263  0.1574
 5941SOL    HW129285   3.014   1.392  15.691  0.8064  1.2600 -2.3569
 5941SOL    HW229286   2.967   1.251  15.687 -0.7349 -1.5247 -1.5467
 5942SOL     OW29287   0.526   3.523   3.177 -0.7161 -0.4770  0.0053
 5942SOL    HW129288   0.516   3.530   3.082 -1.0163  1.8337  0.2047
 5942SOL    HW229289   0.444   3.477   3.197 -0.6960 -0.2652  0.5866
 5943SOL     OW29290   3.765   2.994   7.685  0.1874  0.4778 -0.4092
 5943SOL    HW129291   3.845   2.953   7.652 -0.7448 -0.3861 -1.5846
 5943SOL    HW229292   3.765   2.963   7.775 -0.4302 -1.3505 -1.0375
 5944SOL     OW29293   1.940   0.040   3.987  0.1222  0.3963 -0.0491
 5944SOL    HW129294   2.013   0.097   3.963 -0.5382  1.0981 -0.4193
 5944SOL    HW229295   1.956   4.691   3.927  0.4255  0.7035 -0.3373
 5945SOL     OW29296   4.707   4.452   8.452  0.0419 -0.1283 -0.0978
 5945SOL    HW129297   4.653   4.375   8.470 -1.8467  1.1496 -0.2057
 5945SOL    HW229298   0.060   4.414   8.409  0.3521 -0.0985  0.4405
 5946SOL     OW29299   0.763   3.628  11.651 -0.0178 -0.3326 -0.1523
 5946SOL    HW129300   0.703   3.554  11.643  0.4066 -0.7155  0.1659
 5946SOL    HW229301   0.845   3.589  11.620 -0.4868 -0.1232 -1.6509
 5947SOL     OW29302   1.520   0.306   2.116 -0.0800 -0.3846 -0.1769
 5947SOL    HW129303   1.525   0.269   2.204  1.3817 -0.4946 -0.3063
 5947SOL    HW229304   1.458   0.376   2.137 -0.6578 -1.1897  0.7783
 5948SOL     OW29305   1.063   3.641  15.620 -0.2923  0.2370 -0.0489
 5948SOL    HW129306   0.974   3.630  15.587 -0.3099  0.4931 -0.0806
 5948SOL    HW229307   1.085   3.731  15.596 -1.9636  0.8253  0.6269
 5949SOL     OW29308   1.807   1.971   1.871  0.3227  0.0537  0.1087
 5949SOL    HW129309   1.859   2.044   1.838 -1.0470  0.0957 -1.9590
 5949SOL    HW229310   1.833   1.910   1.802  4.1476  1.3810  0.3806
 5950SOL     OW29311   1.582   4.627   3.909 -0.4930 -0.3296  0.3067
 5950SOL    HW129312   1.622   4.713   3.919 -1.4702  0.3915 -1.9898
 5950SOL    HW229313   1.522   4.635   3.983 -0.1688 -0.4839  0.5845
 5951SOL     OW29314   2.593   2.309  15.088  0.1173  0.3021  0.2205
 5951SOL    HW129315   2.552   2.366  15.024  3.6876  0.4887 -1.8977
 5951SOL    HW229316   2.683   2.320  15.057  0.0481  0.6630  0.1442
 5952SOL     OW29317   3.608   0.863  17.425  0.4520  0.7645 -0.2923
 5952SOL    HW129318   3.572   0.950  17.407  0.4874  0.9991  0.7562
 5952SOL    HW229319   3.559   0.855  17.507 -0.3301 -1.7381 -1.0163
 5953SOL     OW29320   4.509   1.052   5.005  0.5740  0.0767 -0.4783
 5953SOL    HW129321   4.520   1.073   4.912 -0.7354 -1.8449 -1.0576
 5953SOL    HW229322   4.485   1.136   5.043 -5.4325 -1.0660 -1.7748
 5954SOL     OW29323   1.136   3.032   2.824 -0.2112 -0.6378  0.1892
 5954SOL    HW129324   1.106   2.945   2.796  2.4479 -1.7173  0.6369
 5954SOL    HW229325   1.060   3.077   2.859 -0.0803  0.3884 -0.8213
 5955SOL     OW29326   2.312   4.237   7.681 -0.4278  0.5448  0.5353
 5955SOL    HW129327   2.353   4.322   7.698 -1.3982  0.4961  3.0313
 5955SOL    HW229328   2.237   4.273   7.635  2.1159  1.5773 -2.8332
 5956SOL     OW29329   4.267   2.472  10.377  0.6376  0.1119 -0.1345
 5956SOL    HW129330   4.184   2.446  10.336  0.8026 -0.8383  0.1601
 5956SOL    HW229331   4.255   2.567  10.385 -0.5495  0.0951 -1.6312
 5957SOL     OW29332   2.020   2.784  15.277  0.0304  0.0869 -0.0620
 5957SOL    HW129333   2.115   2.793  15.277  0.0396 -0.0163  0.1318
 5957SOL    HW229334   2.003   2.878  15.283 -1.0774 -0.1812  0.9535
 5958SOL     OW29335   1.091   0.557  15.133 -0.2874 -0.6751  0.0004
 5958SOL    HW129336   1.129   0.644  15.140  2.0832 -1.8322  1.5138
 5958SOL    HW229337   1.155   0.507  15.184  0.1029  1.2419  1.3818
 5959SOL     OW29338   0.197   1.969   3.019  0.4818  0.0572  0.5466
 5959SOL    HW129339   0.257   2.038   3.046  0.3219 -0.1214  1.3495
 5959SOL    HW229340   0.174   1.938   3.106 -0.8624  0.2719  0.2722
 5960SOL     OW29341   3.474   1.703   7.368 -0.0847 -0.2916 -0.0949
 5960SOL    HW129342   3.408   1.769   7.386 -1.2898 -1.4416 -0.2830
 5960SOL    HW229343   3.472   1.702   7.272 -0.3359  0.3466 -0.0929
 5961SOL     OW29344   4.297   0.734   6.548 -0.3024 -0.0551  0.4084
 5961SOL    HW129345   4.359   0.708   6.479  1.1604 -0.4907  1.8691
 5961SOL    HW229346   4.351   0.709   6.624 -2.7153 -2.5810  1.2896
 5962SOL     OW29347   3.293   2.610  13.908  0.4000 -0.1555 -0.2063
 5962SOL    HW129348   3.350   2.546  13.864 -0.9321 -0.4636 -1.4685
 5962SOL    HW229349   3.242   2.639  13.833 -0.6688 -1.5000 -0.0038
 5963SOL     OW29350   0.286   3.388   7.836 -0.1018  0.6475 -0.0323
 5963SOL    HW129351   0.198   3.406   7.802  0.5180 -0.0274 -1.9994
 5963SOL    HW229352   0.301   3.474   7.875 -0.3338  1.0867 -0.9142
 5964SOL     OW29353   0.748   1.383   7.238  0.1704 -0.3807  0.0295
 5964SOL    HW129354   0.659   1.417   7.225  0.4024 -0.6777 -2.3726
 5964SOL    HW229355   0.767   1.408   7.328 -0.4388 -1.0204  0.3431
 5965SOL     OW29356   3.323   1.976   8.815  0.3670 -0.4506 -0.8754
 5965SOL    HW129357   3.249   2.034   8.836 -0.4557 -1.7270 -0.2366
 5965SOL    HW229358   3.286   1.904   8.866 -0.7237  0.4042 -0.4337
 5966SOL     OW29359   3.883   1.299   4.464  0.2098  0.0864 -0.0827
 5966SOL    HW129360   3.891   1.320   4.371  1.7484 -0.1804 -0.0093
 5966SOL    HW229361   3.910   1.379   4.508  0.1185 -1.3543  2.6023
 5967SOL     OW29362   0.098   1.044   6.611  0.2673 -0.0532  0.0535
 5967SOL    HW129363   0.190   1.020   6.612  0.7643  1.6656 -4.1072
 5967SOL    HW229364   0.097   1.107   6.684  0.8566  2.6002 -2.2520
 5968SOL     OW29365   0.306   2.328   1.554 -0.3601  0.0031 -0.2227
 5968SOL    HW129366   0.219   2.342   1.590  0.8630  2.1140  1.8326
 5968SOL    HW229367   0.352   2.411   1.565 -1.9288  0.6955  1.0794
 5969SOL     OW29368   3.134   0.345  11.494  0.0324 -0.4737 -0.1893
 5969SOL    HW129369   3.152   0.362  11.586  1.8296 -1.0420 -0.4377
 5969SOL    HW229370   3.062   0.282  11.497 -1.3182  1.0042 -1.2682
 5970SOL     OW29371   4.177   0.273   3.305 -0.2551 -0.1199  0.2948
 5970SOL    HW129372   4.120   0.207   3.266 -1.3716  1.2669 -0.4218
 5970SOL    HW229373   4.128   0.283   3.387  3.3587  0.2601  2.4207
 5971SOL     OW29374   1.875   4.311   2.152  0.1674  0.3574 -0.3681
 5971SOL    HW129375   1.907   4.390   2.196 -1.0842 -0.4371  1.9570
 5971SOL    HW229376   1.946   4.291   2.091  1.0989  0.9409  0.5236
 5972SOL     OW29377   1.253   3.721   1.089 -0.9107 -0.0070 -0.6314
 5972SOL    HW129378   1.211   3.780   1.027 -1.4714 -0.7789 -0.9948
 5972SOL    HW229379   1.187   3.714   1.159  0.4040  0.5967  0.6690
 5973SOL     OW29380   1.879   2.307  14.317 -0.8122  0.0515  0.5368
 5973SOL    HW129381   1.930   2.228  14.297  1.1994  1.2798  0.8475
 5973SOL    HW229382   1.794   2.267  14.301 -0.0898 -1.2305 -0.1271
 5974SOL     OW29383   2.582   3.987   6.305  0.0177  0.2293 -0.6197
 5974SOL    HW129384   2.496   3.997   6.264 -0.8233 -0.6643  0.9107
 5974SOL    HW229385   2.631   3.935   6.242 -0.7453  1.0254 -1.8591
 5975SOL     OW29386   4.388   1.096   6.519  0.1071 -0.0124  0.1029
 5975SOL    HW129387   4.453   1.161   6.493  0.0400 -0.8623 -2.2517
 5975SOL    HW229388   4.448   1.030   6.553  0.3334 -0.6828 -1.6144
 5976SOL     OW29389   3.042   0.704   9.336  0.5621  0.0340 -0.0801
 5976SOL    HW129390   3.075   0.737   9.253  0.1605 -0.7029 -0.5290
 5976SOL    HW229391   3.093   0.758   9.396 -2.5374  0.5716  2.0663
 5977SOL     OW29392   1.608   2.482   9.587  0.5957 -0.7883 -0.6157
 5977SOL    HW129393   1.617   2.464   9.494 -1.0588  1.0608 -1.1240
 5977SOL    HW229394   1.528   2.534   9.594  0.4559 -0.8093 -2.0873
 5978SOL     OW29395   3.730   3.843   0.092  0.2526  0.0395  0.5833
 5978SOL    HW129396   3.662   3.803   0.039 -1.4789  0.5628  2.3703
 5978SOL    HW229397   3.787   3.869   0.020  0.2075 -0.1403  0.4842
 5979SOL     OW29398   1.480   3.843   3.778  0.6396 -0.1571 -0.0559
 5979SOL    HW129399   1.561   3.802   3.808  0.4312 -1.0491 -0.7211
 5979SOL    HW229400   1.458   3.797   3.697 -0.3246  0.4310 -0.1303
 5980SOL     OW29401   2.542   2.129   3.174  0.0166 -0.4485  0.5380
 5980SOL    HW129402   2.596   2.184   3.117  1.6695 -1.6136  0.9445
 5980SOL    HW229403   2.453   2.147   3.145  0.7632 -1.8609 -2.6986
 5981SOL     OW29404   0.991   2.812  15.891 -0.1643 -0.5482 -0.1582
 5981SOL    HW129405   1.050   2.814  15.967 -0.4515  1.6457  0.0162
 5981SOL    HW229406   1.050   2.820  15.816 -2.6769 -0.2570 -2.0932
 5982SOL     OW29407   1.032   3.131   5.982  0.0367 -0.4906 -0.6346
 5982SOL    HW129408   1.107   3.189   5.995 -1.4665  1.3981 -0.3857
 5982SOL    HW229409   1.057   3.102   5.894 -2.8191  1.8593 -2.2232
 5983SOL     OW29410   2.189   4.339  12.972 -0.0582 -0.9802 -0.3998
 5983SOL    HW129411   2.276   4.342  13.011 -0.9728  0.2553  1.5537
 5983SOL    HW229412   2.146   4.265  13.016  0.1642  0.1727  1.7530
 5984SOL     OW29413   0.823   2.157   7.797 -0.3572  0.1362 -0.3303
 5984SOL    HW129414   0.879   2.188   7.726  0.5578  0.0538  0.3533
 5984SOL    HW229415   0.817   2.244   7.837  0.1970 -0.3762  0.8961
 5985SOL     OW29416   1.415   1.102  11.737  0.1555 -0.0486  0.2429
 5985SOL    HW129417   1.504   1.102  11.772  0.0821  2.1396  0.4536
 5985SOL    HW229418   1.363   1.055  11.802  1.9627 -1.3935  0.7193
 5986SOL     OW29419   0.717   3.395   9.529 -0.6622  0.1063 -0.5020
 5986SOL    HW129420   0.794   3.351   9.567 -1.9782 -0.6745  1.2478
 5986SOL    HW229421   0.655   3.373   9.599  0.1484 -0.0146  0.1803
 5987SOL     OW29422   1.755   1.229   4.533 -0.4387  0.1062 -0.9332
 5987SOL    HW129423   1.819   1.296   4.560 -2.3529  1.3393  0.5272
 5987SOL    HW229424   1.785   1.146   4.569 -0.2919  0.1754 -0.8933
 5988SOL     OW29425   1.039   4.177   3.139  0.0041  0.1167  0.5924
 5988SOL    HW129426   1.020   4.156   3.048  2.7980  1.1488 -0.1964
 5988SOL    HW229427   1.102   4.249   3.134 -0.4591  0.6151  1.9224
 5989SOL     OW29428   1.755   1.642   7.402 -0.4174  0.2177  0.4028
 5989SOL    HW129429   1.682   1.586   7.375 -0.7559  0.6997  0.3304
 5989SOL    HW229430   1.766   1.610   7.492 -3.4528 -2.7648 -0.2444
 5990SOL     OW29431   4.664   3.516   8.002 -0.1795  0.2331  0.1275
 5990SOL    HW129432   4.706   3.545   8.083 -0.7052  0.9050  0.1603
 5990SOL    HW229433   4.591   3.460   8.030  0.1913 -0.8476 -1.0176
 5991SOL     OW29434   4.106   0.549   0.157 -0.3528 -0.4278 -0.2616
 5991SOL    HW129435   4.060   0.536   0.073 -1.9661 -0.1939  0.5843
 5991SOL    HW229436   4.136   0.639   0.150  0.1319 -0.6499 -1.0536
 5992SOL     OW29437   4.430   1.515   7.111 -0.0662 -0.1350 -0.0526
 5992SOL    HW129438   4.470   1.435   7.076 -0.2585 -0.8400  1.2959
 5992SOL    HW229439   4.483   1.547   7.184  2.0503  0.1714 -1.7201
 5993SOL     OW29440   1.173   4.686   0.086 -0.9488  0.0326 -0.4925
 5993SOL    HW129441   1.160   4.653   0.175 -0.6197 -0.2900 -0.5668
 5993SOL    HW229442   1.081   4.680   0.058 -0.5414 -2.7253 -1.2577
 5994SOL     OW29443   1.908   2.169  13.164  0.1233  0.0153  0.0262
 5994SOL    HW129444   1.833   2.153  13.105 -0.7340  1.4622  0.7342
 5994SOL    HW229445   1.870   2.129  13.242 -0.5158 -1.6272 -1.1038
 5995SOL     OW29446   0.912   1.586   3.936  0.3292  0.0943 -0.1601
 5995SOL    HW129447   0.970   1.630   3.998  2.0963 -1.3828 -0.7771
 5995SOL    HW229448   0.934   1.493   3.941 -1.7811 -0.4735 -1.3314
 5996SOL     OW29449   0.942   4.664   2.554 -0.4047  0.0789 -0.3782
 5996SOL    HW129450   1.036   4.644   2.557 -0.6373 -0.8369  0.6934
 5996SOL    HW229451   0.919   4.619   2.473 -1.5946 -0.7643  0.4330
 5997SOL     OW29452   0.377   4.468   3.217 -0.1197  0.1834 -0.7289
 5997SOL    HW129453   0.457   4.431   3.255  0.0955  1.4036 -0.0065
 5997SOL    HW229454   0.338   4.486   3.303  0.7085  1.3527 -0.6037
 5998SOL     OW29455   2.209   1.198  10.883  0.3308 -0.0497  0.6966
 5998SOL    HW129456   2.122   1.163  10.861 -0.8745  2.0743  2.1302
 5998SOL    HW229457   2.203   1.293  10.880  0.4309 -0.0901 -0.8045
 5999SOL     OW29458   2.953   3.195  11.093  0.7470  0.3514  0.4780
 5999SOL    HW129459   2.861   3.217  11.078  0.5918 -0.0299  0.8716
 5999SOL    HW229460   2.975   3.253  11.166  1.6455  0.1608  0.3545
 6000SOL     OW29461   1.727   2.922   4.899  0.7099  0.1199 -0.1698
 6000SOL    HW129462   1.649   2.870   4.881 -0.2362  1.2447  0.6263
 6000SOL    HW229463   1.709   2.992   4.835 -0.5287  0.3321  0.3994
 6001SOL     OW29464   1.556   0.664  13.256 -0.3319  0.3848  0.0772
 6001SOL    HW129465   1.530   0.749  13.291  0.9309  1.5838 -1.8768
 6001SOL    HW229466   1.485   0.608  13.288  1.1780 -1.5282  0.1121
 6002SOL     OW29467   4.538   0.064   2.895  0.0943 -0.2808 -0.1343
 6002SOL    HW129468   4.616   0.054   2.950 -0.1482  1.8493  0.5974
 6002SOL    HW229469   4.551   0.142   2.840  0.0670 -0.8976 -1.0230
 6003SOL     OW29470   2.582   4.154   9.045 -0.3732  0.2508  0.5009
 6003SOL    HW129471   2.523   4.103   8.990  1.3070 -0.2223 -0.8472
 6003SOL    HW229472   2.575   4.241   9.007  2.2139  0.1384 -0.2195
 6004SOL     OW29473   0.176   4.607   9.748 -0.4850  0.2736 -0.1890
 6004SOL    HW129474   0.084   4.580   9.750 -0.4041 -0.0067 -0.1609
 6004SOL    HW229475   0.168   4.701   9.733  1.2602  0.4578  0.0153
 6005SOL     OW29476   3.697   4.296   3.659 -0.0233 -0.5535 -0.1307
 6005SOL    HW129477   3.663   4.216   3.619  1.1247 -0.9709 -0.2910
 6005SOL    HW229478   3.616   4.322   3.702  2.6074  1.9454  3.2764
 6006SOL     OW29479   1.539   0.187   5.357  0.0080 -0.1746  0.3756
 6006SOL    HW129480   1.568   0.278   5.351  0.4409 -0.2704  1.0141
 6006SOL    HW229481   1.537   0.172   5.451  2.9581 -0.5609  0.3818
 6007SOL     OW29482   2.572   2.261   7.291 -0.0986  0.1840  0.1548
 6007SOL    HW129483   2.559   2.167   7.294  0.1072  0.2197  2.7470
 6007SOL    HW229484   2.646   2.269   7.352 -2.3844  0.1054  2.9395
 6008SOL     OW29485   1.876   2.316   4.177  0.1118 -0.3731  0.1438
 6008SOL    HW129486   1.961   2.350   4.149  0.4951  0.8438  2.7989
 6008SOL    HW229487   1.887   2.306   4.272 -2.9083  0.4003  0.5616
 6009SOL     OW29488   1.559   0.867   0.994 -0.7808  1.1302  0.2110
 6009SOL    HW129489   1.463   0.872   0.997 -0.8056 -1.5822  3.8902
 6009SOL    HW229490   1.586   0.915   1.072 -0.9522  0.2699  0.8014
 6010SOL     OW29491   2.570   3.913   1.742  0.7127  0.1836 -0.5124
 6010SOL    HW129492   2.641   3.849   1.741  1.4812  1.0490 -0.9415
 6010SOL    HW229493   2.520   3.873   1.671 -0.4779  2.2199 -0.8351
 6011SOL     OW29494   2.177   1.981  17.637 -0.2454 -0.5444  0.6154
 6011SOL    HW129495   2.087   2.011  17.656  0.5383  1.0477  1.8158
 6011SOL    HW229496   2.174   1.962  17.544 -2.2128  0.9982  0.3403
 6012SOL     OW29497   0.549   1.413  12.324 -0.9800 -0.0998 -0.3783
 6012SOL    HW129498   0.613   1.390  12.257 -0.8413  0.3188 -0.3915
 6012SOL    HW229499   0.601   1.374  12.395 -2.2440 -1.5384 -0.2456
 6013SOL     OW29500   2.274   0.301  14.663  0.6132  0.1854 -0.4644
 6013SOL    HW129501   2.189   0.307  14.618  0.3453  0.9030  0.1241
 6013SOL    HW229502   2.338   0.341  14.603 -0.1710  1.3398 -0.5390
 6014SOL     OW29503   0.974   2.287   3.549 -0.0650  0.1029  0.2171
 6014SOL    HW129504   0.924   2.322   3.475 -0.2547 -1.5829 -0.4507
 6014SOL    HW229505   1.058   2.256   3.514  0.3075 -0.1437  1.3425
 6015SOL     OW29506   2.902   4.705  11.678  0.1016 -0.5199  0.1372
 6015SOL    HW129507   2.864   0.037  11.746  0.6085  0.2423 -0.1941
 6015SOL    HW229508   2.982   4.676  11.722 -1.3188 -0.8903  2.4444
 6016SOL     OW29509   3.948   1.306   8.961 -0.1261 -0.2135  0.3871
 6016SOL    HW129510   4.021   1.316   8.901 -0.7273 -0.4474 -0.3909
 6016SOL    HW229511   3.966   1.373   9.028 -0.9648 -0.8985  1.3078
 6017SOL     OW29512   0.865   3.301  14.849 -0.0626 -0.0248  0.3642
 6017SOL    HW129513   0.853   3.373  14.911 -1.9567  1.2194 -1.4466
 6017SOL    HW229514   0.837   3.340  14.766 -0.4804 -3.6901 -1.2423
 6018SOL     OW29515   0.223   1.343  15.078 -0.0637  0.0904 -0.3606
 6018SOL    HW129516   0.185   1.291  15.008  0.8464 -0.4526 -0.4512
 6018SOL    HW229517   0.199   1.291  15.155  0.7132  0.2027 -0.0354
 6019SOL     OW29518   3.994   4.070   1.412 -0.3715 -0.0653 -0.4117
 6019SOL    HW129519   4.001   4.156   1.453 -0.9325 -0.6427  0.8752
 6019SOL    HW229520   3.940   4.079   1.334 -0.3246 -2.0202 -0.6823
 6020SOL     OW29521   2.568   2.980  17.619  0.0799 -0.3391 -0.0777
 6020SOL    HW129522   2.506   2.911  17.642 -1.0914 -0.2198 -2.9525
 6020SOL    HW229523   2.513   3.058  17.627 -0.2194 -0.4527 -1.0936
 6021SOL     OW29524   1.125   3.879   5.927 -0.1650 -0.2423  0.3599
 6021SOL    HW129525   1.131   3.892   5.832 -0.6826 -0.9194  0.2403
 6021SOL    HW229526   1.216   3.861   5.950 -0.4629 -0.0626  1.6325
 6022SOL     OW29527   2.803   2.186   2.237 -0.0179  0.4942  0.0121
 6022SOL    HW129528   2.872   2.244   2.269 -0.2340  0.4059  0.6468
 6022SOL    HW229529   2.837   2.167   2.150  1.4234 -0.2114  0.7410
 6023SOL     OW29530   1.915   2.298   5.711 -0.0262 -0.0335  0.0856
 6023SOL    HW129531   1.866   2.240   5.654  0.3978  0.4172 -0.7544
 6023SOL    HW229532   2.002   2.259   5.707  0.3946  1.0824 -1.8645
 6024SOL     OW29533   4.250   3.524  12.132 -0.1462 -0.5700 -0.3698
 6024SOL    HW129534   4.209   3.566  12.206 -0.1933 -1.8745  0.3475
 6024SOL    HW229535   4.343   3.537  12.151  0.3141 -0.3270 -2.7221
 6025SOL     OW29536   1.643   0.543   4.512  0.1179  0.3362 -0.0369
 6025SOL    HW129537   1.560   0.533   4.464  0.1564  1.5142 -0.3445
 6025SOL    HW229538   1.692   0.595   4.449  0.0999  0.7627  0.3038
 6026SOL     OW29539   2.483   0.526   6.683 -0.2181  0.5967 -0.2479
 6026SOL    HW129540   2.483   0.476   6.765 -0.1375 -1.1641 -1.3072
 6026SOL    HW229541   2.434   0.467   6.626  1.6265 -0.4532 -0.7489
 6027SOL     OW29542   1.923   0.585   4.581  0.0950 -0.1824 -0.1445
 6027SOL    HW129543   1.850   0.524   4.572 -1.7356  2.0463 -0.1843
 6027SOL    HW229544   1.986   0.522   4.616  1.3572  0.4025 -1.3575
 6028SOL     OW29545   0.819   1.510   1.268 -0.2129 -0.5966 -0.6142
 6028SOL    HW129546   0.820   1.603   1.247 -1.1142  0.1281  2.5333
 6028SOL    HW229547   0.888   1.514   1.333 -0.7502 -0.4254 -0.0524
 6029SOL     OW29548   1.158   2.837   3.105  0.8508  0.5091 -0.1101
 6029SOL    HW129549   1.065   2.842   3.127  0.1167 -2.4724 -2.5214
 6029SOL    HW229550   1.178   2.930   3.113 -0.4694  0.5381  3.2022
 6030SOL     OW29551   0.543   3.541   8.596  0.5583 -0.2786 -0.0207
 6030SOL    HW129552   0.570   3.451   8.577  1.7048 -0.4207  2.3171
 6030SOL    HW229553   0.477   3.552   8.527  0.8634  0.3274 -0.2157
 6031SOL     OW29554   2.916   3.922   4.222  0.7838  0.0199  0.0256
 6031SOL    HW129555   2.823   3.919   4.247  0.8839 -0.5805  0.3222
 6031SOL    HW229556   2.952   3.865   4.289 -0.4317  0.4091  1.0014
 6032SOL     OW29557   0.996   0.052   3.350  0.5546 -0.0570  0.1342
 6032SOL    HW129558   0.976   4.702   3.293  0.5118 -0.5023  0.7278
 6032SOL    HW229559   1.079   0.078   3.310 -0.1242 -0.1498 -1.3323
 6033SOL     OW29560   2.528   1.009   7.720 -0.8677  0.3990 -0.2278
 6033SOL    HW129561   2.557   1.100   7.726  1.1541 -0.2829  0.2195
 6033SOL    HW229562   2.465   1.016   7.649  0.1236  2.1212 -0.9141
 6034SOL     OW29563   3.449   1.571  17.203  0.1747  0.0837 -0.3311
 6034SOL    HW129564   3.381   1.608  17.147  1.6374  0.3386 -1.9214
 6034SOL    HW229565   3.423   1.616  17.284 -1.1635 -0.3164 -0.5374
 6035SOL     OW29566   2.058   3.953  11.528 -0.6543 -0.1420 -0.4621
 6035SOL    HW129567   2.035   3.904  11.449 -0.2104 -1.0482 -0.0253
 6035SOL    HW229568   2.135   3.902  11.553  1.4104  1.5982 -3.3078
 6036SOL     OW29569   3.746   2.670  14.891 -0.2724  0.9094  0.2350
 6036SOL    HW129570   3.705   2.756  14.882 -0.5444  0.7930  0.3705
 6036SOL    HW229571   3.802   2.660  14.813  0.3191 -1.4812  0.9542
 6037SOL     OW29572   2.708   4.626   6.480  0.1288  0.6592 -0.2671
 6037SOL    HW129573   2.619   4.606   6.453  0.3128 -0.7873  0.1960
 6037SOL    HW229574   2.690   4.717   6.504 -0.5256  0.9500 -1.9126
 6038SOL     OW29575   1.732   4.238   1.554 -0.2914 -1.0239  0.1343
 6038SOL    HW129576   1.783   4.315   1.532 -0.2923 -1.9449 -3.0798
 6038SOL    HW229577   1.787   4.222   1.631 -1.8556  1.3798  1.7431
 6039SOL     OW29578   2.417   1.964   9.403 -0.6168  0.3100  0.5309
 6039SOL    HW129579   2.505   1.962   9.439 -1.3595 -0.7542  2.3004
 6039SOL    HW229580   2.425   1.875   9.367  3.0954  0.5512  0.7553
 6040SOL     OW29581   4.237   2.311   7.595  0.1569  0.2684  0.4076
 6040SOL    HW129582   4.296   2.284   7.524 -1.4712 -1.0205 -0.4400
 6040SOL    HW229583   4.172   2.364   7.549 -0.3179 -0.9848 -0.3933
 6041SOL     OW29584   0.522   4.600   1.212 -0.2859  0.5986  0.5190
 6041SOL    HW129585   0.569   4.521   1.238  1.2174  0.7180 -1.8516
 6041SOL    HW229586   0.433   4.581   1.241 -0.7030 -0.1169 -1.2482
 6042SOL     OW29587   2.951   4.150   6.566  0.5070  0.0349  0.1595
 6042SOL    HW129588   2.865   4.156   6.524  1.0814 -0.3477 -1.0747
 6042SOL    HW229589   3.007   4.147   6.488 -1.8658  1.2550 -1.6233
 6043SOL     OW29590   3.798   2.033   3.144 -0.2345  0.0736 -0.1982
 6043SOL    HW129591   3.888   2.061   3.159 -0.9810  2.5438 -0.3951
 6043SOL    HW229592   3.759   2.097   3.084 -0.9922 -0.8237 -0.6612
 6044SOL     OW29593   0.693   4.514   7.659 -0.2510 -0.6114 -0.2439
 6044SOL    HW129594   0.763   4.507   7.724 -0.1602  1.3659 -0.1319
 6044SOL    HW229595   0.718   4.455   7.588 -3.2735 -3.2420  0.8843
 6045SOL     OW29596   1.768   1.858   3.360  0.1223  0.0679  0.0787
 6045SOL    HW129597   1.749   1.771   3.327  0.7835  0.2458 -0.7751
 6045SOL    HW229598   1.805   1.844   3.447 -0.6575  1.2967  0.6187
 6046SOL     OW29599   3.980   1.136   6.339  0.0692 -0.1397  0.3303
 6046SOL    HW129600   4.047   1.168   6.278 -1.5909  2.2871 -0.2370
 6046SOL    HW229601   4.041   1.096   6.401  0.9032 -0.3386 -0.6283
 6047SOL     OW29602   0.322   3.667   8.448 -0.2775 -0.3958 -0.1602
 6047SOL    HW129603   0.363   3.719   8.379  0.7984 -1.2224 -0.1402
 6047SOL    HW229604   0.275   3.598   8.402  0.2924 -0.5284 -0.5447
 6048SOL     OW29605   4.502   2.028   7.813  0.4514  0.0272 -0.1536
 6048SOL    HW129606   4.589   2.062   7.794  0.4796 -0.1178 -0.2877
 6048SOL    HW229607   4.456   2.049   7.732  1.7522 -1.7851 -1.3672
 6049SOL     OW29608   3.071   1.581   5.350 -0.1526 -0.3714  0.2684
 6049SOL    HW129609   3.016   1.656   5.328 -1.0178 -1.3698 -0.9964
 6049SOL    HW229610   3.054   1.562   5.442 -2.6039  1.3969  0.1963
 6050SOL     OW29611   2.770   1.620   4.891 -0.0156  0.2319 -0.5766
 6050SOL    HW129612   2.789   1.704   4.934  3.0228 -0.1725 -1.1358
 6050SOL    HW229613   2.828   1.622   4.815  0.9680 -1.9418  0.1333
 6051SOL     OW29614   3.091   3.780   9.360  0.1471 -0.0469  0.2020
 6051SOL    HW129615   3.059   3.818   9.441  2.1052 -0.4738  1.1887
 6051SOL    HW229616   3.020   3.723   9.330  1.9169 -1.2346 -1.7765
 6052SOL     OW29617   1.356   0.304   6.405 -0.2165 -0.3599 -0.1249
 6052SOL    HW129618   1.277   0.358   6.393 -1.1492 -1.9231 -0.9620
 6052SOL    HW229619   1.421   0.361   6.365  0.8585 -3.9583 -3.4434
 6053SOL     OW29620   3.287   0.943   1.465 -0.1919 -0.4755  0.0758
 6053SOL    HW129621   3.321   0.999   1.535 -1.1806  1.0014 -0.6380
 6053SOL    HW229622   3.225   1.008   1.432  0.1111  0.0725  0.5751
 6054SOL     OW29623   1.888   1.146   9.749 -0.7257  0.0150  0.4202
 6054SOL    HW129624   1.938   1.225   9.726 -0.7442 -0.1016 -0.0235
 6054SOL    HW229625   1.913   1.135   9.841  1.2433  3.8802  0.3644
 6055SOL     OW29626   2.467   1.808  17.360 -0.4035  0.0477  0.3865
 6055SOL    HW129627   2.482   1.821  17.454 -1.6510  0.2458  0.5488
 6055SOL    HW229628   2.470   1.712  17.357  0.9427  0.0790  0.7445
 6056SOL     OW29629   3.138   3.190  10.111  0.3358  0.3957 -0.4035
 6056SOL    HW129630   3.171   3.165  10.197 -1.5027 -1.4141 -0.2182
 6056SOL    HW229631   3.066   3.129  10.098 -0.0891  1.0521 -1.1212
 6057SOL     OW29632   0.538   1.618   7.649 -0.2800  0.8514  0.1321
 6057SOL    HW129633   0.616   1.595   7.699 -0.4550 -0.8120 -0.3690
 6057SOL    HW229634   0.582   1.691   7.605 -0.3410  0.9795  0.2850
 6058SOL     OW29635   1.872   3.188   6.694 -0.1619 -0.4867 -0.2335
 6058SOL    HW129636   1.845   3.279   6.678  1.8699  0.3577  1.1012
 6058SOL    HW229637   1.786   3.147   6.695  0.5382 -1.9913 -2.7035
 6059SOL     OW29638   1.867   3.816  13.405 -0.6881 -0.1525  0.0528
 6059SOL    HW129639   1.939   3.851  13.353 -1.6287 -0.4173 -1.4149
 6059SOL    HW229640   1.904   3.845  13.488 -2.2128 -1.0750  1.0570
 6060SOL     OW29641   0.936   1.209   6.671 -0.4229  0.5161  0.4336
 6060SOL    HW129642   0.956   1.199   6.764  0.1679 -0.8190  0.1592
 6060SOL    HW229643   0.911   1.301   6.663  2.7334  1.1849 -1.7528
 6061SOL     OW29644   0.879   1.373   4.135  0.1994 -0.0479  0.4292
 6061SOL    HW129645   0.912   1.315   4.204 -2.1470  1.4041  2.7947
 6061SOL    HW229646   0.934   1.445   4.164 -1.9160  1.4067  0.8095
 6062SOL     OW29647   4.704   4.131   9.630 -0.0847 -0.3009 -0.4304
 6062SOL    HW129648   4.654   4.050   9.639 -2.4079  1.0066 -1.4497
 6062SOL    HW229649   0.042   4.116   9.702 -0.2014  2.8561  0.3454
 6063SOL     OW29650   4.023   4.369   7.500 -0.4770  0.1374 -0.2268
 6063SOL    HW129651   4.071   4.292   7.528  1.3014  0.6324 -1.9219
 6063SOL    HW229652   3.961   4.380   7.573 -1.1144  0.2177 -0.7821
 6064SOL     OW29653   0.294   1.876   6.040  1.1174 -0.5498 -0.3955
 6064SOL    HW129654   0.283   1.934   6.115  2.0166 -0.0567 -0.6439
 6064SOL    HW229655   0.216   1.901   5.990 -0.1598 -2.1071  0.7848
 6065SOL     OW29656   3.237   1.241   7.325 -0.2758  0.0552 -0.3213
 6065SOL    HW129657   3.297   1.253   7.252  1.3054 -3.1406  0.4060
 6065SOL    HW229658   3.151   1.271   7.299 -0.1187  0.3252 -0.5216
 6066SOL     OW29659   4.055   4.296  12.925  0.2766  0.4886 -0.2003
 6066SOL    HW129660   4.111   4.255  12.859  1.3731 -0.2230  1.1866
 6066SOL    HW229661   4.037   4.219  12.978 -0.4650  0.5565 -0.3411
 6067SOL     OW29662   3.682   1.629   1.697 -0.4436 -0.3008  0.2226
 6067SOL    HW129663   3.732   1.630   1.779 -0.0090  3.0552 -0.0791
 6067SOL    HW229664   3.649   1.719   1.690 -1.7708 -0.9375 -1.5841
 6068SOL     OW29665   4.623   0.710  16.384  0.2078  0.0070 -0.2433
 6068SOL    HW129666   4.530   0.714  16.359 -0.3709 -0.2989  1.9342
 6068SOL    HW229667   4.639   0.805  16.377  0.4632 -0.1066 -1.2201
 6069SOL     OW29668   3.543   4.003   1.837 -0.1705  0.5194 -0.2361
 6069SOL    HW129669   3.564   3.914   1.810  4.0289  1.7752 -0.9801
 6069SOL    HW229670   3.458   3.981   1.876 -0.6416  3.2290  0.2666
 6070SOL     OW29671   2.087   3.255  10.998  0.1770 -0.2610  0.4501
 6070SOL    HW129672   2.163   3.302  10.965  0.1411  0.0003  0.7488
 6070SOL    HW229673   2.060   3.332  11.048 -0.9445  0.6618 -1.5800
 6071SOL     OW29674   1.207   3.188  16.740  0.3209 -0.3037  0.4256
 6071SOL    HW129675   1.294   3.227  16.737 -0.2138  0.9555  0.9427
 6071SOL    HW229676   1.227   3.105  16.782 -1.3328 -1.8310 -1.8128
 6072SOL     OW29677   2.885   2.391   3.120 -0.4171 -0.1210  0.3566
 6072SOL    HW129678   2.914   2.302   3.137  0.7499  0.2014  0.0047
 6072SOL    HW229679   2.843   2.382   3.034  1.7044 -2.3765 -0.4610
 6073SOL     OW29680   1.407   3.171   5.961 -0.4997  0.0076  0.3688
 6073SOL    HW129681   1.351   3.150   5.887 -0.6726  0.3537  0.4025
 6073SOL    HW229682   1.413   3.266   5.972  1.5296 -0.0364 -0.2977
 6074SOL     OW29683   3.447   3.138   4.080  0.0752  0.2371  0.3756
 6074SOL    HW129684   3.456   3.212   4.021  1.3293 -1.6428 -1.7898
 6074SOL    HW229685   3.453   3.068   4.015 -0.8103 -0.4380  1.0233
 6075SOL     OW29686   2.211   4.663   8.512 -0.1100  0.4500 -0.4027
 6075SOL    HW129687   2.272   4.645   8.583 -2.5040 -0.4137  1.4344
 6075SOL    HW229688   2.277   4.699   8.453 -1.9500 -0.1791 -2.8057
 6076SOL     OW29689   0.754   1.406   3.133  0.2409  0.0858 -0.3440
 6076SOL    HW129690   0.730   1.481   3.188  0.5763  0.1549 -0.2884
 6076SOL    HW229691   0.703   1.335   3.171 -0.8225  0.8441 -0.3640
 6077SOL     OW29692   3.115   2.807   7.267  0.1490  0.8117 -0.2778
 6077SOL    HW129693   3.076   2.810   7.180 -1.4790 -1.4066  0.3651
 6077SOL    HW229694   3.193   2.753   7.254  0.5480  0.5156  3.2875
 6078SOL     OW29695   2.792   2.415   0.909 -0.2688 -0.0515 -0.0347
 6078SOL    HW129696   2.723   2.386   0.849  0.7643 -0.8853 -0.8283
 6078SOL    HW229697   2.752   2.496   0.941 -0.2859 -0.4949  1.0441
 6079SOL     OW29698   2.848   3.589   1.566 -0.0245 -0.2583 -0.4564
 6079SOL    HW129699   2.814   3.508   1.603 -2.7434  0.2616 -1.8067
 6079SOL    HW229700   2.929   3.557   1.527 -0.3615 -0.8668 -0.6443
 6080SOL     OW29701   3.422   3.901   3.008 -0.3791  0.6510 -0.0723
 6080SOL    HW129702   3.507   3.944   3.009  0.2450 -0.5680 -1.1182
 6080SOL    HW229703   3.448   3.825   2.955  0.3103 -0.5159  1.9427
 6081SOL     OW29704   2.585   4.642   4.552  0.2156  0.3095 -0.6600
 6081SOL    HW129705   2.649   4.620   4.621  1.0106  2.4513 -0.7285
 6081SOL    HW229706   2.507   4.663   4.604  1.6315 -0.1547  1.6477
 6082SOL     OW29707   4.705   1.302   2.197 -0.1151 -0.3002 -0.2317
 6082SOL    HW129708   4.686   1.395   2.182 -1.1320 -0.7514 -1.7247
 6082SOL    HW229709   0.067   1.306   2.154  1.3598  0.6997  2.8291
 6083SOL     OW29710   2.840   4.208   9.294 -0.0150 -0.2063  0.0922
 6083SOL    HW129711   2.793   4.136   9.337 -0.3887  0.0274  0.0707
 6083SOL    HW229712   2.904   4.227   9.363  0.7640  1.3111 -1.0567
 6084SOL     OW29713   3.809   2.022   1.359 -0.1941  0.1234 -0.0523
 6084SOL    HW129714   3.864   1.946   1.341 -1.8788 -0.9583 -0.5894
 6084SOL    HW229715   3.727   1.995   1.319 -1.1979  0.7048  1.6163
 6085SOL     OW29716   3.456   3.037   8.238 -0.0469  0.6668  0.6151
 6085SOL    HW129717   3.520   3.105   8.219 -0.2716  1.8184  3.9695
 6085SOL    HW229718   3.477   2.974   8.169  0.3126 -0.6229  1.8993
 6086SOL     OW29719   4.448   2.703   6.914 -0.2472  0.1639 -0.0714
 6086SOL    HW129720   4.497   2.785   6.922  1.0723 -0.6965  0.6251
 6086SOL    HW229721   4.361   2.738   6.933 -0.2867 -0.5798  1.1463
 6087SOL     OW29722   1.825   1.167  16.576 -0.1634 -0.0002 -0.5833
 6087SOL    HW129723   1.735   1.139  16.561  0.2468 -1.5466 -0.1445
 6087SOL    HW229724   1.871   1.145  16.494 -0.4810 -0.4983 -0.6321
 6088SOL     OW29725   4.455   1.629   5.057  0.0275  0.1446  0.1411
 6088SOL    HW129726   4.513   1.555   5.034  0.1821 -0.0801  1.2530
 6088SOL    HW229727   4.404   1.645   4.978 -1.6263  0.4151  1.2744
 6089SOL     OW29728   2.584   0.666   4.999  0.1012  0.0595  0.3677
 6089SOL    HW129729   2.535   0.591   4.964  3.3481 -1.1237 -1.6896
 6089SOL    HW229730   2.651   0.620   5.049  0.5157  1.2307  0.8846
 6090SOL     OW29731   3.137   1.743   3.938 -0.0120 -0.3831 -0.3664
 6090SOL    HW129732   3.066   1.785   3.889 -0.1023  0.0066  0.0959
 6090SOL    HW229733   3.169   1.686   3.868  2.4632  0.5487  0.0113
 6091SOL     OW29734   2.945   2.551   3.588  0.0081 -0.1422  0.2118
 6091SOL    HW129735   2.975   2.492   3.657 -2.8387 -0.1024  1.4905
 6091SOL    HW229736   2.994   2.626   3.621 -0.5673  1.9186 -3.6023
 6092SOL     OW29737   2.384   1.410   9.624  0.2433  0.1815  0.0367
 6092SOL    HW129738   2.331   1.471   9.676 -0.9394 -1.0638  0.2891
 6092SOL    HW229739   2.414   1.464   9.552 -1.6650 -0.2253 -1.0473
 6093SOL     OW29740   1.369   1.733  10.086 -0.1879  0.0701 -0.2527
 6093SOL    HW129741   1.348   1.815  10.042 -2.4368 -0.3908 -0.0469
 6093SOL    HW229742   1.339   1.751  10.175 -0.1467 -2.2646  0.2275
 6094SOL     OW29743   4.556   1.345  17.214 -0.2405  0.1105  0.4880
 6094SOL    HW129744   4.537   1.258  17.247  0.7885 -0.3326 -0.1058
 6094SOL    HW229745   4.560   1.391  17.297  1.0997  1.5247 -0.3612
 6095SOL     OW29746   1.783   3.132   2.630  0.0331  0.3466 -0.0498
 6095SOL    HW129747   1.819   3.203   2.683 -0.3137 -0.8524  1.8024
 6095SOL    HW229748   1.698   3.117   2.673 -0.7303 -0.5809 -1.8674
 6096SOL     OW29749   1.392   4.713   5.268 -0.2662 -0.8701 -0.0069
 6096SOL    HW129750   1.336   4.688   5.341 -0.7375 -1.1724 -0.4734
 6096SOL    HW229751   1.452   0.055   5.305  2.0344 -3.2366  0.4164
 6097SOL     OW29752   3.368   2.970   3.851  0.2055  0.5320 -0.0346
 6097SOL    HW129753   3.310   3.045   3.838  1.2057  1.4315  0.6067
 6097SOL    HW229754   3.364   2.939   3.761  0.5552  0.1492  0.0830
 6098SOL     OW29755   2.283   3.138   7.775 -0.2263 -0.1396 -0.2361
 6098SOL    HW129756   2.360   3.190   7.752 -0.6518  0.6064  0.0155
 6098SOL    HW229757   2.322   3.051   7.784  1.6752  0.7981  0.6137
 6099SOL     OW29758   2.690   0.478   7.714  0.0723  0.3423  1.2393
 6099SOL    HW129759   2.724   0.560   7.751  0.6790 -0.1016  1.6591
 6099SOL    HW229760   2.660   0.431   7.792 -1.2113  0.0962  0.5998
 6100SOL     OW29761   2.411   0.949   2.314  0.0406  0.0598 -0.3352
 6100SOL    HW129762   2.373   0.941   2.402 -0.2234  2.3662 -0.2479
 6100SOL    HW229763   2.337   0.964   2.255 -0.7585  2.1959  1.1982
 6101SOL     OW29764   3.777   0.293   1.421  0.6980 -0.0911  0.2225
 6101SOL    HW129765   3.693   0.337   1.404 -0.7761 -1.3384  4.2165
 6101SOL    HW229766   3.749   0.202   1.413  1.0948 -0.2784  0.9502
 6102SOL     OW29767   0.844   3.279   3.553 -0.2326  0.3148 -0.1804
 6102SOL    HW129768   0.896   3.344   3.601  1.8389 -1.1108 -0.5157
 6102SOL    HW229769   0.899   3.253   3.479  0.1606 -0.2628  0.3132
 6103SOL     OW29770   2.139   2.800   9.890  0.0058  0.0010 -0.0013
 6103SOL    HW129771   2.072   2.842   9.836 -1.1942 -0.2975  1.2771
 6103SOL    HW229772   2.087   2.729   9.928  0.3038  0.7442  1.7594
 6104SOL     OW29773   1.773   0.689   0.080 -0.2768 -0.1448 -0.0547
 6104SOL    HW129774   1.760   0.762   0.018  0.1708 -1.0341 -1.1984
 6104SOL    HW229775   1.783   0.736   0.163 -0.8716 -1.5395  0.7875
 6105SOL     OW29776   3.207   0.434  14.840 -0.1816  0.3297 -0.4145
 6105SOL    HW129777   3.261   0.392  14.907 -1.5264  1.8349  1.6272
 6105SOL    HW229778   3.143   0.487  14.887 -0.4431 -0.6544  0.3257
 6106SOL     OW29779   1.793   2.059   6.412  0.6467 -0.4380 -0.4735
 6106SOL    HW129780   1.870   2.115   6.411 -0.0668  0.5470 -0.3119
 6106SOL    HW229781   1.829   1.991   6.470  0.6980 -0.3217 -0.3674
 6107SOL     OW29782   2.736   3.562   7.013 -0.0349 -0.1750 -0.0689
 6107SOL    HW129783   2.764   3.480   6.971 -0.0144 -0.6315  0.8366
 6107SOL    HW229784   2.753   3.620   6.938  2.5138 -0.4481  0.3155
 6108SOL     OW29785   4.601   3.246   8.679  0.0436 -0.0910  0.2718
 6108SOL    HW129786   4.563   3.189   8.745  0.2902 -0.3943  0.1516
 6108SOL    HW229787   4.644   3.185   8.619 -2.8740 -0.8768 -1.0000
 6109SOL     OW29788   3.485   1.816   8.213 -0.5477  0.4042  0.4547
 6109SOL    HW129789   3.392   1.838   8.220 -0.2837  1.0014  2.0366
 6109SOL    HW229790   3.487   1.727   8.179 -0.4158  0.3101  0.7103
 6110SOL     OW29791   3.850   1.802   2.993 -0.1924  0.6463  0.3149
 6110SOL    HW129792   3.765   1.807   2.949 -0.4088 -1.0421  0.5364
 6110SOL    HW229793   3.831   1.870   3.058 -1.2075  0.9853 -0.3387
 6111SOL     OW29794   0.748   1.909   3.696 -0.0057 -0.1207 -0.1663
 6111SOL    HW129795   0.753   1.930   3.602  1.7332 -1.0742 -0.2817
 6111SOL    HW229796   0.781   1.820   3.689  0.9356  0.0951  1.5457
 6112SOL     OW29797   1.776   1.251  10.045 -0.0379  0.6486 -0.5379
 6112SOL    HW129798   1.823   1.167  10.047  0.6824  1.0490 -0.5237
 6112SOL    HW229799   1.831   1.316  10.001  0.0857 -0.4928 -2.0688
 6113SOL     OW29800   1.122   1.796   4.540 -0.3581 -0.2830 -0.0685
 6113SOL    HW129801   1.089   1.880   4.508 -3.1726 -0.5704  2.0499
 6113SOL    HW229802   1.210   1.803   4.503 -0.6618  1.0868 -0.4953
 6114SOL     OW29803   1.968   3.168   5.533  0.1205  0.7699  0.0705
 6114SOL    HW129804   2.021   3.247   5.543  0.5056  0.3458  1.2851
 6114SOL    HW229805   2.024   3.102   5.492  1.6346  0.4075  2.7662
 6115SOL     OW29806   1.397   3.788  13.087 -0.4715 -0.4428  0.1155
 6115SOL    HW129807   1.421   3.733  13.162  0.1011  0.4649  0.5939
 6115SOL    HW229808   1.362   3.727  13.021 -0.0352 -0.5979  0.0299
 6116SOL     OW29809   2.383   3.623  10.066 -0.2919 -0.3153  0.2846
 6116SOL    HW129810   2.381   3.620  10.162  1.8180 -2.9473  0.2370
 6116SOL    HW229811   2.431   3.543  10.042 -0.9624  0.1373 -2.5668
 6117SOL     OW29812   0.611   4.616   4.763  0.2510  0.3955 -0.1538
 6117SOL    HW129813   0.684   4.587   4.818 -0.5662 -2.7439 -0.7606
 6117SOL    HW229814   0.576   4.535   4.727  1.7596 -1.4111  2.3927
 6118SOL     OW29815   0.727   0.106   4.326 -0.5482  0.3323  0.5955
 6118SOL    HW129816   0.814   0.067   4.330 -0.6343  0.0852 -0.0023
 6118SOL    HW229817   0.707   0.118   4.419 -0.7956  2.5954  0.2531
 6119SOL     OW29818   0.491   2.272  10.299 -0.0262 -0.1235 -0.4347
 6119SOL    HW129819   0.456   2.205  10.357 -0.9622 -1.0503 -2.0732
 6119SOL    HW229820   0.569   2.297  10.349 -0.7583  2.3954 -0.5506
 6120SOL     OW29821   0.023   3.616   6.232  0.1087 -0.4321 -0.3037
 6120SOL    HW129822   0.068   3.657   6.158 -1.3879  0.6829 -0.5861
 6120SOL    HW229823   0.093   3.551   6.247 -1.3523 -1.5399  1.6462
 6121SOL     OW29824   4.178   4.422   6.676  0.2342 -0.0289 -0.1124
 6121SOL    HW129825   4.090   4.433   6.640  0.1068 -2.3689 -0.5264
 6121SOL    HW229826   4.214   4.369   6.604 -1.3992 -3.0500  1.2685
 6122SOL     OW29827   0.940   3.109   6.676 -0.0460  0.1661 -0.8399
 6122SOL    HW129828   0.897   3.158   6.746  1.8500 -0.3799  0.6993
 6122SOL    HW229829   0.927   3.175   6.607  0.8943  1.3582  0.1116
 6123SOL     OW29830   3.145   0.815   4.952 -0.5574 -0.0093 -0.3530
 6123SOL    HW129831   3.064   0.790   4.908 -0.6969  1.4396 -0.9052
 6123SOL    HW229832   3.209   0.770   4.897 -2.6396 -1.0471 -1.8948
 6124SOL     OW29833   4.420   0.870   6.087  0.0920  0.1230  0.6527
 6124SOL    HW129834   4.343   0.828   6.127  2.2035 -1.3388  3.2402
 6124SOL    HW229835   4.493   0.815   6.115 -0.0882 -0.1938  0.5034
 6125SOL     OW29836   0.868   2.456   4.712  0.2878  0.7743  0.4717
 6125SOL    HW129837   0.780   2.468   4.677  0.9011  1.2144 -0.9366
 6125SOL    HW229838   0.896   2.546   4.733 -3.1036  1.8021  0.5795
 6126SOL     OW29839   1.926   0.316   7.662 -0.1829 -0.1810  0.6876
 6126SOL    HW129840   1.846   0.323   7.609  1.2051 -2.5205 -1.7156
 6126SOL    HW229841   1.976   0.391   7.630 -1.1559  0.6531  1.1476
 6127SOL     OW29842   3.001   0.554  14.994  0.4942  0.4070 -0.3453
 6127SOL    HW129843   2.946   0.623  14.957  0.7601 -1.2289 -3.8112
 6127SOL    HW229844   3.041   0.609  15.061  0.6599  0.7905 -0.7522
 6128SOL     OW29845   1.868   1.496   4.989 -0.0848 -0.0845 -0.0770
 6128SOL    HW129846   1.815   1.467   5.063 -2.7997  3.5741 -0.5631
 6128SOL    HW229847   1.919   1.567   5.028  2.4289 -1.3634 -1.0348
 6129SOL     OW29848   0.440   0.363   8.338 -0.0936 -0.2144 -0.1305
 6129SOL    HW129849   0.499   0.287   8.333 -0.7109 -0.6884 -0.1275
 6129SOL    HW229850   0.412   0.370   8.247 -0.6019  2.0495  0.1968
 6130SOL     OW29851   3.304   0.246  11.068 -0.3891  0.5591  0.0608
 6130SOL    HW129852   3.332   0.289  10.987 -1.1098 -1.1884 -1.1333
 6130SOL    HW229853   3.390   0.256  11.108  0.8419 -0.9029 -2.1702
 6131SOL     OW29854   2.182   4.198   1.756  0.0863  0.4217  0.2677
 6131SOL    HW129855   2.262   4.175   1.803 -0.2233  0.8611  1.0113
 6131SOL    HW229856   2.225   4.230   1.677 -1.9275 -2.4245 -1.9655
 6132SOL     OW29857   1.273   0.070   0.464 -0.0846 -0.3940 -0.0480
 6132SOL    HW129858   1.184   0.036   0.455 -1.1359  3.5402 -4.6446
 6132SOL    HW229859   1.266   0.142   0.402  0.0690 -0.3466 -0.0101
 6133SOL     OW29860   1.608   0.927  12.144  1.0012  0.1577 -0.0736
 6133SOL    HW129861   1.623   0.904  12.236 -0.5852  0.5132  0.2681
 6133SOL    HW229862   1.520   0.895  12.125  1.7462 -0.8302 -1.8017
 6134SOL     OW29863   4.075   2.092   6.127  0.2022 -0.1627 -0.7718
 6134SOL    HW129864   4.044   2.047   6.206 -0.0240  1.9760  0.3498
 6134SOL    HW229865   4.000   2.079   6.069 -2.8552  1.2095  2.8716
 6135SOL     OW29866   3.923   3.637   7.951 -0.2012  0.4908  0.4619
 6135SOL    HW129867   3.972   3.692   8.012  0.5311 -0.8983  1.1216
 6135SOL    HW229868   3.984   3.630   7.878  0.1910 -1.9544  1.0096
 6136SOL     OW29869   0.429   3.000   5.137  0.2993 -0.1520 -0.1256
 6136SOL    HW129870   0.490   2.998   5.063 -0.1414 -0.6342 -0.4810
 6136SOL    HW229871   0.409   3.093   5.141  0.8976  0.0866 -2.4963
 6137SOL     OW29872   0.077   2.556   5.962  0.2010 -0.1187 -0.0749
 6137SOL    HW129873   0.136   2.491   5.924 -0.9153 -0.6474 -0.9026
 6137SOL    HW229874   0.076   2.529   6.054 -0.9730  1.2538  0.3168
 6138SOL     OW29875   1.258   2.444   9.240  0.1807 -0.3163 -0.1499
 6138SOL    HW129876   1.293   2.447   9.329  0.6445 -1.4995 -0.2918
 6138SOL    HW229877   1.197   2.370   9.243  0.0642 -0.2126  0.0032
 6139SOL     OW29878   1.279   3.368   3.404 -0.7787 -0.1904  0.0319
 6139SOL    HW129879   1.331   3.326   3.336  1.5236  0.6180  1.3086
 6139SOL    HW229880   1.234   3.434   3.351 -0.1971 -0.8636 -1.3039
 6140SOL     OW29881   0.343   2.365   5.172 -0.6959 -0.3611 -0.3540
 6140SOL    HW129882   0.292   2.416   5.235 -0.2001  0.8853 -0.9709
 6140SOL    HW229883   0.418   2.326   5.217 -0.7167 -0.6459 -0.5663
 6141SOL     OW29884   0.657   3.892  11.187  0.3970  0.1900  0.1923
 6141SOL    HW129885   0.750   3.895  11.206 -0.6419 -0.1493  5.4074
 6141SOL    HW229886   0.635   3.949  11.113  0.7264 -0.9808 -0.8099
 6142SOL     OW29887   4.317   4.502  12.435 -0.3317 -0.0785  0.3242
 6142SOL    HW129888   4.398   4.532  12.394 -1.0809  0.0339 -1.1031
 6142SOL    HW229889   4.332   4.408  12.441 -1.0763 -0.1664  0.9032
 6143SOL     OW29890   1.649   0.561   8.634 -0.6160  0.0718 -0.3609
 6143SOL    HW129891   1.652   0.580   8.540 -0.3305  1.9466  0.0322
 6143SOL    HW229892   1.680   0.645   8.669 -0.6628  0.0370 -0.2357
 6144SOL     OW29893   2.911   3.158  10.698  0.2781  0.8226 -0.2889
 6144SOL    HW129894   2.831   3.182  10.745  0.5791  3.7108 -1.2693
 6144SOL    HW229895   2.889   3.078  10.650 -1.6767  1.3531 -0.2838
 6145SOL     OW29896   4.362   2.141  12.662 -0.3140 -0.6663 -0.3978
 6145SOL    HW129897   4.318   2.222  12.689 -0.8798 -0.8909 -0.6593
 6145SOL    HW229898   4.295   2.102  12.606  0.3108 -2.1993 -0.0813
 6146SOL     OW29899   4.069   3.724   6.447 -0.2567  0.1500  0.0960
 6146SOL    HW129900   4.117   3.717   6.530  1.3086  1.0402 -0.7336
 6146SOL    HW229901   4.048   3.632   6.429 -0.1262  0.1472 -0.0411
 6147SOL     OW29902   3.100   0.818   2.830  0.1084  0.5689 -0.4318
 6147SOL    HW129903   3.015   0.775   2.822  0.0739  0.5734 -0.1121
 6147SOL    HW229904   3.100   0.816   2.926 -2.6798  0.5094 -0.4514
 6148SOL     OW29905   2.044   1.046   7.213 -0.1833  0.1545 -0.6950
 6148SOL    HW129906   2.101   1.061   7.138 -0.1804  3.5936 -0.0118
 6148SOL    HW229907   2.095   1.029   7.292 -0.1447 -1.6783 -1.1147
 6149SOL     OW29908   4.285   1.416   5.357 -0.1930  0.2580  0.1963
 6149SOL    HW129909   4.216   1.359   5.390  0.2622 -0.6694 -0.4518
 6149SOL    HW229910   4.355   1.390   5.417 -1.2855  1.7335  2.1104
 6150SOL     OW29911   2.814   2.915  15.712  0.3105 -0.1348  0.1472
 6150SOL    HW129912   2.842   2.831  15.748 -1.0798 -1.5626 -2.1504
 6150SOL    HW229913   2.875   2.912  15.638  2.4321 -0.7024  1.8945
 6151SOL     OW29914   4.491   4.134  12.093  0.3378 -0.6260  0.0783
 6151SOL    HW129915   4.530   4.095  12.171  1.8266 -0.7331 -0.7306
 6151SOL    HW229916   4.562   4.129  12.030  1.5296 -0.0024  1.3698
 6152SOL     OW29917   2.353   3.622   4.231  0.1459  0.5256 -0.3499
 6152SOL    HW129918   2.326   3.583   4.314  0.5444  3.1407  0.9787
 6152SOL    HW229919   2.392   3.704   4.260 -3.0877  2.1986 -0.8431
 6153SOL     OW29920   4.416   0.214   9.774 -0.3471  0.2891 -0.1405
 6153SOL    HW129921   4.433   0.150   9.704 -0.1608 -1.5584  1.6140
 6153SOL    HW229922   4.322   0.204   9.785 -0.3820 -1.2154 -1.7062
 6154SOL     OW29923   0.203   1.399   9.706 -0.3646  0.3537 -0.5327
 6154SOL    HW129924   0.195   1.314   9.662  1.1840  0.3582 -0.8286
 6154SOL    HW229925   0.284   1.378   9.753 -1.3299 -1.6214  0.2358
 6155SOL     OW29926   4.254   2.007   5.368  0.6291 -0.3336  0.1048
 6155SOL    HW129927   4.314   1.934   5.381  0.0755 -0.6652  0.7203
 6155SOL    HW229928   4.181   1.955   5.336  0.3146 -0.7224  1.4737
 6156SOL     OW29929   3.007   2.103   1.410 -0.4989  0.5227  0.1129
 6156SOL    HW129930   3.057   2.045   1.468  2.5743  3.0195 -0.0437
 6156SOL    HW229931   2.919   2.080   1.441  0.2524 -1.8997  0.4980
 6157SOL     OW29932   3.782   2.418   2.295  0.0856  0.4432 -0.7652
 6157SOL    HW129933   3.862   2.472   2.293  0.8717 -0.7649 -1.6101
 6157SOL    HW229934   3.731   2.470   2.233 -1.3747 -0.1553 -0.0733
 6158SOL     OW29935   4.574   0.286  12.760 -0.2186 -0.3520  0.0640
 6158SOL    HW129936   4.578   0.382  12.759 -1.1745 -0.3134 -0.3185
 6158SOL    HW229937   4.665   0.259  12.749 -0.1396 -0.0872  0.0781
 6159SOL     OW29938   2.163   3.760   6.141 -0.2034  0.1907  0.2421
 6159SOL    HW129939   2.227   3.808   6.194  0.4345  0.6314 -0.9132
 6159SOL    HW229940   2.225   3.700   6.101 -0.2669  1.2034 -1.4183
 6160SOL     OW29941   0.436   2.452   6.505 -0.6794 -0.3593  0.1925
 6160SOL    HW129942   0.466   2.542   6.514  0.6932 -0.7205 -0.7049
 6160SOL    HW229943   0.392   2.433   6.588 -2.3206  0.1997 -0.5485
 6161SOL     OW29944   0.557   4.579   8.328 -0.2278  0.5255 -0.2140
 6161SOL    HW129945   0.611   4.594   8.406 -0.2266  0.0779 -0.1307
 6161SOL    HW229946   0.483   4.552   8.382  1.3685  3.4640  3.4963
 6162SOL     OW29947   1.401   2.661   6.862 -0.7686 -0.2810  0.3719
 6162SOL    HW129948   1.460   2.716   6.914  0.0400 -1.4312  0.6820
 6162SOL    HW229949   1.461   2.624   6.797  1.4807 -0.2185  2.4196
 6163SOL     OW29950   3.693   0.415  12.788 -0.1872 -0.5466 -0.2648
 6163SOL    HW129951   3.701   0.454  12.876 -1.4935  3.1242 -1.7770
 6163SOL    HW229952   3.598   0.421  12.778 -0.3149  1.2514  1.9804
 6164SOL     OW29953   2.191   0.845   7.698  0.6037 -0.3519 -0.4710
 6164SOL    HW129954   2.207   0.760   7.737 -2.2448 -1.2456 -1.2447
 6164SOL    HW229955   2.157   0.886   7.777 -2.1088 -1.9232 -0.8208
 6165SOL     OW29956   3.765   4.454   8.184 -0.3178 -0.3611  0.5008
 6165SOL    HW129957   3.739   4.532   8.233  1.9620 -0.5897  2.0691
 6165SOL    HW229958   3.694   4.425   8.126  1.8047 -0.3950 -2.0585
 6166SOL     OW29959   4.218   2.187   5.765 -0.2632 -0.0007  0.1575
 6166SOL    HW129960   4.287   2.241   5.804  2.4469 -2.1808 -1.5346
 6166SOL    HW229961   4.260   2.163   5.682  1.8415 -0.5251  1.3634
 6167SOL     OW29962   2.605   0.611   3.356 -0.3515 -0.5656 -0.0196
 6167SOL    HW129963   2.583   0.578   3.269 -0.0390  1.9585 -1.0587
 6167SOL    HW229964   2.518   0.645   3.375 -0.9019 -0.1521 -3.2989
 6168SOL     OW29965   2.063   2.802   6.419 -0.2111 -0.7364 -0.1721
 6168SOL    HW129966   2.067   2.826   6.326  1.7693  0.0397  0.1234
 6168SOL    HW229967   1.968   2.807   6.430 -0.0482  2.9451 -0.6319
 6169SOL     OW29968   1.573   2.137   7.988 -0.0984 -0.3103  0.0674
 6169SOL    HW129969   1.515   2.079   7.939  1.4222 -1.0465 -0.8881
 6169SOL    HW229970   1.537   2.117   8.074 -1.5157 -3.4964 -1.2986
 6170SOL     OW29971   2.838   3.636   9.923  0.4621  0.3633  0.5869
 6170SOL    HW129972   2.759   3.673   9.884  0.3103 -0.1939  0.3607
 6170SOL    HW229973   2.901   3.707   9.917  0.3435  0.2549 -2.1787
 6171SOL     OW29974   1.757   3.555   0.732  0.0238 -0.4607  0.2780
 6171SOL    HW129975   1.764   3.606   0.813  0.1845  0.8973 -0.5933
 6171SOL    HW229976   1.672   3.512   0.736  0.1828 -0.6624  1.5874
 6172SOL     OW29977   1.809   0.767   4.371  0.5668  0.2639  0.1294
 6172SOL    HW129978   1.887   0.787   4.319  0.9818  1.3910  1.1818
 6172SOL    HW229979   1.847   0.736   4.453 -0.2900 -0.5588  0.2107
 6173SOL     OW29980   1.249   3.141   7.566  0.5325 -0.0991 -0.2128
 6173SOL    HW129981   1.343   3.154   7.576 -0.0537  0.5662  4.6496
 6173SOL    HW229982   1.241   3.196   7.488  3.7676  0.1420 -0.3652
 6174SOL     OW29983   1.285   1.138   1.082  0.1265 -0.1527  0.1458
 6174SOL    HW129984   1.315   1.222   1.049  1.0497 -0.6945 -0.4062
 6174SOL    HW229985   1.201   1.158   1.122 -0.1441 -0.4366 -0.2828
 6175SOL     OW29986   1.903   1.535   8.794  0.2782 -0.3020  0.5639
 6175SOL    HW129987   1.892   1.608   8.733  0.1377 -0.2477  0.6536
 6175SOL    HW229988   1.978   1.497   8.748  0.1881 -0.8942  0.9107
 6176SOL     OW29989   3.035   1.072   1.420 -0.1300  0.0877 -0.2482
 6176SOL    HW129990   2.988   0.998   1.459  0.8901 -1.9337 -2.8562
 6176SOL    HW229991   2.967   1.137   1.435  0.0115 -0.1589  1.4831
 6177SOL     OW29992   2.905   3.633   3.623  0.0555 -0.4314 -0.0926
 6177SOL    HW129993   2.821   3.633   3.577  0.7638  0.2897 -1.3878
 6177SOL    HW229994   2.942   3.717   3.596  0.3033  0.3680  2.7685
 6178SOL     OW29995   1.119   3.871  15.519  0.5845 -0.2945  0.6840
 6178SOL    HW129996   1.070   3.893  15.439 -0.5161  1.3174  1.7953
 6178SOL    HW229997   1.089   3.936  15.583 -1.4772 -0.8667  0.2921
 6179SOL     OW29998   2.524   0.952   8.867  0.2002 -0.2772 -0.5121
 6179SOL    HW129999   2.498   0.876   8.920  3.2835 -0.3586  0.8460
 6179SOL    HW230000   2.487   1.021   8.922 -0.4384 -0.8084 -0.2702
 6180SOL     OW30001   0.848   2.456  11.107  0.5046  0.1255 -0.2066
 6180SOL    HW130002   0.897   2.397  11.163  0.4526 -0.1269 -0.4241
 6180SOL    HW230003   0.810   2.521  11.166 -1.0547  1.7835 -3.0158
 6181SOL     OW30004   4.480   2.921  16.081  0.1936 -0.3118 -0.2085
 6181SOL    HW130005   4.508   2.952  15.995 -2.7102 -0.8001 -1.3292
 6181SOL    HW230006   4.508   2.829  16.074 -1.3272 -0.7268 -0.8216
 6182SOL     OW30007   2.853   1.481   1.791 -0.1650 -0.5213  0.2710
 6182SOL    HW130008   2.917   1.414   1.768 -1.2845 -1.5492  0.1374
 6182SOL    HW230009   2.801   1.489   1.711  0.6028 -0.6371 -0.2339
 6183SOL     OW30010   2.446   0.363   0.887  0.0115 -0.7030 -0.1790
 6183SOL    HW130011   2.385   0.387   0.957 -1.6275 -0.3385 -1.7011
 6183SOL    HW230012   2.390   0.361   0.809 -0.2260 -1.8822  0.0174
 6184SOL     OW30013   3.435   1.536   3.539 -0.7013  0.0172 -0.0207
 6184SOL    HW130014   3.524   1.532   3.503 -1.5100  0.4218 -2.0551
 6184SOL    HW230015   3.412   1.621   3.501 -1.5508  0.0697  0.6164
 6185SOL     OW30016   2.337   2.482   4.610 -0.0694 -0.7833 -0.1769
 6185SOL    HW130017   2.403   2.549   4.624  1.2658 -2.1576  0.0996
 6185SOL    HW230018   2.264   2.538   4.635  0.1958 -0.4503 -0.1570
 6186SOL     OW30019   4.624   4.341   3.235 -0.1371  0.8274 -0.3063
 6186SOL    HW130020   4.671   4.257   3.243 -1.6037  0.0461  0.1641
 6186SOL    HW230021   4.536   4.307   3.215  0.5794 -2.2111  1.5726
 6187SOL     OW30022   0.886   2.556  15.995  0.1637  0.2733  0.1092
 6187SOL    HW130023   0.883   2.565  16.090  0.1873 -2.8545  0.3822
 6187SOL    HW230024   0.945   2.628  15.972  0.7754 -0.3282 -0.2023
 6188SOL     OW30025   4.655   3.482  12.280 -0.2431  0.2949  0.1819
 6188SOL    HW130026   4.661   3.391  12.252 -0.8781  0.2606  0.1788
 6188SOL    HW230027   0.022   3.502  12.305  0.0862  0.9877 -1.5401
 6189SOL     OW30028   0.568   3.192   2.604  0.9047 -0.9921 -0.3893
 6189SOL    HW130029   0.553   3.220   2.514 -0.3212  1.4512  0.5914
 6189SOL    HW230030   0.480   3.193   2.641  1.4723  1.1317  0.8574
 6190SOL     OW30031   1.179   0.391  10.873  0.2129  0.4780 -0.1098
 6190SOL    HW130032   1.184   0.303  10.912 -1.6542 -0.7812 -2.7037
 6190SOL    HW230033   1.226   0.439  10.941  1.1124 -3.2113  1.8798
 6191SOL     OW30034   0.908   0.357  14.487 -0.2986 -0.2061 -0.5576
 6191SOL    HW130035   0.872   0.399  14.409 -1.0512 -1.5189 -0.9143
 6191SOL    HW230036   0.873   0.418  14.553  1.6788 -1.8407  2.0323
 6192SOL     OW30037   0.676   4.651   3.052 -0.0195 -0.6343 -0.1836
 6192SOL    HW130038   0.656   0.021   3.045 -0.7473 -0.8431 -0.9213
 6192SOL    HW230039   0.598   4.605   3.085  0.6907 -1.0104  0.9732
 6193SOL     OW30040   0.273   1.794   4.178 -0.4815  0.1068 -0.1852
 6193SOL    HW130041   0.361   1.769   4.149  0.9552  4.1946  0.6138
 6193SOL    HW230042   0.231   1.824   4.098  0.7989 -2.9155 -1.9946
 6194SOL     OW30043   0.763   1.123   5.967  0.1124 -0.2997  0.1247
 6194SOL    HW130044   0.834   1.172   5.925  0.0242 -1.5007 -1.4207
 6194SOL    HW230045   0.710   1.194   6.003  1.3538  0.4599  0.4482
 6195SOL     OW30046   2.319   1.009   9.259 -0.0154  0.2139  0.4065
 6195SOL    HW130047   2.306   0.966   9.175 -1.4892 -0.2345  0.8540
 6195SOL    HW230048   2.371   0.942   9.304 -0.4575 -0.4113 -0.0120
 6196SOL     OW30049   3.668   1.747   6.561  0.1452 -0.0166  0.1888
 6196SOL    HW130050   3.587   1.716   6.521  1.1057 -1.2487 -0.8327
 6196SOL    HW230051   3.657   1.842   6.564 -1.1482 -0.0979 -2.0065
 6197SOL     OW30052   1.451   1.388  11.386 -0.3692  0.3792 -0.3216
 6197SOL    HW130053   1.516   1.378  11.456 -0.1991  1.0003 -0.3899
 6197SOL    HW230054   1.374   1.394  11.442 -0.8683  0.9754 -1.0790
 6198SOL     OW30055   1.173   3.195   8.765 -0.4448 -0.1968 -0.0416
 6198SOL    HW130056   1.111   3.267   8.753 -0.2474  0.4630  2.9016
 6198SOL    HW230057   1.265   3.216   8.753 -0.7333  0.5533 -0.9094
 6199SOL     OW30058   0.564   0.615   8.706  0.0671 -0.6497 -0.3461
 6199SOL    HW130059   0.504   0.574   8.644 -0.3061  0.0424 -0.4394
 6199SOL    HW230060   0.605   0.539   8.748 -1.5908 -1.7727 -0.7480
 6200SOL     OW30061   4.466   2.607   7.750 -0.3324  0.4014 -0.5794
 6200SOL    HW130062   4.477   2.598   7.844  1.3993 -2.6056 -1.0554
 6200SOL    HW230063   4.413   2.530   7.729  0.0906  0.0339 -0.2964
 6201SOL     OW30064   2.741   1.520   8.850  0.4128 -0.1160 -0.0695
 6201SOL    HW130065   2.747   1.515   8.755  0.6030 -0.3816 -0.0435
 6201SOL    HW230066   2.659   1.568   8.864 -0.4888 -1.6838 -0.0182
 6202SOL     OW30067   0.419   1.611   3.554 -0.0826 -0.1893 -0.1013
 6202SOL    HW130068   0.503   1.626   3.510 -1.8813  1.4224 -2.9904
 6202SOL    HW230069   0.358   1.565   3.496  0.0050 -0.6266  0.1573
 6203SOL     OW30070   4.551   2.911   4.273  0.3921 -0.3513  0.3163
 6203SOL    HW130071   4.575   2.938   4.184  2.7637  1.6941  1.5822
 6203SOL    HW230072   4.595   2.980   4.323  1.7191 -1.5348  0.7459
 6204SOL     OW30073   0.173   0.111   6.828  0.5870 -0.7592 -0.1348
 6204SOL    HW130074   0.151   0.048   6.760  0.0771  0.2695 -0.9205
 6204SOL    HW230075   0.096   0.166   6.815  0.2827 -0.5548  2.3717
 6205SOL     OW30076   4.288   4.015   5.304  0.4323  0.3627  0.8131
 6205SOL    HW130077   4.298   3.925   5.273 -4.1036  0.2004 -0.0914
 6205SOL    HW230078   4.280   4.010   5.399  0.9979 -1.9941  0.7426
 6206SOL     OW30079   2.272   1.490   9.867 -0.2020 -0.2054 -0.8002
 6206SOL    HW130080   2.309   1.576   9.889 -1.0834 -0.6166  2.1862
 6206SOL    HW230081   2.294   1.435   9.942  0.1633  0.2769 -0.5509
 6207SOL     OW30082   4.134   0.499  14.977  0.4779 -0.2043 -0.2746
 6207SOL    HW130083   4.048   0.541  14.973  0.5202 -0.4362 -3.2520
 6207SOL    HW230084   4.184   0.578  14.959 -0.1445  0.5305  1.1690
 6208SOL     OW30085   4.618   0.785   8.747  0.3087 -0.2228  0.3284
 6208SOL    HW130086   4.588   0.868   8.709  1.5336  0.7783  1.5039
 6208SOL    HW230087   4.670   0.810   8.824  1.5445  0.8220 -0.8430
 6209SOL     OW30088   1.942   3.555   4.812 -0.2983  0.4565  0.4996
 6209SOL    HW130089   2.027   3.599   4.812 -0.3238  0.4826 -2.2894
 6209SOL    HW230090   1.962   3.470   4.850 -0.3550  0.9722  1.6962
 6210SOL     OW30091   0.052   3.396  10.740 -0.3390 -0.7338  0.2536
 6210SOL    HW130092   0.132   3.420  10.786 -0.4317  0.0840 -0.0192
 6210SOL    HW230093   0.084   3.326  10.683  2.2897  1.8814 -1.4464
 6211SOL     OW30094   4.517   0.319   9.395  0.4685  0.2548 -0.5077
 6211SOL    HW130095   4.483   0.371   9.468 -1.3934 -1.3101 -0.2500
 6211SOL    HW230096   4.552   0.243   9.441 -0.9972  0.5959  1.1497
 6212SOL     OW30097   0.521   2.021   6.085  0.1289  0.2647 -0.0804
 6212SOL    HW130098   0.467   2.099   6.074 -2.4276 -0.8964  4.2017
 6212SOL    HW230099   0.462   1.953   6.053 -0.9803  1.9319 -1.5190
 6213SOL     OW30100   0.248   4.304  13.514  0.0152 -0.4202  0.4345
 6213SOL    HW130101   0.228   4.246  13.588  1.4799  0.8327  1.8179
 6213SOL    HW230102   0.301   4.378  13.546 -0.1089  0.0964 -0.5323
 6214SOL     OW30103   0.961   4.383   8.193 -0.4091 -0.0563 -0.0192
 6214SOL    HW130104   1.015   4.307   8.172 -2.9872 -2.4631  1.9946
 6214SOL    HW230105   0.939   4.365   8.285 -0.4494  1.8580  0.3290
 6215SOL     OW30106   2.364   3.657   0.735 -0.2514 -0.3911  0.0506
 6215SOL    HW130107   2.395   3.570   0.760  0.1842 -0.7267 -1.7059
 6215SOL    HW230108   2.269   3.650   0.743 -0.2633  0.2987  0.5516
 6216SOL     OW30109   1.942   4.234   3.217  0.5615 -0.1770  0.8692
 6216SOL    HW130110   1.952   4.300   3.285  0.4367 -0.3347  1.0422
 6216SOL    HW230111   1.951   4.151   3.265 -0.5733 -0.4576  0.5918
 6217SOL     OW30112   0.630   3.469   6.587  0.3867  0.8207 -0.4075
 6217SOL    HW130113   0.686   3.491   6.661  0.3517  1.5044 -0.5854
 6217SOL    HW230114   0.682   3.485   6.508 -0.4767  0.4952 -1.0442
 6218SOL     OW30115   1.501   1.449   3.097 -0.6678  0.4343  0.1367
 6218SOL    HW130116   1.498   1.356   3.120 -0.4547  0.3966  0.0016
 6218SOL    HW230117   1.428   1.454   3.035  1.2499  0.6957 -2.0558
 6219SOL     OW30118   1.226   3.459   2.585  0.9705 -0.0188 -0.0516
 6219SOL    HW130119   1.221   3.387   2.522 -0.0071  1.0054 -1.1456
 6219SOL    HW230120   1.139   3.453   2.624  0.7914  0.7466 -0.3298
 6220SOL     OW30121   1.480   1.480   2.017  0.2154 -0.7834 -0.6869
 6220SOL    HW130122   1.567   1.473   1.977  0.4479  2.2420 -0.7121
 6220SOL    HW230123   1.486   1.423   2.094  0.8450 -0.1402 -0.2594
 6221SOL     OW30124   1.123   1.396   1.018 -0.3561  0.0549  0.2115
 6221SOL    HW130125   1.105   1.469   0.959  2.7637 -0.4232 -1.3448
 6221SOL    HW230126   1.211   1.414   1.050 -0.5529 -0.0236  0.7996
 6222SOL     OW30127   3.038   2.516   8.238  0.3706 -0.3058  0.1834
 6222SOL    HW130128   3.012   2.424   8.234 -0.2658 -0.0551 -1.1801
 6222SOL    HW230129   3.033   2.543   8.330 -1.2618  1.0635 -0.2985
 6223SOL     OW30130   3.759   0.629   6.416 -0.6817  0.2444 -0.3309
 6223SOL    HW130131   3.786   0.650   6.326  0.9901  0.9929  0.3482
 6223SOL    HW230132   3.807   0.546   6.424 -0.7461 -0.0482 -2.9624
 6224SOL     OW30133   4.325   2.600  12.680 -0.0037 -0.4050  0.4025
 6224SOL    HW130134   4.310   2.695  12.683  1.6872 -0.1013 -0.7750
 6224SOL    HW230135   4.399   2.590  12.620 -0.0375  2.1438 -0.0653
 6225SOL     OW30136   1.681   4.264   9.973 -0.3193 -0.3606 -0.2872
 6225SOL    HW130137   1.674   4.245  10.067  1.0333 -2.2855 -0.5766
 6225SOL    HW230138   1.653   4.356   9.979  0.8060 -0.1467  1.7129
 6226SOL     OW30139   4.480   1.398   8.105 -0.1836 -0.5196  0.3226
 6226SOL    HW130140   4.435   1.483   8.098  0.9957  0.0888  0.1853
 6226SOL    HW230141   4.570   1.430   8.101  0.7552 -3.0285  1.6405
 6227SOL     OW30142   2.157   3.766  10.863  0.4029  0.0350  0.5596
 6227SOL    HW130143   2.198   3.853  10.871 -0.7946  0.4283  2.4413
 6227SOL    HW230144   2.173   3.741  10.954 -0.5089  2.0693  1.2861
 6228SOL     OW30145   0.319   2.249   8.972 -0.4487  0.1130 -0.2024
 6228SOL    HW130146   0.236   2.290   8.993 -0.1632  0.1996  0.7794
 6228SOL    HW230147   0.314   2.203   8.888 -3.1461  1.5547 -0.8317
 6229SOL     OW30148   3.424   3.291   9.716 -0.0483 -0.1729 -0.1017
 6229SOL    HW130149   3.489   3.222   9.726  0.5442  0.3588 -0.3397
 6229SOL    HW230150   3.467   3.364   9.672  0.1966  0.9315  1.9855
 6230SOL     OW30151   2.064   1.618  17.289  0.4811  0.3600  0.4307
 6230SOL    HW130152   2.110   1.606  17.207  0.8366 -1.1149  0.8492
 6230SOL    HW230153   2.110   1.542  17.324  0.1673  0.6737  1.5370
 6231SOL     OW30154   1.343   4.448   6.390 -0.3506 -0.1779  0.4877
 6231SOL    HW130155   1.363   4.541   6.378  2.5600 -0.9121 -0.3762
 6231SOL    HW230156   1.265   4.443   6.334  0.3746  2.1340 -0.7858
 6232SOL     OW30157   2.655   3.278   5.571  0.0321  0.0699 -0.5900
 6232SOL    HW130158   2.633   3.195   5.529 -0.8055 -0.8322  1.6279
 6232SOL    HW230159   2.744   3.291   5.537  0.4644 -0.8929  0.1496
 6233SOL     OW30160   1.068   4.073   6.875  0.4635  0.2666  0.6343
 6233SOL    HW130161   1.010   4.079   6.951  0.6232 -0.0652  0.7836
 6233SOL    HW230162   1.004   4.034   6.816 -0.5405  0.2967  1.7148
 6234SOL     OW30163   0.941   2.441   3.057 -0.7985 -0.2523 -0.0864
 6234SOL    HW130164   0.898   2.422   3.141  1.4536 -0.8486  0.9455
 6234SOL    HW230165   0.866   2.455   2.999  1.3194  1.2512 -2.4775
 6235SOL     OW30166   4.033   0.586   2.172 -0.2528  0.4205  0.9281
 6235SOL    HW130167   4.041   0.681   2.178 -0.7214  0.6125 -1.3487
 6235SOL    HW230168   3.995   0.555   2.089  0.6717 -2.8703  1.7374
 6236SOL     OW30169   3.952   4.493   3.296  0.1819  0.4632 -0.0489
 6236SOL    HW130170   3.863   4.471   3.266 -0.3755 -0.0445  1.9627
 6236SOL    HW230171   3.950   4.439   3.376 -1.6227 -0.4053 -0.6634
 6237SOL     OW30172   0.060   0.028   0.416 -0.0953 -1.0568 -0.1693
 6237SOL    HW130173   0.066   4.661   0.387 -0.5292 -1.1046 -0.1174
 6237SOL    HW230174   4.689   0.040   0.408 -0.3668 -1.1142  2.9780
 6238SOL     OW30175   3.765   2.119   7.765 -0.8024 -0.2987 -0.1513
 6238SOL    HW130176   3.857   2.101   7.746 -1.0328  2.4027 -3.8265
 6238SOL    HW230177   3.775   2.143   7.858  0.1086  1.9948 -0.8334
 6239SOL     OW30178   2.219   2.093   9.301 -0.2117 -0.3213 -0.1295
 6239SOL    HW130179   2.286   2.056   9.358  1.2504 -0.0363 -1.6555
 6239SOL    HW230180   2.207   2.180   9.337 -2.6724 -0.5389 -0.4175
 6240SOL     OW30181   0.661   4.133   7.288  0.2417 -0.4906  0.2913
 6240SOL    HW130182   0.702   4.081   7.219  1.2495  1.6016 -0.6958
 6240SOL    HW230183   0.568   4.123   7.267  0.1319  1.8627 -0.3358
 6241SOL     OW30184   0.668   3.666   5.520  0.2204 -0.5880  0.0605
 6241SOL    HW130185   0.614   3.629   5.449  0.7611 -0.7786 -0.2523
 6241SOL    HW230186   0.762   3.653   5.504  0.6446  1.3334  1.1244
 6242SOL     OW30187   2.677   3.258   3.113  0.1293 -0.0766  0.3180
 6242SOL    HW130188   2.731   3.332   3.086 -2.9621  2.2253  0.3656
 6242SOL    HW230189   2.741   3.189   3.100  1.5344  1.3168 -0.1421
 6243SOL     OW30190   3.287   3.619   1.320  0.5829  0.6308 -0.7971
 6243SOL    HW130191   3.312   3.569   1.242 -1.2772 -0.7161 -0.5377
 6243SOL    HW230192   3.374   3.645   1.350  0.5466 -1.7947  1.4837
 6244SOL     OW30193   2.557   0.079   4.146 -0.0879 -0.3348  0.0515
 6244SOL    HW130194   2.566   0.029   4.064 -0.6674  0.2891 -0.3861
 6244SOL    HW230195   2.482   0.031   4.182 -0.9439 -0.0082 -1.2894
 6245SOL     OW30196   3.667   2.064   0.340  0.0045  0.3759 -0.1220
 6245SOL    HW130197   3.580   2.100   0.324 -0.5801 -0.7917  0.3824
 6245SOL    HW230198   3.640   1.984   0.386  0.4456  0.6203  0.5583
 6246SOL     OW30199   4.232   2.728   3.662  0.4195  0.0933  0.7185
 6246SOL    HW130200   4.169   2.661   3.637  1.7259 -0.5555 -0.8588
 6246SOL    HW230201   4.309   2.696   3.614 -0.6742  0.1683 -1.0876
 6247SOL     OW30202   1.062   1.279   1.905  0.8328  0.1210  0.4040
 6247SOL    HW130203   1.051   1.337   1.830  0.4560 -0.7525 -0.2147
 6247SOL    HW230204   1.116   1.206   1.876  2.4984  2.5202 -2.4099
 6248SOL     OW30205   0.129   1.039   0.147 -0.0839  0.1289  0.4747
 6248SOL    HW130206   0.095   0.986   0.075  0.9170 -0.1603  0.2269
 6248SOL    HW230207   0.083   1.009   0.226 -2.7895 -1.9347 -1.8882
 6249SOL     OW30208   3.255   2.869   2.952 -0.2069 -0.1445  0.3427
 6249SOL    HW130209   3.350   2.879   2.946 -0.3381  1.9782  1.9784
 6249SOL    HW230210   3.227   2.955   2.923  0.6886  0.0458  0.0471
 6250SOL     OW30211   1.255   1.996  16.381  0.3317 -0.1973 -0.2020
 6250SOL    HW130212   1.250   2.080  16.334  0.8956  0.2842  0.6072
 6250SOL    HW230213   1.191   1.943  16.332 -1.9794  1.4255  1.0384
 6251SOL     OW30214   3.082   4.279  13.624 -0.3127  0.4887 -0.3292
 6251SOL    HW130215   3.038   4.215  13.567  2.3791 -1.0807 -0.6423
 6251SOL    HW230216   3.176   4.275  13.607 -0.4349  2.4519 -1.4459
 6252SOL     OW30217   2.424   0.582   3.772 -0.0961  0.5502 -0.1618
 6252SOL    HW130218   2.404   0.634   3.850 -0.0867  2.2920 -1.3475
 6252SOL    HW230219   2.466   0.501   3.802  0.0909  1.0015  0.8089
 6253SOL     OW30220   3.621   0.910  12.894 -0.2426 -0.6519 -0.2112
 6253SOL    HW130221   3.692   0.926  12.956  0.0713 -0.3369 -0.6534
 6253SOL    HW230222   3.563   0.852  12.944  2.0320 -2.7083  0.0852
 6254SOL     OW30223   0.520   2.821   4.567  0.2941 -0.4394 -0.8775
 6254SOL    HW130224   0.534   2.861   4.481 -0.1403 -1.2329 -1.3177
 6254SOL    HW230225   0.425   2.819   4.583  0.4657  0.7561  0.3246
 6255SOL     OW30226   0.426   3.867   1.293 -0.1229 -0.6555 -0.2360
 6255SOL    HW130227   0.486   3.793   1.294 -1.2019 -1.5710 -2.5634
 6255SOL    HW230228   0.347   3.816   1.312 -0.7401  0.4623  0.1708
 6256SOL     OW30229   4.366   2.344  17.226 -0.3894 -0.1269 -0.1139
 6256SOL    HW130230   4.272   2.353  17.236 -0.3231  1.5018 -0.9659
 6256SOL    HW230231   4.371   2.258  17.183  0.7963 -1.9255  3.6438
 6257SOL     OW30232   4.032   0.013  15.269  0.1400  0.6958 -0.0824
 6257SOL    HW130233   4.059   0.076  15.335 -0.2767 -1.0997  1.8121
 6257SOL    HW230234   4.102   0.025  15.204 -1.1754 -1.5993 -1.9316
 6258SOL     OW30235   4.141   1.535   4.188  0.1895 -0.1526 -0.0195
 6258SOL    HW130236   4.048   1.515   4.181 -0.4297  1.4810  3.7142
 6258SOL    HW230237   4.143   1.564   4.097  0.9153 -0.1849 -0.0171
 6259SOL     OW30238   0.709   4.440   7.174  0.3497 -0.5688  0.2862
 6259SOL    HW130239   0.706   4.411   7.083 -0.5633  1.6872 -0.4158
 6259SOL    HW230240   0.617   4.458   7.190  0.5211  2.2237 -1.8529
 6260SOL     OW30241   4.266   3.782   6.921  0.2471  0.1249  0.6830
 6260SOL    HW130242   4.279   3.847   6.991 -0.9452  0.0420  0.9825
 6260SOL    HW230243   4.350   3.738   6.931  0.3641 -0.0659 -1.1772
 6261SOL     OW30244   1.031   1.230   5.820  0.3616  0.0860  0.0796
 6261SOL    HW130245   0.963   1.257   5.758 -0.8124  0.9871  1.7731
 6261SOL    HW230246   1.094   1.300   5.800  1.1901 -0.9651 -0.9955
 6262SOL     OW30247   2.316   0.332  11.811  0.2736 -0.3974  0.3467
 6262SOL    HW130248   2.385   0.283  11.767  2.7097  0.2624  3.4367
 6262SOL    HW230249   2.331   0.323  11.905 -2.1881  0.1055  0.7869
 6263SOL     OW30250   2.557   1.410   9.071  0.6220 -0.3230  0.1011
 6263SOL    HW130251   2.642   1.455   9.068  0.4923  0.0728  2.3178
 6263SOL    HW230252   2.491   1.479   9.072  0.6971 -0.2542  0.6391
 6264SOL     OW30253   0.748   1.550   9.179 -0.1485  0.3521 -0.1683
 6264SOL    HW130254   0.798   1.583   9.253 -2.0575  0.0762  1.2273
 6264SOL    HW230255   0.789   1.463   9.181  0.6969  0.7655  0.3456
 6265SOL     OW30256   2.599   3.774  10.177 -0.1743 -0.0891  0.8332
 6265SOL    HW130257   2.542   3.739  10.109  1.3089 -0.5278 -0.1825
 6265SOL    HW230258   2.622   3.700  10.233  0.9871 -0.4371 -0.1058
 6266SOL     OW30259   4.229   1.255   4.270 -0.3712 -0.7193  0.1505
 6266SOL    HW130260   4.255   1.288   4.184  0.0006 -1.1220  0.1072
 6266SOL    HW230261   4.134   1.262   4.261 -0.3927 -1.1836  0.0003
 6267SOL     OW30262   3.865   0.806  17.249  0.8021  0.2749 -0.6759
 6267SOL    HW130263   3.832   0.844  17.330  0.6598 -1.7296  0.2205
 6267SOL    HW230264   3.806   0.731  17.245  1.0077  0.0683  0.0509
 6268SOL     OW30265   3.488   0.047   7.644  0.3247  0.0143  0.3724
 6268SOL    HW130266   3.477   0.136   7.609  0.2118  1.0194  2.9276
 6268SOL    HW230267   3.582   0.034   7.657  0.4023  0.0275 -0.1612
 6269SOL     OW30268   0.146   0.178  15.922  0.4245 -0.3064  0.3147
 6269SOL    HW130269   0.083   0.117  15.961 -1.0632  2.1094  1.6950
 6269SOL    HW230270   0.136   0.260  15.971  0.7396  0.1391 -0.3603
 6270SOL     OW30271   2.772   2.729   2.684  0.0444  0.1779  0.6034
 6270SOL    HW130272   2.793   2.670   2.612 -1.6136  1.3147 -0.7897
 6270SOL    HW230273   2.689   2.695   2.716 -0.2289 -0.1383 -0.4361
 6271SOL     OW30274   0.265   0.819   1.198  0.2624  0.2566  0.4159
 6271SOL    HW130275   0.295   0.737   1.236 -0.8321 -0.0391  0.6400
 6271SOL    HW230276   0.277   0.786   1.109  1.6132  3.3347 -0.5491
 6272SOL     OW30277   4.698   3.715   7.036  0.2779  0.4100  0.3426
 6272SOL    HW130278   4.628   3.691   7.096 -0.7812 -1.1708 -1.5109
 6272SOL    HW230279   0.005   3.795   7.079  0.6045  0.3645  0.1954
 6273SOL     OW30280   3.224   3.449   1.047 -0.4206 -0.5247  0.1051
 6273SOL    HW130281   3.165   3.446   0.971 -1.8678  3.5846  1.0928
 6273SOL    HW230282   3.279   3.512   1.002 -1.1091  0.5862  0.8081
 6274SOL     OW30283   2.251   2.969  10.089  0.7894 -0.4507  0.3637
 6274SOL    HW130284   2.319   2.987  10.024 -0.7973  2.4878 -0.5265
 6274SOL    HW230285   2.204   2.905  10.036  0.0647  0.7462 -0.4697
 6275SOL     OW30286   4.092   0.806  15.762  0.3824 -0.3454  0.1359
 6275SOL    HW130287   4.093   0.901  15.771 -1.8090 -0.1086 -2.0452
 6275SOL    HW230288   4.146   0.801  15.683  0.3988 -0.4053  0.1508
 6276SOL     OW30289   1.897   3.121   9.520 -0.4755  0.4693  0.2844
 6276SOL    HW130290   1.802   3.134   9.515 -0.5384  0.1938  0.7165
 6276SOL    HW230291   1.903   3.056   9.590 -1.6119 -0.7762 -0.7537
 6277SOL     OW30292   4.336   1.302   1.135  0.2449  0.4764 -0.1600
 6277SOL    HW130293   4.356   1.325   1.226 -0.2928  2.9513 -0.6717
 6277SOL    HW230294   4.420   1.259   1.123 -0.0125  0.1707 -0.8238
 6278SOL     OW30295   0.736   0.127  15.967 -0.1382  0.4342 -0.5361
 6278SOL    HW130296   0.694   0.043  15.984  0.0586  0.6417  0.9991
 6278SOL    HW230297   0.776   0.148  16.052 -0.9239 -0.9258  0.1605
 6279SOL     OW30298   3.265   1.976   3.719 -0.2589 -0.3761 -0.1205
 6279SOL    HW130299   3.287   2.003   3.808  0.4640  0.2811 -0.4957
 6279SOL    HW230300   3.170   1.967   3.729  0.0007 -2.1363  0.8007
 6280SOL     OW30301   3.853   2.744   2.539 -0.0461 -0.2734 -0.4192
 6280SOL    HW130302   3.774   2.776   2.496  0.3427 -1.3011 -1.8997
 6280SOL    HW230303   3.901   2.725   2.458  1.4548  2.8714 -0.2560
 6281SOL     OW30304   2.109   0.220   8.550 -0.5398  0.1273  0.3932
 6281SOL    HW130305   2.191   0.188   8.514 -0.3535  1.1547 -0.1200
 6281SOL    HW230306   2.112   0.173   8.633 -0.6857  1.7721  1.3407
 6282SOL     OW30307   0.851   1.142   8.045  0.0344  0.5046 -0.5023
 6282SOL    HW130308   0.882   1.114   7.958  0.4905 -0.0569 -0.1561
 6282SOL    HW230309   0.891   1.073   8.097 -0.8471  1.9133  2.0507
 6283SOL     OW30310   1.002   1.982   9.838 -0.3623  0.1370 -0.2149
 6283SOL    HW130311   1.090   2.015   9.816 -0.4714  0.0495 -0.7889
 6283SOL    HW230312   0.943   2.009   9.768  0.7716  0.1806 -1.1731
 6284SOL     OW30313   0.537   4.405   5.660  0.2849  0.1186  0.6648
 6284SOL    HW130314   0.574   4.343   5.597 -1.4499  0.6498 -0.8672
 6284SOL    HW230315   0.483   4.353   5.719  0.5462 -1.3660 -0.4245
 6285SOL     OW30316   3.403   2.666  11.856  0.5310 -0.6928  0.0914
 6285SOL    HW130317   3.360   2.691  11.774 -0.1366 -2.1569 -0.0068
 6285SOL    HW230318   3.327   2.618  11.890 -0.8950  2.1547  0.9224
 6286SOL     OW30319   2.069   3.484  11.151 -0.5199 -0.1315 -0.4243
 6286SOL    HW130320   2.000   3.480  11.217 -2.5792  0.4689 -2.5394
 6286SOL    HW230321   2.103   3.572  11.162  1.4206 -0.5474 -3.0524
 6287SOL     OW30322   4.611   2.914   5.259  0.5501 -0.1203  0.3227
 6287SOL    HW130323   4.670   2.869   5.320  1.7602 -0.6297 -1.2181
 6287SOL    HW230324   4.612   2.840   5.199  2.6213 -1.9555  2.6178
 6288SOL     OW30325   3.679   2.345   3.366  0.1428 -0.7466 -0.2763
 6288SOL    HW130326   3.669   2.423   3.420  0.5903  0.6167 -2.1744
 6288SOL    HW230327   3.666   2.274   3.429  0.0609 -0.7835 -0.3332
 6289SOL     OW30328   4.697   2.080  12.645 -0.1586 -0.6522  0.6206
 6289SOL    HW130329   4.700   2.075  12.549 -0.2434 -0.1326  0.5889
 6289SOL    HW230330   0.051   2.027  12.660  2.3603  3.1139  0.8092
 6290SOL     OW30331   4.222   1.172   2.092 -0.2954 -0.8607 -0.1202
 6290SOL    HW130332   4.263   1.243   2.141 -0.0613 -1.1055  0.0396
 6290SOL    HW230333   4.164   1.224   2.037  1.4040 -0.7656 -1.8467
 6291SOL     OW30334   0.870   1.788   0.576  0.0483 -0.1299 -0.2334
 6291SOL    HW130335   0.819   1.867   0.591  1.2945  0.7578 -0.6404
 6291SOL    HW230336   0.882   1.792   0.481 -2.4610  1.0421 -0.4858
 6292SOL     OW30337   1.500   1.712   0.697  0.1126 -0.2288  0.0473
 6292SOL    HW130338   1.444   1.691   0.622 -2.8163 -1.1324  2.5157
 6292SOL    HW230339   1.478   1.647   0.764  1.8315  0.9667  1.7657
 6293SOL     OW30340   3.840   4.556  12.854 -0.2202  0.1215  0.2174
 6293SOL    HW130341   3.848   4.507  12.772 -0.9715 -1.4904  1.0908
 6293SOL    HW230342   3.868   4.489  12.917 -1.0110 -0.6908 -0.2971
 6294SOL     OW30343   2.608   2.629   5.507 -0.2803  0.0527 -0.3947
 6294SOL    HW130344   2.579   2.561   5.447 -0.3753  0.6558 -1.0304
 6294SOL    HW230345   2.592   2.595   5.595 -1.8562  0.2253 -0.6318
 6295SOL     OW30346   2.176   3.544   4.065 -0.4472 -0.4661  0.4753
 6295SOL    HW130347   2.248   3.580   4.117 -1.9153  3.0542  0.0981
 6295SOL    HW230348   2.126   3.497   4.132 -1.1046 -0.1867  0.1774
 6296SOL     OW30349   0.509   0.796   5.643  0.7994  1.2648  0.0887
 6296SOL    HW130350   0.426   0.777   5.688  0.7608  0.3371 -0.3615
 6296SOL    HW230351   0.561   0.834   5.713  0.6492  2.1826 -0.2961
 6297SOL     OW30352   0.903   3.540  16.587 -0.2320 -0.0160  0.9143
 6297SOL    HW130353   0.858   3.458  16.568 -0.1885 -0.3882  2.3543
 6297SOL    HW230354   0.941   3.566  16.504 -3.4054  1.3460 -0.1174
 6298SOL     OW30355   4.186   3.729   1.669 -0.4887  0.0069  0.2985
 6298SOL    HW130356   4.120   3.661   1.661 -1.0199  0.5179  0.3419
 6298SOL    HW230357   4.215   3.723   1.760  1.6043 -0.7348 -0.4060
 6299SOL     OW30358   4.053   3.255   5.229  0.4965 -0.9105 -0.1047
 6299SOL    HW130359   4.027   3.336   5.271  1.2446 -0.0884 -1.2275
 6299SOL    HW230360   3.999   3.250   5.150 -0.6230 -0.6320  0.6507
 6300SOL     OW30361   0.856   4.313   5.447 -0.3111  0.8424 -0.2394
 6300SOL    HW130362   0.798   4.237   5.444  1.8507 -0.7524 -2.4215
 6300SOL    HW230363   0.924   4.293   5.512  1.9573  1.7987 -2.3156
 6301SOL     OW30364   2.037   0.760  13.635  0.0936 -0.0214  0.1212
 6301SOL    HW130365   2.129   0.777  13.614 -0.1962 -0.3830 -1.4083
 6301SOL    HW230366   2.049   0.668  13.658 -0.1483  0.8054  3.6402
 6302SOL     OW30367   0.111   1.122   9.616 -0.2981 -1.0152  0.7438
 6302SOL    HW130368   0.150   1.079   9.692 -2.2034  0.4323  2.5357
 6302SOL    HW230369   0.095   1.050   9.556  0.2272 -0.4725 -0.0401
 6303SOL     OW30370   3.207   3.488   6.647 -0.4699 -0.9009 -0.2742
 6303SOL    HW130371   3.155   3.420   6.688 -1.3505  0.1391  0.3146
 6303SOL    HW230372   3.251   3.526   6.723  0.1658 -0.0212 -1.0832
 6304SOL     OW30373   4.723   4.630   8.201 -0.3170  0.3973 -0.4079
 6304SOL    HW130374   0.023   4.546   8.162 -1.5542 -0.5683  0.9083
 6304SOL    HW230375   4.671   4.677   8.136 -0.7710  1.5804  0.7974
 6305SOL     OW30376   0.279   1.662   4.770  0.2807 -0.0682 -0.6000
 6305SOL    HW130377   0.281   1.598   4.842 -1.4463  1.6270  0.9537
 6305SOL    HW230378   0.195   1.642   4.729 -0.3825 -0.0907  0.7546
 6306SOL     OW30379   0.203   1.612   8.537  0.3195  0.2815 -0.1959
 6306SOL    HW130380   0.172   1.524   8.517 -1.1930  0.6467  0.4861
 6306SOL    HW230381   0.181   1.652   8.453  1.1910 -2.0352 -1.4919
 6307SOL     OW30382   1.907   2.356   4.476 -0.4379 -0.5038  0.8667
 6307SOL    HW130383   1.950   2.288   4.528  1.0301 -0.0234  0.2629
 6307SOL    HW230384   1.857   2.407   4.540  0.0947 -1.1050  1.7669
 6308SOL     OW30385   2.971   1.764  15.925 -0.1565  0.5405 -0.4462
 6308SOL    HW130386   2.954   1.797  15.837 -2.0378 -2.3320 -1.1769
 6308SOL    HW230387   3.063   1.739  15.915  0.3980  2.6010 -0.3880
 6309SOL     OW30388   0.314   3.431   6.907 -0.2271 -0.0841 -0.5785
 6309SOL    HW130389   0.259   3.468   6.975 -0.3212 -0.0902 -0.6514
 6309SOL    HW230390   0.252   3.382   6.852 -0.1161 -1.1900  0.2773
 6310SOL     OW30391   3.399   3.174   0.163  0.2489  0.2719 -0.2048
 6310SOL    HW130392   3.481   3.178   0.212  0.7058 -0.6228 -0.8830
 6310SOL    HW230393   3.377   3.266   0.177 -0.7594 -0.2751  1.7603
 6311SOL     OW30394   2.036   3.391   4.257  0.0976 -0.4119  0.0939
 6311SOL    HW130395   2.104   3.353   4.313  0.3126  0.3846  0.3632
 6311SOL    HW230396   1.995   3.438   4.329  3.8543 -1.1359  2.7386
 6312SOL     OW30397   2.057   0.867   6.422 -0.2500  0.6240  0.1854
 6312SOL    HW130398   2.017   0.787   6.457 -2.3898  1.2545 -0.7740
 6312SOL    HW230399   2.145   0.862   6.459 -0.2235 -0.0653  0.0412
 6313SOL     OW30400   3.134   3.827   1.296  0.2049 -0.4156  0.7794
 6313SOL    HW130401   3.172   3.740   1.306  0.7900 -0.0425  1.8013
 6313SOL    HW230402   3.073   3.813   1.224 -1.3233  0.4289  1.9198
 6314SOL     OW30403   4.498   1.054   4.722  0.4160 -0.4628  0.4943
 6314SOL    HW130404   4.404   1.072   4.724  0.6943  1.0148  0.2597
 6314SOL    HW230405   4.522   1.125   4.662 -2.3782 -0.4443 -0.5936
 6315SOL     OW30406   0.243   2.813   4.068 -0.2422 -0.4736  0.1155
 6315SOL    HW130407   0.322   2.823   4.015 -0.1715 -1.5279  0.0214
 6315SOL    HW230408   0.284   2.765   4.141 -0.1262 -1.1276 -0.3859
 6316SOL     OW30409   3.876   2.081   5.929  0.9083 -0.0333 -0.1801
 6316SOL    HW130410   3.783   2.079   5.952  0.4095  1.7081 -2.0119
 6316SOL    HW230411   3.878   2.027   5.851  0.8620 -0.3973  0.0706
 6317SOL     OW30412   2.104   0.641   3.643 -0.4360 -0.1464  0.0288
 6317SOL    HW130413   2.163   0.614   3.572 -1.1416 -2.3991  0.3161
 6317SOL    HW230414   2.150   0.716   3.680  2.4099 -1.2906 -1.2055
 6318SOL     OW30415   2.307   4.582  13.133  0.2660  0.0127 -0.3136
 6318SOL    HW130416   2.325   4.608  13.223  1.4686  0.3309 -0.6500
 6318SOL    HW230417   2.372   4.515  13.115 -1.4121 -1.4640 -0.8774
 6319SOL     OW30418   3.916   2.531  11.903 -0.3202  0.1144  0.3076
 6319SOL    HW130419   3.886   2.444  11.926  0.6260 -0.3958 -0.3537
 6319SOL    HW230420   3.901   2.578  11.985  1.7561 -1.3713  1.5334
 6320SOL     OW30421   0.937   4.614   7.211 -0.2784  0.4098 -0.0494
 6320SOL    HW130422   0.851   4.580   7.236 -1.5024  1.6110 -2.5705
 6320SOL    HW230423   0.920   4.631   7.118  2.3428 -0.3244 -0.6545
 6321SOL     OW30424   1.936   3.356   2.766  0.1546 -0.0937  0.0890
 6321SOL    HW130425   2.030   3.344   2.750 -0.0121  1.0015 -1.6313
 6321SOL    HW230426   1.930   3.449   2.786 -1.6061 -0.9705  3.7516
 6322SOL     OW30427   1.960   1.493   5.676  0.1108  0.1813 -0.2053
 6322SOL    HW130428   2.013   1.451   5.608 -1.8249 -1.4938 -0.6695
 6322SOL    HW230429   2.031   1.502   5.740  0.9033 -0.7381 -0.9542
 6323SOL     OW30430   2.673   2.569  12.089  0.1473  0.1383  0.6822
 6323SOL    HW130431   2.636   2.642  12.138 -2.1965  0.1138 -1.0509
 6323SOL    HW230432   2.598   2.554  12.031  1.1977  0.2986 -0.7246
 6324SOL     OW30433   1.240   3.645  11.481 -0.3714 -0.5098 -0.2822
 6324SOL    HW130434   1.271   3.695  11.405  1.0338  0.2735  0.7956
 6324SOL    HW230435   1.321   3.600  11.505 -1.0916 -0.5083  2.1434
 6325SOL     OW30436   0.897   0.352   2.654  0.1770 -0.0470  0.0828
 6325SOL    HW130437   0.846   0.433   2.660  0.3266 -0.0598  1.6346
 6325SOL    HW230438   0.879   0.325   2.564 -0.6427 -1.7439  0.7712
 6326SOL     OW30439   1.454   1.730   7.997 -0.0920  0.1273 -0.0826
 6326SOL    HW130440   1.414   1.652   7.960 -2.4015  2.0954 -1.7589
 6326SOL    HW230441   1.405   1.742   8.078  1.9433  0.5552  1.0818
 6327SOL     OW30442   3.853   0.048  14.561 -0.7620 -0.0630  0.9286
 6327SOL    HW130443   3.815   0.116  14.506  2.6122  1.3106  0.2774
 6327SOL    HW230444   3.939   0.039  14.518 -1.0686 -1.6613  0.6352
 6328SOL     OW30445   3.186   1.957   7.874  0.1378  0.0356 -0.1291
 6328SOL    HW130446   3.178   1.974   7.780 -0.1842 -1.6709 -0.4075
 6328SOL    HW230447   3.222   2.044   7.890  3.6066 -1.0454 -1.9415
 6329SOL     OW30448   3.733   1.522   9.398 -0.0325 -0.3682 -0.2846
 6329SOL    HW130449   3.805   1.514   9.460 -0.5736 -0.8515  0.2871
 6329SOL    HW230450   3.755   1.603   9.353 -0.2935 -1.2994 -2.0897
 6330SOL     OW30451   1.307   2.946   6.948 -0.8636  0.1079  0.5145
 6330SOL    HW130452   1.299   3.018   6.885 -0.2962  0.0019  0.3182
 6330SOL    HW230453   1.231   2.892   6.926  0.3795 -0.8968 -1.3304
 6331SOL     OW30454   1.887   2.444   5.063  0.3509 -0.0269  0.7579
 6331SOL    HW130455   1.945   2.520   5.056 -2.2967  1.9521  0.5584
 6331SOL    HW230456   1.958   2.381   5.048 -0.7034 -0.7351 -1.1343
 6332SOL     OW30457   1.207   1.272   5.186 -0.1372  0.1199  0.0924
 6332SOL    HW130458   1.170   1.360   5.174 -3.1187 -1.1648 -0.0324
 6332SOL    HW230459   1.191   1.236   5.099  1.1839 -2.4443  0.9127
 6333SOL     OW30460   3.068   2.997   9.316 -0.1763  0.0751 -0.0211
 6333SOL    HW130461   3.070   2.928   9.250  0.4790 -1.1983  1.3187
 6333SOL    HW230462   2.978   2.998   9.349 -1.0090  2.0460 -2.3901
 6334SOL     OW30463   4.292   1.672   3.159  0.3059  0.0995  0.8279
 6334SOL    HW130464   4.272   1.704   3.248 -2.8182  3.4586 -1.0892
 6334SOL    HW230465   4.213   1.708   3.119 -0.3265  0.4407  2.3518
 6335SOL     OW30466   3.282   4.382  15.816 -0.2882  0.5083 -0.2921
 6335SOL    HW130467   3.218   4.390  15.745 -2.6101 -0.2245  1.7026
 6335SOL    HW230468   3.230   4.322  15.869  0.2123  0.9170  0.6493
 6336SOL     OW30469   4.105   2.296   9.444 -0.2721  0.1471 -0.1572
 6336SOL    HW130470   4.095   2.241   9.366 -1.4620  0.2246 -0.0549
 6336SOL    HW230471   4.110   2.225   9.509 -0.1615 -0.7379 -1.1298
 6337SOL     OW30472   2.496   1.755   4.087  0.0151  0.1922 -0.3612
 6337SOL    HW130473   2.436   1.815   4.132 -1.1012  0.1477 -1.7883
 6337SOL    HW230474   2.420   1.714   4.046  1.9022 -1.0573 -2.5868
 6338SOL     OW30475   0.972   3.274   7.669  0.4530 -0.5088 -0.1902
 6338SOL    HW130476   0.913   3.214   7.623 -0.0332  0.1010 -0.3577
 6338SOL    HW230477   1.056   3.230   7.657  0.8805  0.3219 -0.2223
 6339SOL     OW30478   2.518   2.451   3.932 -0.6800 -0.1613  0.2197
 6339SOL    HW130479   2.437   2.501   3.942  0.7874  2.5569 -1.4811
 6339SOL    HW230480   2.504   2.399   3.853  0.1867 -1.7554  1.1069
 6340SOL     OW30481   0.760   3.698   8.596  0.5029  0.0950 -0.0361
 6340SOL    HW130482   0.785   3.726   8.684  0.3270 -3.0972  1.0225
 6340SOL    HW230483   0.686   3.640   8.617  1.5382 -1.6675 -1.1801
 6341SOL     OW30484   4.452   3.174   3.626  0.8391 -0.1716 -0.5254
 6341SOL    HW130485   4.383   3.137   3.681 -1.6401  2.5697 -1.8086
 6341SOL    HW230486   4.466   3.259   3.668 -0.3871 -0.7860  1.1489
 6342SOL     OW30487   1.238   0.105   6.603 -0.6433  0.3684 -0.2503
 6342SOL    HW130488   1.219   0.188   6.559 -0.8562  1.1265  1.2597
 6342SOL    HW230489   1.237   0.138   6.693 -1.2550 -2.6627  0.8336
 6343SOL     OW30490   4.447   1.672   5.660  0.3134 -0.0491  0.2075
 6343SOL    HW130491   4.456   1.577   5.659  2.8174  0.2078 -1.7423
 6343SOL    HW230492   4.352   1.679   5.665  0.1630 -2.2862  0.5727
 6344SOL     OW30493   4.670   0.913   5.710  0.1762 -0.0348  0.5907
 6344SOL    HW130494   4.697   0.949   5.625  1.1362 -2.3444 -0.0738
 6344SOL    HW230495   4.651   0.822   5.689  1.9253 -0.3138  0.1997
 6345SOL     OW30496   1.776   0.064   6.000  0.1252 -0.2898 -0.1489
 6345SOL    HW130497   1.816   0.017   5.926  0.6106 -2.8589  1.7441
 6345SOL    HW230498   1.751   4.713   6.054  0.6600  0.0287  0.5394
 6346SOL     OW30499   3.889   4.338   8.392  0.0900  0.1036  0.3332
 6346SOL    HW130500   3.946   4.412   8.414  0.9415 -0.6086  0.5158
 6346SOL    HW230501   3.865   4.356   8.301 -2.1984 -0.7910  0.7593
 6347SOL     OW30502   4.551   2.103   9.047  0.4185  0.0044 -0.2738
 6347SOL    HW130503   4.632   2.106   9.099  1.8630  0.0863 -2.5448
 6347SOL    HW230504   4.587   2.085   8.960  1.6960  1.4410 -0.0338
 6348SOL     OW30505   1.350   3.387   1.900  0.5419  0.3614 -0.0623
 6348SOL    HW130506   1.427   3.360   1.950 -0.3893  0.2605  1.2974
 6348SOL    HW230507   1.288   3.326   1.940  1.1834 -0.5077 -0.3770
 6349SOL     OW30508   1.820   1.228   8.836  0.2560  0.4607  0.0834
 6349SOL    HW130509   1.893   1.205   8.779 -0.1109  1.3407 -0.7411
 6349SOL    HW230510   1.810   1.146   8.885 -1.0511 -0.1618 -1.2282
 6350SOL     OW30511   1.531   3.800   2.891 -0.5574 -0.3958 -0.7907
 6350SOL    HW130512   1.533   3.805   2.796 -1.0886 -0.6234 -0.8116
 6350SOL    HW230513   1.440   3.778   2.905 -1.1550  1.3929 -1.8181
 6351SOL     OW30514   3.372   0.863   5.783 -0.2083 -0.2426 -0.2253
 6351SOL    HW130515   3.436   0.920   5.741  0.3203  0.0431  0.9644
 6351SOL    HW230516   3.298   0.909   5.743 -1.0360 -0.2917  1.2393
 6352SOL     OW30517   3.504   1.159   6.400  0.4849  0.1580  0.4028
 6352SOL    HW130518   3.516   1.247   6.436 -0.8123  0.0198  1.2039
 6352SOL    HW230519   3.575   1.117   6.447  0.2733 -0.5327  0.1033
 6353SOL     OW30520   0.289   0.219   8.992 -0.3269 -0.0740 -0.1781
 6353SOL    HW130521   0.251   0.138   8.957  0.0107 -0.1348 -0.4047
 6353SOL    HW230522   0.260   0.216   9.083  0.0612  0.2531 -0.0443
 6354SOL     OW30523   0.612   4.189  15.991  0.1123 -0.4071 -0.6823
 6354SOL    HW130524   0.654   4.110  15.958 -0.5621 -1.3165  0.6311
 6354SOL    HW230525   0.647   4.253  15.929  2.4381  0.3401  1.3952
 6355SOL     OW30526   1.373   1.492   7.918  0.2607 -0.4124  0.0197
 6355SOL    HW130527   1.434   1.419   7.927 -0.5095 -0.7917  2.1437
 6355SOL    HW230528   1.299   1.465   7.972  0.4696 -0.3423  0.3400
 6356SOL     OW30529   1.645   2.706   3.992 -0.0527  0.0111 -0.2646
 6356SOL    HW130530   1.715   2.770   3.994  0.9260 -1.1203  1.9379
 6356SOL    HW230531   1.580   2.744   3.933  0.1484  0.8472  0.0662
 6357SOL     OW30532   4.132   0.409  13.085  0.1583 -0.6760 -0.3022
 6357SOL    HW130533   4.069   0.402  13.013  1.1424 -0.1788 -1.2198
 6357SOL    HW230534   4.205   0.417  13.023 -0.4879 -0.3891 -1.0321
 6358SOL     OW30535   2.303   1.715   1.146 -0.0421  0.2512  0.2159
 6358SOL    HW130536   2.363   1.789   1.160  1.6294 -1.1389  0.3846
 6358SOL    HW230537   2.219   1.757   1.167 -0.9302 -0.5936 -1.6315
 6359SOL     OW30538   3.050   2.846   6.504  0.4582 -0.1035 -0.0016
 6359SOL    HW130539   2.967   2.802   6.524  0.5196 -0.2810 -0.1417
 6359SOL    HW230540   3.086   2.779   6.446 -0.5687  0.4345 -1.2599
 6360SOL     OW30541   1.489   2.870   6.491  0.0647 -0.3434  0.1140
 6360SOL    HW130542   1.442   2.806   6.543  2.4927 -0.8241  1.7405
 6360SOL    HW230543   1.446   2.953   6.512 -0.2394 -0.7083  0.9000
 6361SOL     OW30544   4.389   4.616   7.047  0.1227 -0.3191 -0.1829
 6361SOL    HW130545   4.476   4.656   7.035 -1.5938  2.5818 -2.9662
 6361SOL    HW230546   4.362   4.596   6.957 -0.4506 -1.0387  0.1475
 6362SOL     OW30547   2.553   1.983   8.088 -0.3261  0.2796  0.0082
 6362SOL    HW130548   2.464   1.975   8.052 -0.3298  0.9460 -0.1366
 6362SOL    HW230549   2.535   1.959   8.179  1.6541 -0.8615  0.0914
 6363SOL     OW30550   1.711   1.047  13.371  0.5340 -0.3387  0.2095
 6363SOL    HW130551   1.756   1.031  13.454 -1.8051  0.4901  1.6485
 6363SOL    HW230552   1.652   0.972  13.369  0.1244  0.0023 -0.7120
 6364SOL     OW30553   3.980   3.971  11.006 -0.1234  0.6282 -0.4255
 6364SOL    HW130554   3.909   3.909  10.986  0.7319 -0.5721  0.2826
 6364SOL    HW230555   4.001   4.003  10.918 -1.5513  1.5265 -0.4441
 6365SOL     OW30556   1.108   4.625   1.586  0.6249 -0.2938  0.4039
 6365SOL    HW130557   1.087   4.698   1.645 -1.5449 -1.7027  1.3653
 6365SOL    HW230558   1.177   4.575   1.630  0.6072 -1.4453 -0.8842
 6366SOL     OW30559   0.236   2.671   7.333 -0.0182 -0.5805 -0.4564
 6366SOL    HW130560   0.183   2.596   7.360 -2.0627  1.6802  1.7405
 6366SOL    HW230561   0.168   2.733   7.358  0.2693 -0.3867 -0.1355
 6367SOL     OW30562   3.811   1.494   1.904 -0.0631  0.1812  0.1959
 6367SOL    HW130563   3.900   1.514   1.935  0.2545  0.0616 -0.6255
 6367SOL    HW230564   3.819   1.405   1.870 -1.1539 -0.4183  1.5044
 6368SOL     OW30565   3.110   3.955  13.625  0.0203  0.1598 -0.2472
 6368SOL    HW130566   3.056   4.013  13.572 -1.4926 -1.4908 -0.5078
 6368SOL    HW230567   3.196   3.972  13.586 -1.6646  4.2032 -2.1996
 6369SOL     OW30568   3.827   0.765   5.436 -0.3271  0.4289 -0.1442
 6369SOL    HW130569   3.844   0.860   5.438  1.8509  0.0402 -0.2691
 6369SOL    HW230570   3.810   0.729   5.523 -1.2910  3.4580  0.9380
 6370SOL     OW30571   4.702   1.007   2.223  0.0987 -0.0854 -0.1851
 6370SOL    HW130572   4.718   1.083   2.279 -1.2668 -1.6608  2.3465
 6370SOL    HW230573   4.695   1.037   2.132  0.5462  1.2222  0.2164
 6371SOL     OW30574   2.489   0.881   6.387 -0.1239 -0.4728  0.4162
 6371SOL    HW130575   2.431   0.936   6.333  0.3515  0.2484  0.6334
 6371SOL    HW230576   2.506   0.938   6.462  2.4296 -0.2324 -0.3672
 6372SOL     OW30577   4.210   4.324   7.221 -0.5713  0.1751  0.3532
 6372SOL    HW130578   4.305   4.323   7.211 -0.7384 -2.9763 -0.9181
 6372SOL    HW230579   4.174   4.379   7.152  2.0755  2.6221  0.9541
 6373SOL     OW30580   0.087   2.395  15.573 -0.2233  0.1051 -0.5894
 6373SOL    HW130581   0.177   2.420  15.594 -0.8323  0.5488  1.4395
 6373SOL    HW230582   0.103   2.357  15.486  2.7506 -4.3193  1.8809
 6374SOL     OW30583   4.512   3.687  11.386 -0.1447 -0.1187  0.1911
 6374SOL    HW130584   4.598   3.729  11.373 -0.1190 -0.5492 -0.9733
 6374SOL    HW230585   4.538   3.595  11.393  2.6584  0.5828 -0.9025
 6375SOL     OW30586   0.664   0.707   6.902  0.4239 -0.5047 -0.2242
 6375SOL    HW130587   0.591   0.663   6.858 -1.6051  1.3055  1.3085
 6375SOL    HW230588   0.615   0.724   6.982 -0.5453  3.5707 -1.6596
 6376SOL     OW30589   3.255   2.358   3.715  0.7649  0.0288  0.7695
 6376SOL    HW130590   3.338   2.402   3.733  0.1916  1.0765  0.8919
 6376SOL    HW230591   3.213   2.345   3.800  1.0305  0.9322  1.0358
 6377SOL     OW30592   2.722   1.299  13.937  0.4992 -0.6156 -0.1536
 6377SOL    HW130593   2.809   1.326  13.966  1.0372 -0.1731 -2.1820
 6377SOL    HW230594   2.702   1.239  14.009 -2.6725  2.5837  1.6160
 6378SOL     OW30595   2.984   3.857   0.122 -0.0452 -0.3755  0.3691
 6378SOL    HW130596   2.988   3.762   0.114 -1.2243 -0.3991  0.0449
 6378SOL    HW230597   2.949   3.895   0.042 -2.5849 -0.1905  1.5764
 6379SOL     OW30598   1.914   3.801   3.130  0.1976 -0.5717 -0.5295
 6379SOL    HW130599   1.856   3.862   3.084 -0.6821 -0.9223  0.0996
 6379SOL    HW230600   1.956   3.749   3.062  0.8432  0.3215 -0.8050
 6380SOL     OW30601   3.623   3.934  14.282 -0.0755  0.1149 -0.0702
 6380SOL    HW130602   3.685   3.866  14.306  0.7668  0.7025 -0.5677
 6380SOL    HW230603   3.560   3.918  14.352 -1.1258 -2.5481 -1.6188
 6381SOL     OW30604   2.138   2.466   3.584  0.3834 -0.1447 -0.4206
 6381SOL    HW130605   2.226   2.448   3.551  0.7236  0.9420 -0.0933
 6381SOL    HW230606   2.074   2.429   3.522 -0.0618 -1.6017  0.9102
 6382SOL     OW30607   0.393   3.004  12.840 -0.0779 -0.2649 -0.0363
 6382SOL    HW130608   0.368   2.927  12.892 -1.0633  0.0468 -0.0415
 6382SOL    HW230609   0.393   2.968  12.752 -2.2197 -0.1800 -0.0745
 6383SOL     OW30610   2.142   2.331   5.204 -0.1736  0.5278  0.0758
 6383SOL    HW130611   2.183   2.414   5.178 -1.4880  1.2386  0.2575
 6383SOL    HW230612   2.117   2.349   5.295  0.4983 -0.9719  0.5586
 6384SOL     OW30613   2.850   3.940   7.566  0.3918 -0.0215 -0.0357
 6384SOL    HW130614   2.941   3.937   7.534 -0.0643 -0.0771 -1.3410
 6384SOL    HW230615   2.855   3.874   7.635 -0.0972  0.8233  0.8125
 6385SOL     OW30616   2.915   3.658   6.513  0.6019  0.1891 -0.3291
 6385SOL    HW130617   2.891   3.647   6.605 -2.7729  1.0270 -1.0848
 6385SOL    HW230618   2.830   3.692   6.483  1.2243  0.4427 -1.8305
 6386SOL     OW30619   3.059   2.405   8.527  0.2376 -0.5783  0.1901
 6386SOL    HW130620   3.152   2.399   8.550  0.2992  1.5925  0.4990
 6386SOL    HW230621   3.022   2.429   8.612  1.6832  0.4440  0.5297
 6387SOL     OW30622   2.612   4.060   3.244 -0.5919 -0.1809  0.6056
 6387SOL    HW130623   2.620   3.987   3.305  0.6866 -0.6098 -0.0755
 6387SOL    HW230624   2.537   4.111   3.275 -0.6588 -0.9065  1.6442
 6388SOL     OW30625   2.947   0.478  13.900  0.0105  0.5011  0.1978
 6388SOL    HW130626   2.891   0.545  13.940 -2.1904 -1.0138 -0.3580
 6388SOL    HW230627   3.004   0.462  13.975  0.5947  3.8058  0.4307
 6389SOL     OW30628   4.069   3.199   6.453 -0.0600  0.7688  0.1783
 6389SOL    HW130629   4.052   3.183   6.546  0.0211 -1.5134 -0.2054
 6389SOL    HW230630   4.013   3.138   6.404 -0.5666  0.5025  1.0967
 6390SOL     OW30631   1.470   3.223   7.886 -0.7635 -0.5526  0.1553
 6390SOL    HW130632   1.418   3.303   7.876 -0.0002  0.1383  1.6402
 6390SOL    HW230633   1.528   3.250   7.958 -1.2315 -0.4090  0.4806
 6391SOL     OW30634   4.220   0.317   6.562 -0.1272  0.1280 -0.0018
 6391SOL    HW130635   4.190   0.229   6.584 -0.1902  0.1380 -0.0486
 6391SOL    HW230636   4.230   0.314   6.467 -2.5138  2.4952 -0.3183
 6392SOL     OW30637   4.429   2.174   4.843  0.2922  0.5639 -0.3490
 6392SOL    HW130638   4.473   2.160   4.759  0.6480 -0.3131 -0.0226
 6392SOL    HW230639   4.410   2.266   4.831 -1.0574  0.4926  1.1422
 6393SOL     OW30640   3.092   0.815   4.045  0.8438  0.2949 -0.9935
 6393SOL    HW130641   3.102   0.877   4.117  1.7166 -1.0590  0.0594
 6393SOL    HW230642   3.022   0.861   3.998 -1.6545  1.0297  3.4094
 6394SOL     OW30643   4.523   1.847  14.024  0.0859  0.3535 -0.2581
 6394SOL    HW130644   4.465   1.911  13.982 -2.7705 -1.3760  1.1102
 6394SOL    HW230645   4.608   1.890  14.040 -0.0721  0.4124  0.3991
 6395SOL     OW30646   1.314   1.506   4.388 -0.2124 -0.1392  0.0571
 6395SOL    HW130647   1.339   1.595   4.412  1.3663 -1.0116  1.6496
 6395SOL    HW230648   1.404   1.476   4.374  0.0707  2.2763 -3.3052
 6396SOL     OW30649   3.130   3.546   4.483  0.6148  0.2877  0.5676
 6396SOL    HW130650   3.146   3.456   4.455  3.3150  0.9878 -0.0846
 6396SOL    HW230651   3.205   3.585   4.438  1.2056  1.2506  2.3999
 6397SOL     OW30652   3.419   3.508  17.254  0.4172 -0.4399 -0.0328
 6397SOL    HW130653   3.434   3.565  17.179 -0.2271 -2.9177 -2.0684
 6397SOL    HW230654   3.328   3.480  17.246  0.2958 -0.2029  0.5953
 6398SOL     OW30655   2.154   4.568   6.416  0.5867  0.1524 -0.1346
 6398SOL    HW130656   2.122   4.588   6.504  0.9974 -0.4777  0.1620
 6398SOL    HW230657   2.091   4.615   6.362 -0.2703 -1.9507 -0.9806
 6399SOL     OW30658   0.595   2.555   8.238  0.0713 -0.5260  0.0921
 6399SOL    HW130659   0.643   2.529   8.317 -2.0023  0.9524  1.8376
 6399SOL    HW230660   0.509   2.517   8.257  0.1623 -0.7898 -0.0208
 6400SOL     OW30661   2.505   1.408  15.188  0.3965  0.4353  0.0314
 6400SOL    HW130662   2.433   1.359  15.227 -0.3390  0.9975 -0.6139
 6400SOL    HW230663   2.540   1.349  15.120  1.1562  1.2311 -0.2610
 6401SOL     OW30664   0.835   1.715   3.126 -1.1479  0.0495 -0.0100
 6401SOL    HW130665   0.921   1.749   3.149 -0.5035 -0.6910 -1.3405
 6401SOL    HW230666   0.795   1.706   3.212 -1.6509 -3.4641 -0.5966
 6402SOL     OW30667   3.555   4.549   4.942  0.1841 -0.0900  0.2728
 6402SOL    HW130668   3.596   4.465   4.964  1.5150  0.2014 -1.0819
 6402SOL    HW230669   3.627   4.605   4.969  0.5937  0.4282 -1.9343
 6403SOL     OW30670   4.326   0.545   7.881  0.3749 -0.3923 -0.5449
 6403SOL    HW130671   4.267   0.579   7.948  1.7066 -0.3375  0.6227
 6403SOL    HW230672   4.351   0.632   7.850  1.6022  0.5928  3.2120
 6404SOL     OW30673   0.989   2.845  17.035 -0.3637  0.3776  0.6728
 6404SOL    HW130674   0.932   2.827  16.961  0.5479  0.9749 -0.1729
 6404SOL    HW230675   1.065   2.879  16.988 -1.7259 -0.1550 -1.9149
 6405SOL     OW30676   0.197   3.362  17.015  0.3854  0.1848  0.0691
 6405SOL    HW130677   0.205   3.453  17.042 -1.7780  0.3696  0.0874
 6405SOL    HW230678   0.232   3.370  16.926 -0.7726 -1.3896 -0.5215
 6406SOL     OW30679   2.379   3.890   5.570  0.8379  0.4096 -0.0669
 6406SOL    HW130680   2.409   3.804   5.539 -0.1220  0.2421 -0.5369
 6406SOL    HW230681   2.427   3.906   5.651 -0.0797  2.1168  0.1416
 6407SOL     OW30682   2.826   4.133   3.446 -0.1878 -0.6817  0.2237
 6407SOL    HW130683   2.786   4.206   3.492 -0.4439 -0.1575 -0.8230
 6407SOL    HW230684   2.764   4.133   3.374  2.0677 -0.1445 -1.7393
 6408SOL     OW30685   0.099   2.128   8.289 -0.2767 -0.0318  0.1614
 6408SOL    HW130686   0.062   2.154   8.373 -0.5983 -2.3110  0.7145
 6408SOL    HW230687   0.021   2.104   8.238 -0.7976  1.6291  0.1528
 6409SOL     OW30688   4.720   1.598   4.686  0.3452  0.1454 -0.1100
 6409SOL    HW130689   4.688   1.688   4.700  2.1170  0.6066  0.8750
 6409SOL    HW230690   4.693   1.584   4.595 -0.9728  2.3782 -0.0739
 6410SOL     OW30691   2.316   2.362   2.860  0.0154 -0.4438 -0.2061
 6410SOL    HW130692   2.305   2.399   2.948  1.3005  0.6378 -0.5000
 6410SOL    HW230693   2.242   2.405   2.818  0.6642  1.3122  0.4658
 6411SOL     OW30694   2.307   3.304   4.252  0.9284  0.1953  0.4249
 6411SOL    HW130695   2.371   3.316   4.181  0.6153 -0.4669  0.0322
 6411SOL    HW230696   2.360   3.311   4.331  0.0814 -0.7844  1.0794
 6412SOL     OW30697   2.856   4.602  14.232 -0.0520 -0.3521  0.0056
 6412SOL    HW130698   2.893   4.662  14.297 -0.4468  1.6769 -1.6403
 6412SOL    HW230699   2.934   4.558  14.200 -0.8066 -1.4896 -0.2616
 6413SOL     OW30700   3.601   2.241   3.917  0.2300  0.3148 -0.2856
 6413SOL    HW130701   3.566   2.319   3.873  3.1288  0.8424 -1.6334
 6413SOL    HW230702   3.695   2.256   3.905 -0.2244  2.8706 -0.6601
 6414SOL     OW30703   0.436   0.138   7.565  0.0228  0.0331 -0.5089
 6414SOL    HW130704   0.447   0.080   7.640 -1.0397 -1.6373 -1.6415
 6414SOL    HW230705   0.508   0.109   7.509 -1.1554  0.2215 -2.1380
 6415SOL     OW30706   1.931   3.204   3.010  0.2421  0.4315  0.3973
 6415SOL    HW130707   1.891   3.239   2.930 -0.8078 -1.5870  0.0366
 6415SOL    HW230708   1.920   3.278   3.070 -0.8473 -0.1522  0.9272
 6416SOL     OW30709   2.563   1.851  13.132 -0.4063  0.5645 -0.0998
 6416SOL    HW130710   2.522   1.884  13.052 -0.0108 -2.1020 -1.4015
 6416SOL    HW230711   2.574   1.760  13.104  0.2758  1.3854 -2.4712
 6417SOL     OW30712   3.849   0.881   4.324 -0.8513 -0.2575 -0.1281
 6417SOL    HW130713   3.767   0.900   4.278 -0.5389 -2.2508 -1.4808
 6417SOL    HW230714   3.850   0.921   4.411 -0.1075  2.4556 -1.3856
 6418SOL     OW30715   1.903   2.172   2.063 -0.0508  0.2494  0.1980
 6418SOL    HW130716   1.864   2.157   1.976  1.7999  1.8226 -0.9184
 6418SOL    HW230717   1.826   2.217   2.099 -0.9554  0.5026 -1.9911
 6419SOL     OW30718   2.037   2.200   6.359 -0.3461 -0.5505  0.0793
 6419SOL    HW130719   2.118   2.152   6.344  0.5179  0.8536  0.1477
 6419SOL    HW230720   2.070   2.284   6.392  2.0164 -1.9421  1.2578
 6420SOL     OW30721   2.373   1.705   8.533 -0.1399 -0.3809 -0.1522
 6420SOL    HW130722   2.324   1.646   8.477 -1.8876  0.8051  0.1378
 6420SOL    HW230723   2.320   1.784   8.517 -1.1898 -1.2148 -0.7748
 6421SOL     OW30724   4.547   3.792   1.072 -0.6410 -0.0686 -0.0422
 6421SOL    HW130725   4.489   3.772   0.998 -1.3934  1.8285  0.0472
 6421SOL    HW230726   4.514   3.879   1.094  1.0291  0.7902 -0.9562
 6422SOL     OW30727   4.550   3.790   6.832 -0.2444 -0.1485  0.6959
 6422SOL    HW130728   4.586   3.878   6.822  1.0436 -0.7885 -0.2683
 6422SOL    HW230729   4.604   3.754   6.902 -0.1126  1.4447  1.4122
 6423SOL     OW30730   3.105   3.489   2.336  0.2184 -0.3862  0.5369
 6423SOL    HW130731   3.134   3.579   2.328  0.4450 -0.3864  1.3856
 6423SOL    HW230732   3.015   3.493   2.303 -0.5258  0.8334  2.7906
 6424SOL     OW30733   4.053   4.241   7.929 -0.1733  0.5046 -0.1967
 6424SOL    HW130734   4.006   4.290   7.861 -2.9172  0.1456  1.4320
 6424SOL    HW230735   4.098   4.175   7.877  0.6083 -0.3756  1.6233
 6425SOL     OW30736   2.132   2.890  10.574  0.0099  0.4848  0.3132
 6425SOL    HW130737   2.047   2.914  10.537  0.8048 -0.5952 -2.2760
 6425SOL    HW230738   2.136   2.956  10.643 -0.3229  0.2776  0.5265
 6426SOL     OW30739   0.320   2.113  13.733  0.2216 -0.7103 -0.1945
 6426SOL    HW130740   0.258   2.127  13.661  0.6126  1.3733 -0.1231
 6426SOL    HW230741   0.373   2.047  13.688  1.7788 -1.0067  2.1061
 6427SOL     OW30742   0.408   2.285   8.485 -0.1164  0.1140  0.3159
 6427SOL    HW130743   0.343   2.272   8.554  0.3937 -1.5717  0.4926
 6427SOL    HW230744   0.375   2.362   8.439 -0.6521 -0.2392  0.1129
 6428SOL     OW30745   1.605   3.646   4.992 -0.0049 -0.5148 -0.1892
 6428SOL    HW130746   1.594   3.552   4.981  2.7735 -0.6042 -2.0696
 6428SOL    HW230747   1.608   3.678   4.902 -1.1819 -0.9720 -0.3940
 6429SOL     OW30748   1.308   3.565  16.576  0.7365 -0.4717  0.2341
 6429SOL    HW130749   1.267   3.541  16.493 -1.9729  2.7045  0.6648
 6429SOL    HW230750   1.382   3.505  16.572  2.0471  1.0499  1.5291
 6430SOL     OW30751   0.058   4.542   4.241  0.2897 -0.2773 -0.2191
 6430SOL    HW130752   4.717   4.565   4.174  1.7311 -2.9059 -2.4957
 6430SOL    HW230753   0.024   4.456   4.267 -0.2750 -0.3900 -1.3069
 6431SOL     OW30754   3.004   2.831   6.990  0.1749 -0.7976 -0.0184
 6431SOL    HW130755   2.942   2.898   6.960  0.3261 -1.8002 -2.5533
 6431SOL    HW230756   3.060   2.838   6.913  0.3596 -0.6910  0.1266
 6432SOL     OW30757   2.174   4.675  16.871  0.1806  0.3230  0.5384
 6432SOL    HW130758   2.226   0.014  16.922  0.9950  0.3884 -0.3838
 6432SOL    HW230759   2.116   0.012  16.824 -1.4978 -1.6454  0.0629
 6433SOL     OW30760   2.537   0.914   4.838  0.3511 -0.1614 -0.5968
 6433SOL    HW130761   2.518   0.853   4.909  0.9940  1.8185  1.2670
 6433SOL    HW230762   2.591   0.977   4.885 -0.3922 -0.7010  1.0088
 6434SOL     OW30763   4.061   1.727  13.569  0.0720  0.1133 -0.0818
 6434SOL    HW130764   4.089   1.780  13.643  1.6462  0.1421 -0.7011
 6434SOL    HW230765   4.141   1.695  13.527 -1.2439 -2.7644 -0.4261
 6435SOL     OW30766   1.919   1.105   8.384 -0.1124 -0.2941  0.0841
 6435SOL    HW130767   1.924   1.109   8.479  1.2498  4.5680 -0.1784
 6435SOL    HW230768   1.920   1.199   8.366  1.0116  0.1159  2.2856
 6436SOL     OW30769   4.379   3.075   6.527  0.4942  0.1593  0.9941
 6436SOL    HW130770   4.456   3.118   6.489  0.3372  1.4910  2.1812
 6436SOL    HW230771   4.348   3.139   6.591  1.2500 -0.3101  1.8246
 6437SOL     OW30772   4.470   4.609   5.759 -0.2222 -0.4950 -0.5652
 6437SOL    HW130773   4.514   4.694   5.763  2.6219 -2.0697  1.7536
 6437SOL    HW230774   4.540   4.564   5.711  0.1159  0.3156 -0.8392
 6438SOL     OW30775   1.088   1.658   6.691 -0.3908 -0.3227 -0.0905
 6438SOL    HW130776   1.091   1.665   6.595 -0.0402  1.5636  0.0711
 6438SOL    HW230777   1.012   1.712   6.712  0.8781  2.3849 -2.4914
 6439SOL     OW30778   4.512   2.801   7.226  0.3352  0.1260  0.2542
 6439SOL    HW130779   4.417   2.811   7.232  0.3167  0.5080 -0.7154
 6439SOL    HW230780   4.531   2.864   7.157  1.7585  0.0725  0.6137
 6440SOL     OW30781   1.045   4.621   0.424  0.0600 -0.1097 -0.1046
 6440SOL    HW130782   1.002   4.542   0.393 -0.2761  0.9264 -2.2477
 6440SOL    HW230783   0.972   4.679   0.403 -0.4877 -1.0524 -0.7925
 6441SOL     OW30784   0.217   1.258   8.174 -0.5484 -0.2793  0.0812
 6441SOL    HW130785   0.168   1.195   8.228  0.4249 -0.0868  1.1945
 6441SOL    HW230786   0.292   1.279   8.231  0.6184 -0.2601 -1.4577
 6442SOL     OW30787   1.970   3.845   5.783 -0.1970 -0.5299  0.1904
 6442SOL    HW130788   1.884   3.877   5.810  1.3646  2.6410  1.4513
 6442SOL    HW230789   1.965   3.889   5.698 -1.4551 -0.1664  0.4535
 6443SOL     OW30790   2.951   1.099   5.356  0.4010 -0.2321  0.6784
 6443SOL    HW130791   2.973   1.159   5.427 -3.7446 -0.9172  2.5544
 6443SOL    HW230792   2.904   1.027   5.399 -1.1672 -0.2700 -1.1127
 6444SOL     OW30793   3.014   0.569   7.886  0.3633 -0.1744  0.6564
 6444SOL    HW130794   3.011   0.618   7.967  0.8499 -1.0722  1.2150
 6444SOL    HW230795   2.939   0.611   7.844  0.7373  0.8752  1.0408
 6445SOL     OW30796   3.375   2.702   1.693 -0.4718  0.3713 -0.2583
 6445SOL    HW130797   3.440   2.720   1.761  1.8764  0.9723 -2.6690
 6445SOL    HW230798   3.393   2.610   1.675  1.7251  0.6237  0.5912
 6446SOL     OW30799   2.833   1.701   1.538  0.7796  0.3558 -0.6027
 6446SOL    HW130800   2.799   1.773   1.485  0.1980  2.6527  2.8128
 6446SOL    HW230801   2.865   1.744   1.618 -1.5238  0.2882  0.3535
 6447SOL     OW30802   0.622   4.607   8.587  0.5397 -0.2538  0.0256
 6447SOL    HW130803   0.554   4.578   8.648  0.1191 -1.5082 -1.0428
 6447SOL    HW230804   0.702   4.607   8.639 -0.0444  2.0556  0.9469
 6448SOL     OW30805   0.423   0.864   8.632 -0.4558 -0.3695  0.2681
 6448SOL    HW130806   0.402   0.771   8.637 -1.5409 -0.1200  0.3691
 6448SOL    HW230807   0.502   0.859   8.578 -0.4823 -0.2541  0.2185
 6449SOL     OW30808   2.355   2.968   4.778 -0.0306  0.0022  0.0419
 6449SOL    HW130809   2.355   2.980   4.683 -0.2985 -1.5163 -0.1431
 6449SOL    HW230810   2.437   3.010   4.804  0.2366 -0.4046 -0.1566
 6450SOL     OW30811   0.254   1.149   2.851 -0.3348  0.0039 -0.1217
 6450SOL    HW130812   0.300   1.160   2.768  1.7113 -2.2675  0.7258
 6450SOL    HW230813   0.244   1.054   2.862  1.7145  0.0488  1.9875
 6451SOL     OW30814   4.613   0.857  10.081  0.0679  0.0184  0.6676
 6451SOL    HW130815   4.687   0.898  10.126  0.3221 -1.1440  1.3207
 6451SOL    HW230816   4.633   0.767  10.107 -1.5514  0.1278  2.3280
 6452SOL     OW30817   3.991   4.348   4.595 -0.1860  0.1183  0.2861
 6452SOL    HW130818   3.915   4.406   4.608 -1.2171 -0.9247 -1.0928
 6452SOL    HW230819   3.951   4.265   4.569  0.1590 -0.5934  2.0322
 6453SOL     OW30820   3.830   0.903   8.910  0.2742 -0.2068 -0.7901
 6453SOL    HW130821   3.825   0.919   9.005  0.3222  1.4160 -1.0516
 6453SOL    HW230822   3.791   0.986   8.881 -1.2080 -0.1855  1.2827
 6454SOL     OW30823   2.504   2.229   1.818  0.3462 -0.1911 -0.0299
 6454SOL    HW130824   2.491   2.209   1.910 -0.0935 -0.0356 -0.0592
 6454SOL    HW230825   2.417   2.244   1.782  0.8137  2.0735 -0.2218
 6455SOL     OW30826   1.067   4.404   6.318 -0.2122 -0.5505 -0.1391
 6455SOL    HW130827   1.095   4.440   6.402 -2.7885  0.3724  0.3337
 6455SOL    HW230828   1.015   4.479   6.289 -1.4915 -0.5424  2.1593
 6456SOL     OW30829   1.347   0.471   5.235  0.2640 -0.0440 -0.0109
 6456SOL    HW130830   1.414   0.537   5.216 -0.7909  0.6548 -1.2680
 6456SOL    HW230831   1.316   0.487   5.324 -0.5243 -2.4643  0.1602
 6457SOL     OW30832   2.708   4.293   5.327  0.4366  0.4490 -0.2419
 6457SOL    HW130833   2.632   4.241   5.301  1.8287 -1.8656  0.2228
 6457SOL    HW230834   2.777   4.249   5.276  0.7412 -0.7076  1.1619
 6458SOL     OW30835   0.186   0.752   6.106 -0.7509 -0.1493 -1.1467
 6458SOL    HW130836   0.203   0.843   6.130 -0.5413 -0.7837  1.0810
 6458SOL    HW230837   0.094   0.750   6.132  0.0156 -0.9001  1.5083
 6459SOL     OW30838   4.270   0.095   7.609 -0.2851  0.8566  0.4128
 6459SOL    HW130839   4.244   0.181   7.644 -0.7892 -0.0682  2.3282
 6459SOL    HW230840   4.359   0.083   7.641 -1.0664  0.7627  2.5589
 6460SOL     OW30841   1.296   4.559   2.060 -0.0978 -0.6710 -0.0277
 6460SOL    HW130842   1.291   4.629   1.994  0.8761  0.5463  1.1835
 6460SOL    HW230843   1.248   4.603   2.130 -2.6316 -2.8904 -0.3635
 6461SOL     OW30844   1.836   0.926   5.262 -0.1183  0.0728 -0.4257
 6461SOL    HW130845   1.787   0.994   5.215  2.0708  1.4995 -0.6862
 6461SOL    HW230846   1.831   0.845   5.213 -1.8572 -0.3476  0.4354
 6462SOL     OW30847   4.491   4.135   9.218  0.4226 -0.0077  0.2583
 6462SOL    HW130848   4.486   4.107   9.310 -0.8477 -0.9281 -0.1012
 6462SOL    HW230849   4.523   4.224   9.233 -0.8794  0.5851 -0.4850
 6463SOL     OW30850   4.642   1.763  12.763 -0.5759  0.5269  0.0889
 6463SOL    HW130851   4.706   1.763  12.692 -1.2084  0.5611 -0.4724
 6463SOL    HW230852   4.651   1.672  12.790 -2.1504 -0.2590 -2.1159
 6464SOL     OW30853   2.384   4.554  13.600 -0.9044  0.1746  0.8040
 6464SOL    HW130854   2.477   4.533  13.605 -1.1657 -0.7791  1.6823
 6464SOL    HW230855   2.348   4.467  13.585  0.3296 -0.1122 -0.4536
 6465SOL     OW30856   1.718   3.570   2.995  0.0044 -0.3680 -0.0905
 6465SOL    HW130857   1.651   3.606   2.937  0.8229  2.5428  0.7580
 6465SOL    HW230858   1.786   3.571   2.929 -0.6670 -1.8135 -0.7854
 6466SOL     OW30859   0.323   3.641   9.304  0.2551 -0.0926 -0.7236
 6466SOL    HW130860   0.380   3.707   9.345 -1.0450  0.8826 -0.4993
 6466SOL    HW230861   0.267   3.607   9.374  0.7079  0.9076  0.1277
 6467SOL     OW30862   1.096   1.910  15.899 -0.3549  0.3284 -0.0914
 6467SOL    HW130863   1.075   1.971  15.828 -1.7635 -1.9662 -1.6500
 6467SOL    HW230864   1.191   1.915  15.911 -0.4202 -0.1302  0.5807
 6468SOL     OW30865   3.571   4.494   6.471  0.0014 -0.9120  0.3752
 6468SOL    HW130866   3.484   4.460   6.449  0.6569 -2.0781 -0.3783
 6468SOL    HW230867   3.555   4.588   6.463 -0.4569 -0.9250  1.0994
 6469SOL     OW30868   4.156   1.143   7.079  0.2825 -0.3871  0.3304
 6469SOL    HW130869   4.074   1.117   7.036  0.6226 -2.2193  0.7826
 6469SOL    HW230870   4.133   1.229   7.112  0.5673 -0.3785  0.4992
 6470SOL     OW30871   4.395   1.608   7.426 -0.2622 -0.4543  0.3545
 6470SOL    HW130872   4.482   1.607   7.386  0.4271 -1.2077  1.8553
 6470SOL    HW230873   4.356   1.521   7.431  0.7417 -0.8842  0.6788
 6471SOL     OW30874   2.841   4.491   5.470 -0.1861 -0.1815 -0.7905
 6471SOL    HW130875   2.817   4.419   5.411  0.3531 -1.4768  0.5666
 6471SOL    HW230876   2.936   4.485   5.466 -0.0514  0.3109  1.5578
 6472SOL     OW30877   0.854   2.850  14.434  0.5170  0.1077 -0.3584
 6472SOL    HW130878   0.937   2.873  14.392  1.1602 -1.0574  0.2769
 6472SOL    HW230879   0.842   2.933  14.479  2.4301  0.8608 -1.2690
 6473SOL     OW30880   2.726   2.626  17.176  0.2472  0.1664  0.1138
 6473SOL    HW130881   2.789   2.678  17.227 -0.8619  0.5942  1.0428
 6473SOL    HW230882   2.782   2.560  17.136  0.6742  2.0960 -2.4852
 6474SOL     OW30883   3.517   2.391   5.006 -0.6447  0.4617 -0.2974
 6474SOL    HW130884   3.531   2.300   5.033  0.7803 -0.0753 -2.8201
 6474SOL    HW230885   3.576   2.396   4.931 -2.7186 -0.4790 -1.9938
 6475SOL     OW30886   1.146   2.885  14.525 -0.4200  0.3303 -0.3661
 6475SOL    HW130887   1.231   2.863  14.485 -0.3582  0.4300 -0.2890
 6475SOL    HW230888   1.138   2.979  14.514  0.9691  0.2049 -2.3554
 6476SOL     OW30889   3.140   3.531  17.139  0.7064 -0.1773 -0.4972
 6476SOL    HW130890   3.054   3.550  17.104  0.7969  0.2029 -0.5087
 6476SOL    HW230891   3.182   3.470  17.077  0.4755 -0.8843  0.0386
 6477SOL     OW30892   1.896   3.938   7.241 -0.1398 -0.5519  0.5509
 6477SOL    HW130893   1.965   3.968   7.300  1.1872 -2.3007 -0.1104
 6477SOL    HW230894   1.941   3.934   7.157  1.8698  0.6426  1.5843
 6478SOL     OW30895   3.751   4.496   4.649  0.5299 -0.3487 -0.8434
 6478SOL    HW130896   3.747   4.551   4.571 -0.9262  1.7421  0.6993
 6478SOL    HW230897   3.749   4.556   4.724  2.8705 -1.4552  0.0943
 6479SOL     OW30898   0.687   4.336   6.035  0.3675  0.6773  0.2990
 6479SOL    HW130899   0.602   4.381   6.026  0.3059  0.7387  1.2075
 6479SOL    HW230900   0.667   4.288   6.116  1.0795  0.5519  0.3950
 6480SOL     OW30901   3.753   0.673   5.675 -0.1624 -0.0858  0.6447
 6480SOL    HW130902   3.718   0.585   5.664  0.9073 -0.2157 -1.8471
 6480SOL    HW230903   3.690   0.720   5.731 -0.6794 -0.3876  0.3187
 6481SOL     OW30904   3.214   4.141   0.379 -0.3001 -0.0801  0.4470
 6481SOL    HW130905   3.295   4.182   0.407  0.0179  0.1388 -0.8087
 6481SOL    HW230906   3.235   4.107   0.292 -1.0549  0.7006 -0.0426
 6482SOL     OW30907   1.559   1.349   4.397 -0.1360 -0.0597  0.2274
 6482SOL    HW130908   1.552   1.280   4.331  0.4167 -1.7235  1.8935
 6482SOL    HW230909   1.621   1.302   4.454 -0.0032 -1.5635 -1.1722
 6483SOL     OW30910   1.310   2.094   5.833  0.3531  0.1889  0.4972
 6483SOL    HW130911   1.264   2.167   5.792  2.3971  1.5105  0.5701
 6483SOL    HW230912   1.385   2.141   5.868 -0.5448  1.2198  1.0260
 6484SOL     OW30913   3.075   4.329   2.109 -0.1735 -0.6162 -0.1742
 6484SOL    HW130914   2.984   4.312   2.136  0.0412  0.8651  1.4395
 6484SOL    HW230915   3.068   4.361   2.019 -0.1253  0.9976  0.4092
 6485SOL     OW30916   2.322   1.866   9.157 -0.5266  0.6193 -0.2008
 6485SOL    HW130917   2.277   1.940   9.198 -1.2958 -0.7048  1.3795
 6485SOL    HW230918   2.401   1.906   9.123  0.0437 -2.0371 -1.9982
 6486SOL     OW30919   1.355   3.304   4.770  0.1138 -0.0337  0.1603
 6486SOL    HW130920   1.287   3.261   4.719 -0.7792  0.3282  1.0405
 6486SOL    HW230921   1.376   3.230   4.827  0.1100  0.6915  1.1102
 6487SOL     OW30922   1.727   2.269   7.808 -0.3031  0.4334 -0.0607
 6487SOL    HW130923   1.653   2.329   7.798 -0.2448  0.3556 -0.9354
 6487SOL    HW230924   1.686   2.202   7.863 -1.4851  1.4958  0.3326
 6488SOL     OW30925   0.395   1.485  13.471  0.2156 -0.2169 -0.2703
 6488SOL    HW130926   0.428   1.519  13.388  0.7774  1.2387  0.5686
 6488SOL    HW230927   0.311   1.532  13.477 -0.6771 -1.7990 -0.2636
 6489SOL     OW30928   0.929   3.871   2.419  0.3173 -0.1243  0.5235
 6489SOL    HW130929   0.920   3.782   2.454 -4.4438  0.3955  0.6173
 6489SOL    HW230930   0.977   3.843   2.341  0.5411 -1.5881  1.1840
 6490SOL     OW30931   2.836   3.448   8.392  0.5409  0.0416 -1.1250
 6490SOL    HW130932   2.791   3.533   8.391 -0.1364 -0.2821  1.0054
 6490SOL    HW230933   2.770   3.392   8.351  1.9931 -1.9620 -0.7207
 6491SOL     OW30934   1.623   1.785  17.019  0.0960 -0.0557  0.0091
 6491SOL    HW130935   1.697   1.734  17.051  1.5968  1.2006 -1.4446
 6491SOL    HW230936   1.655   1.810  16.932  0.8775  0.4147  0.4327
 6492SOL     OW30937   3.836   2.575   8.102 -0.3767  0.1625 -0.0981
 6492SOL    HW130938   3.890   2.649   8.128  0.2209 -0.2930 -0.0283
 6492SOL    HW230939   3.752   2.588   8.147  0.7899  1.8894  1.5588
 6493SOL     OW30940   1.495   2.154   6.898  0.0906 -0.3622  0.3534
 6493SOL    HW130941   1.540   2.181   6.818  1.1886 -0.8399  0.8179
 6493SOL    HW230942   1.531   2.066   6.904  0.1671 -0.2813  1.1290
 6494SOL     OW30943   2.667   3.851   2.886 -0.0293  0.4637 -0.2329
 6494SOL    HW130944   2.652   3.763   2.920  0.4773 -0.3578 -2.0830
 6494SOL    HW230945   2.593   3.855   2.826 -0.5084 -0.0581  0.3320
 6495SOL     OW30946   3.967   4.505  10.954 -0.4392  0.3484 -0.1559
 6495SOL    HW130947   4.058   4.511  10.982 -0.1230 -2.0521 -0.7029
 6495SOL    HW230948   3.950   4.587  10.907  1.8718  0.6219 -0.5142
 6496SOL     OW30949   0.278   1.237  12.734  0.1670  0.4035 -0.4263
 6496SOL    HW130950   0.270   1.331  12.753  0.2646  0.2929  0.1605
 6496SOL    HW230951   0.205   1.202  12.786  1.3834 -1.9194 -0.3146
 6497SOL     OW30952   4.718   0.447   5.880 -0.4987  0.9758 -0.0812
 6497SOL    HW130953   4.651   0.393   5.923  0.1574 -0.6112 -1.0298
 6497SOL    HW230954   0.070   0.404   5.920 -0.9922 -0.4900 -0.7213
 6498SOL     OW30955   0.853   1.113   8.891 -0.2256 -0.0615  0.4925
 6498SOL    HW130956   0.890   1.038   8.844 -0.3592  0.6787 -0.7916
 6498SOL    HW230957   0.922   1.179   8.880 -0.5110 -0.0466 -1.1716
 6499SOL     OW30958   0.014   0.974   9.392 -0.4524 -0.1171  0.4659
 6499SOL    HW130959   4.648   0.980   9.425 -1.6733 -2.8482 -2.3542
 6499SOL    HW230960   0.009   0.890   9.345  2.2549 -0.1368  0.2234
 6500SOL     OW30961   3.925   1.256   2.642 -0.2062 -0.4081  0.3002
 6500SOL    HW130962   3.873   1.266   2.562  1.8535 -1.1618 -1.1295
 6500SOL    HW230963   4.008   1.289   2.608 -1.0150  0.7789 -0.4955
 6501SOL     OW30964   4.379   2.202  10.466 -0.1033  0.2011 -0.5320
 6501SOL    HW130965   4.462   2.249  10.472  1.1761 -1.9459 -1.5958
 6501SOL    HW230966   4.319   2.270  10.434  2.9694  2.3437 -1.7941
 6502SOL     OW30967   2.383   1.196   5.332  0.2025 -0.0285  0.1761
 6502SOL    HW130968   2.384   1.189   5.236  1.7019 -2.3787  0.3497
 6502SOL    HW230969   2.470   1.226   5.361  1.0530  0.5431 -2.9361
 6503SOL     OW30970   1.280   2.461   8.642 -0.1371  0.0507 -0.2885
 6503SOL    HW130971   1.236   2.543   8.619  2.8598  1.2424 -1.6928
 6503SOL    HW230972   1.299   2.422   8.557 -0.8890 -0.7235 -0.1108
 6504SOL     OW30973   2.924   4.065  16.827  0.0100 -0.0586  0.2322
 6504SOL    HW130974   2.842   4.114  16.837  1.2201  1.6659  1.7263
 6504SOL    HW230975   2.945   4.066  16.734 -1.4202 -2.5487 -0.1092
 6505SOL     OW30976   4.289   3.870  12.024 -0.0551 -0.0705  0.3059
 6505SOL    HW130977   4.197   3.856  12.005 -0.1940  0.2147  0.7815
 6505SOL    HW230978   4.326   3.862  11.936  0.3821 -0.2884  0.5050
 6506SOL     OW30979   1.271   2.773   3.355 -0.1456  0.1043 -0.0671
 6506SOL    HW130980   1.256   2.856   3.399 -0.1390  0.9027 -1.5572
 6506SOL    HW230981   1.246   2.795   3.265  0.7929  0.2366 -0.2902
 6507SOL     OW30982   1.806   3.043  16.082 -0.2506 -0.4811  0.0265
 6507SOL    HW130983   1.824   3.035  15.988 -2.8028 -0.1557 -0.4923
 6507SOL    HW230984   1.844   3.129  16.103  0.1681 -1.1719  2.0552
 6508SOL     OW30985   2.504   2.939  16.327 -0.0325  0.1123  0.1944
 6508SOL    HW130986   2.594   2.919  16.351 -0.5851 -1.6848  0.7470
 6508SOL    HW230987   2.457   2.856  16.323  0.9693 -0.4501  0.2260
 6509SOL     OW30988   4.245   1.532  12.067  0.0587 -0.5038  0.0520
 6509SOL    HW130989   4.316   1.470  12.051  1.3577  1.2510 -1.0566
 6509SOL    HW230990   4.281   1.603  12.013 -1.9380  0.8107  0.4594
 6510SOL     OW30991   4.454   1.522   6.652  0.0681 -0.1506  0.0350
 6510SOL    HW130992   4.362   1.507   6.631  0.4221 -0.3882 -1.3579
 6510SOL    HW230993   4.477   1.564   6.569  0.3573 -0.7271 -0.1788
 6511SOL     OW30994   3.531   2.780   6.236  0.3306 -0.2032 -0.0678
 6511SOL    HW130995   3.528   2.759   6.143  2.1193  3.6772 -1.0029
 6511SOL    HW230996   3.615   2.753   6.274  0.5306 -0.7375 -0.8888
 6512SOL     OW30997   4.308   1.705   2.512 -0.0774  0.1680  0.2002
 6512SOL    HW130998   4.393   1.698   2.468  0.3527  0.1447  1.0413
 6512SOL    HW230999   4.325   1.707   2.606 -0.8953 -1.0975  0.3842
 6513SOL     OW31000   1.191   0.583   4.224 -0.2735 -0.7564 -0.5147
 6513SOL    HW131001   1.192   0.661   4.280 -0.4055 -1.3433  0.3118
 6513SOL    HW231002   1.104   0.552   4.248 -0.6258  0.8952  0.3065
 6514SOL     OW31003   3.326   3.847  17.312  0.0376  0.6972 -0.2307
 6514SOL    HW131004   3.267   3.881  17.244  3.3239  0.0127 -3.4185
 6514SOL    HW231005   3.392   3.801  17.260  0.0695  0.0374  0.4000
 6515SOL     OW31006   4.449   1.263   2.234  0.6538 -0.0521 -0.4866
 6515SOL    HW131007   4.537   1.288   2.206  0.1906  1.0213 -0.9960
 6515SOL    HW231008   4.420   1.353   2.248  3.3756  0.1400  3.6489
 6516SOL     OW31009   3.737   2.234  13.114  0.3551 -0.0476  0.6886
 6516SOL    HW131010   3.666   2.276  13.163 -0.1154  2.5980 -2.2375
 6516SOL    HW231011   3.767   2.170  13.178 -2.4907  1.3460  3.4466
 6517SOL     OW31012   2.081   1.587  10.420  0.2943 -0.5147  0.1381
 6517SOL    HW131013   2.134   1.667  10.426  1.8202 -1.5275  0.0640
 6517SOL    HW231014   2.005   1.594  10.477  0.0370  0.0375 -0.2746
 6518SOL     OW31015   1.392   0.788  13.879  0.1153  0.3049 -0.4375
 6518SOL    HW131016   1.440   0.753  13.954  1.4503 -1.1884 -1.9894
 6518SOL    HW231017   1.406   0.713  13.821 -0.5178 -0.8189  0.8676
 6519SOL     OW31018   0.101   2.020   4.074  0.1738 -0.3135  0.1270
 6519SOL    HW131019   0.032   1.960   4.045 -1.0359 -0.1110  2.5382
 6519SOL    HW231020   0.084   2.044   4.165  2.1105  1.2831  0.0554
 6520SOL     OW31021   3.347   1.073   5.498 -0.0159 -0.0626 -0.1569
 6520SOL    HW131022   3.367   1.069   5.592  2.6595 -1.4306 -0.7807
 6520SOL    HW231023   3.329   0.984   5.467 -1.1094  0.0012  0.2969
 6521SOL     OW31024   0.805   2.874   6.564  0.0801  0.3470  0.4399
 6521SOL    HW131025   0.851   2.861   6.481 -0.4297 -0.1686  0.2334
 6521SOL    HW231026   0.816   2.965   6.590  1.0534 -0.1414  1.7144
 6522SOL     OW31027   0.917   0.863   8.152 -0.1056  0.1987 -0.1952
 6522SOL    HW131028   0.836   0.890   8.194  2.0571  2.6121  2.4255
 6522SOL    HW231029   0.881   0.803   8.087 -1.0215  0.0812  0.4258
 6523SOL     OW31030   3.998   2.768   9.143  0.0078  0.2513  0.9610
 6523SOL    HW131031   4.002   2.708   9.217 -1.8385 -0.3918  0.5181
 6523SOL    HW231032   4.091   2.779   9.120  0.4187  0.1280  2.5581
 6524SOL     OW31033   2.550   1.696   9.412  0.1891 -0.0379  0.1230
 6524SOL    HW131034   2.551   1.708   9.507 -2.6197  1.1604  0.0238
 6524SOL    HW231035   2.463   1.656   9.407  1.4456 -2.5578 -1.7532
 6525SOL     OW31036   0.755   0.250   7.398  0.3019 -0.0026  0.4999
 6525SOL    HW131037   0.718   0.162   7.391 -0.4719  0.2840  1.0178
 6525SOL    HW231038   0.741   0.283   7.309  0.5941 -0.3042  0.3401
 6526SOL     OW31039   3.037   1.392   1.326 -0.1200 -0.6978  0.1015
 6526SOL    HW131040   2.943   1.406   1.324 -0.0663 -0.3380  0.0904
 6526SOL    HW231041   3.065   1.425   1.241 -3.2001  1.6908  0.0627
 6527SOL     OW31042   4.314   0.236   9.212 -0.2082  0.1571 -0.0824
 6527SOL    HW131043   4.291   0.322   9.178 -1.5501 -1.0794 -2.3169
 6527SOL    HW231044   4.382   0.260   9.275 -1.2363  0.1848  1.0277
 6528SOL     OW31045   2.233   4.681  14.577  0.3673 -0.0938 -0.4741
 6528SOL    HW131046   2.205   4.638  14.657  0.3410  0.4487 -0.1954
 6528SOL    HW231047   2.159   4.653  14.523 -0.2233 -0.5135  0.5659
 6529SOL     OW31048   0.934   4.141  16.668  0.1663  0.2529 -1.0899
 6529SOL    HW131049   0.876   4.198  16.719  0.4878 -0.9478  0.6341
 6529SOL    HW231050   0.914   4.153  16.576 -0.3856 -0.2199 -1.0312
 6530SOL     OW31051   0.658   1.162   2.707  0.6779 -0.5141  0.0778
 6530SOL    HW131052   0.699   1.138   2.624  1.2435 -1.1002  0.5258
 6530SOL    HW231053   0.565   1.161   2.688  0.7938 -0.4763 -0.4744
 6531SOL     OW31054   4.172   3.245   1.838  0.0074 -0.4110  0.0542
 6531SOL    HW131055   4.204   3.156   1.825  0.8030 -0.2229  0.7846
 6531SOL    HW231056   4.078   3.227   1.843 -0.3827  1.2760 -0.7821
 6532SOL     OW31057   0.843   1.238   2.880  0.8671  0.1227  0.6535
 6532SOL    HW131058   0.797   1.305   2.931  1.1796 -0.1590  1.2982
 6532SOL    HW231059   0.780   1.226   2.809  1.3997  1.6555 -0.0748
 6533SOL     OW31060   3.673   2.717  15.967 -0.9284  0.3197  0.2284
 6533SOL    HW131061   3.724   2.795  15.987 -1.2703  0.7652 -0.6466
 6533SOL    HW231062   3.587   2.737  16.006 -2.4506 -1.6433 -2.0692
 6534SOL     OW31063   0.179   0.224   2.066 -0.1361  0.1458 -0.0364
 6534SOL    HW131064   0.174   0.165   2.141  1.1288 -0.2585 -0.2578
 6534SOL    HW231065   0.109   0.280   2.099  0.0501  0.1204  0.3988
 6535SOL     OW31066   4.390   3.891  17.672 -0.3891 -0.2129 -0.5366
 6535SOL    HW131067   4.438   3.971  17.651  2.3420 -1.1415  2.1395
 6535SOL    HW231068   4.355   3.875  17.585  0.7514  0.9825 -1.2257
 6536SOL     OW31069   1.771   1.512   6.740  0.3046 -0.0995  0.4509
 6536SOL    HW131070   1.680   1.542   6.732  0.9074  1.2387 -1.4955
 6536SOL    HW231071   1.813   1.592   6.773  0.3318 -0.7739  2.0323
 6537SOL     OW31072   2.978   2.983   0.831 -0.1624 -0.1539  0.0737
 6537SOL    HW131073   3.053   3.038   0.810 -0.2900  0.6027  1.6149
 6537SOL    HW231074   3.028   2.907   0.801 -0.9076 -0.6057 -0.0308
 6538SOL     OW31075   0.872   3.746   0.715 -0.8848  0.4439  0.0540
 6538SOL    HW131076   0.797   3.687   0.725 -0.4837  0.0386  0.5918
 6538SOL    HW231077   0.947   3.688   0.725  0.7769  2.4350 -0.9369
 6539SOL     OW31078   0.726   1.966   7.047  0.0725 -0.2751  0.2295
 6539SOL    HW131079   0.730   2.027   6.973 -1.2440 -1.2445 -0.6410
 6539SOL    HW231080   0.816   1.935   7.035 -0.2973 -2.3019  2.7743
 6540SOL     OW31081   1.690   3.418   7.340 -0.4608 -0.2015 -0.1316
 6540SOL    HW131082   1.613   3.430   7.284 -1.1228  0.0280  0.8305
 6540SOL    HW231083   1.738   3.468   7.273  1.0338  0.6470  1.5797
 6541SOL     OW31084   1.568   2.204   4.214 -0.1891 -0.0763  0.1045
 6541SOL    HW131085   1.571   2.274   4.278  0.8202  0.6376 -0.7235
 6541SOL    HW231086   1.656   2.166   4.219  0.3358  1.4255  2.1793
 6542SOL     OW31087   2.973   1.267   8.402  0.1791 -0.4938  0.3889
 6542SOL    HW131088   2.991   1.252   8.309 -1.3824  2.0393 -0.3283
 6542SOL    HW231089   2.990   1.361   8.401  2.2555 -0.8842  0.3997
 6543SOL     OW31090   3.923   0.684  14.323  0.2842  0.0818  0.2417
 6543SOL    HW131091   3.984   0.717  14.257  0.2320 -0.5905 -0.1312
 6543SOL    HW231092   3.969   0.605  14.350  1.7641  0.0203 -2.4636
 6544SOL     OW31093   1.349   3.635   8.914  0.6118  0.0224  0.2659
 6544SOL    HW131094   1.409   3.654   8.841  1.3121 -4.0088 -0.2438
 6544SOL    HW231095   1.420   3.623   8.977 -0.3081  0.2198  1.3269
 6545SOL     OW31096   4.056   1.747  17.071 -0.9736 -0.3139  0.2735
 6545SOL    HW131097   3.977   1.792  17.099 -0.7994  1.6428 -2.3194
 6545SOL    HW231098   4.016   1.660  17.060 -1.6513 -0.3324  2.8840
 6546SOL     OW31099   0.751   3.213  10.781 -0.2978  0.3327  0.1811
 6546SOL    HW131100   0.731   3.122  10.758  0.8339 -0.3044  1.7534
 6546SOL    HW231101   0.680   3.235  10.841 -1.8545  3.5846 -2.8767
 6547SOL     OW31102   2.116   3.449  12.735  0.1603  0.1713 -0.1320
 6547SOL    HW131103   2.191   3.490  12.778 -0.5379  0.9173  0.3741
 6547SOL    HW231104   2.153   3.448  12.646  1.2681 -0.3974  0.3285
 6548SOL     OW31105   2.180   0.537   5.092 -0.0560  0.1026 -0.2434
 6548SOL    HW131106   2.234   0.535   5.013  1.0404  1.5229  0.4740
 6548SOL    HW231107   2.210   0.614   5.139 -0.4430 -1.2443  2.1905
 6549SOL     OW31108   0.530   0.230   0.098  0.2886  0.1508 -0.1020
 6549SOL    HW131109   0.574   0.299   0.147 -1.3271 -0.0404  1.6099
 6549SOL    HW231110   0.609   0.201   0.051  0.7344  3.0827 -1.1392
 6550SOL     OW31111   2.015   4.320   8.389  0.1632 -0.2051  0.7018
 6550SOL    HW131112   1.924   4.331   8.418 -0.1283 -0.7362 -0.0121
 6550SOL    HW231113   2.025   4.403   8.342 -0.6104 -0.4929  0.0287
 6551SOL     OW31114   0.699   3.369   4.113 -0.1827  0.4840 -0.6199
 6551SOL    HW131115   0.730   3.418   4.189  0.0859 -0.5842 -0.0386
 6551SOL    HW231116   0.749   3.288   4.124  0.6014  1.4316  2.9150
 6552SOL     OW31117   1.448   1.309   9.457 -1.1365  0.0854 -0.3964
 6552SOL    HW131118   1.518   1.286   9.519 -3.4012 -0.8250  1.8593
 6552SOL    HW231119   1.415   1.225   9.424 -0.2251 -0.9603  1.3487
 6553SOL     OW31120   2.985   1.990   8.077  0.8124 -0.2807  0.1404
 6553SOL    HW131121   3.056   2.019   8.020  0.2327  0.9025  0.0222
 6553SOL    HW231122   3.021   1.914   8.123  1.3646 -0.6013 -0.8202
 6554SOL     OW31123   2.015   0.838  13.904  0.1997 -0.3184 -0.0549
 6554SOL    HW131124   1.928   0.877  13.902  1.0904  1.6790 -0.1116
 6554SOL    HW231125   2.023   0.828  13.809  1.6878  0.7198 -0.0521
 6555SOL     OW31126   2.407   0.716   4.644  0.0396 -0.4046 -0.1899
 6555SOL    HW131127   2.457   0.781   4.692  1.0307 -1.7854  0.6560
 6555SOL    HW231128   2.319   0.752   4.630 -0.8442 -2.4540  0.1161
 6556SOL     OW31129   4.521   4.662  12.350  0.0028 -0.3861  0.4156
 6556SOL    HW131130   4.567   4.629  12.272  0.4943 -0.6488  0.8183
 6556SOL    HW231131   4.576   0.013  12.374  0.1097 -0.7347  1.2352
 6557SOL     OW31132   3.963   1.038   2.812 -0.1821  0.0362  0.0502
 6557SOL    HW131133   3.959   1.120   2.761  1.6975  0.1573  0.0982
 6557SOL    HW231134   3.912   0.978   2.758  1.3835 -0.8747 -0.4038
 6558SOL     OW31135   3.738   1.865  16.436 -0.5716 -0.6350 -0.3826
 6558SOL    HW131136   3.665   1.926  16.431 -1.0144 -1.0633  0.8687
 6558SOL    HW231137   3.739   1.839  16.344 -0.1454  1.5306 -0.9914
 6559SOL     OW31138   0.780   0.743   6.139  0.0038  0.4262  0.4076
 6559SOL    HW131139   0.698   0.792   6.148 -0.3598 -0.4457  1.8285
 6559SOL    HW231140   0.748   0.655   6.119  0.2014  0.6635 -0.9504
 6560SOL     OW31141   3.301   1.515   8.022 -0.2334  0.2715 -0.3105
 6560SOL    HW131142   3.348   1.525   8.104 -0.1093  2.1053 -0.6174
 6560SOL    HW231143   3.215   1.489   8.056 -0.0432 -0.5948 -0.4857
 6561SOL     OW31144   1.480   3.267  16.699 -0.4971 -0.0941 -0.4048
 6561SOL    HW131145   1.551   3.213  16.665  2.6888  3.0004  1.3361
 6561SOL    HW231146   1.525   3.349  16.679  1.1067 -0.5554  1.2110
 6562SOL     OW31147   3.217   4.620   4.149 -0.4054 -0.0338 -0.0662
 6562SOL    HW131148   3.161   4.686   4.189 -0.6145 -1.3637  1.8421
 6562SOL    HW231149   3.306   4.653   4.159 -0.7605  1.2870 -1.3134
 6563SOL     OW31150   3.848   2.291  12.040  0.4653 -0.3011  0.0540
 6563SOL    HW131151   3.797   2.215  12.010 -2.2507  1.1836  0.8522
 6563SOL    HW231152   3.936   2.259  12.024  0.9278  1.2863 -0.5513
 6564SOL     OW31153   1.391   1.306   4.675 -0.3103  0.3687 -0.0759
 6564SOL    HW131154   1.425   1.384   4.631 -1.8310  0.4978 -1.0103
 6564SOL    HW231155   1.341   1.345   4.747 -2.0087  0.9810 -1.5836
 6565SOL     OW31156   2.491   2.604   0.609  0.3555  0.0093  0.4719
 6565SOL    HW131157   2.532   2.679   0.567  0.6189 -0.9406 -0.9828
 6565SOL    HW231158   2.428   2.649   0.665  0.3032  0.1108  0.3308
 6566SOL     OW31159   4.270   3.825  17.428 -1.0223 -0.0123 -0.1089
 6566SOL    HW131160   4.212   3.899  17.417  0.3986  1.2841  1.0754
 6566SOL    HW231161   4.215   3.747  17.424 -1.6378  0.3230  1.8912
 6567SOL     OW31162   3.214   2.565  10.749  0.3673 -0.0710  0.0159
 6567SOL    HW131163   3.228   2.606  10.835 -1.9045 -0.1396  0.4140
 6567SOL    HW231164   3.160   2.488  10.768 -0.4421  0.4586 -0.1515
 6568SOL     OW31165   2.615   0.803   2.225 -0.2646  0.5050  0.1120
 6568SOL    HW131166   2.615   0.836   2.135 -0.2165 -2.8671 -1.1131
 6568SOL    HW231167   2.535   0.841   2.262 -0.6188  0.0568 -0.1972
 6569SOL     OW31168   3.924   2.011   3.494  0.5588  0.0107  0.0801
 6569SOL    HW131169   3.838   2.052   3.503 -1.2224 -3.5975 -0.8054
 6569SOL    HW231170   3.991   2.078   3.505  1.6354 -1.5264  3.0871
 6570SOL     OW31171   0.185   0.285   8.405  0.3205  0.3797 -0.1777
 6570SOL    HW131172   0.129   0.340   8.350  0.8250 -0.0248 -1.1060
 6570SOL    HW231173   0.272   0.322   8.394  1.1138 -1.4351 -0.0850
 6571SOL     OW31174   4.181   0.727  13.743 -0.2681  0.0208  0.6094
 6571SOL    HW131175   4.173   0.649  13.688 -0.3496  0.1541  0.4309
 6571SOL    HW231176   4.103   0.774  13.712 -0.7170 -2.6824 -2.2665
 6572SOL     OW31177   2.945   2.851   5.312 -0.2804 -1.4696 -0.3480
 6572SOL    HW131178   2.949   2.921   5.377  0.1496 -0.5953 -1.3101
 6572SOL    HW231179   3.021   2.890   5.269 -1.4902 -0.4043 -1.5192
 6573SOL     OW31180   0.658   1.139   2.155  0.5628 -0.3540  0.2396
 6573SOL    HW131181   0.681   1.058   2.109  1.2269 -0.0768  0.0722
 6573SOL    HW231182   0.666   1.120   2.248  2.7212  0.4656  0.2244
 6574SOL     OW31183   0.574   4.043   8.716  0.1930 -0.6455 -0.2513
 6574SOL    HW131184   0.522   3.968   8.686 -1.8108  1.3903 -1.8717
 6574SOL    HW231185   0.580   4.031   8.811  0.2060  0.1510 -0.1517
 6575SOL     OW31186   1.840   2.906  17.463  0.1356 -0.0319  0.2436
 6575SOL    HW131187   1.810   2.836  17.407  0.8984 -0.0849 -0.0969
 6575SOL    HW231188   1.754   2.933  17.494 -0.2810  0.0291 -0.9781
 6576SOL     OW31189   1.976   2.891   1.685 -0.1055 -0.3014  0.6568
 6576SOL    HW131190   2.059   2.927   1.714  0.2651 -0.4755 -0.1685
 6576SOL    HW231191   2.007   2.841   1.609 -2.1844  0.6343 -0.7967
 6577SOL     OW31192   3.558   1.658  12.730  0.2092 -0.2536  0.6052
 6577SOL    HW131193   3.473   1.632  12.766 -1.3456  1.3848 -1.9017
 6577SOL    HW231194   3.535   1.750  12.739  1.4150  0.0072  0.9380
 6578SOL     OW31195   3.017   2.796   8.116  0.3564 -1.0949 -0.1907
 6578SOL    HW131196   2.923   2.797   8.100  0.6445 -1.9181 -1.8946
 6578SOL    HW231197   3.037   2.703   8.109  2.1760 -0.6310 -1.0261
 6579SOL     OW31198   4.329   2.019   6.298 -0.2870 -0.8262  0.2138
 6579SOL    HW131199   4.418   1.984   6.308 -0.4679 -0.7735  2.0128
 6579SOL    HW231200   4.285   1.937   6.278 -0.7245 -0.1018 -1.7427
 6580SOL     OW31201   1.099   4.627   4.099 -0.2337  0.4018 -0.0999
 6580SOL    HW131202   1.188   4.652   4.074 -0.3330 -0.3809 -1.2350
 6580SOL    HW231203   1.055   4.619   4.015  1.2896  0.5704 -0.9147
 6581SOL     OW31204   3.417   1.600   9.019 -0.2376  1.0681  0.8145
 6581SOL    HW131205   3.457   1.612   9.105  1.4228  0.0649  0.2031
 6581SOL    HW231206   3.450   1.510   9.011  0.5329  1.4661 -0.4744
 6582SOL     OW31207   3.444   4.536   7.310  0.3736 -0.4648  0.5011
 6582SOL    HW131208   3.506   4.602   7.279  1.1164 -1.2701  0.2614
 6582SOL    HW231209   3.425   4.486   7.230  0.3013 -0.8353  0.7495
 6583SOL     OW31210   1.895   3.465   8.811 -0.0337  0.3492  0.0252
 6583SOL    HW131211   1.803   3.436   8.808 -0.1227  0.4291  1.9714
 6583SOL    HW231212   1.917   3.410   8.886 -0.3722 -1.8069 -1.4451
 6584SOL     OW31213   3.401   2.868  15.998  0.1765  0.7692 -0.0618
 6584SOL    HW131214   3.428   2.927  15.928 -1.7210  1.3112 -0.3455
 6584SOL    HW231215   3.341   2.807  15.955  2.5503 -0.7059 -1.2534
 6585SOL     OW31216   2.984   3.257  16.949  0.1217  0.3204  0.1399
 6585SOL    HW131217   3.064   3.284  16.994 -0.1210  0.0335  0.7294
 6585SOL    HW231218   2.925   3.249  17.024  1.9121  0.9573  1.6032
 6586SOL     OW31219   3.256   0.036  10.612 -0.1753  0.3553  0.1269
 6586SOL    HW131220   3.263   0.097  10.539  3.0025 -2.2041 -1.7302
 6586SOL    HW231221   3.317   4.693  10.579  0.6328  1.9677 -1.6017
 6587SOL     OW31222   1.025   3.651   6.482 -0.5097  0.1802 -0.1065
 6587SOL    HW131223   1.086   3.724   6.490 -1.0431  0.6714 -0.4881
 6587SOL    HW231224   1.088   3.594   6.438  0.3333 -0.0518  1.4149
 6588SOL     OW31225   3.715   1.666  12.500  0.6142  0.9012 -0.1543
 6588SOL    HW131226   3.644   1.695  12.443 -0.3720  4.3274  2.7644
 6588SOL    HW231227   3.671   1.656  12.584  0.7195 -1.2829 -0.3487
 6589SOL     OW31228   4.095   0.511   2.536  0.4535  0.0790  0.4308
 6589SOL    HW131229   4.172   0.499   2.592  0.7398 -0.3707 -0.0653
 6589SOL    HW231230   4.108   0.461   2.455  1.7369  1.6676 -0.3514
 6590SOL     OW31231   1.125   0.623   7.488 -0.0531  0.1341 -0.3273
 6590SOL    HW131232   1.156   0.540   7.523 -0.3093  0.5730  0.9369
 6590SOL    HW231233   1.031   0.605   7.479 -0.5147  3.1084 -1.4628
 6591SOL     OW31234   4.519   0.718   1.465 -0.6092  0.1583 -0.5248
 6591SOL    HW131235   4.467   0.638   1.463 -0.7930  0.3165 -1.9228
 6591SOL    HW231236   4.478   0.770   1.535 -0.0035 -1.0294  0.7166
 6592SOL     OW31237   1.407   0.267   7.014 -0.3500  0.4470  0.3303
 6592SOL    HW131238   1.464   0.299   7.084 -1.8023 -0.2685  1.8279
 6592SOL    HW231239   1.341   0.214   7.060  0.1508  0.3217  0.8999
 6593SOL     OW31240   2.792   2.867  12.257  0.2157  0.2262  0.6952
 6593SOL    HW131241   2.813   2.835  12.169  0.0719  2.0449  0.0107
 6593SOL    HW231242   2.841   2.804  12.309 -0.7198 -0.5296  0.6784
 6594SOL     OW31243   2.987   4.217   7.441 -0.2435 -0.3299 -0.1988
 6594SOL    HW131244   3.072   4.182   7.467  0.3345  1.5150  0.3861
 6594SOL    HW231245   2.989   4.305   7.479 -2.9400  0.1585 -1.1485
 6595SOL     OW31246   1.347   0.716   2.870 -0.1340  0.5393  0.4130
 6595SOL    HW131247   1.389   0.687   2.951  1.8165  1.2527 -0.3557
 6595SOL    HW231248   1.277   0.773   2.899 -1.0785 -0.9074  0.9840
 6596SOL     OW31249   4.308   1.735  17.454  0.9755 -0.1308  0.6048
 6596SOL    HW131250   4.374   1.801  17.476  2.2753 -1.4372  0.6689
 6596SOL    HW231251   4.273   1.769  17.372 -0.4264 -0.6332  0.9902
 6597SOL     OW31252   3.171   2.950   9.053 -0.0141 -0.7917  0.1927
 6597SOL    HW131253   3.233   2.938   9.125  1.7975 -2.2683 -1.6192
 6597SOL    HW231254   3.233   2.961   8.981  2.5560 -2.0013  2.2165
 6598SOL     OW31255   4.461   3.713   4.990  0.6483 -0.5072  0.2018
 6598SOL    HW131256   4.505   3.711   4.905 -0.6279  1.2872 -0.5125
 6598SOL    HW231257   4.391   3.651   4.965  0.4547 -0.1502 -0.1407
 6599SOL     OW31258   3.061   2.930   5.910 -0.5757  0.6069  0.1786
 6599SOL    HW131259   3.140   2.970   5.873 -0.4340 -0.1896 -0.3823
 6599SOL    HW231260   2.993   2.986   5.873 -2.1105 -1.0635  0.4330
 6600SOL     OW31261   2.624   4.710   7.125  0.1385  0.5497 -0.3417
 6600SOL    HW131262   2.623   4.646   7.053 -0.4116 -0.6454  0.7198
 6600SOL    HW231263   2.671   4.652   7.185 -0.5075 -0.4118 -0.7607
 6601SOL     OW31264   1.963   0.486   5.331 -0.1391  0.5559  0.2345
 6601SOL    HW131265   1.976   0.420   5.399  0.6628 -0.6323 -1.0708
 6601SOL    HW231266   2.010   0.441   5.261  1.7353  2.2960  0.3474
 6602SOL     OW31267   3.309   3.893   9.481  0.4351  0.2091  0.1519
 6602SOL    HW131268   3.232   3.920   9.532 -0.0468  0.1173 -0.5182
 6602SOL    HW231269   3.272   3.834   9.415  1.3057 -1.5136  1.1996
 6603SOL     OW31270   1.856   0.082  17.017  0.4296 -0.2867  0.1899
 6603SOL    HW131271   1.813   0.009  17.062 -2.0658  1.6968  1.0234
 6603SOL    HW231272   1.883   0.042  16.934  0.3808  1.9229 -0.8883
 6604SOL     OW31273   2.124   3.502   3.029 -0.5931  0.5518  0.2598
 6604SOL    HW131274   2.177   3.550   3.092  0.1722 -0.0943  0.1197
 6604SOL    HW231275   2.093   3.569   2.968  1.3560  1.6542  0.4747
 6605SOL     OW31276   1.564   3.793   6.528  0.1793  0.3314  0.3958
 6605SOL    HW131277   1.495   3.834   6.580 -0.8942  0.2754 -0.9852
 6605SOL    HW231278   1.609   3.874   6.504 -0.7313  0.2770 -1.4901
 6606SOL     OW31279   0.869   0.665   0.167 -0.3303 -0.5834  0.1060
 6606SOL    HW131280   0.861   0.606   0.092 -0.1015 -0.0905 -0.3055
 6606SOL    HW231281   0.935   0.730   0.140  2.0776 -2.1428  2.2502
 6607SOL     OW31282   0.978   0.731   5.798  0.6087  0.6125  0.6173
 6607SOL    HW131283   1.025   0.771   5.872  1.1414  1.4261 -0.1619
 6607SOL    HW231284   0.895   0.777   5.807  0.3992  1.0755 -4.0412
 6608SOL     OW31285   0.225   3.749   3.628 -0.1733 -0.4726 -0.0861
 6608SOL    HW131286   0.293   3.690   3.596  1.2425 -0.3338  2.6575
 6608SOL    HW231287   0.273   3.830   3.647 -2.0512  0.8191 -0.8420
 6609SOL     OW31288   3.007   3.397   9.859 -0.2949  0.3692  0.3232
 6609SOL    HW131289   2.937   3.463   9.861  0.2006  0.8816  0.9751
 6609SOL    HW231290   2.975   3.313   9.828 -1.8104  1.4058 -0.9858
 6610SOL     OW31291   2.275   3.321  13.996  0.1352 -0.1182 -0.6411
 6610SOL    HW131292   2.279   3.318  14.091  0.0323  1.6768 -0.5776
 6610SOL    HW231293   2.194   3.271  13.989 -0.5015  0.3917  3.4047
 6611SOL     OW31294   3.021   2.872  10.709  0.0948 -0.4765  0.3888
 6611SOL    HW131295   3.073   2.893  10.631  2.6703 -0.2327  2.1567
 6611SOL    HW231296   2.933   2.892  10.678  0.7017  1.1626 -0.3020
 6612SOL     OW31297   1.704   2.161   1.570  0.2676 -0.1630  0.2348
 6612SOL    HW131298   1.735   2.074   1.595  0.6779  0.7190  2.7992
 6612SOL    HW231299   1.775   2.205   1.524  0.3178 -0.8445 -0.3400
 6613SOL     OW31300   1.134   3.495  14.934 -0.7405 -0.2007 -0.2855
 6613SOL    HW131301   1.185   3.414  14.926 -0.5875 -0.0286 -1.0813
 6613SOL    HW231302   1.078   3.466  15.006 -1.4769  1.6996 -0.1200
 6614SOL     OW31303   0.889   2.550   1.186 -0.3563  0.1657 -0.2019
 6614SOL    HW131304   0.974   2.506   1.181  0.8751  2.2269  2.3528
 6614SOL    HW231305   0.830   2.478   1.206 -0.3568  0.1702 -0.1871
 6615SOL     OW31306   3.373   4.618   5.110 -0.0973  0.7875 -0.0359
 6615SOL    HW131307   3.429   4.579   5.042  0.1820  2.7557 -0.9586
 6615SOL    HW231308   3.394   4.568   5.188 -3.2007 -0.5042 -0.0613
 6616SOL     OW31309   4.568   1.531   2.109  0.3269  0.1741  0.1579
 6616SOL    HW131310   4.615   1.602   2.066  0.8982 -0.4776 -0.2827
 6616SOL    HW231311   4.521   1.483   2.041 -1.0886  2.9567 -0.8077
 6617SOL     OW31312   4.088   1.577  15.450 -0.3506 -0.0290 -0.0336
 6617SOL    HW131313   4.007   1.550  15.494 -0.7301 -1.1019 -1.3996
 6617SOL    HW231314   4.051   1.622  15.374  0.8525 -1.0025 -1.1963
 6618SOL     OW31315   3.637   3.657   6.362 -0.1972  0.0113 -0.6414
 6618SOL    HW131316   3.610   3.708   6.285 -0.6607  1.8344  0.7278
 6618SOL    HW231317   3.695   3.597   6.315  0.2715  1.7312 -2.2414
 6619SOL     OW31318   3.919   1.111   6.953  0.2361  0.4525 -0.1507
 6619SOL    HW131319   3.886   1.200   6.941 -1.4166  0.2204  2.6233
 6619SOL    HW231320   3.904   1.074   6.866 -0.4711  0.6243 -0.1095
 6620SOL     OW31321   0.594   0.208   3.076  0.2659  0.1433  0.0860
 6620SOL    HW131322   0.612   0.248   2.992 -0.0231  1.6313  0.7412
 6620SOL    HW231323   0.661   0.254   3.126  0.1852 -1.2070  1.4312
 6621SOL     OW31324   4.249   4.522   5.656  0.8580  0.3107 -0.2825
 6621SOL    HW131325   4.165   4.552   5.691  0.2599 -2.0010  0.2654
 6621SOL    HW231326   4.318   4.569   5.704 -0.9184 -0.1007  2.6802
 6622SOL     OW31327   3.620   1.180   6.014 -0.4966  0.5542  0.0863
 6622SOL    HW131328   3.601   1.095   6.054 -1.4458  0.8468  0.2511
 6622SOL    HW231329   3.714   1.193   6.029 -0.2517  0.1025 -1.0740
 6623SOL     OW31330   0.869   0.415  17.621  0.4514  0.6886 -0.3165
 6623SOL    HW131331   0.856   0.325  17.652 -1.3083  1.2780  0.6506
 6623SOL    HW231332   0.780   0.435  17.589  0.8690  0.1492 -1.8516
 6624SOL     OW31333   0.775   2.254  14.534  0.2262  0.2924 -0.0258
 6624SOL    HW131334   0.700   2.200  14.510  0.2793 -1.2188  3.2309
 6624SOL    HW231335   0.834   2.210  14.595 -1.0878 -1.2646  0.1048
 6625SOL     OW31336   1.594   2.081   5.663 -0.7102 -0.1877 -0.3843
 6625SOL    HW131337   1.509   2.067   5.704 -1.0997  1.6193 -0.5722
 6625SOL    HW231338   1.573   2.146   5.595 -0.3151  0.1042 -0.2292
 6626SOL     OW31339   1.868   1.914   9.054  0.2707  0.0895  0.4963
 6626SOL    HW131340   1.791   1.928   8.999  0.5144  0.8546  0.3495
 6626SOL    HW231341   1.854   1.964   9.134 -3.6460 -0.8549  0.4101
 6627SOL     OW31342   4.266   2.408   3.402 -0.2344  0.3510  0.3789
 6627SOL    HW131343   4.360   2.422   3.398 -0.3820  1.2634  0.2508
 6627SOL    HW231344   4.248   2.433   3.312 -0.4428  0.9254  0.5802
 6628SOL     OW31345   1.438   2.886  13.040  0.4575 -0.1624  0.0788
 6628SOL    HW131346   1.382   2.809  13.050 -0.7979  1.0228  1.9946
 6628SOL    HW231347   1.495   2.856  12.969 -0.4127  0.2390 -0.7832
 6629SOL     OW31348   3.741   1.349   4.820  0.0196  0.0820  0.3783
 6629SOL    HW131349   3.740   1.329   4.914  2.0349  0.2006  0.4207
 6629SOL    HW231350   3.782   1.265   4.802  2.9214  1.2852  1.3891
 6630SOL     OW31351   2.309   2.014   6.270 -0.3087  0.1912  0.5366
 6630SOL    HW131352   2.288   1.995   6.179  1.0534 -1.3612  0.5491
 6630SOL    HW231353   2.320   1.925   6.304  2.9532  0.1158 -0.7640
 6631SOL     OW31354   2.766   3.933   3.737  0.1645  0.5758 -0.5582
 6631SOL    HW131355   2.841   3.958   3.683 -0.2471  1.0345 -0.9263
 6631SOL    HW231356   2.806   3.912   3.821 -1.4789 -1.3281 -0.2493
 6632SOL     OW31357   1.007   1.499   5.154 -0.0125 -0.1574 -0.3485
 6632SOL    HW131358   1.027   1.590   5.130 -0.0230 -0.5540 -1.8729
 6632SOL    HW231359   0.946   1.482   5.082 -3.2332  2.1380  1.8455
 6633SOL     OW31360   0.470   2.348   6.223  0.0476 -0.4574 -0.3196
 6633SOL    HW131361   0.564   2.348   6.205 -0.3590  0.7117 -2.4081
 6633SOL    HW231362   0.468   2.384   6.312 -2.1972 -1.1246 -0.0994
 6634SOL     OW31363   1.348   1.461  14.115 -0.2271  0.0020  0.3620
 6634SOL    HW131364   1.278   1.526  14.103 -1.0055 -0.4357  2.4374
 6634SOL    HW231365   1.364   1.460  14.210 -0.6749  1.0270  0.4488
 6635SOL     OW31366   1.055   0.238   4.234  0.2366 -0.0559  0.3734
 6635SOL    HW131367   1.015   0.181   4.300  0.1054 -0.3076  0.0768
 6635SOL    HW231368   1.144   0.213   4.259  0.9316  3.4832  1.4584
 6636SOL     OW31369   2.529   1.053  16.003 -0.1339  0.0749 -0.0860
 6636SOL    HW131370   2.605   1.005  16.036 -0.8651 -1.1095 -0.1269
 6636SOL    HW231371   2.561   1.061  15.913 -1.7235  1.6251 -0.5108
 6637SOL     OW31372   0.036   2.657   4.256  0.4691  0.6551 -0.3539
 6637SOL    HW131373   4.694   2.726   4.266 -0.3709  0.0419 -1.6421
 6637SOL    HW231374   0.099   2.662   4.328  1.0468 -2.1204 -0.6923
 6638SOL     OW31375   3.314   2.221   7.025 -0.0209 -0.2773 -0.1837
 6638SOL    HW131376   3.271   2.146   7.066 -1.4514  1.5414  1.6335
 6638SOL    HW231377   3.276   2.299   7.064  2.7431  0.5182  0.9512
 6639SOL     OW31378   2.413   3.136  13.870  0.2208 -0.4823 -0.2170
 6639SOL    HW131379   2.378   3.210  13.920  0.0482 -1.5612  1.2430
 6639SOL    HW231380   2.355   3.062  13.887 -0.1822 -0.0860  0.1052
 6640SOL     OW31381   0.701   2.047   2.224 -0.3292 -0.4486 -0.6091
 6640SOL    HW131382   0.735   2.127   2.264 -0.3248 -0.1785 -1.1570
 6640SOL    HW231383   0.759   2.038   2.148  0.4798 -1.7289  0.1683
 6641SOL     OW31384   4.242   3.984  11.504 -0.4981  0.1892 -0.3615
 6641SOL    HW131385   4.178   4.013  11.440  0.4013  0.3234 -1.1908
 6641SOL    HW231386   4.183   3.927  11.554 -0.6256  2.1426  1.7736
 6642SOL     OW31387   2.190   3.011   3.299 -0.6199 -0.6442  0.4587
 6642SOL    HW131388   2.265   2.951   3.298 -0.8048 -0.8780  0.4485
 6642SOL    HW231389   2.233   3.095   3.286 -1.9255 -0.4428 -2.6100
 6643SOL     OW31390   1.597   1.229   4.860  0.3733 -0.3542  0.4445
 6643SOL    HW131391   1.535   1.230   4.787  1.3330  2.8435 -0.3548
 6643SOL    HW231392   1.641   1.313   4.845  0.6674 -1.0347 -2.6572
 6644SOL     OW31393   1.213   1.451   8.338  0.2166  0.8761 -0.2172
 6644SOL    HW131394   1.172   1.415   8.417 -1.9772  1.5177 -1.0583
 6644SOL    HW231395   1.236   1.535   8.378  0.9808  0.4353  0.2744
 6645SOL     OW31396   3.745   0.399   2.792  0.9729 -0.3013 -0.0789
 6645SOL    HW131397   3.818   0.341   2.814  1.3572  0.2885  0.1947
 6645SOL    HW231398   3.780   0.462   2.728 -0.3383 -0.1912 -0.6837
 6646SOL     OW31399   1.640   0.430   5.489  0.6191  0.3890 -0.1894
 6646SOL    HW131400   1.706   0.466   5.429  0.7895  0.4484  0.0324
 6646SOL    HW231401   1.695   0.373   5.543  0.1948  0.9029  0.7714
 6647SOL     OW31402   4.462   4.397   1.201  0.9751  0.4185 -0.6029
 6647SOL    HW131403   4.521   4.323   1.189 -0.0138 -0.4664 -0.0988
 6647SOL    HW231404   4.395   4.371   1.265  1.6318  1.4177  0.4879
 6648SOL     OW31405   2.124   3.719   3.469 -0.1534 -0.1196  0.0788
 6648SOL    HW131406   2.121   3.766   3.552 -1.0065 -1.5507  0.8522
 6648SOL    HW231407   2.069   3.646   3.497 -0.6474  0.8823  1.6986
 6649SOL     OW31408   3.938   1.527  11.150 -0.7250  0.4006  0.2271
 6649SOL    HW131409   3.976   1.462  11.092  0.5710  1.1735  0.2097
 6649SOL    HW231410   3.989   1.500  11.226 -1.4313 -0.5872  0.3434
 6650SOL     OW31411   1.833   4.136   5.388 -0.0410 -0.6731 -0.2167
 6650SOL    HW131412   1.840   4.184   5.471 -0.5275 -1.3453  0.2153
 6650SOL    HW231413   1.741   4.140   5.362 -0.1636  1.5529  0.5562
 6651SOL     OW31414   0.612   3.576   1.652  0.4063 -0.0868  0.4169
 6651SOL    HW131415   0.567   3.587   1.736 -1.8469 -2.4692 -0.4785
 6651SOL    HW231416   0.658   3.493   1.666 -1.0918 -0.5191  2.6638
 6652SOL     OW31417   4.454   4.048   1.410  0.1079 -0.0770  0.9006
 6652SOL    HW131418   4.424   3.966   1.450 -0.5260  0.3757  1.3641
 6652SOL    HW231419   4.534   4.022   1.366 -0.1110 -1.5473  1.3671
 6653SOL     OW31420   4.000   0.553   9.996 -0.7203 -0.2338  0.1397
 6653SOL    HW131421   4.010   0.556   9.900 -1.3048  2.0717  0.1432
 6653SOL    HW231422   4.049   0.473  10.015  0.3055  0.0332 -1.2943
 6654SOL     OW31423   2.111   0.219  14.213 -0.0514 -0.8945 -0.3784
 6654SOL    HW131424   2.185   0.165  14.240  1.0675  0.9235  0.2080
 6654SOL    HW231425   2.150   0.288  14.160 -1.3625  0.8090  0.8560
 6655SOL     OW31426   2.307   2.619   3.914  0.3884  0.6729  0.0530
 6655SOL    HW131427   2.302   2.659   3.827 -2.4745  0.7897  0.2639
 6655SOL    HW231428   2.215   2.614   3.943  0.7620 -0.0002  1.1267
 6656SOL     OW31429   2.027   0.380   5.559 -0.0269 -0.3148 -0.4894
 6656SOL    HW131430   2.090   0.310   5.573  2.5696  2.3524  1.3870
 6656SOL    HW231431   1.990   0.380   5.647 -0.0972  1.1191 -0.5142
 6657SOL     OW31432   2.347   0.743   5.739  0.3474  0.6271 -0.0824
 6657SOL    HW131433   2.259   0.710   5.759  0.6097  0.1485  0.2814
 6657SOL    HW231434   2.397   0.663   5.722 -0.3977 -0.0990  1.1663
 6658SOL     OW31435   3.534   3.788  12.081  0.6076 -0.1676 -0.2887
 6658SOL    HW131436   3.549   3.725  12.152 -2.0083  0.2251  0.6143
 6658SOL    HW231437   3.440   3.798  12.093  0.6614 -0.3255  0.2491
 6659SOL     OW31438   2.252   0.885   3.701 -0.0139  0.2733 -0.5665
 6659SOL    HW131439   2.322   0.820   3.706  2.2982  2.8475  0.2638
 6659SOL    HW231440   2.296   0.967   3.722 -0.7364  0.5060  0.0486
 6660SOL     OW31441   1.450   3.323   3.200 -0.4225 -0.0479 -0.1242
 6660SOL    HW131442   1.405   3.291   3.122  1.7497 -0.2792 -1.2913
 6660SOL    HW231443   1.521   3.259   3.199  0.2249  0.6377  1.4968
 6661SOL     OW31444   2.033   3.297   9.708  0.4694  0.5551 -0.4221
 6661SOL    HW131445   1.967   3.277   9.643 -0.3642  0.3250  0.4913
 6661SOL    HW231446   2.012   3.383   9.743 -1.7775 -0.7790  1.5438
 6662SOL     OW31447   3.195   3.796   6.822  0.2339 -0.3097  0.1324
 6662SOL    HW131448   3.103   3.820   6.808  0.5495  1.7398  1.5931
 6662SOL    HW231449   3.227   3.848   6.896 -1.0169  1.4293 -0.5404
 6663SOL     OW31450   1.178   0.991   5.804  0.3308  0.2679  0.2330
 6663SOL    HW131451   1.169   0.989   5.709 -0.9569  1.5737  0.3328
 6663SOL    HW231452   1.124   1.066   5.828 -0.3708  0.1399 -0.9475
 6664SOL     OW31453   1.455   1.320   2.238  0.1612 -0.6699  0.6539
 6664SOL    HW131454   1.494   1.316   2.326 -0.1339 -0.8400  0.7774
 6664SOL    HW231455   1.362   1.298   2.250 -0.6457  3.2900  1.8475
 6665SOL     OW31456   3.489   3.778   9.638 -0.6170 -0.1227  0.3246
 6665SOL    HW131457   3.427   3.819   9.576  0.9546 -0.4304 -1.4541
 6665SOL    HW231458   3.550   3.852   9.638 -1.1636  0.3256  0.5635
 6666SOL     OW31459   3.309   3.467   3.633 -0.6397  0.2388 -0.2513
 6666SOL    HW131460   3.368   3.517   3.688 -2.5664  0.3593  1.7081
 6666SOL    HW231461   3.272   3.543   3.589 -1.5099 -0.6688 -1.1005
 6667SOL     OW31462   1.764   0.714   7.336 -0.2396 -0.1932 -0.5270
 6667SOL    HW131463   1.825   0.641   7.343 -0.8282 -0.8103 -1.8508
 6667SOL    HW231464   1.709   0.684   7.264 -2.5232 -1.3538  1.6874
 6668SOL     OW31465   0.828   2.425   3.337  0.6393 -0.1573  0.0025
 6668SOL    HW131466   0.780   2.496   3.379  1.5697  0.6967 -0.3704
 6668SOL    HW231467   0.757   2.392   3.282  1.4204 -0.5681 -0.7577
 6669SOL     OW31468   3.149   0.528   3.105  0.4265  0.3482 -0.4408
 6669SOL    HW131469   3.083   0.461   3.086  0.1167  0.5986 -0.2429
 6669SOL    HW231470   3.206   0.499   3.034  1.3395  2.7229 -0.6495
 6670SOL     OW31471   3.112   2.238   8.052  0.4115  0.5216  0.0603
 6670SOL    HW131472   3.070   2.257   8.136 -1.4840 -2.5041 -0.1915
 6670SOL    HW231473   3.046   2.196   7.997  0.7201  1.1499 -0.7858
 6671SOL     OW31474   1.910   2.540   2.177  0.6519 -0.3233 -0.2317
 6671SOL    HW131475   1.906   2.634   2.195 -2.6569 -0.5227  0.1408
 6671SOL    HW231476   1.816   2.532   2.159  0.3488  1.7498  0.3772
 6672SOL     OW31477   1.882   3.536  16.829  0.4249  0.0754  0.2169
 6672SOL    HW131478   1.912   3.589  16.903  0.1121 -1.3869  1.3740
 6672SOL    HW231479   1.832   3.603  16.782  0.7684  0.4590  0.3879
 6673SOL     OW31480   3.989   4.339   8.968  0.1898 -0.2029  0.9169
 6673SOL    HW131481   3.894   4.337   8.979 -0.0008  0.9709 -0.5102
 6673SOL    HW231482   4.014   4.401   9.037  1.2447  0.1440  0.2251
 6674SOL     OW31483   1.758   2.775  13.621 -0.3595 -0.3949 -0.2055
 6674SOL    HW131484   1.792   2.776  13.710 -0.8178 -2.2250 -0.0066
 6674SOL    HW231485   1.675   2.819  13.639 -0.7389 -0.7966 -0.9677
 6675SOL     OW31486   0.391   2.429   5.603 -0.1439  0.1098 -0.0986
 6675SOL    HW131487   0.342   2.426   5.521  0.8363  0.4814 -0.7045
 6675SOL    HW231488   0.477   2.451   5.567  0.5541 -1.0971  0.8327
 6676SOL     OW31489   1.986   2.044   9.765 -0.3139 -0.2281  0.1205
 6676SOL    HW131490   1.950   1.955   9.768 -1.7638  0.3896  0.6622
 6676SOL    HW231491   2.079   2.019   9.760  0.6016  2.9724  1.6570
 6677SOL     OW31492   2.746   4.072   9.515  0.2198  0.2247 -0.3198
 6677SOL    HW131493   2.653   4.050   9.516  0.5437 -1.1109  0.0732
 6677SOL    HW231494   2.767   4.055   9.606 -1.2599 -1.4165 -0.2840
 6678SOL     OW31495   1.346   1.453   7.317 -0.4624 -0.1634  0.3574
 6678SOL    HW131496   1.335   1.418   7.406  0.7317 -1.8335 -0.1658
 6678SOL    HW231497   1.441   1.449   7.315 -0.4142  0.2290  1.6775
 6679SOL     OW31498   0.668   0.340   7.150  0.0115  0.6929  0.3518
 6679SOL    HW131499   0.636   0.260   7.108  1.1831  1.9102 -2.8551
 6679SOL    HW231500   0.579   0.374   7.158  0.1956  1.4055 -0.6071
 6680SOL     OW31501   3.206   3.182   7.567 -0.3697 -0.2734 -0.7212
 6680SOL    HW131502   3.231   3.089   7.566  1.7850  0.3082  1.4926
 6680SOL    HW231503   3.114   3.174   7.542  0.5161 -1.9775 -3.4872
 6681SOL     OW31504   4.670   4.531   6.772 -0.0185  0.3400  0.5959
 6681SOL    HW131505   4.598   4.480   6.735  0.9611 -0.4583 -0.2303
 6681SOL    HW231506   4.637   4.582   6.845  1.5663  1.3812  0.5891
 6682SOL     OW31507   0.172   3.726   6.041  0.0012 -0.4241 -0.5111
 6682SOL    HW131508   0.234   3.671   5.993 -0.8537 -1.3745 -0.5218
 6682SOL    HW231509   0.229   3.785   6.092 -1.9025  1.6113 -0.7580
 6683SOL     OW31510   0.761   4.067  10.685 -0.1621 -0.1568 -0.1967
 6683SOL    HW131511   0.735   4.002  10.620 -1.1508  0.0913 -0.0582
 6683SOL    HW231512   0.855   4.052  10.679 -0.0982 -0.6139  1.7405
 6684SOL     OW31513   4.204   1.555  12.409  0.0077  0.0976 -0.0432
 6684SOL    HW131514   4.275   1.604  12.369 -0.7737  1.0044 -0.3276
 6684SOL    HW231515   4.251   1.479  12.442  0.0664 -0.0050 -0.3740
 6685SOL     OW31516   1.784   2.997   8.279 -0.1652  0.2451  0.2393
 6685SOL    HW131517   1.689   3.001   8.279 -0.1663  0.2197  0.1622
 6685SOL    HW231518   1.814   3.087   8.296 -0.3090  0.1915  0.7901
 6686SOL     OW31519   3.171   1.032   0.331 -0.3004  0.0967 -0.1150
 6686SOL    HW131520   3.182   0.955   0.387 -0.6655 -1.0022 -1.5689
 6686SOL    HW231521   3.251   1.081   0.352  0.8775 -0.9583 -2.1572
 6687SOL     OW31522   2.751   2.013   7.651  0.2135 -0.3679 -1.0901
 6687SOL    HW131523   2.824   1.954   7.629  2.0751  2.0612 -1.4169
 6687SOL    HW231524   2.744   1.989   7.743  0.6394  0.4181 -0.8546
 6688SOL     OW31525   1.251   3.037  12.894  0.0443  0.0372  0.0643
 6688SOL    HW131526   1.306   2.976  12.944  2.6446  2.1477 -0.2168
 6688SOL    HW231527   1.166   2.998  12.916 -0.5544  1.3516  0.0892
 6689SOL     OW31528   0.673   0.410   2.213 -0.1173  0.1448  0.0807
 6689SOL    HW131529   0.604   0.402   2.279  0.0316 -3.5022 -0.2272
 6689SOL    HW231530   0.634   0.380   2.132  0.4857 -0.4674  0.0148
 6690SOL     OW31531   1.618   0.781   5.854 -0.2823  0.0356  0.6085
 6690SOL    HW131532   1.614   0.758   5.761  1.5926  0.8628  0.3301
 6690SOL    HW231533   1.645   0.872   5.844 -0.9020 -0.0585 -2.0477
 6691SOL     OW31534   2.067   2.190   8.729  0.3675 -0.2268 -0.2825
 6691SOL    HW131535   1.999   2.256   8.710  1.0602  0.0907 -1.7100
 6691SOL    HW231536   2.068   2.190   8.824 -1.6038  1.6278 -0.2532
 6692SOL     OW31537   1.648   3.757   6.872  0.0631 -0.1761  0.0204
 6692SOL    HW131538   1.736   3.720   6.872  0.1112 -0.0872  2.4847
 6692SOL    HW231539   1.650   3.786   6.964 -0.0299 -1.2731  0.3741
 6693SOL     OW31540   2.245   1.604   1.432 -0.0867  0.4704 -0.0907
 6693SOL    HW131541   2.214   1.668   1.367  0.9151  2.4901  1.4054
 6693SOL    HW231542   2.278   1.674   1.489 -0.1770  0.1317  0.3764
 6694SOL     OW31543   3.738   3.670   5.809  0.2571  0.1588 -0.5419
 6694SOL    HW131544   3.831   3.653   5.789  0.2921 -0.7202  0.3675
 6694SOL    HW231545   3.698   3.669   5.722  2.3050  0.1846 -1.4908
 6695SOL     OW31546   1.604   1.510  10.996  0.0614 -0.1100  0.3475
 6695SOL    HW131547   1.614   1.430  11.047 -1.5914 -0.9954 -0.7398
 6695SOL    HW231548   1.524   1.546  11.033 -0.6479 -1.3970  0.0569
 6696SOL     OW31549   1.273   3.987  11.576  0.0144  0.1679 -0.4214
 6696SOL    HW131550   1.364   3.958  11.580  0.7172  2.4052 -0.6299
 6696SOL    HW231551   1.282   4.063  11.519 -2.0627  1.4164  0.9230
 6697SOL     OW31552   2.116   3.569   8.716  0.8123 -0.5778  0.6747
 6697SOL    HW131553   2.030   3.528   8.716  0.7768 -0.5044  1.2614
 6697SOL    HW231554   2.164   3.508   8.772  2.1566  0.4696  0.6687
 6698SOL     OW31555   4.559   1.177   3.434 -0.4886  0.2180  0.2248
 6698SOL    HW131556   4.503   1.174   3.511 -2.7199 -3.1643 -1.5609
 6698SOL    HW231557   4.546   1.272   3.422 -3.2072  0.0081  1.6337
 6699SOL     OW31558   0.366   0.257   6.681 -0.4861  0.0197 -0.5247
 6699SOL    HW131559   0.365   0.188   6.613 -0.6437 -0.6559  0.1649
 6699SOL    HW231560   0.306   0.219   6.745  0.1087 -0.8029 -0.4504
 6700SOL     OW31561   1.443   0.966  17.142 -0.2636 -0.1093  0.1693
 6700SOL    HW131562   1.449   0.870  17.143  0.1819 -0.0849  0.2128
 6700SOL    HW231563   1.506   0.978  17.070  1.6737  3.0275  2.4195
 6701SOL     OW31564   1.269   2.286  15.552  0.0235 -0.3755  0.2749
 6701SOL    HW131565   1.194   2.329  15.511 -0.3026 -1.0904  0.1188
 6701SOL    HW231566   1.278   2.203  15.505 -1.4473  1.0547 -2.5141
 6702SOL     OW31567   3.532   4.426   7.750 -0.5851 -0.5846  0.1300
 6702SOL    HW131568   3.543   4.420   7.655 -1.5426  0.5387 -0.0448
 6702SOL    HW231569   3.475   4.353   7.776 -1.7719  0.0244 -0.7806
 6703SOL     OW31570   0.825   2.003   1.990 -0.1252 -0.1240 -0.3683
 6703SOL    HW131571   0.766   2.009   1.915  1.3199  0.4711 -1.4709
 6703SOL    HW231572   0.880   2.080   1.977  0.2862 -0.1287  1.3529
 6704SOL     OW31573   2.658   2.819   3.846  0.0104 -0.1649 -0.3797
 6704SOL    HW131574   2.625   2.908   3.845 -1.3000 -0.6533 -0.1178
 6704SOL    HW231575   2.657   2.799   3.753  0.6552 -2.0583  0.0050
 6705SOL     OW31576   0.494   2.091   6.477 -0.2216  0.2439  0.0546
 6705SOL    HW131577   0.504   2.180   6.444  1.3872  0.4210  1.0554
 6705SOL    HW231578   0.569   2.045   6.439 -0.9418 -0.0331 -1.0239
 6706SOL     OW31579   2.086   1.058   5.235 -0.2123  0.3411  0.5735
 6706SOL    HW131580   2.007   1.007   5.253  0.0478 -1.3704 -3.1468
 6706SOL    HW231581   2.123   1.007   5.163  0.2966  1.1803  0.2449
 6707SOL     OW31582   1.225   2.267   3.887 -0.2826 -0.1016  0.5124
 6707SOL    HW131583   1.254   2.324   3.958  0.3008 -0.2616  0.3986
 6707SOL    HW231584   1.291   2.200   3.876  0.4869  0.9976 -1.6134
 6708SOL     OW31585   2.147   2.301   3.292 -0.0086  0.3841 -0.1483
 6708SOL    HW131586   2.066   2.320   3.244 -0.6973 -0.6639  0.5804
 6708SOL    HW231587   2.143   2.205   3.294 -1.1390  0.4540  1.1838
 6709SOL     OW31588   0.560   4.348  12.078  0.0622 -0.4110  0.5977
 6709SOL    HW131589   0.630   4.363  12.014  0.1996 -0.8798  0.6382
 6709SOL    HW231590   0.595   4.279  12.134  1.3131 -0.3319 -0.0810
 6710SOL     OW31591   3.381   0.563   4.266 -0.0392  0.3087  0.5178
 6710SOL    HW131592   3.457   0.606   4.306 -0.7743  1.2593  0.9003
 6710SOL    HW231593   3.368   0.504   4.340  0.2479 -0.0177  0.3093
 6711SOL     OW31594   2.296   4.254  13.909 -0.6737  0.1642  0.0897
 6711SOL    HW131595   2.374   4.243  13.964 -1.4204  2.5538  1.6483
 6711SOL    HW231596   2.242   4.316  13.959 -0.5164 -0.3434  0.9037
 6712SOL     OW31597   1.689   4.543   7.811 -0.0733  0.0640  0.4196
 6712SOL    HW131598   1.709   4.636   7.818  0.3875 -0.0261  0.2817
 6712SOL    HW231599   1.750   4.507   7.875 -1.0077  0.2515  1.4246
 6713SOL     OW31600   3.077   3.907   1.583  0.3789  0.4461 -0.1999
 6713SOL    HW131601   3.114   3.874   1.501 -1.8753 -1.1533 -0.5423
 6713SOL    HW231602   3.082   3.822   1.627 -2.0314 -0.2156 -1.2670
 6714SOL     OW31603   3.485   0.095   4.030  0.3105 -0.6983 -0.2896
 6714SOL    HW131604   3.396   0.116   4.002  0.7658 -1.3406 -2.2124
 6714SOL    HW231605   3.531   0.061   3.953  0.1029 -0.5173 -0.4911
 6715SOL     OW31606   1.126   2.586  15.534 -1.0759 -0.2649  0.6454
 6715SOL    HW131607   1.183   2.569  15.609  1.8777 -0.5947 -1.6813
 6715SOL    HW231608   1.101   2.678  15.535 -0.6132 -0.1392  0.4236
 6716SOL     OW31609   2.003   2.592   5.495  0.7658 -0.1572 -0.6303
 6716SOL    HW131610   1.971   2.682   5.499 -0.5494 -0.5925 -1.4213
 6716SOL    HW231611   1.926   2.556   5.452 -0.6582  1.8770  0.1959
 6717SOL     OW31612   1.188   3.532   5.845 -0.6213  0.0023  0.4497
 6717SOL    HW131613   1.274   3.558   5.813 -1.1143  1.0752  0.0398
 6717SOL    HW231614   1.222   3.478   5.917 -1.4006  0.2286  0.9861
 6718SOL     OW31615   3.524   4.409   6.994 -0.0425 -0.5230 -0.0219
 6718SOL    HW131616   3.566   4.389   6.911  0.2546 -0.0540  0.0108
 6718SOL    HW231617   3.442   4.456   6.982  1.1339  0.9322 -2.3084
 6719SOL     OW31618   2.240   2.338   6.726  0.3902 -0.2418  0.2940
 6719SOL    HW131619   2.201   2.263   6.770 -0.2939 -0.6785 -1.0606
 6719SOL    HW231620   2.294   2.294   6.661 -1.7108 -0.9662 -0.9482
 6720SOL     OW31621   0.712   2.608   6.847 -0.1824  0.4034 -0.3240
 6720SOL    HW131622   0.646   2.608   6.917  1.3718  0.6607  1.1411
 6720SOL    HW231623   0.791   2.600   6.901 -0.6934 -2.6238 -0.0544
 6721SOL     OW31624   0.960   3.890  11.528 -0.2341  0.2311 -0.1572
 6721SOL    HW131625   0.977   3.863  11.438  0.3223  1.5134 -0.4400
 6721SOL    HW231626   1.046   3.922  11.557  1.3707 -2.8574 -1.4351
 6722SOL     OW31627   1.751   2.986  11.050  0.2957  0.0305  0.0008
 6722SOL    HW131628   1.758   2.895  11.079  0.9610 -0.1194 -0.6207
 6722SOL    HW231629   1.659   3.004  11.070  0.5773  1.9712 -0.5021
 6723SOL     OW31630   4.537   1.101   1.615 -0.0206  0.5518  0.1510
 6723SOL    HW131631   4.603   1.091   1.684 -0.7049  0.1789  0.7518
 6723SOL    HW231632   4.588   1.123   1.537 -1.5781 -0.1789 -1.0681
 6724SOL     OW31633   4.120   2.459   7.857 -0.0741 -0.3000  0.2340
 6724SOL    HW131634   4.063   2.416   7.921  1.1136  1.8123  2.7449
 6724SOL    HW231635   4.207   2.422   7.873  1.4680  3.0565 -0.4768
 6725SOL     OW31636   1.831   1.925   1.563  0.3453  0.0118  0.0655
 6725SOL    HW131637   1.810   1.909   1.471 -1.3831  3.3490 -0.1119
 6725SOL    HW231638   1.870   1.841   1.586 -1.6522 -1.2155 -1.0109
 6726SOL     OW31639   1.906   4.695   5.773 -0.3002  0.9499 -0.2986
 6726SOL    HW131640   1.965   4.620   5.775  1.2066  2.1425 -0.7165
 6726SOL    HW231641   1.928   0.017   5.692  0.5506  2.0137  0.5235
 6727SOL     OW31642   2.119   1.644  12.112  0.4073 -0.3810  0.4436
 6727SOL    HW131643   2.037   1.635  12.160  1.9459  2.3016  3.6156
 6727SOL    HW231644   2.161   1.707  12.171  0.0394  0.6682 -0.4196
 6728SOL     OW31645   0.888   1.923   0.336  0.0960  0.3747 -0.0119
 6728SOL    HW131646   0.880   2.018   0.339 -3.3445 -0.0215  3.1654
 6728SOL    HW231647   0.844   1.910   0.253 -1.8771  1.7827  0.8187
 6729SOL     OW31648   0.399   3.115   3.780 -0.1685  0.4022  0.2654
 6729SOL    HW131649   0.442   3.153   3.704  2.4529 -1.9738  0.5298
 6729SOL    HW231650   0.318   3.089   3.737  0.0440  0.6444 -0.2757
 6730SOL     OW31651   4.476   1.410   5.590 -0.2880 -0.1625 -0.2313
 6730SOL    HW131652   4.524   1.380   5.512 -0.7566 -0.7225 -0.3042
 6730SOL    HW231653   4.465   1.327   5.636 -1.8191 -0.2246 -0.7034
 6731SOL     OW31654   0.940   4.454   9.169  0.3550  0.7975  0.7145
 6731SOL    HW131655   0.913   4.428   9.256 -1.3988  1.2082  0.2800
 6731SOL    HW231656   0.994   4.382   9.136  0.2702 -0.2071  2.7751
 6732SOL     OW31657   3.498   3.274   5.040 -0.3608 -0.0388 -0.2956
 6732SOL    HW131658   3.517   3.357   4.998  0.6133 -0.4780 -0.7131
 6732SOL    HW231659   3.579   3.222   5.041 -0.5970 -0.3645  2.8041
 6733SOL     OW31660   2.274   1.071   8.487  0.2935  0.1206 -0.3535
 6733SOL    HW131661   2.353   1.072   8.542 -0.7676 -0.0713  1.1559
 6733SOL    HW231662   2.226   0.990   8.501  1.3693 -1.0544 -3.4754
 6734SOL     OW31663   3.295   3.574   6.928 -0.0898  0.1750  0.4094
 6734SOL    HW131664   3.217   3.579   6.983  0.1341  0.8548  0.6628
 6734SOL    HW231665   3.283   3.658   6.884 -0.5352  0.0131  0.2293
 6735SOL     OW31666   4.573   2.459   6.775 -0.6947  0.1757  0.2974
 6735SOL    HW131667   4.509   2.526   6.800  1.0325  1.9302 -0.0067
 6735SOL    HW231668   4.516   2.387   6.746 -1.4616  0.7710  0.3044
 6736SOL     OW31669   3.745   0.659  11.820  0.1004  0.0522 -0.2071
 6736SOL    HW131670   3.730   0.578  11.869  2.5134 -0.3509 -0.1364
 6736SOL    HW231671   3.814   0.707  11.866  0.5211 -0.2512 -0.5331
 6737SOL     OW31672   2.296   0.639   2.135 -0.6936 -0.1993  0.2030
 6737SOL    HW131673   2.358   0.581   2.091 -0.9771  0.1273 -0.6285
 6737SOL    HW231674   2.237   0.649   2.060 -0.4266  2.0655  0.2933
 6738SOL     OW31675   3.137   3.434  13.558  0.2205  0.3779 -0.0514
 6738SOL    HW131676   3.183   3.350  13.553  0.6248  0.7764 -3.1343
 6738SOL    HW231677   3.132   3.467  13.468 -2.4160 -1.5018 -0.6018
 6739SOL     OW31678   2.527   0.256  12.799  0.3560  0.0858 -0.3066
 6739SOL    HW131679   2.620   0.276  12.804 -0.2169  2.9715 -1.3572
 6739SOL    HW231680   2.523   0.193  12.871 -0.3643  1.1155  0.5579
 6740SOL     OW31681   3.135   3.596  10.484  0.0318 -0.3441  0.1471
 6740SOL    HW131682   3.080   3.663  10.443 -2.1487 -0.8704  2.1790
 6740SOL    HW231683   3.071   3.546  10.535 -1.2706 -0.4641 -1.6104
 6741SOL     OW31684   3.796   3.677  17.138  0.3785  0.4495 -0.0633
 6741SOL    HW131685   3.815   3.698  17.229  1.4248 -0.8890  0.0079
 6741SOL    HW231686   3.866   3.619  17.109  1.0129  1.4823 -0.6356
 6742SOL     OW31687   0.565   0.656   9.555  0.1586  0.0587 -0.0672
 6742SOL    HW131688   0.475   0.647   9.525  0.1817 -2.4565  0.6503
 6742SOL    HW231689   0.565   0.630   9.647  1.8415  1.6546  0.3788
 6743SOL     OW31690   4.341   0.411   4.311 -0.3706 -0.0492  0.2476
 6743SOL    HW131691   4.384   0.495   4.294 -0.6460  0.0109 -0.1556
 6743SOL    HW231692   4.310   0.385   4.224 -1.0097 -1.5746  0.9381
 6744SOL     OW31693   3.211   1.457   6.851  0.1946 -0.0827 -0.3643
 6744SOL    HW131694   3.220   1.550   6.828  1.1768  0.5301  2.4405
 6744SOL    HW231695   3.147   1.425   6.787  1.2282 -0.3977 -1.2362
 6745SOL     OW31696   3.397   3.208   5.390 -0.1303 -0.2958 -0.4865
 6745SOL    HW131697   3.449   3.181   5.314  0.4000 -1.1215  0.1716
 6745SOL    HW231698   3.319   3.239   5.345 -0.2489 -0.5397 -0.4485
 6746SOL     OW31699   2.941   0.744   5.947  0.3048  0.1492 -0.2434
 6746SOL    HW131700   2.966   0.669   5.893  0.0207  1.0031 -1.5765
 6746SOL    HW231701   2.924   0.815   5.884 -1.6047 -1.9642 -2.1063
 6747SOL     OW31702   3.132   3.678   5.220 -0.0623  0.6469 -0.0637
 6747SOL    HW131703   3.198   3.630   5.171  2.9213  1.7281  2.8646
 6747SOL    HW231704   3.131   3.625   5.300 -1.3534  0.7611 -0.0063
 6748SOL     OW31705   4.084   2.888  14.892 -0.3634 -0.4806  0.3639
 6748SOL    HW131706   4.063   2.980  14.875 -3.5952 -1.7897 -2.5743
 6748SOL    HW231707   4.049   2.844  14.815  0.3995  0.9263 -0.7988
 6749SOL     OW31708   1.769   1.958   6.053  0.1947 -0.5254  0.1366
 6749SOL    HW131709   1.832   1.961   6.126  0.8002 -0.5418 -0.3795
 6749SOL    HW231710   1.773   2.052   6.038 -0.2664 -0.8784 -2.2683
 6750SOL     OW31711   4.691   0.620  10.458 -0.6979  0.3143 -0.4487
 6750SOL    HW131712   4.606   0.576  10.456 -0.0605 -0.9055 -0.9792
 6750SOL    HW231713   4.700   0.600  10.551  1.6344 -3.9114 -1.5696
 6751SOL     OW31714   2.955   2.893   4.105  0.3875  0.3194 -0.5424
 6751SOL    HW131715   3.035   2.947   4.110 -0.1087  0.7577  2.6632
 6751SOL    HW231716   2.885   2.955   4.086  0.4206  1.6488  3.5820
 6752SOL     OW31717   3.557   2.695   3.237 -0.1827  0.6334 -0.6727
 6752SOL    HW131718   3.588   2.620   3.289  1.2309  0.5579 -1.6359
 6752SOL    HW231719   3.617   2.766   3.257  0.8355 -0.2196 -0.7178
 6753SOL     OW31720   1.758   4.257  16.771  0.7922 -0.1886  0.9794
 6753SOL    HW131721   1.851   4.241  16.786  0.6962  0.3098  2.1193
 6753SOL    HW231722   1.764   4.286  16.680  2.5914 -4.5954 -0.3014
 6754SOL     OW31723   4.099   2.243   5.366  0.5176  0.9751 -0.4781
 6754SOL    HW131724   4.160   2.170   5.382 -0.3928  0.2826 -0.1797
 6754SOL    HW231725   4.076   2.238   5.274 -0.5864 -1.1213 -0.0839
 6755SOL     OW31726   4.063   4.658   8.598  0.0145 -0.1720  0.3652
 6755SOL    HW131727   4.130   4.723   8.576  0.3195 -0.5045  0.3197
 6755SOL    HW231728   4.073   4.655   8.693  2.4135  2.0100  0.1731
 6756SOL     OW31729   2.959   4.514   0.842 -0.6284 -0.0076 -0.6502
 6756SOL    HW131730   2.936   4.422   0.829 -2.0574  0.2421  0.0148
 6756SOL    HW231731   2.877   4.562   0.861 -1.0556 -1.0833  0.2077
 6757SOL     OW31732   2.336   0.274  13.591  0.2409  0.4202  0.6440
 6757SOL    HW131733   2.302   0.263  13.502  0.3255  1.0032  0.5410
 6757SOL    HW231734   2.253   0.260  13.636 -0.1966 -0.2216 -0.3540
 6758SOL     OW31735   0.139   2.057   0.666  0.2682 -0.2305  0.3708
 6758SOL    HW131736   0.044   2.052   0.652  0.3610 -0.5662 -0.1468
 6758SOL    HW231737   0.165   1.981   0.615  1.4515 -0.6771  1.6503
 6759SOL     OW31738   0.744   2.058   3.214  0.4812  0.8138 -0.8120
 6759SOL    HW131739   0.730   2.012   3.131 -1.1297 -2.3925  1.2731
 6759SOL    HW231740   0.705   2.144   3.197  0.8449  1.3628  1.2256
 6760SOL     OW31741   2.027   1.346   4.058  0.0769 -0.4149 -0.6795
 6760SOL    HW131742   2.036   1.288   4.134  1.1323  1.3096  0.4868
 6760SOL    HW231743   2.105   1.326   4.007  0.6189  0.4789 -0.1921
 6761SOL     OW31744   1.712   1.423   1.892 -0.1682 -0.8464  0.1722
 6761SOL    HW131745   1.717   1.328   1.907  1.1632 -0.6854  0.7567
 6761SOL    HW231746   1.805   1.445   1.900 -0.8804  1.5726  1.6381
 6762SOL     OW31747   3.469   0.027  15.947 -0.1705 -0.3136  0.1100
 6762SOL    HW131748   3.384   0.037  15.904 -0.2713 -1.1081  0.1324
 6762SOL    HW231749   3.498   0.118  15.940 -2.1317  0.5445  2.9308
 6763SOL     OW31750   1.581   2.905  16.574  0.0197 -0.6477 -0.1716
 6763SOL    HW131751   1.537   2.925  16.492  1.3117  2.2819 -0.1382
 6763SOL    HW231752   1.625   2.990  16.584  1.0893 -1.2976  0.6666
 6764SOL     OW31753   1.014   3.291   3.042  0.0370  0.6526 -0.7194
 6764SOL    HW131754   0.961   3.292   2.963 -2.4518 -1.5793  0.9104
 6764SOL    HW231755   0.951   3.334   3.101 -0.9448  1.2647 -2.2064
 6765SOL     OW31756   2.396   2.850  11.887 -0.1030  0.1012 -0.2561
 6765SOL    HW131757   2.477   2.854  11.938  0.3787 -1.3191 -0.9352
 6765SOL    HW231758   2.438   2.790  11.826  0.5018  0.5738 -0.3147
 6766SOL     OW31759   1.534   2.682   8.928  0.1228 -0.0900  0.4113
 6766SOL    HW131760   1.575   2.609   8.883 -2.6890 -1.6396  0.3268
 6766SOL    HW231761   1.456   2.635   8.960 -0.1108 -1.0252 -1.5670
 6767SOL     OW31762   3.075   3.980  12.302 -0.3489  0.3278  0.5580
 6767SOL    HW131763   3.036   3.984  12.389 -2.2408  1.3387 -0.3405
 6767SOL    HW231764   2.997   3.979  12.248  0.1978 -1.4644 -0.1892
 6768SOL     OW31765   2.796   1.419   4.300 -0.5823  0.1855 -0.5111
 6768SOL    HW131766   2.885   1.424   4.333  0.7510  2.4309 -4.4469
 6768SOL    HW231767   2.805   1.481   4.228 -0.9043  2.6609  1.5986
 6769SOL     OW31768   1.387   0.259   2.452  0.0764  0.4931 -0.1959
 6769SOL    HW131769   1.365   0.329   2.391 -1.2387 -0.0042 -0.2945
 6769SOL    HW231770   1.303   0.258   2.498  1.0842  1.7767  1.6664
 6770SOL     OW31771   3.638   4.147   7.654  0.8050 -0.0847  0.1164
 6770SOL    HW131772   3.608   4.206   7.584 -0.0633  0.2794  0.8044
 6770SOL    HW231773   3.565   4.149   7.715  2.7093  0.7277  2.3449
 6771SOL     OW31774   0.790   0.011   5.977 -0.6167  0.0838 -0.0926
 6771SOL    HW131775   0.867   0.028   5.923 -1.2777  0.5210 -0.8818
 6771SOL    HW231776   0.807   4.641   5.991  3.2276  0.9828  1.1399
 6772SOL     OW31777   2.976   2.763   1.013 -0.3124  0.1561 -0.7152
 6772SOL    HW131778   3.060   2.727   1.042 -1.1079 -1.0805  0.0421
 6772SOL    HW231779   2.997   2.852   0.986  1.2544 -0.5420 -1.8207
 6773SOL     OW31780   4.340   4.290   1.411 -0.4308 -0.0177  0.1663
 6773SOL    HW131781   4.364   4.199   1.396  0.4232  0.2123  0.1345
 6773SOL    HW231782   4.402   4.309   1.481 -0.4328  0.0289  0.1559
 6774SOL     OW31783   4.425   0.774   3.798 -0.4651  0.3656  0.1509
 6774SOL    HW131784   4.334   0.749   3.815 -0.1118 -1.3958 -0.4867
 6774SOL    HW231785   4.443   0.836   3.868 -1.0451  0.0887  0.5411
 6775SOL     OW31786   2.616   3.257  10.702 -0.0778 -0.2451 -0.0241
 6775SOL    HW131787   2.617   3.340  10.749 -0.3432 -0.3489  0.1663
 6775SOL    HW231788   2.527   3.224  10.716 -0.7912  1.0819 -1.4479
 6776SOL     OW31789   1.494   2.956  10.201  0.0898 -0.1036 -0.0143
 6776SOL    HW131790   1.557   2.930  10.269 -1.3718 -1.6140  0.7678
 6776SOL    HW231791   1.415   2.933  10.249  0.5404 -0.9001  0.3548
 6777SOL     OW31792   4.518   1.852   6.650 -0.0121  0.0642 -0.3445
 6777SOL    HW131793   4.511   1.796   6.728  1.5190  0.2418 -0.0705
 6777SOL    HW231794   4.423   1.848   6.640 -0.2128  2.4897  0.6268
 6778SOL     OW31795   0.410   4.163   6.155  0.2260 -0.0767 -0.2968
 6778SOL    HW131796   0.321   4.133   6.173  0.2327  2.1753  3.4050
 6778SOL    HW231797   0.414   4.241   6.210  2.1294 -0.6969  0.4333
 6779SOL     OW31798   3.423   3.293  10.014 -0.0975 -0.2058 -0.0972
 6779SOL    HW131799   3.414   3.291   9.919  0.7543 -2.1057 -0.1479
 6779SOL    HW231800   3.330   3.278  10.031 -0.0610 -0.0057  0.2711
 6780SOL     OW31801   0.645   1.912   4.861  0.7259  0.3681 -0.3884
 6780SOL    HW131802   0.626   1.973   4.789  0.3913 -0.2236 -0.8059
 6780SOL    HW231803   0.740   1.925   4.863  0.5621  1.7246 -1.9622
 6781SOL     OW31804   0.629   2.515   4.590  0.6427 -0.1587  0.0433
 6781SOL    HW131805   0.552   2.546   4.639 -0.6088 -1.2454 -1.2256
 6781SOL    HW231806   0.662   2.604   4.580  1.0436 -0.3984 -0.7719
 6782SOL     OW31807   3.985   2.259   5.637  0.2068 -0.2123 -0.1097
 6782SOL    HW131808   4.062   2.226   5.683 -0.9262 -0.2183  1.7676
 6782SOL    HW231809   3.939   2.266   5.721  1.4446  0.6159  0.5129
 6783SOL     OW31810   0.012   2.590   7.650 -0.2411 -0.1063  0.3477
 6783SOL    HW131811   4.644   2.601   7.673 -0.1211  0.9527  0.3152
 6783SOL    HW231812   0.005   2.541   7.568 -0.5099 -1.3653  1.1165
 6784SOL     OW31813   4.537   2.246   4.078 -0.0569 -0.1691  0.0588
 6784SOL    HW131814   4.615   2.295   4.053  0.1278  1.0893  3.0955
 6784SOL    HW231815   4.508   2.292   4.157  2.8975 -1.2424  1.7428
 6785SOL     OW31816   3.933   4.356   3.542 -0.4583  0.2037 -0.0825
 6785SOL    HW131817   3.969   4.420   3.603 -0.0746 -0.2273  0.1380
 6785SOL    HW231818   3.850   4.335   3.584 -1.4567 -1.4385 -2.8651
 6786SOL     OW31819   3.524   4.587   8.407 -0.0206 -0.1815  0.4140
 6786SOL    HW131820   3.592   4.647   8.439  0.2175 -0.4167  0.3437
 6786SOL    HW231821   3.468   4.601   8.483 -0.6657 -0.3036 -0.0427
 6787SOL     OW31822   3.255   0.923  11.407  0.2876  0.1176  0.8189
 6787SOL    HW131823   3.344   0.903  11.435 -0.6772 -3.2521  1.4442
 6787SOL    HW231824   3.265   0.992  11.341 -2.3198  0.6773  1.0222
 6788SOL     OW31825   4.121   1.512   1.441  0.7931 -0.9272 -0.0744
 6788SOL    HW131826   4.105   1.584   1.502  2.0363  0.4278 -1.3807
 6788SOL    HW231827   4.081   1.545   1.361 -1.6263 -1.8921  0.7312
 6789SOL     OW31828   0.900   0.274   3.496  0.9206 -0.2629  0.4960
 6789SOL    HW131829   0.982   0.317   3.519  1.0234  1.1198 -2.4537
 6789SOL    HW231830   0.934   0.198   3.447 -2.0364 -1.1767 -0.1482
 6790SOL     OW31831   0.200   1.857   4.460  0.3761  0.3300 -0.4102
 6790SOL    HW131832   0.132   1.907   4.414  0.4071  1.0954  0.3804
 6790SOL    HW231833   0.233   1.796   4.394  1.3844 -0.7671  1.0986
 6791SOL     OW31834   0.952   0.482   9.838 -0.0222 -0.3314  0.0157
 6791SOL    HW131835   1.024   0.519   9.889  2.0384 -2.0709 -1.5955
 6791SOL    HW231836   0.938   0.543   9.765 -0.2703  0.2861  0.5861
 6792SOL     OW31837   1.088   3.144   3.410 -0.1660  0.2031 -0.1574
 6792SOL    HW131838   1.132   3.225   3.437 -0.0675  0.0859  0.0338
 6792SOL    HW231839   1.136   3.075   3.456 -2.4553 -1.7364 -0.7166
 6793SOL     OW31840   0.310   0.607   2.585  0.0941 -0.4464  0.2252
 6793SOL    HW131841   0.335   0.515   2.592  0.4204 -0.5267 -1.8882
 6793SOL    HW231842   0.217   0.600   2.563  0.6057 -0.8736 -1.8753
 6794SOL     OW31843   3.906   0.134   5.287  0.5483  0.2974 -0.2328
 6794SOL    HW131844   3.869   0.195   5.224 -1.0077 -1.0595 -0.6540
 6794SOL    HW231845   3.836   0.068   5.279  1.0542 -0.5439  2.2364
 6795SOL     OW31846   1.805   0.049   8.986  0.0688 -0.3425 -0.1528
 6795SOL    HW131847   1.802   4.720   8.906  4.0418  1.3986 -1.4613
 6795SOL    HW231848   1.729   0.107   8.977 -0.2564 -1.0063 -1.7775
 6796SOL     OW31849   0.638   2.688  14.472  0.3958 -0.3547  0.5483
 6796SOL    HW131850   0.589   2.685  14.390  0.1080 -0.6851  0.7292
 6796SOL    HW231851   0.688   2.767  14.456  0.7667 -0.8527 -0.6805
 6797SOL     OW31852   0.912   1.653   3.685  0.1682  0.5258 -0.2366
 6797SOL    HW131853   0.918   1.628   3.777  0.9402 -1.4813 -0.8472
 6797SOL    HW231854   1.004   1.673   3.667 -0.0498  1.2355 -0.5577
 6798SOL     OW31855   3.262   0.305  16.062  0.3196  0.3351  0.5117
 6798SOL    HW131856   3.266   0.396  16.032 -2.6282  0.4087  0.2921
 6798SOL    HW231857   3.280   0.258  15.981  0.5366 -0.0812  0.8068
 6799SOL     OW31858   1.032   2.737   5.852 -0.3966  0.2779  0.5992
 6799SOL    HW131859   1.108   2.785   5.886  0.7874 -2.1638  1.4163
 6799SOL    HW231860   1.070   2.719   5.766 -0.2775 -0.5800  0.8290
 6800SOL     OW31861   1.510   0.869   1.991  0.3160  0.3298  0.1624
 6800SOL    HW131862   1.494   0.938   2.054  2.2187  0.6934  0.2581
 6800SOL    HW231863   1.549   0.917   1.917 -0.4589  1.8260  0.7221
 6801SOL     OW31864   3.861   0.408   6.106 -0.0273 -0.4392  0.0771
 6801SOL    HW131865   3.848   0.498   6.135 -0.8903 -0.2760 -0.8290
 6801SOL    HW231866   3.930   0.416   6.040  0.3762  0.9238  0.6723
 6802SOL     OW31867   1.457   4.469   3.037 -0.1749  0.1266 -0.6885
 6802SOL    HW131868   1.518   4.400   3.062 -0.1951  0.3127 -0.1319
 6802SOL    HW231869   1.519   4.542   3.049  0.6295 -0.2407 -2.5612
 6803SOL     OW31870   3.630   0.220   8.666 -0.0540 -0.3054 -0.1792
 6803SOL    HW131871   3.684   0.146   8.695 -1.5631 -1.1865  0.3936
 6803SOL    HW231872   3.565   0.220   8.737  0.7402  1.2474  0.5364
 6804SOL     OW31873   1.000   3.037  14.258 -0.8305 -0.0482 -0.0507
 6804SOL    HW131874   1.066   3.086  14.307 -1.1608 -0.9042  1.2769
 6804SOL    HW231875   0.989   3.099  14.186  0.8944  0.2901 -0.0072
 6805SOL     OW31876   1.725   1.499  12.581  0.1203  0.7960  0.0762
 6805SOL    HW131877   1.680   1.517  12.663  0.7426  1.1181  0.3539
 6805SOL    HW231878   1.801   1.456  12.620 -0.5078  0.2021  0.6396
 6806SOL     OW31879   0.431   2.536  16.125 -0.1388  0.6745 -0.1995
 6806SOL    HW131880   0.409   2.450  16.089  1.8603  1.2069 -2.6798
 6806SOL    HW231881   0.419   2.517  16.218  1.1499 -0.0799 -0.1980
 6807SOL     OW31882   1.895   3.435   3.176  0.6788 -0.2702  0.1887
 6807SOL    HW131883   1.965   3.497   3.195  0.8999  0.1148 -1.7980
 6807SOL    HW231884   1.837   3.486   3.119  0.9631  1.2892  1.3152
 6808SOL     OW31885   1.232   0.533  15.406  0.0226  0.0685  0.2129
 6808SOL    HW131886   1.158   0.473  15.413  0.9100 -1.2560 -1.7096
 6808SOL    HW231887   1.249   0.542  15.500  0.5081  1.1875  0.0165
 6809SOL     OW31888   2.251   3.318  10.362  0.2106 -0.1483  0.2042
 6809SOL    HW131889   2.328   3.322  10.305  1.2493  1.7238  1.7425
 6809SOL    HW231890   2.273   3.390  10.421 -1.9541  1.7868 -1.3363
 6810SOL     OW31891   3.158   0.389   2.698 -0.1628 -0.1991 -0.2265
 6810SOL    HW131892   3.199   0.341   2.627  0.8204  0.3928 -0.0696
 6810SOL    HW231893   3.233   0.437   2.736 -1.2308  0.5481  0.9485
 6811SOL     OW31894   4.331   4.382   6.348 -0.0935  0.3943 -0.0121
 6811SOL    HW131895   4.272   4.311   6.373  0.2398 -0.7079 -2.4108
 6811SOL    HW231896   4.403   4.339   6.302 -0.2070  0.3940 -0.1860
 6812SOL     OW31897   0.169   3.508   7.115  0.3699 -0.0262 -0.1977
 6812SOL    HW131898   0.110   3.567   7.069  1.0572 -0.6236 -1.8509
 6812SOL    HW231899   0.152   3.537   7.205  0.1734  0.0004 -0.2450
 6813SOL     OW31900   2.038   2.057  14.250 -0.0947 -0.2409 -0.5236
 6813SOL    HW131901   1.987   1.991  14.297 -0.1927 -0.0438 -0.3472
 6813SOL    HW231902   2.115   2.067  14.306 -0.5343 -0.8019  0.1811
 6814SOL     OW31903   1.947   1.022   6.695  0.0149 -0.3871 -0.3904
 6814SOL    HW131904   2.008   0.975   6.753 -1.5388 -1.4959  0.3551
 6814SOL    HW231905   1.866   1.005   6.743 -0.1461  0.4495 -0.3694
 6815SOL     OW31906   3.604   2.766  10.502 -0.0108 -0.1848 -0.4859
 6815SOL    HW131907   3.532   2.814  10.461 -1.3136 -1.5301  0.2303
 6815SOL    HW231908   3.554   2.686  10.519  2.4198 -1.7255 -0.6686
 6816SOL     OW31909   1.396   0.051   0.700 -0.5748  0.0092  0.5287
 6816SOL    HW131910   1.480   0.084   0.669 -0.2357 -1.0050  0.3648
 6816SOL    HW231911   1.332   0.058   0.629 -0.0320 -1.1733 -0.0749
 6817SOL     OW31912   4.637   2.689   5.771 -0.1003  0.1851 -0.4258
 6817SOL    HW131913   4.662   2.780   5.784  1.4436 -0.3734  0.6368
 6817SOL    HW231914   4.687   2.639   5.836 -0.3049  0.9382  0.3055
 6818SOL     OW31915   3.268   3.725   4.304 -0.4906  0.1848 -0.0205
 6818SOL    HW131916   3.343   3.727   4.246 -1.5942  1.5406 -1.4032
 6818SOL    HW231917   3.302   3.778   4.377 -1.1586  0.9777 -0.2891
 6819SOL     OW31918   1.994   1.691   1.550  0.2258 -0.5614  0.1665
 6819SOL    HW131919   1.961   1.605   1.522  0.5340 -0.3960 -0.7117
 6819SOL    HW231920   2.038   1.721   1.470  0.6313 -2.3509 -0.2845
 6820SOL     OW31921   2.154   3.893   3.693 -0.1919  0.2476 -0.1262
 6820SOL    HW131922   2.200   3.924   3.771  0.5565 -2.3875  0.4868
 6820SOL    HW231923   2.218   3.926   3.630  2.0707 -1.1415  1.4450
 6821SOL     OW31924   2.243   0.742   6.593  0.1821 -0.2193  0.1507
 6821SOL    HW131925   2.331   0.768   6.566  0.9495 -0.7248  2.1590
 6821SOL    HW231926   2.251   0.647   6.606  1.7458 -0.1410 -0.2150
 6822SOL     OW31927   4.438   0.534  13.450 -0.0103 -0.1746  0.4267
 6822SOL    HW131928   4.367   0.561  13.393  1.7417  3.7010  0.0926
 6822SOL    HW231929   4.385   0.485  13.513  0.9017 -1.0136  0.5462
 6823SOL     OW31930   2.428   3.044   9.900  0.4823  0.3504 -0.0315
 6823SOL    HW131931   2.390   3.117   9.850  0.6716 -0.1939 -0.9770
 6823SOL    HW231932   2.443   2.982   9.829  1.1833  0.4172  0.0595
 6824SOL     OW31933   4.355   1.261   6.734 -0.3283 -0.5411 -0.6068
 6824SOL    HW131934   4.359   1.190   6.670  0.3054 -0.0758 -1.0740
 6824SOL    HW231935   4.446   1.291   6.734 -0.8757  1.1404  2.2977
 6825SOL     OW31936   1.887   2.967   2.433 -0.8769  0.4816 -0.0363
 6825SOL    HW131937   1.803   2.937   2.396 -0.6364 -0.2587  0.0173
 6825SOL    HW231938   1.857   3.026   2.502  0.2431  0.7656  0.1957
 6826SOL     OW31939   1.521   3.817   1.609  0.2378 -0.4560  0.7222
 6826SOL    HW131940   1.493   3.860   1.528 -0.4390  0.0986  1.2505
 6826SOL    HW231941   1.554   3.894   1.657 -0.0057  0.2094 -0.1771
 6827SOL     OW31942   0.928   3.241   9.651  0.2812  0.4676  0.3290
 6827SOL    HW131943   0.967   3.303   9.712  2.2829 -2.5297  2.1264
 6827SOL    HW231944   0.864   3.198   9.708  1.3853  0.7017  1.7501
 6828SOL     OW31945   0.398   1.796   6.339 -0.5960 -0.3064  0.1152
 6828SOL    HW131946   0.426   1.810   6.430 -1.2297  0.0093  0.2566
 6828SOL    HW231947   0.401   1.883   6.297 -1.1310  0.2899  1.3127
 6829SOL     OW31948   0.797   1.529   2.851  0.2763 -0.0935 -0.4699
 6829SOL    HW131949   0.737   1.540   2.776  1.3861  1.1578 -1.1753
 6829SOL    HW231950   0.769   1.595   2.914 -2.2212  0.0875 -1.7506
 6830SOL     OW31951   3.423   0.525   1.521  0.0075  0.3876  0.3551
 6830SOL    HW131952   3.440   0.474   1.600  1.6437  0.4652  0.0423
 6830SOL    HW231953   3.337   0.561   1.545  0.3433  1.0174  0.6178
 6831SOL     OW31954   2.059   1.374   7.493  0.4363 -0.1080 -0.0209
 6831SOL    HW131955   2.105   1.457   7.501  0.2064 -0.2339  2.5739
 6831SOL    HW231956   2.101   1.323   7.562 -1.6033 -1.1407  0.4298
 6832SOL     OW31957   0.305   3.537   5.577  0.5142 -0.5440  0.2784
 6832SOL    HW131958   0.394   3.514   5.604  0.1824  1.9446  3.5346
 6832SOL    HW231959   0.311   3.509   5.485  0.6012 -0.5755  0.2939
 6833SOL     OW31960   1.281   2.000  10.216 -0.3676  0.4791 -0.0682
 6833SOL    HW131961   1.203   2.053  10.202 -0.9855 -0.3128  0.4122
 6833SOL    HW231962   1.252   1.933  10.278  0.7421 -0.1878 -0.2602
 6834SOL     OW31963   0.935   0.912   0.812  0.3332  0.2373  0.3677
 6834SOL    HW131964   0.936   0.867   0.897  1.7057 -1.8555 -0.7517
 6834SOL    HW231965   0.843   0.934   0.800  0.2614 -0.6785 -0.8463
 6835SOL     OW31966   1.137   3.702  17.483  0.3375  0.4905  0.0692
 6835SOL    HW131967   1.060   3.708  17.426  0.1780 -0.8873  0.1384
 6835SOL    HW231968   1.172   3.616  17.458  0.5136  0.3253  0.8920
 6836SOL     OW31969   0.786   0.801   3.676 -0.4691  0.5974 -0.3369
 6836SOL    HW131970   0.770   0.780   3.584 -0.8509  0.8316 -0.3231
 6836SOL    HW231971   0.852   0.871   3.677  0.3878 -0.2028 -1.5103
 6837SOL     OW31972   2.593   3.240  15.590  0.3943  0.0108  0.4281
 6837SOL    HW131973   2.573   3.162  15.641 -1.4231 -0.6711 -1.3341
 6837SOL    HW231974   2.655   3.200  15.529  1.0723  1.0900  0.4042
 6838SOL     OW31975   2.294   0.972   6.778  0.6059  0.0468  0.5832
 6838SOL    HW131976   2.284   1.033   6.705  1.3722 -1.8065 -1.0759
 6838SOL    HW231977   2.358   0.908   6.745 -0.8922 -0.3646 -1.5143
 6839SOL     OW31978   0.166   2.144  11.845 -0.0769 -0.5094 -0.5134
 6839SOL    HW131979   0.095   2.206  11.828 -0.5649 -0.6650  0.9733
 6839SOL    HW231980   0.122   2.067  11.809  0.8408 -1.2869  0.0553
 6840SOL     OW31981   0.609   2.660  15.966 -0.0220 -0.3247 -0.0727
 6840SOL    HW131982   0.557   2.619  16.035 -1.7040 -0.6142 -1.4898
 6840SOL    HW231983   0.685   2.601  15.967  0.3567  0.2303  2.0952
 6841SOL     OW31984   2.519   1.652   1.875  0.5908  0.0131 -0.8309
 6841SOL    HW131985   2.478   1.699   1.803 -0.3089  0.8043  0.1914
 6841SOL    HW231986   2.463   1.577   1.895 -1.3170  1.4716 -0.8245
 6842SOL     OW31987   1.333   1.943  11.352  0.2136  0.7130 -0.6949
 6842SOL    HW131988   1.366   1.926  11.441  0.6788 -0.6050 -1.1155
 6842SOL    HW231989   1.258   1.885  11.340  0.9794 -0.0510 -1.8125
 6843SOL     OW31990   1.604   1.342   9.106  0.1415  0.2122 -0.0326
 6843SOL    HW131991   1.651   1.259   9.108  0.0651  0.1186 -1.7400
 6843SOL    HW231992   1.572   1.331   9.195 -1.2440 -0.4867 -0.6200
 6844SOL     OW31993   3.930   3.009   9.964 -0.0530  0.4310  0.6168
 6844SOL    HW131994   3.904   2.920   9.944  0.2398  0.2524  1.0276
 6844SOL    HW231995   3.853   3.060   9.990 -2.4955 -1.3517 -3.2314
 6845SOL     OW31996   0.286   4.157   5.408  0.6405  0.0847  0.1523
 6845SOL    HW131997   0.300   4.247   5.379  2.5327 -0.5115 -0.7859
 6845SOL    HW231998   0.351   4.107   5.359  0.5813  0.1305  0.0289
 6846SOL     OW31999   1.801   1.309   5.375  0.3932  0.2021 -0.6323
 6846SOL    HW132000   1.777   1.400   5.362  0.6711  0.6314  1.8386
 6846SOL    HW232001   1.730   1.277   5.319  0.3571 -0.2339 -0.3471
 6847SOL     OW32002   4.627   2.908   3.298  0.1859  0.4223  0.6581
 6847SOL    HW132003   4.582   2.991   3.311  0.9002  0.7799  0.8249
 6847SOL    HW232004   4.556   2.849   3.271  1.4100 -0.0087 -1.6414
 6848SOL     OW32005   1.623   2.680   8.271 -0.4994 -0.2358  0.2507
 6848SOL    HW132006   1.612   2.707   8.362 -0.5417  0.9436 -0.0980
 6848SOL    HW232007   1.630   2.588   8.295  1.6422 -0.1739 -0.1672
 6849SOL     OW32008   1.614   4.323   3.229 -0.1225 -0.4314 -0.6722
 6849SOL    HW132009   1.648   4.234   3.235 -1.8501 -1.1515 -1.3383
 6849SOL    HW232010   1.535   4.306   3.282  0.5734  3.3677  1.5571
 6850SOL     OW32011   0.749   0.969   1.949 -0.2032 -0.0465  0.1269
 6850SOL    HW132012   0.821   0.924   1.904  0.2082  0.3233  0.4144
 6850SOL    HW232013   0.707   1.017   1.877  1.0133  0.0725 -0.5036
 6851SOL     OW32014   2.909   3.135   7.518  0.3009  0.5546  0.2396
 6851SOL    HW132015   2.884   3.085   7.596 -0.6135  0.5064 -0.0925
 6851SOL    HW232016   2.896   3.223   7.554 -0.5549 -0.8906  3.5223
 6852SOL     OW32017   1.895   1.395   8.459 -0.6569 -0.4389  0.2001
 6852SOL    HW132018   1.914   1.421   8.369  1.8215  1.2706  1.1883
 6852SOL    HW232019   1.856   1.476   8.493  0.9147  0.4243  0.0038
 6853SOL     OW32020   1.558   2.097   5.190  0.0811 -0.1072  0.0934
 6853SOL    HW132021   1.594   2.090   5.102  1.1939 -0.7910  0.5995
 6853SOL    HW232022   1.474   2.062   5.163 -0.2883  0.7901  0.0615
 6854SOL     OW32023   3.075   2.312  14.855 -0.1535 -0.0676  0.5311
 6854SOL    HW132024   3.049   2.221  14.842  2.7734 -0.1942 -4.2612
 6854SOL    HW232025   3.110   2.322  14.767  0.1312  0.0597  0.6606
 6855SOL     OW32026   3.624   4.713  12.055 -0.5262 -0.1030 -0.2187
 6855SOL    HW132027   3.718   4.722  12.040 -0.4241  1.6897  1.5060
 6855SOL    HW232028   3.616   4.633  12.107 -2.3932 -0.0959 -0.4867
 6856SOL     OW32029   2.466   0.845  14.056 -0.1382 -0.5182  0.2603
 6856SOL    HW132030   2.400   0.870  14.120 -0.2932  0.8609 -0.4301
 6856SOL    HW232031   2.420   0.851  13.973  0.3359  1.8024  0.1591
 6857SOL     OW32032   1.514   0.601   6.823  0.2919 -0.8482 -0.1585
 6857SOL    HW132033   1.493   0.690   6.853 -1.1566 -1.9757  2.1268
 6857SOL    HW232034   1.609   0.607   6.814  0.2703  1.2348  0.8128
 6858SOL     OW32035   2.399   3.398   5.610 -0.4375  0.1331 -0.0228
 6858SOL    HW132036   2.398   3.476   5.555  0.8402  0.6613  0.6960
 6858SOL    HW232037   2.478   3.354   5.580  0.8454  1.4365  1.4254
 6859SOL     OW32038   1.352   0.086  16.750 -0.0004  0.0141 -0.6492
 6859SOL    HW132039   1.429   0.135  16.779 -0.8160  1.0185 -0.1931
 6859SOL    HW232040   1.370   0.072  16.657 -0.7552 -0.3806 -0.7373
 6860SOL     OW32041   2.420   0.771   4.023 -0.9346 -0.9059  0.2249
 6860SOL    HW132042   2.435   0.857   4.062 -0.4352 -0.9326  0.0980
 6860SOL    HW232043   2.404   0.719   4.102 -2.5826  0.5897  0.8632
 6861SOL     OW32044   1.282   4.194  11.377  0.1000  0.3090 -0.1048
 6861SOL    HW132045   1.231   4.266  11.340 -0.9292  1.2982  3.2166
 6861SOL    HW232046   1.295   4.134  11.304 -2.1212  0.0123 -0.2467
 6862SOL     OW32047   2.081   2.552   6.683  0.4327  0.2335 -0.1895
 6862SOL    HW132048   2.146   2.609   6.642  0.9249 -1.0783 -1.2581
 6862SOL    HW232049   2.138   2.477   6.700  3.2920  1.6935 -3.2710
 6863SOL     OW32050   4.265   3.551  17.131 -0.7556  0.5713  0.3288
 6863SOL    HW132051   4.209   3.519  17.060 -0.2634 -1.1982  0.7401
 6863SOL    HW232052   4.344   3.548  17.077 -0.9015  0.6602  0.1097
 6864SOL     OW32053   4.176   1.556   2.282  0.6815  0.2941 -0.2370
 6864SOL    HW132054   4.204   1.595   2.365 -2.1199 -0.0926  0.9079
 6864SOL    HW232055   4.091   1.520   2.307 -0.6862  3.6379  0.0504
 6865SOL     OW32056   1.562   2.738   3.204  0.1571  0.0132  0.2892
 6865SOL    HW132057   1.537   2.658   3.158 -0.8000 -0.8136  2.2264
 6865SOL    HW232058   1.503   2.735   3.279 -1.2846 -1.5726 -0.9169
 6866SOL     OW32059   1.157   4.552   6.955 -0.0648 -0.0117  0.2509
 6866SOL    HW132060   1.184   4.473   6.909  0.9429  0.6855 -0.3573
 6866SOL    HW232061   1.062   4.548   6.951  0.0406 -0.8219 -1.5559
 6867SOL     OW32062   0.434   2.940   1.431  0.1571  0.6476  0.0925
 6867SOL    HW132063   0.412   2.910   1.519 -1.0929  1.1843 -0.0275
 6867SOL    HW232064   0.527   2.952   1.448  0.0211  1.2425  0.4369
 6868SOL     OW32065   0.859   4.385   9.422  0.0278 -0.3699 -0.6560
 6868SOL    HW132066   0.778   4.436   9.415  0.2292  0.1648  0.9319
 6868SOL    HW232067   0.826   4.324   9.488  3.0434 -0.5970  0.6510
 6869SOL     OW32068   4.031   0.010   5.930  0.4537 -0.4631  0.4121
 6869SOL    HW132069   4.013   4.642   5.913 -0.0089 -0.9181  3.4418
 6869SOL    HW232070   4.083   0.032   5.852 -2.3713  0.4892 -1.1766
 6870SOL     OW32071   0.393   4.574   2.768 -0.3822 -0.0967  0.3260
 6870SOL    HW132072   0.367   4.619   2.848 -0.0522 -0.3972  0.6055
 6870SOL    HW232073   0.452   4.509   2.807 -2.8927 -2.5550 -0.0039
 6871SOL     OW32074   2.038   0.532  16.167 -0.4161 -0.3333  0.0821
 6871SOL    HW132075   2.031   0.604  16.231  1.5063  1.9077 -2.2617
 6871SOL    HW232076   1.987   0.471  16.221  0.2417  0.5385  1.7053
 6872SOL     OW32077   2.463   1.042  12.595  0.9430 -0.5796  0.1373
 6872SOL    HW132078   2.407   1.007  12.664  0.0403  1.2034  0.3043
 6872SOL    HW232079   2.407   1.017  12.522 -1.1040  0.6771  1.2935
 6873SOL     OW32080   3.482   2.054   2.375 -0.0779  0.2750 -0.4537
 6873SOL    HW132081   3.464   1.991   2.306 -1.9002  1.9597 -1.4893
 6873SOL    HW232082   3.565   2.089   2.341  1.1328  0.5984  2.8162
 6874SOL     OW32083   3.140   2.815   8.597  0.4555  0.0782  0.2124
 6874SOL    HW132084   3.128   2.903   8.562 -1.9739  0.3653  1.7649
 6874SOL    HW232085   3.155   2.766   8.517  1.9232 -0.3482  0.7464
 6875SOL     OW32086   0.612   2.055   7.294  0.3342 -0.0678 -0.1563
 6875SOL    HW132087   0.579   1.978   7.342 -1.5457 -0.3258 -1.8733
 6875SOL    HW232088   0.653   2.015   7.217 -0.6631 -1.5393  0.0705
 6876SOL     OW32089   4.159   2.777   7.938  0.1834  0.0664  0.4726
 6876SOL    HW132090   4.219   2.829   7.884  0.4648 -1.9964 -1.1883
 6876SOL    HW232091   4.145   2.706   7.876  0.5864  0.5238 -0.1403
 6877SOL     OW32092   2.480   3.378   8.796 -0.3183  0.6710  0.2515
 6877SOL    HW132093   2.418   3.345   8.731  0.7431 -0.6389 -0.0999
 6877SOL    HW232094   2.515   3.446   8.739  1.8380  0.2821  1.1300
 6878SOL     OW32095   4.092   3.730   8.140  0.2096 -0.1223  0.1409
 6878SOL    HW132096   4.179   3.750   8.175 -0.2623 -0.1602  1.3192
 6878SOL    HW232097   4.033   3.794   8.179 -0.0465 -0.4037  0.2171
 6879SOL     OW32098   0.457   4.483  16.610  0.2017  0.3678 -0.1864
 6879SOL    HW132099   0.541   4.448  16.581  0.5343  1.6138 -0.7190
 6879SOL    HW232100   0.492   4.568  16.637  0.7147  0.0396  0.1974
 6880SOL     OW32101   2.650   1.358   4.688  0.0199 -0.1250 -0.0366
 6880SOL    HW132102   2.746   1.357   4.681  0.0113  3.3001 -0.5789
 6880SOL    HW232103   2.634   1.443   4.727  0.1347  0.6061 -1.5643
 6881SOL     OW32104   2.090   0.982   7.489 -0.5424 -0.2228 -0.0976
 6881SOL    HW132105   2.142   0.932   7.552 -0.9184 -1.6849 -0.9603
 6881SOL    HW232106   2.002   0.955   7.517 -0.7825  1.5984  0.9360
 6882SOL     OW32107   3.167   3.773   3.326  0.2152  0.3140  0.5345
 6882SOL    HW132108   3.120   3.854   3.304 -1.2112 -1.0718 -1.5279
 6882SOL    HW232109   3.177   3.742   3.236 -1.4299 -0.8845  0.7590
 6883SOL     OW32110   3.238   1.762   4.858 -0.0952  0.1306 -0.2210
 6883SOL    HW132111   3.161   1.711   4.832 -0.9302  2.1638 -1.7374
 6883SOL    HW232112   3.280   1.778   4.773  4.4850  0.2348  2.0640
 6884SOL     OW32113   1.642   3.659   6.002 -0.2553 -0.0582 -0.3086
 6884SOL    HW132114   1.728   3.674   5.963  0.2838  0.8480  1.2218
 6884SOL    HW232115   1.659   3.662   6.096  0.7113  1.4016 -0.5292
 6885SOL     OW32116   4.060   1.861   1.911 -0.2051 -0.0941  0.0289
 6885SOL    HW132117   4.142   1.837   1.952 -0.1858 -0.5271 -0.2636
 6885SOL    HW232118   4.075   1.953   1.887 -0.6843 -0.2394 -0.8532
 6886SOL     OW32119   2.630   3.370  16.760 -0.4381  0.2036 -0.1003
 6886SOL    HW132120   2.700   3.436  16.756  0.3161 -0.6290 -0.7836
 6886SOL    HW232121   2.622   3.371  16.856 -1.0223  0.9895 -0.1670
 6887SOL     OW32122   2.623   0.547  14.567  0.6153  0.6268  0.2179
 6887SOL    HW132123   2.538   0.504  14.556  0.7308  0.5690 -0.4981
 6887SOL    HW232124   2.666   0.478  14.618  0.9099 -0.8392 -1.9797
 6888SOL     OW32125   0.525   2.616   5.798 -0.2317  0.8920 -0.1721
 6888SOL    HW132126   0.592   2.550   5.814 -1.5345 -0.2584  0.5088
 6888SOL    HW232127   0.557   2.637   5.710 -0.1483 -2.2298 -0.8739
 6889SOL     OW32128   0.615   4.550   6.277 -0.0995  0.0088 -0.6604
 6889SOL    HW132129   0.638   4.634   6.317 -0.2096  0.5512 -1.7415
 6889SOL    HW232130   0.694   4.496   6.285 -1.1083 -1.1074  2.0160
 6890SOL     OW32131   2.299   3.675   3.240 -0.4914  0.1910  1.0256
 6890SOL    HW132132   2.244   3.691   3.316 -1.5790 -5.0826  1.3347
 6890SOL    HW232133   2.356   3.604   3.271 -0.8717 -0.7268 -0.3577
 6891SOL     OW32134   3.396   1.553   8.282 -0.5692 -0.2949 -0.1662
 6891SOL    HW132135   3.339   1.580   8.354 -1.4680 -1.7198 -0.3386
 6891SOL    HW232136   3.419   1.468   8.320 -1.1463 -0.2970  0.1759
 6892SOL     OW32137   1.154   0.226   2.586 -0.8645  0.4683 -0.0090
 6892SOL    HW132138   1.094   0.152   2.580 -0.0177 -0.1565 -0.7728
 6892SOL    HW232139   1.132   0.265   2.670  0.0247  1.2003 -0.1154
 6893SOL     OW32140   3.802   1.365   3.320 -0.6017  0.2041  0.1935
 6893SOL    HW132141   3.843   1.398   3.240  0.2027  1.5761  1.1810
 6893SOL    HW232142   3.757   1.288   3.285  0.3989  0.3338 -1.3953
 6894SOL     OW32143   3.621   3.508  16.739  0.0483 -0.0932 -0.0730
 6894SOL    HW132144   3.715   3.524  16.744  0.0736 -0.2104 -0.1750
 6894SOL    HW232145   3.592   3.579  16.796  1.1489 -0.1080  0.5151
 6895SOL     OW32146   3.873   3.232   7.881  0.2212  0.1227 -0.3790
 6895SOL    HW132147   3.867   3.137   7.870  0.0693  0.1622 -0.6376
 6895SOL    HW232148   3.908   3.232   7.971  1.0888  1.1498 -0.7104
 6896SOL     OW32149   0.646   3.416   7.405  0.3655  0.2933  0.0863
 6896SOL    HW132150   0.592   3.427   7.483 -1.1260  2.7778 -1.3176
 6896SOL    HW232151   0.648   3.320   7.397 -1.6020  0.2233  0.3044
 6897SOL     OW32152   3.740   0.587   3.682  0.2870  0.5086 -0.0907
 6897SOL    HW132153   3.817   0.618   3.731 -0.6859  2.3356  0.2860
 6897SOL    HW232154   3.784   0.561   3.601  0.5249  1.7122 -0.3561
 6898SOL     OW32155   1.795   0.335   8.474 -0.0252  0.0565  0.7621
 6898SOL    HW132156   1.700   0.326   8.461  0.2443 -0.9395 -0.5236
 6898SOL    HW232157   1.820   0.242   8.476 -0.2974 -0.0140  0.9144
 6899SOL     OW32158   3.558   0.153   6.067  0.1476 -0.0842 -0.3620
 6899SOL    HW132159   3.581   0.238   6.103 -0.2860 -1.9188  4.2343
 6899SOL    HW232160   3.625   0.146   5.999  0.5003 -2.7697  0.2383
 6900SOL     OW32161   3.592   0.185   8.226  0.7451 -0.5893  0.2495
 6900SOL    HW132162   3.599   0.154   8.317 -0.0378 -0.7544  0.2590
 6900SOL    HW232163   3.657   0.255   8.234  0.3800 -0.4063  1.7414
 6901SOL     OW32164   2.868   3.506  10.172 -0.0266  0.3309 -0.5436
 6901SOL    HW132165   2.836   3.565  10.103 -2.4941  0.9475  1.1334
 6901SOL    HW232166   2.938   3.551  10.218 -0.9327  1.0121  0.1643
 6902SOL     OW32167   0.013   1.489   7.791  0.4027 -0.0695  0.1999
 6902SOL    HW132168   0.030   1.452   7.705  0.1538  0.9655 -0.2949
 6902SOL    HW232169   4.647   1.519   7.776  1.3402  2.0060 -1.1655
 6903SOL     OW32170   3.544   2.554   6.449  0.1481  0.3552  0.4260
 6903SOL    HW132171   3.616   2.577   6.391 -0.3914  1.7257  0.2933
 6903SOL    HW232172   3.474   2.528   6.389  0.6312 -0.3974  0.1869
 6904SOL     OW32173   3.856   1.570   6.709 -0.0212  0.0313 -0.0087
 6904SOL    HW132174   3.767   1.605   6.699 -0.3140 -0.6812  0.0549
 6904SOL    HW232175   3.876   1.542   6.619 -0.6931 -0.0376 -0.1414
 6905SOL     OW32176   0.561   4.066   4.665  0.7439 -0.4056  0.2803
 6905SOL    HW132177   0.576   4.112   4.747 -2.7166  1.5286 -0.1887
 6905SOL    HW232178   0.632   4.001   4.665  0.3424 -0.8452 -0.7063
 6906SOL     OW32179   2.478   4.400   7.037 -0.5478  0.3224 -0.5356
 6906SOL    HW132180   2.402   4.342   7.046 -1.4373  1.6521  0.6075
 6906SOL    HW232181   2.526   4.395   7.121 -0.3149  0.9774 -0.6261
 6907SOL     OW32182   1.384   4.047   5.778  0.5528  0.1874  0.0636
 6907SOL    HW132183   1.385   4.064   5.872  1.0328  2.9319 -0.4578
 6907SOL    HW232184   1.419   3.959   5.761  0.0317  0.2034 -1.0885
 6908SOL     OW32185   0.644   2.661  10.172  0.2851 -0.1603  0.3987
 6908SOL    HW132186   0.734   2.629  10.161  0.1441 -0.3709 -0.1493
 6908SOL    HW232187   0.593   2.591  10.130 -0.5063  0.5118  0.2424
 6909SOL     OW32188   1.552   4.075   1.712 -0.1724 -0.4083  0.0070
 6909SOL    HW132189   1.606   4.142   1.670  0.3638 -0.7969  0.0672
 6909SOL    HW232190   1.499   4.129   1.771 -2.4642 -0.7068 -1.7993
 6910SOL     OW32191   3.712   1.474   6.222 -0.2127 -0.1629 -0.1033
 6910SOL    HW132192   3.784   1.430   6.178 -1.3032 -1.8339 -0.2188
 6910SOL    HW232193   3.640   1.445   6.167 -0.4687  1.7234 -0.7776
 6911SOL     OW32194   0.778   3.540   6.372  0.1886  0.0433  0.1182
 6911SOL    HW132195   0.817   3.524   6.286  2.3412 -1.4264  1.3781
 6911SOL    HW232196   0.846   3.597   6.407 -1.1499  1.3229  0.6469
 6912SOL     OW32197   4.559   1.127   6.118  0.1504 -0.0787  0.0152
 6912SOL    HW132198   4.612   1.185   6.064 -1.2580 -1.1367 -2.5367
 6912SOL    HW232199   4.623   1.122   6.189 -0.7187 -0.4317  0.7833
 6913SOL     OW32200   3.632   1.872   9.452 -0.0440 -0.3126  0.0651
 6913SOL    HW132201   3.592   1.884   9.537 -0.1622  0.4302 -0.0947
 6913SOL    HW232202   3.728   1.870   9.461 -0.0728 -0.6535  0.2964
 6914SOL     OW32203   2.749   1.910   5.046  0.1020 -0.3213  0.2325
 6914SOL    HW132204   2.784   1.960   4.973  0.2248  0.6198  0.9375
 6914SOL    HW232205   2.657   1.935   5.051  1.0349  2.9066  1.2434
 6915SOL     OW32206   3.143   2.230   8.882  0.2644 -0.3164 -0.5897
 6915SOL    HW132207   3.194   2.230   8.964  0.9858 -1.4962 -1.0405
 6915SOL    HW232208   3.082   2.297   8.911  0.8462 -0.0307 -0.0123
 6916SOL     OW32209   1.298   2.294   8.089  0.2854 -0.0920 -0.0293
 6916SOL    HW132210   1.334   2.320   8.004 -0.4001 -2.4121 -1.0085
 6916SOL    HW232211   1.249   2.375   8.100 -0.3327 -0.4537 -0.1411
 6917SOL     OW32212   1.551   1.362   6.197  0.3805 -0.1863 -0.2232
 6917SOL    HW132213   1.632   1.311   6.195 -0.0038 -0.8267  0.6875
 6917SOL    HW232214   1.563   1.395   6.286  1.9600 -1.0534 -0.1341
 6918SOL     OW32215   4.179   1.435   3.168 -0.0543 -0.4287 -0.1737
 6918SOL    HW132216   4.094   1.478   3.178 -0.6736 -1.4794 -0.9154
 6918SOL    HW232217   4.240   1.509   3.165 -1.0563  0.4352  0.5949
 6919SOL     OW32218   4.437   3.542   2.206 -0.2399 -0.1607  0.3924
 6919SOL    HW132219   4.485   3.607   2.155 -0.5321 -1.0685 -1.0763
 6919SOL    HW232220   4.379   3.604   2.250 -0.7078 -1.6717  1.9223
 6920SOL     OW32221   2.414   4.098   1.839  0.1290  0.1581 -0.9093
 6920SOL    HW132222   2.490   4.053   1.802  1.1379  0.2882  1.0208
 6920SOL    HW232223   2.368   4.021   1.873  0.9654  0.1232  0.1441
 6921SOL     OW32224   1.853   1.647  16.370 -0.2325 -0.2104 -0.5627
 6921SOL    HW132225   1.761   1.668  16.390  0.3008  1.2621  0.3587
 6921SOL    HW232226   1.863   1.552  16.377 -0.6121 -0.2233 -0.1935
 6922SOL     OW32227   2.399   4.222   3.671  0.0305  0.2511 -0.2989
 6922SOL    HW132228   2.449   4.160   3.723  2.1987  0.1984 -2.4484
 6922SOL    HW232229   2.342   4.163   3.622 -0.7172 -1.0097  2.0772
 6923SOL     OW32230   3.526   3.630  14.473  0.0491 -0.5052 -0.4211
 6923SOL    HW132231   3.606   3.679  14.455 -0.6094  1.0665  1.0168
 6923SOL    HW232232   3.462   3.698  14.493  1.0238  0.8010 -1.7652
 6924SOL     OW32233   1.965   1.646   2.922 -0.1052 -0.6563 -0.7560
 6924SOL    HW132234   1.984   1.727   2.875 -1.2379  0.9832  1.6373
 6924SOL    HW232235   1.879   1.663   2.962  0.9729  0.1739  1.1942
 6925SOL     OW32236   2.000   2.980   5.251 -0.2420 -0.1388 -0.6186
 6925SOL    HW132237   1.964   2.940   5.330 -1.7164 -0.2944 -1.3603
 6925SOL    HW232238   2.036   2.909   5.199 -0.8843 -0.8040 -0.1414
 6926SOL     OW32239   2.967   0.049  17.248  0.0193 -0.3192  0.0162
 6926SOL    HW132240   3.011   0.016  17.170 -0.0798  0.3685 -0.3254
 6926SOL    HW232241   2.881   0.064  17.211  0.5453 -1.5380 -1.7112
 6927SOL     OW32242   3.846   3.201   0.383 -0.0409 -0.4856  0.6808
 6927SOL    HW132243   3.864   3.285   0.426  1.7624  1.0808 -3.0703
 6927SOL    HW232244   3.860   3.133   0.448  0.4715  0.6419  1.7509
 6928SOL     OW32245   2.974   1.862   3.698 -0.0654  0.5737 -0.4653
 6928SOL    HW132246   3.043   1.822   3.646  1.0534  1.2436  0.4866
 6928SOL    HW232247   2.918   1.889   3.625 -2.0330 -0.4544  0.6444
 6929SOL     OW32248   0.536   2.440   4.139  0.0124 -0.0534  0.9416
 6929SOL    HW132249   0.451   2.394   4.140  1.0461 -2.0334 -0.4105
 6929SOL    HW232250   0.578   2.410   4.059 -0.4604  2.6872 -0.3330
 6930SOL     OW32251   1.408   1.242   1.704 -0.3026 -0.0497 -0.2618
 6930SOL    HW132252   1.498   1.261   1.676 -0.8980  0.1843 -1.9974
 6930SOL    HW232253   1.368   1.314   1.655 -0.5298  0.1019  0.1419
 6931SOL     OW32254   3.294   0.663   9.705  0.3190 -0.2513  0.0763
 6931SOL    HW132255   3.253   0.714   9.634  0.3341 -0.4573 -0.0819
 6931SOL    HW232256   3.377   0.707   9.719  0.2870  0.6005 -2.3377
 6932SOL     OW32257   2.194   4.189  15.611  0.3577 -0.5125  0.2077
 6932SOL    HW132258   2.166   4.221  15.525  2.5076 -0.6984 -0.5669
 6932SOL    HW232259   2.123   4.132  15.638  0.2595  0.5723  2.2302
 6933SOL     OW32260   3.206   4.310   2.937  0.1195  0.1857  0.4053
 6933SOL    HW132261   3.285   4.364   2.930 -0.0146  0.3810  0.3638
 6933SOL    HW232262   3.228   4.255   3.012 -0.7011 -0.3950  0.2184
 6934SOL     OW32263   0.900   0.750   4.961  0.6607  0.5499  0.2133
 6934SOL    HW132264   0.806   0.751   4.949  0.7116  1.2712 -0.1052
 6934SOL    HW232265   0.897   0.718   5.051 -1.6792 -0.6422 -0.2906
 6935SOL     OW32266   1.162   0.171   1.674 -0.4988 -0.5576  0.0912
 6935SOL    HW132267   1.172   0.184   1.580 -0.8690 -0.2688  0.0881
 6935SOL    HW232268   1.131   0.255   1.709 -1.3151 -1.3233  1.2045
 6936SOL     OW32269   2.610   2.843   0.512 -0.0785 -0.2452  0.5849
 6936SOL    HW132270   2.552   2.899   0.460  0.1656 -0.4332  0.1069
 6936SOL    HW232271   2.672   2.909   0.543 -0.2796  0.2641 -0.0988
 6937SOL     OW32272   0.824   1.251  10.419  0.1474 -0.2540 -0.6019
 6937SOL    HW132273   0.880   1.269  10.494 -0.4429  1.8407 -0.6531
 6937SOL    HW232274   0.752   1.209  10.467 -1.0374  1.8535 -0.5201
 6938SOL     OW32275   4.212   3.755   2.555 -0.3418 -0.1758 -0.5848
 6938SOL    HW132276   4.130   3.710   2.575  0.3362 -1.3980 -0.4941
 6938SOL    HW232277   4.281   3.710   2.605  0.6349 -0.6862 -2.3911
 6939SOL     OW32278   4.024   2.309  13.882  0.1618  0.0699  0.1998
 6939SOL    HW132279   3.964   2.273  13.947 -1.2820  0.7068 -0.7738
 6939SOL    HW232280   4.075   2.231  13.862 -1.2675 -0.4083 -1.5886
 6940SOL     OW32281   0.442   2.882   6.587  0.5711  0.2554  0.2866
 6940SOL    HW132282   0.507   2.815   6.608 -0.5947 -0.3871  1.9345
 6940SOL    HW232283   0.369   2.832   6.550  1.6964 -1.1805  0.0250
 6941SOL     OW32284   4.707   3.446   3.950  0.2485  0.1804 -0.3283
 6941SOL    HW132285   0.074   3.437   3.922  1.2107 -2.6838  3.7754
 6941SOL    HW232286   4.707   3.532   3.991 -0.1894  0.5128 -1.0125
 6942SOL     OW32287   3.573   3.005  13.769 -0.0865 -0.0355 -0.9338
 6942SOL    HW132288   3.587   3.055  13.688  0.6763  0.2978 -0.6020
 6942SOL    HW232289   3.578   3.076  13.833 -0.0743 -1.5995  0.7930
 6943SOL     OW32290   1.358   3.394  17.642  0.0519 -0.2288 -0.3532
 6943SOL    HW132291   1.325   3.334  17.576 -1.5448 -0.7941  0.9616
 6943SOL    HW232292   1.407   3.453  17.585 -0.8580  0.2233 -0.6747
 6944SOL     OW32293   3.064   3.630  11.058 -0.0162 -0.3520 -0.4219
 6944SOL    HW132294   3.120   3.691  11.010 -1.7149  1.0874 -0.5454
 6944SOL    HW232295   3.104   3.543  11.057  1.7473  0.4268  0.5544
 6945SOL     OW32296   1.980   4.279   4.434  0.1253  0.2548 -0.1040
 6945SOL    HW132297   1.893   4.300   4.469 -1.1203 -0.3766 -2.8023
 6945SOL    HW232298   2.038   4.322   4.496 -1.1885  2.4308 -0.3959
 6946SOL     OW32299   3.242   2.236   2.890  0.0976 -1.0882 -0.5412
 6946SOL    HW132300   3.210   2.151   2.921  2.0865 -0.9894  1.7926
 6946SOL    HW232301   3.241   2.290   2.969 -1.0169  0.2127 -1.4413
 6947SOL     OW32302   1.483   1.538  16.021 -0.5290  0.0885 -0.0404
 6947SOL    HW132303   1.418   1.478  16.059 -2.1053  2.4765  0.9903
 6947SOL    HW232304   1.474   1.615  16.077  0.6424  0.3530 -0.2014
 6948SOL     OW32305   2.928   3.396   4.155 -0.1474 -0.2967 -0.3937
 6948SOL    HW132306   2.895   3.410   4.244  0.9981  0.1681 -0.0474
 6948SOL    HW232307   2.966   3.483   4.141 -0.1547 -0.0805  0.9402
 6949SOL     OW32308   4.584   0.442  15.309  0.2146  0.5901 -0.7311
 6949SOL    HW132309   4.624   0.529  15.302  1.0611  0.3995  1.7133
 6949SOL    HW232310   4.662   0.387  15.315 -0.3809 -0.0862  0.5768
 6950SOL     OW32311   0.179   2.887   0.651  0.2184 -0.2196 -0.4124
 6950SOL    HW132312   0.157   2.817   0.591 -1.2476  0.0616 -0.1977
 6950SOL    HW232313   0.095   2.899   0.695 -0.8160 -2.1158 -1.8694
 6951SOL     OW32314   2.237   3.305   3.163 -0.2560 -0.1608  0.1331
 6951SOL    HW132315   2.221   3.354   3.245 -0.4748 -1.1294  0.6672
 6951SOL    HW232316   2.199   3.364   3.098  0.9962  2.7393  1.9882
 6952SOL     OW32317   3.540   1.340  11.239 -0.6018 -0.6539  0.3562
 6952SOL    HW132318   3.609   1.388  11.284 -1.5689  0.7542  0.3380
 6952SOL    HW232319   3.523   1.265  11.296 -0.9318  0.4242  1.6850
 6953SOL     OW32320   1.982   3.324   9.037 -0.5947 -0.3493 -0.1086
 6953SOL    HW132321   2.031   3.324   9.119 -0.4565 -0.3525 -0.1897
 6953SOL    HW232322   1.920   3.253   9.054 -0.2177 -1.0370 -1.5373
 6954SOL     OW32323   4.669   1.854   4.770  0.3663  0.3183 -0.0774
 6954SOL    HW132324   4.635   1.830   4.856 -0.5633 -0.2500 -0.6059
 6954SOL    HW232325   0.008   1.920   4.800  0.6924  0.4439 -1.0292
 6955SOL     OW32326   1.955   1.671  10.128  0.3111  0.1315  0.0202
 6955SOL    HW132327   2.005   1.646  10.205 -2.6468  0.6319  2.1085
 6955SOL    HW232328   1.868   1.694  10.159 -0.0884 -2.9939  1.1969
 6956SOL     OW32329   2.149   4.298   6.785  0.1524 -0.3015 -0.0138
 6956SOL    HW132330   2.058   4.326   6.775 -0.2721 -2.3937 -1.7617
 6956SOL    HW232331   2.157   4.292   6.881  2.2089  1.8595 -0.0334
 6957SOL     OW32332   1.201   2.508   6.972 -0.2018  0.3325 -0.0009
 6957SOL    HW132333   1.215   2.519   7.066  1.1196  1.2686 -0.3170
 6957SOL    HW232334   1.265   2.571   6.940 -0.1393 -0.6007 -1.7053
 6958SOL     OW32335   0.384   2.014   0.039 -0.1615  0.3369 -0.3972
 6958SOL    HW132336   0.448   1.981  17.672 -0.6301 -0.9023 -0.2320
 6958SOL    HW232337   0.360   1.927   0.072 -0.7973  0.2298 -1.1474
 6959SOL     OW32338   2.647   4.262   6.854 -0.0346  0.3667 -0.1535
 6959SOL    HW132339   2.733   4.271   6.894  0.0672 -0.3377 -0.2280
 6959SOL    HW232340   2.600   4.321   6.913 -0.5688  1.9588 -2.1743
 6960SOL     OW32341   1.249   2.127  15.195 -0.0776  0.1021 -0.3581
 6960SOL    HW132342   1.214   2.122  15.284 -0.1672 -0.4128 -0.4246
 6960SOL    HW232343   1.324   2.183  15.213 -0.3639  0.5135 -0.4410
 6961SOL     OW32344   1.508   0.432   7.806  0.0605  0.1711 -1.0006
 6961SOL    HW132345   1.560   0.419   7.727 -0.4316  0.2731 -1.3459
 6961SOL    HW232346   1.479   0.342   7.819  2.1419 -0.2691  0.6023
 6962SOL     OW32347   1.129   0.962   7.352 -0.2994  0.1578 -0.2354
 6962SOL    HW132348   1.161   1.048   7.324  1.3662 -0.1694  0.6566
 6962SOL    HW232349   1.063   0.989   7.416  0.4655  0.5597  0.3826
 6963SOL     OW32350   1.870   2.661   4.273  0.1614  0.0704 -0.1149
 6963SOL    HW132351   1.852   2.670   4.366  0.5128  1.9095 -0.2135
 6963SOL    HW232352   1.802   2.597   4.253 -1.9645  1.9895  0.9406
 6964SOL     OW32353   0.628   1.547  17.269  0.5731 -0.0057  0.1238
 6964SOL    HW132354   0.659   1.569  17.357 -1.7580 -2.5125  1.5246
 6964SOL    HW232355   0.673   1.612  17.215 -0.7994  1.0513  0.2510
 6965SOL     OW32356   0.973   1.643   7.925 -0.1901  0.4339 -0.1043
 6965SOL    HW132357   0.978   1.663   8.018 -1.7279  0.5272 -0.0495
 6965SOL    HW232358   0.994   1.550   7.934  0.2985  0.6018  0.5126
 6966SOL     OW32359   4.638   4.610   7.289 -0.0387 -0.0651  0.2416
 6966SOL    HW132360   4.663   4.610   7.382 -0.4683 -0.7251  0.3499
 6966SOL    HW232361   4.586   4.690   7.294 -0.2567 -0.3379  2.6157
 6967SOL     OW32362   2.518   4.419   5.522 -0.4689  0.7041  0.0321
 6967SOL    HW132363   2.601   4.398   5.480  0.4307 -2.5675  3.5309
 6967SOL    HW232364   2.460   4.343   5.516  0.2003  0.2222 -0.2466
 6968SOL     OW32365   1.025   3.777   6.181  0.2063  0.8319  0.3947
 6968SOL    HW132366   0.956   3.843   6.191  0.0554  0.5396  1.2617
 6968SOL    HW232367   1.037   3.776   6.086  0.6665  2.5532  0.4206
 6969SOL     OW32368   3.252   2.452   0.864 -0.2229  0.4795  0.4850
 6969SOL    HW132369   3.163   2.476   0.839 -0.3544  1.4829  1.8817
 6969SOL    HW232370   3.243   2.385   0.932  2.4683 -1.2782 -0.8879
 6970SOL     OW32371   4.187   3.574  17.392  0.1741  0.2965  0.2783
 6970SOL    HW132372   4.235   3.521  17.456  1.5022 -1.0338 -1.7945
 6970SOL    HW232373   4.219   3.529  17.314 -0.0369 -0.2168  0.4870
 6971SOL     OW32374   3.028   4.552   8.829  0.1411 -0.0455 -0.1368
 6971SOL    HW132375   3.024   4.494   8.905 -0.1588 -1.9267 -1.5927
 6971SOL    HW232376   3.118   4.529   8.805  0.1859  0.3698 -0.3567
 6972SOL     OW32377   2.870   1.186  15.817  0.5225  0.0949  0.0473
 6972SOL    HW132378   2.823   1.104  15.829 -1.1575  1.0851  0.3312
 6972SOL    HW232379   2.799   1.246  15.839  0.4394 -0.1821  0.5271
 6973SOL     OW32380   3.344   1.695   7.062  0.4575  0.4811  0.1248
 6973SOL    HW132381   3.295   1.685   6.981  0.7363  0.0703  0.0068
 6973SOL    HW232382   3.278   1.743   7.113  0.1811 -0.6038  0.7797
 6974SOL     OW32383   3.995   4.270   0.130 -0.3820 -0.3838 -0.8348
 6974SOL    HW132384   4.080   4.236   0.103  0.4588  0.9438  0.1130
 6974SOL    HW232385   4.012   4.364   0.120  0.9327 -0.5779 -0.4633
 6975SOL     OW32386   4.300   4.615  10.463  0.1305 -0.1320 -0.1923
 6975SOL    HW132387   4.221   4.586  10.418  1.5793  1.5477 -3.8156
 6975SOL    HW232388   4.266   4.698  10.497 -0.1345 -0.5354  0.5551
 6976SOL     OW32389   3.971   3.518   7.403  0.1001  0.4004 -0.3284
 6976SOL    HW132390   3.992   3.449   7.466 -1.9424 -0.9096 -1.0808
 6976SOL    HW232391   3.876   3.511   7.406  0.2105 -1.1384 -0.3220
 6977SOL     OW32392   1.712   2.890   8.880  0.2385  0.1267  0.0295
 6977SOL    HW132393   1.780   2.824   8.868 -0.8992 -0.7954 -1.3700
 6977SOL    HW232394   1.642   2.836   8.916 -1.9187  2.7525 -0.1971
 6978SOL     OW32395   0.507   1.775   6.617 -0.1607  0.1237 -0.9062
 6978SOL    HW132396   0.536   1.815   6.699 -2.3022 -0.7903  0.3041
 6978SOL    HW232397   0.423   1.750   6.656  0.4448  1.8909  1.5550
 6979SOL     OW32398   3.483   3.348   3.930  0.2183  0.1951 -0.0143
 6979SOL    HW132399   3.516   3.413   3.992 -0.1047  2.2955 -2.0610
 6979SOL    HW232400   3.410   3.397   3.892  0.8333  1.4076  0.3875
 6980SOL     OW32401   1.632   3.442   4.616  0.7862 -1.0947  0.5785
 6980SOL    HW132402   1.561   3.482   4.566  0.8813 -0.5169  0.8998
 6980SOL    HW232403   1.670   3.385   4.550  2.5859  0.9297 -0.1295
 6981SOL     OW32404   1.623   2.635   5.047  0.6466 -0.3023  0.3036
 6981SOL    HW132405   1.649   2.586   4.969 -2.2230  2.7619 -2.5638
 6981SOL    HW232406   1.561   2.699   5.011  0.2471 -2.4771 -2.9476
 6982SOL     OW32407   1.827   3.246  13.018  0.1881  0.0878 -0.5079
 6982SOL    HW132408   1.747   3.202  13.046  0.0942  0.3312 -0.3960
 6982SOL    HW232409   1.883   3.185  13.067  0.2540  1.5938  1.2809
 6983SOL     OW32410   3.809   3.680   8.988 -0.5863 -0.1931  0.2668
 6983SOL    HW132411   3.856   3.760   8.963 -0.5313 -1.1253 -2.6077
 6983SOL    HW232412   3.865   3.645   9.057  0.5326  1.8844  0.4105
 6984SOL     OW32413   1.469   3.169  11.469  0.2668 -0.4101 -0.9063
 6984SOL    HW132414   1.547   3.225  11.465  0.1040 -0.0127  1.3875
 6984SOL    HW232415   1.402   3.237  11.461 -2.3269 -3.2238 -2.8884
 6985SOL     OW32416   4.309   2.644   2.663 -0.1790  0.0249 -0.2752
 6985SOL    HW132417   4.334   2.601   2.581  0.7866  5.2495 -2.6769
 6985SOL    HW232418   4.387   2.695   2.688  0.2630  0.3005 -2.2526
 6986SOL     OW32419   0.039   2.520   8.708 -0.2119 -0.0962  0.0950
 6986SOL    HW132420   0.042   2.615   8.702  1.6833 -0.0991  0.9252
 6986SOL    HW232421   4.711   2.500   8.630  0.1290  0.5863 -0.3041
 6987SOL     OW32422   0.893   0.686   7.049  0.3907 -0.1743 -0.1187
 6987SOL    HW132423   0.849   0.708   7.131  0.7530 -0.3939  0.1363
 6987SOL    HW232424   0.826   0.693   6.981 -0.2533 -1.3266  0.3871
 6988SOL     OW32425   3.669   4.263   5.921  0.1642  0.6013  0.0986
 6988SOL    HW132426   3.646   4.355   5.931  1.1219  1.1504 -2.7194
 6988SOL    HW232427   3.755   4.271   5.963 -0.8395  1.9462  1.8349
 6989SOL     OW32428   4.065   0.975   7.290 -0.0354 -0.7385  0.7455
 6989SOL    HW132429   4.093   1.043   7.229 -1.0200  0.1276  1.2645
 6989SOL    HW232430   4.060   0.897   7.235 -0.1571 -0.2629  0.0878
 6990SOL     OW32431   2.480   1.108   5.970 -0.0910  0.0037  0.5138
 6990SOL    HW132432   2.458   1.085   5.880 -0.7706  1.5713  0.2797
 6990SOL    HW232433   2.465   1.017   5.997  4.5256 -0.7152  0.7261
 6991SOL     OW32434   0.005   0.091   3.738  0.3028 -0.4751  0.1304
 6991SOL    HW132435   4.698   0.163   3.682  0.9626 -0.7955 -0.6469
 6991SOL    HW232436   0.043   0.032   3.673  0.2559 -1.5628  1.1035
 6992SOL     OW32437   4.720   2.943   4.050 -0.1479  0.0092  0.5876
 6992SOL    HW132438   0.074   2.892   4.071 -0.0597  0.1804  0.6689
 6992SOL    HW232439   0.033   3.030   4.036 -0.2166 -0.4687 -2.6048
 6993SOL     OW32440   3.460   1.667   2.724  0.0082 -0.4361 -0.3946
 6993SOL    HW132441   3.383   1.721   2.708 -0.4813 -0.0586  3.1707
 6993SOL    HW232442   3.493   1.670   2.635 -1.9893 -0.4255 -1.1479
 6994SOL     OW32443   2.643   1.102   2.378 -0.3638  0.4661  0.2363
 6994SOL    HW132444   2.579   1.037   2.349  1.7790 -1.7087  0.4416
 6994SOL    HW232445   2.593   1.171   2.422 -1.1667  0.1381 -0.1646
 6995SOL     OW32446   1.644   2.087  13.107  0.5715 -0.3552 -0.6247
 6995SOL    HW132447   1.604   2.101  13.193 -1.1481 -1.8765 -1.1820
 6995SOL    HW232448   1.659   1.993  13.114 -0.2705 -0.4837 -0.5692
 6996SOL     OW32449   2.327   3.571   6.030 -0.1460 -0.4746  0.1803
 6996SOL    HW132450   2.283   3.520   5.962 -0.0380 -1.0830  0.5677
 6996SOL    HW232451   2.411   3.526   6.028 -0.3727 -0.7088 -3.5860
 6997SOL     OW32452   2.710   0.400  10.280 -0.2806 -0.2282 -0.2122
 6997SOL    HW132453   2.785   0.459  10.288  0.1800 -0.6453 -1.5460
 6997SOL    HW232454   2.728   0.376  10.189  1.2774  1.6133 -0.3986
 6998SOL     OW32455   0.458   2.451   3.668  0.0109  0.2990  0.1224
 6998SOL    HW132456   0.378   2.503   3.676 -0.2983 -0.3169  0.9522
 6998SOL    HW232457   0.525   2.505   3.625  1.4133  1.2054  3.4979
 6999SOL     OW32458   2.857   3.161  15.862  0.2217  0.0542 -0.2881
 6999SOL    HW132459   2.771   3.148  15.824 -0.9819  2.1263  1.6934
 6999SOL    HW232460   2.908   3.110  15.799 -0.5465  0.1610 -0.9851
 7000SOL     OW32461   2.645   2.326   4.998 -0.0407  0.6133  0.3012
 7000SOL    HW132462   2.729   2.297   5.033 -0.4032 -1.2138 -0.2971
 7000SOL    HW232463   2.667   2.360   4.911 -0.7977  1.5812  0.4952
 7001SOL     OW32464   1.929   2.656   2.809 -0.3754 -0.1959 -0.0725
 7001SOL    HW132465   1.862   2.716   2.777  0.6931  1.3154  0.5009
 7001SOL    HW232466   2.007   2.707   2.788 -1.3882  2.0400  1.5718
 7002SOL     OW32467   2.333   2.226   2.546 -0.0508 -0.0823 -0.7327
 7002SOL    HW132468   2.318   2.132   2.550  2.6964 -0.3838  1.9716
 7002SOL    HW232469   2.278   2.251   2.620 -2.0888 -0.8235 -2.0075
 7003SOL     OW32470   2.426   0.587  10.906  0.2458  0.3197 -0.0294
 7003SOL    HW132471   2.483   0.622  10.975  0.5434  2.1930 -1.2205
 7003SOL    HW232472   2.371   0.536  10.966 -0.6248  0.8694 -0.3593
 7004SOL     OW32473   0.908   1.271   4.824 -0.1220  0.0665  0.2797
 7004SOL    HW132474   0.992   1.276   4.870 -0.0560  2.0958 -0.0524
 7004SOL    HW232475   0.904   1.179   4.799 -0.5470 -0.4541  2.2499
 7005SOL     OW32476   1.450   3.910   5.144  0.4360 -0.6985 -0.6992
 7005SOL    HW132477   1.394   3.846   5.100 -0.0330 -0.0624 -1.0343
 7005SOL    HW232478   1.504   3.845   5.189 -0.0732  0.3283  1.3951
 7006SOL     OW32479   3.678   3.369  11.600  0.2491  0.2458  0.3198
 7006SOL    HW132480   3.665   3.382  11.506 -0.4186 -3.3082 -0.1009
 7006SOL    HW232481   3.637   3.282  11.606 -0.2288  0.5585  1.6226
 7007SOL     OW32482   4.224   2.027   2.313 -0.1555 -0.1281  0.8290
 7007SOL    HW132483   4.299   1.995   2.364  0.7214 -2.5327 -2.0003
 7007SOL    HW232484   4.149   1.977   2.347  0.0634 -0.6872  0.4763
 7008SOL     OW32485   1.167   4.337   2.156  1.1028 -0.1515 -0.0947
 7008SOL    HW132486   1.188   4.258   2.107 -2.9479 -2.0451  1.2656
 7008SOL    HW232487   1.238   4.396   2.130 -0.8250 -0.8188 -6.6366
 7009SOL     OW32488   3.054   4.556   7.884  0.5289  0.4247 -0.1682
 7009SOL    HW132489   3.113   4.529   7.955  0.8947 -1.4789 -1.2026
 7009SOL    HW232490   3.026   4.643   7.913 -0.5985  0.0696 -0.1749
 7010SOL     OW32491   2.418   3.266   6.036 -0.7598  0.8523  0.5708
 7010SOL    HW132492   2.361   3.215   6.094 -0.8339  0.6956  0.3624
 7010SOL    HW232493   2.352   3.283   5.969 -0.6608 -0.4752  0.1440
 7011SOL     OW32494   1.349   1.049  12.884 -0.3067 -0.0860  0.1588
 7011SOL    HW132495   1.285   1.051  12.955 -1.7180 -0.1425 -1.1347
 7011SOL    HW232496   1.425   1.015  12.932  0.2448  2.2595  0.9788
 7012SOL     OW32497   1.532   2.927  13.713 -0.6314  0.4471  0.1489
 7012SOL    HW132498   1.553   2.916  13.806 -0.3840  0.3881  0.0871
 7012SOL    HW232499   1.440   2.953  13.715 -0.4592  1.1469 -0.8096
 7013SOL     OW32500   0.374   0.617   8.448 -0.0078  0.4422 -0.0492
 7013SOL    HW132501   0.382   0.530   8.409 -2.3243  1.1801 -2.2194
 7013SOL    HW232502   0.280   0.615   8.468  0.0500  1.3391  0.3095
 7014SOL     OW32503   0.694   3.121   6.909 -0.2337  0.0942  0.6602
 7014SOL    HW132504   0.647   3.144   6.830  2.2802 -0.0575 -0.8865
 7014SOL    HW232505   0.644   3.041   6.926 -0.3431  0.0499  0.1224
 7015SOL     OW32506   3.632   1.652   4.500 -0.5561 -0.0748  0.3196
 7015SOL    HW132507   3.674   1.666   4.585 -1.7892  0.3380  0.8621
 7015SOL    HW232508   3.579   1.731   4.502 -1.1958 -0.4980 -0.0304
 7016SOL     OW32509   3.706   2.150   2.228  0.5715  0.2014 -0.4057
 7016SOL    HW132510   3.753   2.221   2.271  0.4816 -0.4735  0.7940
 7016SOL    HW232511   3.777   2.085   2.226  0.2768 -0.1375  0.0550
 7017SOL     OW32512   4.638   1.070   1.919  0.1307  0.0703 -0.1751
 7017SOL    HW132513   4.545   1.052   1.933  0.5471 -3.0918 -1.3564
 7017SOL    HW232514   4.679   0.983   1.916 -1.2532 -0.5252 -1.7458
 7018SOL     OW32515   0.734   3.805   4.551 -0.1021 -0.2734 -0.1849
 7018SOL    HW132516   0.728   3.862   4.474 -0.4120 -1.5717 -1.1191
 7018SOL    HW232517   0.810   3.854   4.582 -2.8092  3.5214  0.4508
 7019SOL     OW32518   0.052   2.088   9.194 -0.5900 -0.1503 -0.2730
 7019SOL    HW132519   0.125   2.141   9.226 -2.0155  1.0430  1.0011
 7019SOL    HW232520   0.070   2.005   9.238 -0.2064  0.4900  0.7749
 7020SOL     OW32521   2.322   1.340   4.573 -0.2430 -0.0954  0.1417
 7020SOL    HW132522   2.365   1.257   4.552 -0.1070  0.1308 -0.4650
 7020SOL    HW232523   2.274   1.340   4.490  0.1580  1.3597 -0.0820
 7021SOL     OW32524   0.414   2.805  17.289  0.0478  0.3391  0.1591
 7021SOL    HW132525   0.382   2.718  17.313 -1.0609  0.6759 -0.1014
 7021SOL    HW232526   0.509   2.807  17.274 -0.1058 -0.5407 -0.9137
 7022SOL     OW32527   1.152   1.619  12.930  0.0212  0.2352  0.3585
 7022SOL    HW132528   1.143   1.708  12.964  1.1990  0.3303  0.4246
 7022SOL    HW232529   1.066   1.579  12.944 -0.0004  0.2125  0.1627
 7023SOL     OW32530   2.190   3.351  15.765 -0.0885  0.1891 -0.8104
 7023SOL    HW132531   2.143   3.425  15.727  2.2954  2.6733  1.0124
 7023SOL    HW232532   2.280   3.382  15.770 -0.5287  1.2595  0.4953
 7024SOL     OW32533   1.086   1.811   5.805 -0.1399  0.5008  0.0400
 7024SOL    HW132534   1.050   1.791   5.719 -0.5472  0.6018  0.1834
 7024SOL    HW232535   1.057   1.734   5.854 -0.9918  0.6105 -0.2887
 7025SOL     OW32536   3.700   1.496  12.211 -0.1563 -0.3689  0.6305
 7025SOL    HW132537   3.791   1.523  12.206 -1.4673  3.4281 -2.0992
 7025SOL    HW232538   3.688   1.498  12.306 -0.1727  0.0987  0.6174
 7026SOL     OW32539   2.480   1.314  16.273 -0.0630 -0.4931  0.4687
 7026SOL    HW132540   2.529   1.278  16.199  2.9532  2.6822  0.9146
 7026SOL    HW232541   2.494   1.405  16.246  1.4495 -0.5661  0.9784
 7027SOL     OW32542   3.391   1.237   7.100  0.2274  0.2295 -0.5498
 7027SOL    HW132543   3.429   1.150   7.092 -0.1495  0.0704 -0.6356
 7027SOL    HW232544   3.415   1.271   7.014  1.3849 -0.9481 -0.6930
 7028SOL     OW32545   4.361   4.607   6.783 -0.1941 -0.4314  0.2301
 7028SOL    HW132546   4.334   4.668   6.714  0.6052  0.6729  0.8773
 7028SOL    HW232547   4.296   4.538   6.774  0.9857 -1.7484  1.9342
 7029SOL     OW32548   1.700   0.958   8.516 -0.6024 -0.2947 -0.7919
 7029SOL    HW132549   1.761   0.982   8.446  1.6243  3.1215  2.3454
 7029SOL    HW232550   1.654   1.041   8.528  1.9256  1.2891 -2.0216
 7030SOL     OW32551   3.755   0.424   6.874 -0.0575 -0.5235 -0.1257
 7030SOL    HW132552   3.796   0.510   6.879 -3.2207  0.9102  0.7314
 7030SOL    HW232553   3.704   0.427   6.955 -1.0462 -2.3778 -0.6848
 7031SOL     OW32554   0.817   3.247   7.982  0.3023  0.1253 -0.1031
 7031SOL    HW132555   0.851   3.215   7.898 -1.2396 -2.1718  0.1509
 7031SOL    HW232556   0.893   3.243   8.040 -0.6742 -2.0498  1.0128
 7032SOL     OW32557   4.595   0.864   7.618 -0.3649 -0.2946  0.7234
 7032SOL    HW132558   4.591   0.947   7.665 -1.1827 -1.5481  2.8957
 7032SOL    HW232559   4.580   0.890   7.527 -0.5451 -0.0947  0.8087
 7033SOL     OW32560   3.706   2.231   2.985  0.3699 -0.5353 -0.6179
 7033SOL    HW132561   3.631   2.270   3.030  0.2213  1.6404 -2.7340
 7033SOL    HW232562   3.743   2.317   2.967  1.9441 -1.3807 -1.3697
 7034SOL     OW32563   3.513   3.855   4.928  0.0272 -0.0155 -0.5076
 7034SOL    HW132564   3.537   3.850   5.020 -0.1737  1.4087 -0.3763
 7034SOL    HW232565   3.425   3.892   4.920  0.5121  1.3174  0.2099
 7035SOL     OW32566   2.032   2.693   7.097  0.0073 -0.1604 -0.1507
 7035SOL    HW132567   2.074   2.661   7.176 -1.8778  0.2831  1.0251
 7035SOL    HW232568   1.949   2.725   7.131 -0.6095 -2.2340  0.2625
 7036SOL     OW32569   1.340   3.053   8.126  0.9105  0.2345 -0.3921
 7036SOL    HW132570   1.392   3.013   8.195  1.0940 -0.3144 -0.8499
 7036SOL    HW232571   1.405   3.070   8.058  0.2535  2.6855 -0.4014
 7037SOL     OW32572   0.003   1.815   2.678 -0.0402  0.7376 -0.1653
 7037SOL    HW132573   0.052   1.794   2.598  1.4953  2.0215  0.4654
 7037SOL    HW232574   0.070   1.874   2.712  1.7282 -0.7219 -1.1253
 7038SOL     OW32575   0.578   1.146  10.533 -0.0979 -0.3621 -0.5853
 7038SOL    HW132576   0.554   1.139  10.625 -0.7696 -1.0039 -0.8087
 7038SOL    HW232577   0.491   1.169  10.501 -0.5685  0.8174  1.5791
 7039SOL     OW32578   0.135   2.454   6.202 -0.2139  0.2397  0.6840
 7039SOL    HW132579   0.177   2.395   6.264 -1.5081 -0.7533  0.6101
 7039SOL    HW232580   0.088   2.499   6.273  0.6657  1.1999  0.6759
 7040SOL     OW32581   3.579   0.814  10.940  0.0120  0.0391  0.0110
 7040SOL    HW132582   3.578   0.895  10.888 -1.7089 -0.1315 -0.2339
 7040SOL    HW232583   3.522   0.822  11.017  0.4006 -0.0401  0.3024
 7041SOL     OW32584   3.879   2.856  15.245 -0.4388  0.0955 -0.3920
 7041SOL    HW132585   3.910   2.785  15.188 -2.4376 -1.6073  0.6578
 7041SOL    HW232586   3.784   2.851  15.231 -0.5521  2.8248 -0.5282
 7042SOL     OW32587   3.915   1.710   8.581  0.2230  0.6028 -0.2631
 7042SOL    HW132588   3.951   1.729   8.667  0.9911  1.4089 -0.7631
 7042SOL    HW232589   3.848   1.776   8.597 -0.7486 -0.1863 -1.0434
 7043SOL     OW32590   4.371   0.070   3.424 -0.5866  0.3145 -0.0923
 7043SOL    HW132591   4.442   0.037   3.368 -1.1023 -0.8580 -0.0557
 7043SOL    HW232592   4.303   0.004   3.411  1.0944 -1.4198 -0.0796
 7044SOL     OW32593   2.442   2.756  11.379  0.7424  0.3141  0.3896
 7044SOL    HW132594   2.433   2.810  11.458 -2.9975 -0.0110  0.1852
 7044SOL    HW232595   2.516   2.800  11.337  1.2757  2.2052  3.3419
 7045SOL     OW32596   0.558   0.157   6.974  0.2161  0.3377 -0.0108
 7045SOL    HW132597   0.470   0.144   7.008 -0.0022  0.3323 -0.5810
 7045SOL    HW232598   0.563   0.088   6.907  1.4941 -1.0725  1.5415
 7046SOL     OW32599   0.574   3.648   1.039  0.1671 -0.0776  0.6503
 7046SOL    HW132600   0.514   3.580   1.071  1.6994 -0.9826  1.5635
 7046SOL    HW232601   0.584   3.665   1.132  0.1634  1.2582  0.4127
 7047SOL     OW32602   1.288   2.541   7.583 -0.4190  0.3180  0.0757
 7047SOL    HW132603   1.198   2.534   7.615 -0.6036  3.1055  0.1166
 7047SOL    HW232604   1.287   2.631   7.552  0.0581  0.5948  0.8615
 7048SOL     OW32605   4.029   3.997   6.448  0.0757  0.2476 -0.3072
 7048SOL    HW132606   4.042   3.906   6.477  0.5080 -0.6564 -3.3745
 7048SOL    HW232607   3.975   3.993   6.370  1.0236  0.3167 -0.9684
 7049SOL     OW32608   0.443   3.530  16.314 -0.0175  0.1645  0.1376
 7049SOL    HW132609   0.443   3.443  16.275  0.3514  0.1375  0.1991
 7049SOL    HW232610   0.358   3.555  16.278 -0.7169 -0.1285  1.5832
 7050SOL     OW32611   2.633   3.837   6.050  0.3778  0.5124 -0.4060
 7050SOL    HW132612   2.719   3.855   6.012  0.6120  0.2524  0.0001
 7050SOL    HW232613   2.629   3.744   6.027 -0.1195  0.4027  0.1266
 7051SOL     OW32614   2.600   0.165   6.536  0.0070  0.2114  0.0348
 7051SOL    HW132615   2.513   0.156   6.497  0.6435 -1.9075 -0.8798
 7051SOL    HW232616   2.630   0.252   6.511 -1.3802  0.2631 -1.4025
 7052SOL     OW32617   0.224   2.217   8.693  0.0199  0.3047  0.0862
 7052SOL    HW132618   0.138   2.213   8.734 -0.4052  2.1029 -0.6176
 7052SOL    HW232619   0.218   2.139   8.638  0.7883 -0.4015  0.9992
 7053SOL     OW32620   1.487   3.581  11.580  0.2353 -0.1416  0.2353
 7053SOL    HW132621   1.539   3.552  11.506  0.8981 -1.1244  1.0897
 7053SOL    HW232622   1.547   3.570  11.654  1.6361 -2.0494 -1.2179
 7054SOL     OW32623   2.151   0.057  15.607 -0.1152  0.1350 -0.0372
 7054SOL    HW132624   2.231   0.090  15.566  0.7223 -1.3421  0.4078
 7054SOL    HW232625   2.157   0.110  15.686  1.7188  0.2198 -0.2208
 7055SOL     OW32626   2.085   4.672   7.831  0.0349  0.0830 -0.2038
 7055SOL    HW132627   2.179   4.661   7.847 -0.0857  1.3121  1.3995
 7055SOL    HW232628   2.089   4.723   7.750 -0.4774  3.0308  1.6416
 7056SOL     OW32629   0.678   4.301   8.823  0.2622 -0.2751 -0.0675
 7056SOL    HW132630   0.736   4.226   8.822 -0.7999 -1.1128  1.4338
 7056SOL    HW232631   0.726   4.350   8.756  0.3009 -2.0178 -1.3042
 7057SOL     OW32632   2.654   2.255   2.501  0.4967 -0.1121  0.0804
 7057SOL    HW132633   2.665   2.268   2.407  1.1611 -0.2547  0.1387
 7057SOL    HW232634   2.560   2.244   2.512  0.3343  0.3241 -0.8400
 7058SOL     OW32635   0.205   3.957  13.203 -0.7358  0.9201 -0.6587
 7058SOL    HW132636   0.290   3.967  13.161 -0.2377  2.9985  0.8541
 7058SOL    HW232637   0.186   4.042  13.242  0.4140  0.8384  0.0769
 7059SOL     OW32638   3.331   2.542   4.274  0.2217  0.0609  0.1673
 7059SOL    HW132639   3.328   2.636   4.291  1.0377  0.4073 -1.5712
 7059SOL    HW232640   3.267   2.538   4.202 -0.0091 -1.4746  0.4528
 7060SOL     OW32641   1.378   3.491   8.218 -0.6734 -0.1584 -0.5880
 7060SOL    HW132642   1.428   3.416   8.251 -2.7434 -1.1624  0.2631
 7060SOL    HW232643   1.303   3.489   8.277  1.1028 -1.2336  1.6578
 7061SOL     OW32644   1.449   0.019   0.964 -0.3478  0.5112 -0.0586
 7061SOL    HW132645   1.465   0.040   0.872 -0.6964 -0.0391 -0.2447
 7061SOL    HW232646   1.355   0.037   0.965 -0.7738 -1.5503 -1.9672
 7062SOL     OW32647   4.303   0.543   0.399  0.9909  0.2767 -0.2399
 7062SOL    HW132648   4.228   0.539   0.339 -1.3982  1.2336  2.7057
 7062SOL    HW232649   4.359   0.606   0.355  0.1397  1.6745  0.6657
 7063SOL     OW32650   0.281   1.471   3.363 -0.3011 -0.2953 -1.1086
 7063SOL    HW132651   0.250   1.524   3.290 -3.0077  0.4668  0.6116
 7063SOL    HW232652   0.220   1.398   3.369 -1.7415  1.0496  0.4091
 7064SOL     OW32653   3.381   1.054   2.766  0.2932 -0.6370  0.2915
 7064SOL    HW132654   3.414   1.142   2.750 -1.7322 -0.0248 -0.4511
 7064SOL    HW232655   3.300   1.049   2.716  1.4587 -1.4386 -1.4939
 7065SOL     OW32656   4.317   3.344  12.729  0.2820 -0.5629 -0.7666
 7065SOL    HW132657   4.406   3.359  12.761 -0.6673  3.1597  0.1641
 7065SOL    HW232658   4.285   3.434  12.737  0.8918 -0.2970 -1.3576
 7066SOL     OW32659   3.056   2.754   9.214 -0.0943  0.1277 -0.2244
 7066SOL    HW132660   3.091   2.791   9.133 -0.3578 -1.1148 -0.9164
 7066SOL    HW232661   3.072   2.664   9.186  1.8559  1.1628 -2.3961
 7067SOL     OW32662   3.521   4.276  11.117  0.1739  0.5861 -0.1717
 7067SOL    HW132663   3.594   4.225  11.151 -0.5781  0.2350  0.9261
 7067SOL    HW232664   3.567   4.360  11.117 -0.5716  0.9982 -1.1422
 7068SOL     OW32665   3.046   2.696   4.776  0.0094 -0.2689 -0.4751
 7068SOL    HW132666   3.125   2.748   4.764 -1.4232  1.8132 -0.8162
 7068SOL    HW232667   3.067   2.633   4.845  0.7118 -0.5969 -0.9845
 7069SOL     OW32668   2.085   0.394   7.294 -0.3378 -0.0721 -0.0420
 7069SOL    HW132669   2.058   0.445   7.217  2.3033  2.2771  0.6205
 7069SOL    HW232670   2.179   0.382   7.283 -0.2400  0.7550 -0.0511
 7070SOL     OW32671   4.253   2.118   4.002  0.4316 -0.1116  0.5767
 7070SOL    HW132672   4.214   2.188   3.950 -1.6707 -0.6497  1.4153
 7070SOL    HW232673   4.298   2.171   4.068  0.6421  1.1810 -0.6139
 7071SOL     OW32674   0.766   2.280   7.207  0.0609 -0.2540 -0.4695
 7071SOL    HW132675   0.703   2.220   7.247  0.4273 -1.1448 -1.2292
 7071SOL    HW232676   0.839   2.219   7.199 -0.5719 -0.9119 -1.2329
 7072SOL     OW32677   3.679   1.526   7.409 -0.1203  0.0857  0.3285
 7072SOL    HW132678   3.608   1.462   7.405  1.8218 -2.0160 -0.8061
 7072SOL    HW232679   3.629   1.605   7.390  2.3435  1.2259 -1.3629
 7073SOL     OW32680   3.789   4.670   2.344 -0.3311 -0.0582  0.4854
 7073SOL    HW132681   3.725   0.012   2.370  0.1172  1.2254 -1.6919
 7073SOL    HW232682   3.740   4.626   2.275  0.3145  1.1227 -0.7263
 7074SOL     OW32683   0.666   0.004   7.376 -0.2250  0.4895  0.1827
 7074SOL    HW132684   0.708   4.648   7.407 -0.1666  1.2611  2.0379
 7074SOL    HW232685   0.600   4.683   7.322  0.5862 -0.5969  0.0790
 7075SOL     OW32686   3.445   2.737   6.619 -0.0282  0.1030  0.1782
 7075SOL    HW132687   3.479   2.670   6.560  1.1820  0.1096  0.8506
 7075SOL    HW232688   3.439   2.809   6.556  1.3779  0.0241 -0.0492
 7076SOL     OW32689   3.732   0.284  14.038 -0.4976 -0.0202  0.4299
 7076SOL    HW132690   3.819   0.310  14.069 -1.7873  1.0771  3.1788
 7076SOL    HW232691   3.733   0.192  14.065  1.0354 -0.0226  0.3405
 7077SOL     OW32692   3.362   0.190  10.796  0.0114 -0.0157  0.3055
 7077SOL    HW132693   3.329   0.120  10.740 -1.0808 -0.2110  1.1914
 7077SOL    HW232694   3.377   0.262  10.735  1.0347 -0.9064 -0.5076
 7078SOL     OW32695   4.128   2.992   0.356  0.5275 -0.3071 -0.2389
 7078SOL    HW132696   4.079   2.915   0.327 -0.0625 -0.2658  0.6516
 7078SOL    HW232697   4.213   2.983   0.312 -0.4105  0.0202 -2.1535
 7079SOL     OW32698   4.296   1.333  16.617  0.5837  0.2151 -0.6897
 7079SOL    HW132699   4.280   1.424  16.639  2.0600  0.4775 -0.7107
 7079SOL    HW232700   4.384   1.338  16.581  0.3032 -2.6615 -1.8071
 7080SOL     OW32701   1.634   0.446   5.138 -0.0330  0.6211  0.0822
 7080SOL    HW132702   1.657   0.360   5.103  0.5509  1.4068 -1.4610
 7080SOL    HW232703   1.543   0.434   5.166 -0.7587  2.3466 -1.5103
 7081SOL     OW32704   2.692   3.456   1.871  0.5932 -0.6575 -0.2211
 7081SOL    HW132705   2.669   3.416   1.955 -0.1181 -1.3974 -0.7746
 7081SOL    HW232706   2.759   3.510   1.914  0.7118 -2.1244  1.4135
 7082SOL     OW32707   2.118   0.505   1.481 -0.4015 -0.0787  0.8067
 7082SOL    HW132708   2.190   0.445   1.501  1.5002  1.9757  0.0104
 7082SOL    HW232709   2.085   0.462   1.401 -2.1347  1.5782  0.6300
 7083SOL     OW32710   2.255   3.428   3.431  0.0707  0.2112  0.1232
 7083SOL    HW132711   2.170   3.427   3.474  0.3316  1.9663  0.6958
 7083SOL    HW232712   2.306   3.355   3.466 -0.6523  1.1314  3.0384
 7084SOL     OW32713   4.043   4.399  16.903 -0.4118 -0.3018  0.3930
 7084SOL    HW132714   4.049   4.489  16.936 -1.1312 -0.9787  2.3677
 7084SOL    HW232715   4.134   4.379  16.925 -0.4830 -0.9544  0.0798
 7085SOL     OW32716   0.179   2.032   7.578  0.2918 -0.4322 -0.1156
 7085SOL    HW132717   0.262   2.075   7.595 -0.7555 -0.0489  4.0021
 7085SOL    HW232718   0.114   2.086   7.623 -0.0844  0.2512 -1.4636
 7086SOL     OW32719   0.208   4.657   7.735  0.1863 -0.4615  0.4460
 7086SOL    HW132720   0.302   4.655   7.715  0.7726  2.1174  2.9861
 7086SOL    HW232721   0.213   4.609   7.817 -0.0971 -1.3537 -0.0645
 7087SOL     OW32722   0.881   0.172   7.637  0.0487 -0.4898 -0.0366
 7087SOL    HW132723   0.875   0.257   7.681  2.0829  0.3389 -1.3676
 7087SOL    HW232724   0.824   0.186   7.561 -0.7941  1.2315  0.8957
 7088SOL     OW32725   3.824   1.967   4.883  0.1120  0.2079  0.1790
 7088SOL    HW132726   3.888   1.921   4.937  0.2769 -1.6038 -1.5501
 7088SOL    HW232727   3.743   1.923   4.908  0.0989  0.8183  1.1985
 7089SOL     OW32728   1.185   3.826   5.289 -0.3036  0.3928 -0.0648
 7089SOL    HW132729   1.205   3.748   5.340  1.9615  3.3276  3.5972
 7089SOL    HW232730   1.215   3.795   5.204 -1.6539  0.3789 -0.5318
 7090SOL     OW32731   2.290   2.624   6.496  0.4719  0.0763 -0.1392
 7090SOL    HW132732   2.347   2.700   6.508  1.2282 -0.5483  0.1768
 7090SOL    HW232733   2.213   2.668   6.458  0.6020 -0.6165 -1.2010
 7091SOL     OW32734   3.068   1.309   7.721  0.6336  0.2300 -0.2217
 7091SOL    HW132735   2.984   1.315   7.674  0.3707 -1.7022  0.0098
 7091SOL    HW232736   3.108   1.232   7.680 -0.5316  0.5493 -1.9811
 7092SOL     OW32737   2.212   4.024   9.519  0.5043 -0.0465 -0.5439
 7092SOL    HW132738   2.196   4.090   9.452 -0.3241 -0.2595 -0.5561
 7092SOL    HW232739   2.166   4.062   9.593 -0.1941 -0.7655 -0.6061
 7093SOL     OW32740   4.202   2.814   3.000  0.3160  0.0191  0.3355
 7093SOL    HW132741   4.124   2.778   3.043  0.7743  0.8032  1.8237
 7093SOL    HW232742   4.158   2.854   2.925  0.4421  2.7934  1.7548
 7094SOL     OW32743   3.132   3.667  13.412 -0.8003  0.8055  1.0073
 7094SOL    HW132744   3.049   3.686  13.455 -1.4165 -0.4028  0.3161
 7094SOL    HW232745   3.170   3.754  13.397  0.3860  0.3243  1.1542
 7095SOL     OW32746   1.209   0.206   3.260  0.4070  0.3332 -0.1512
 7095SOL    HW132747   1.171   0.284   3.219 -0.3368 -0.8326 -1.6654
 7095SOL    HW232748   1.303   0.224   3.268  0.3923  0.5451 -0.4675
 7096SOL     OW32749   2.331   1.310  13.662  0.1916  0.0990 -0.3323
 7096SOL    HW132750   2.386   1.359  13.723 -0.1914 -0.0693  0.1504
 7096SOL    HW232751   2.395   1.289  13.593  1.6327  2.6508  0.2386
 7097SOL     OW32752   0.295   1.755   7.966  0.0870 -0.2736  0.1753
 7097SOL    HW132753   0.342   1.674   7.944 -0.1833 -0.4834  0.3674
 7097SOL    HW232754   0.370   1.815   7.969 -0.4092  0.5479 -3.4407
 7098SOL     OW32755   2.832   2.666   6.525 -0.4095 -0.0661 -0.2242
 7098SOL    HW132756   2.842   2.591   6.467  2.2131 -0.1176  0.2686
 7098SOL    HW232757   2.807   2.620   6.605 -1.3212  2.3261  0.8833
 7099SOL     OW32758   4.635   3.118   2.204 -0.7481  0.9168  0.5436
 7099SOL    HW132759   4.603   3.188   2.260 -0.7529  1.4105 -0.0738
 7099SOL    HW232760   4.575   3.049   2.233  0.3203 -0.7696 -1.2457
 7100SOL     OW32761   0.293   1.312   0.455 -0.3489  0.0181  0.1470
 7100SOL    HW132762   0.305   1.374   0.383  0.1529 -2.4723 -1.8928
 7100SOL    HW232763   0.319   1.372   0.526 -0.2126  0.1978 -0.0557
 7101SOL     OW32764   2.391   3.688   3.905  0.7354  0.9253 -0.1415
 7101SOL    HW132765   2.410   3.595   3.911 -1.0024  0.5372 -0.5381
 7101SOL    HW232766   2.376   3.712   3.813 -1.1059  0.4947  0.0418
 7102SOL     OW32767   4.700   1.103   7.727 -0.2372 -0.3526  0.3001
 7102SOL    HW132768   4.630   1.168   7.727  0.3353  0.2613  0.6303
 7102SOL    HW232769   0.009   1.109   7.817 -0.1486 -1.8346  0.3605
 7103SOL     OW32770   4.252   1.027   7.796 -0.1665  0.4465 -0.7401
 7103SOL    HW132771   4.176   1.061   7.843 -0.2323 -0.2189 -0.3629
 7103SOL    HW232772   4.228   1.032   7.704  2.8361  1.6681 -1.4504
 7104SOL     OW32773   4.449   2.927   8.422  0.2110  0.2774  0.3036
 7104SOL    HW132774   4.398   2.944   8.501 -1.9921 -1.3980 -0.7626
 7104SOL    HW232775   4.456   3.021   8.402  1.2571  0.5412  1.9227
 7105SOL     OW32776   3.726   1.183   2.140  0.6198 -0.8130  0.1870
 7105SOL    HW132777   3.739   1.205   2.047 -1.3420  0.9895  0.3346
 7105SOL    HW232778   3.774   1.101   2.155  0.9887 -0.4565  0.9481
 7106SOL     OW32779   3.178   3.196   9.632 -0.1364 -0.1637  0.2760
 7106SOL    HW132780   3.174   3.119   9.689 -1.0320 -0.1525  0.2259
 7106SOL    HW232781   3.259   3.234   9.667  0.4756  1.4396 -2.9477
 7107SOL     OW32782   4.100   1.177   7.633 -0.4875  0.4664 -0.5234
 7107SOL    HW132783   4.081   1.270   7.649 -2.4204  0.1264 -0.7824
 7107SOL    HW232784   4.023   1.145   7.585 -2.3090 -1.2306  3.5057
 7108SOL     OW32785   1.401   3.580   7.783  0.0522 -0.9031 -0.0369
 7108SOL    HW132786   1.493   3.595   7.802  0.0292 -1.5420  0.5760
 7108SOL    HW232787   1.385   3.585   7.689 -0.6054  0.0179  0.1194
 7109SOL     OW32788   3.366   4.087   7.292  0.1484  0.3689  0.1228
 7109SOL    HW132789   3.344   4.165   7.344  0.8180 -0.3257  1.4353
 7109SOL    HW232790   3.444   4.114   7.245  1.5495  0.5820  2.5590
 7110SOL     OW32791   1.427   0.808   8.816  0.1868 -0.7394 -0.2376
 7110SOL    HW132792   1.434   0.884   8.874 -1.9150 -1.1997  0.6019
 7110SOL    HW232793   1.456   0.742   8.879 -0.4939 -0.5814  0.2332
 7111SOL     OW32794   3.411   3.605   6.079 -0.0509  0.0382 -0.0365
 7111SOL    HW132795   3.497   3.647   6.071 -0.4916  1.0090  0.2900
 7111SOL    HW232796   3.360   3.677   6.116  1.5082  1.6901 -1.1064
 7112SOL     OW32797   2.548   2.697  17.359 -0.0818  0.2686 -0.6998
 7112SOL    HW132798   2.552   2.791  17.345 -1.6682  0.1722 -1.7529
 7112SOL    HW232799   2.610   2.677  17.289  0.9995  0.2507  0.2612
 7113SOL     OW32800   0.501   1.719  11.128 -0.3136 -0.5347  0.3686
 7113SOL    HW132801   0.486   1.626  11.146 -3.4882  0.0129  0.5510
 7113SOL    HW232802   0.416   1.743  11.091 -1.0162 -3.1658  0.2689
 7114SOL     OW32803   1.357   4.102   6.065  0.0235  0.5045 -0.4155
 7114SOL    HW132804   1.443   4.108   6.105 -0.6885  2.3142  0.8879
 7114SOL    HW232805   1.303   4.088   6.143  0.1649 -1.2760 -0.6341
 7115SOL     OW32806   3.436   0.562  10.886 -0.5527 -0.2206  0.1462
 7115SOL    HW132807   3.449   0.652  10.918 -3.6260 -0.2437  1.4652
 7115SOL    HW232808   3.341   0.570  10.887 -0.6256 -1.0980 -0.2986
 7116SOL     OW32809   3.680   1.116   7.834 -0.0056 -0.8111  0.0347
 7116SOL    HW132810   3.747   1.184   7.823 -0.8289  0.0613  0.3491
 7116SOL    HW232811   3.619   1.139   7.763 -0.7150 -1.3409  0.4777
 7117SOL     OW32812   4.447   1.505   7.757  0.2294  0.5481 -0.0097
 7117SOL    HW132813   4.463   1.599   7.758  0.9471  0.4385 -1.0215
 7117SOL    HW232814   4.354   1.492   7.775  0.0936  1.8711  0.2603
 7118SOL     OW32815   1.352   3.773   7.963  0.1632 -0.1280 -0.0633
 7118SOL    HW132816   1.263   3.781   7.928 -0.4426  1.5545  1.8551
 7118SOL    HW232817   1.397   3.740   7.885  0.9389 -0.4478  0.5257
 7119SOL     OW32818   4.482   1.238   7.694 -0.1042  0.6262 -0.0363
 7119SOL    HW132819   4.476   1.333   7.709 -2.6427  0.1352  1.9549
 7119SOL    HW232820   4.397   1.206   7.665  0.7587 -2.3615  0.6999
 7120SOL     OW32821   1.574   1.898  17.526 -0.3101  0.4891 -0.1381
 7120SOL    HW132822   1.627   1.972  17.555  0.2693 -0.1416  0.4141
 7120SOL    HW232823   1.519   1.938  17.459 -3.0614 -2.3883  0.3947
 7121SOL     OW32824   2.286   4.403  15.031 -0.4951  0.4376  0.4789
 7121SOL    HW132825   2.249   4.452  15.105 -2.1227  0.6293 -0.4530
 7121SOL    HW232826   2.221   4.336  15.008  1.3079 -0.2912 -2.4681
 7122SOL     OW32827   1.615   0.233   4.552  0.6321  0.3297  0.2794
 7122SOL    HW132828   1.659   0.302   4.504  1.3209  0.0934  0.5737
 7122SOL    HW232829   1.522   0.253   4.542  0.4376 -0.2599  0.9243
 7123SOL     OW32830   4.367   3.760   1.443 -0.1636  0.0110  0.2873
 7123SOL    HW132831   4.421   3.682   1.431 -0.3728  0.3803 -3.2666
 7123SOL    HW232832   4.321   3.737   1.523  0.1652 -0.8361  0.2306
 7124SOL     OW32833   3.951   0.099  13.395 -0.1332  0.3892  0.6457
 7124SOL    HW132834   3.903   0.157  13.454 -0.6582 -0.7909  1.3947
 7124SOL    HW232835   3.892   0.024  13.403  0.0312  0.1597 -0.2707
 7125SOL     OW32836   1.543   4.630   2.269  0.5490  0.1959  0.1838
 7125SOL    HW132837   1.569   4.592   2.185 -0.0164 -0.2151  0.1933
 7125SOL    HW232838   1.517   4.556   2.324 -1.1052  1.2617  0.8273
 7126SOL     OW32839   0.460   1.169  13.919  0.1078  0.3846  0.2356
 7126SOL    HW132840   0.475   1.107  13.848 -0.1026 -1.3026  1.6493
 7126SOL    HW232841   0.475   1.255  13.880 -2.3221  0.9951  0.6632
 7127SOL     OW32842   3.282   2.226   1.547 -0.1771 -0.4673 -0.4575
 7127SOL    HW132843   3.262   2.133   1.559 -1.7804  0.0863  1.1932
 7127SOL    HW232844   3.297   2.262   1.634 -0.3314 -1.8685  0.1486
 7128SOL     OW32845   0.928   2.756  13.241  0.2947 -0.1136  0.0128
 7128SOL    HW132846   0.871   2.683  13.268  1.5099 -1.1345 -0.1737
 7128SOL    HW232847   0.922   2.809  13.320  1.3109 -0.8387  0.5734
 7129SOL     OW32848   1.838   2.584  11.335 -0.1844  0.1677  0.0714
 7129SOL    HW132849   1.794   2.669  11.328  1.3574  1.1112  1.6599
 7129SOL    HW232850   1.897   2.582  11.260 -1.6478 -1.2774 -1.0357
 7130SOL     OW32851   0.289   3.935  14.896 -0.1188  0.0399 -0.1705
 7130SOL    HW132852   0.315   3.996  14.826 -1.1685  0.2354 -0.3853
 7130SOL    HW232853   0.268   3.993  14.969  0.5814 -0.3480  0.3344
 7131SOL     OW32854   2.366   3.999   8.897 -0.2320 -0.0974  0.1004
 7131SOL    HW132855   2.304   3.989   8.969 -0.6655 -2.6791 -0.6506
 7131SOL    HW232856   2.395   3.908   8.886  1.1311  0.3205  0.1415
 7132SOL     OW32857   2.645   2.239   1.483 -0.3438  0.1818 -0.0481
 7132SOL    HW132858   2.707   2.293   1.435 -0.6348 -0.8043 -1.5108
 7132SOL    HW232859   2.586   2.312   1.502 -1.6037 -0.9197  0.3299
 7133SOL     OW32860   3.008   0.406  14.355 -0.7664  0.4178 -1.0669
 7133SOL    HW132861   2.995   0.446  14.441  0.0557  1.7289 -1.5643
 7133SOL    HW232862   3.077   0.341  14.367 -1.1827  0.5325  1.9471
 7134SOL     OW32863   0.132   3.656   2.382 -0.1112 -0.0390 -0.3932
 7134SOL    HW132864   0.050   3.641   2.430  1.0438 -1.4613  1.1115
 7134SOL    HW232865   0.143   3.749   2.399 -0.2701  0.1446 -1.2775
 7135SOL     OW32866   3.055   0.065  16.539 -0.0883 -0.1180  0.4339
 7135SOL    HW132867   3.136   0.087  16.495 -1.0560 -0.3172 -1.4332
 7135SOL    HW232868   3.051   0.085  16.633 -0.3650 -0.2949  0.4626
 7136SOL     OW32869   2.442   2.698  12.243 -0.1905 -0.2608 -0.4206
 7136SOL    HW132870   2.351   2.716  12.219 -1.1763 -0.7190  2.8713
 7136SOL    HW232871   2.420   2.689  12.336 -2.7756  3.2402 -0.6729
 7137SOL     OW32872   3.710   2.987  12.835  0.2434  0.0801 -0.3375
 7137SOL    HW132873   3.699   2.973  12.741  1.4935  1.5726 -0.7044
 7137SOL    HW232874   3.710   3.083  12.835  2.4184  0.0881  1.4502
 7138SOL     OW32875   4.204   1.257   3.376  0.1961 -0.3032  0.0626
 7138SOL    HW132876   4.200   1.321   3.305 -0.3696 -0.9256 -0.4650
 7138SOL    HW232877   4.173   1.306   3.451  0.2998 -0.3639  0.1450
 7139SOL     OW32878   4.461   4.336   0.389  0.2033  0.7144 -0.1724
 7139SOL    HW132879   4.525   4.302   0.326 -1.7247 -0.8367 -1.3046
 7139SOL    HW232880   4.500   4.330   0.476 -0.2162 -1.2175 -0.1284
 7140SOL     OW32881   2.757   0.952   9.253 -0.2232  0.1795  0.0223
 7140SOL    HW132882   2.698   1.020   9.222 -1.8002 -1.3650 -0.3510
 7140SOL    HW232883   2.779   0.901   9.175 -0.9938 -0.7527  0.4111
 7141SOL     OW32884   2.999   4.392   3.069 -0.0218  0.0816 -0.4048
 7141SOL    HW132885   2.946   4.316   3.049  0.1990  0.0987 -1.0615
 7141SOL    HW232886   3.068   4.376   3.004 -0.1647  0.6130 -0.6891
 7142SOL     OW32887   3.618   3.791   6.031 -0.4112 -0.2074  0.1651
 7142SOL    HW132888   3.668   3.741   5.967 -2.8373 -0.8258 -1.2444
 7142SOL    HW232889   3.607   3.872   5.981  2.5515  0.7770  1.1347
 7143SOL     OW32890   1.198   4.379   9.359 -0.1415 -0.4949 -0.3159
 7143SOL    HW132891   1.265   4.425   9.309 -2.0444  0.4283 -1.9559
 7143SOL    HW232892   1.145   4.330   9.297 -1.1387 -1.0196  0.9495
 7144SOL     OW32893   0.123   1.593   2.804  0.3364  0.8445  0.2059
 7144SOL    HW132894   0.208   1.635   2.797  1.5375 -1.1265  2.9481
 7144SOL    HW232895   0.071   1.665   2.768  0.0594  0.0435 -1.0006
 7145SOL     OW32896   1.975   3.516   6.649  0.0608 -0.1693  0.0399
 7145SOL    HW132897   1.980   3.608   6.623 -0.2714 -0.0467  0.4163
 7145SOL    HW232898   2.063   3.479   6.655 -0.0741 -0.1664  1.8581
 7146SOL     OW32899   3.017   3.072   8.071  0.3155 -0.3820 -0.2593
 7146SOL    HW132900   3.035   2.978   8.083 -0.7707 -0.7564 -1.5399
 7146SOL    HW232901   3.010   3.104   8.161  0.7511  0.8760 -0.6811
 7147SOL     OW32902   2.735   2.795   0.828  0.2723  0.1818 -0.5404
 7147SOL    HW132903   2.817   2.797   0.877  1.5618 -0.6482 -2.6342
 7147SOL    HW232904   2.753   2.816   0.736 -2.3442  1.2394 -0.8130
 7148SOL     OW32905   3.988   0.735  14.861  0.4754 -0.4831  0.6522
 7148SOL    HW132906   3.977   0.830  14.868 -0.8960 -0.4824 -1.4631
 7148SOL    HW232907   3.907   0.708  14.903  0.5651 -1.6065  0.0829
 7149SOL     OW32908   1.919   0.958   2.091 -0.4267  0.1136  0.1734
 7149SOL    HW132909   1.995   0.946   2.148  0.3851 -0.9195 -1.1484
 7149SOL    HW232910   1.862   0.882   2.103 -1.7442  1.1024  0.2201
 7150SOL     OW32911   4.722   4.118   7.720 -0.2738 -0.1320 -0.3177
 7150SOL    HW132912   0.074   4.067   7.747 -0.0149  0.0952 -0.6222
 7150SOL    HW232913   0.008   4.201   7.768  2.0666 -0.7326  0.2169
 7151SOL     OW32914   4.430   4.004   5.888  0.4297 -0.2425 -0.1143
 7151SOL    HW132915   4.365   3.951   5.842 -0.2999  2.6915 -2.4617
 7151SOL    HW232916   4.478   3.942   5.942  0.3950 -1.0526 -1.0179
 7152SOL     OW32917   4.476   4.657   4.090  0.1525  0.4015 -0.5716
 7152SOL    HW132918   4.394   4.639   4.043  0.9641  1.2944 -2.3481
 7152SOL    HW232919   4.454   0.022   4.120 -0.1860  0.3377 -0.6289
 7153SOL     OW32920   3.812   2.109   5.240 -0.4600  0.4708  0.1483
 7153SOL    HW132921   3.838   2.084   5.328  1.6390  4.3297  0.6419
 7153SOL    HW232922   3.849   2.039   5.186 -1.1785  0.7735 -0.7442
 7154SOL     OW32923   0.356   1.472   0.219  0.0862 -0.3473  0.1450
 7154SOL    HW132924   0.284   1.409   0.210  0.2486 -0.8477  2.4628
 7154SOL    HW232925   0.383   1.472   0.127 -1.7467 -0.0665 -0.3927
 7155SOL     OW32926   4.622   1.814   8.672 -0.2784  0.0303  0.3444
 7155SOL    HW132927   4.598   1.845   8.584  1.2557  2.1209  0.6354
 7155SOL    HW232928   4.536   1.805   8.712  0.2593  2.6326  2.1253
 7156SOL     OW32929   4.164   3.494  13.767  0.3673 -0.5278 -0.1554
 7156SOL    HW132930   4.184   3.550  13.841  2.1110 -1.3785  0.0009
 7156SOL    HW232931   4.229   3.527  13.705  0.0498 -0.2568 -0.3461
 7157SOL     OW32932   3.149   2.803   1.589  0.1365 -0.3656 -0.2780
 7157SOL    HW132933   3.209   2.744   1.635  1.2993 -0.7045 -2.2666
 7157SOL    HW232934   3.192   2.804   1.504  1.3640 -2.0533  0.3287
 7158SOL     OW32935   3.513   2.303   2.114 -0.2597  0.0249 -0.1970
 7158SOL    HW132936   3.447   2.243   2.080  1.2309 -1.9297  0.3426
 7158SOL    HW232937   3.576   2.247   2.159 -1.0296  0.0695  0.9402
 7159SOL     OW32938   0.378   2.866   1.701 -0.2260 -0.5705 -0.2625
 7159SOL    HW132939   0.437   2.865   1.777  1.5145 -1.4314 -1.6214
 7159SOL    HW232940   0.308   2.928   1.719 -2.0242 -2.4780 -0.7076
 7160SOL     OW32941   0.168   1.158  14.858 -0.4039  0.0174  0.4277
 7160SOL    HW132942   0.258   1.126  14.868 -0.2745 -0.2525 -1.7000
 7160SOL    HW232943   0.144   1.131  14.770  3.4452  0.4047 -0.7422
 7161SOL     OW32944   2.246   1.156   6.551  0.1151 -0.0033  0.1527
 7161SOL    HW132945   2.234   1.144   6.457 -0.6921  2.6472 -0.0545
 7161SOL    HW232946   2.168   1.186   6.597 -0.1627  2.2243 -1.7688
 7162SOL     OW32947   3.659   0.308   3.510 -0.0179  0.1951  0.5090
 7162SOL    HW132948   3.648   0.399   3.482  0.3157 -0.5051 -1.9372
 7162SOL    HW232949   3.666   0.319   3.604 -0.8540 -1.9893  0.8309
 7163SOL     OW32950   3.908   1.857   7.764 -0.0721 -0.8238 -0.2809
 7163SOL    HW132951   3.990   1.904   7.750  0.4678 -1.0848  1.9206
 7163SOL    HW232952   3.894   1.878   7.856 -1.3271  2.9444 -1.3438
 7164SOL     OW32953   0.040   0.334   2.420  0.0248  0.2960  0.3518
 7164SOL    HW132954   4.689   0.373   2.465 -0.5367 -1.3849  0.9065
 7164SOL    HW232955   0.038   0.376   2.334 -0.3963 -1.6503 -0.5992
 7165SOL     OW32956   4.012   2.568  11.299  0.4259 -0.9059 -0.3923
 7165SOL    HW132957   4.087   2.600  11.351  0.2093 -0.1968 -0.5202
 7165SOL    HW232958   4.052   2.495  11.253  1.5371 -0.7486  0.3104
 7166SOL     OW32959   2.512   3.077   3.468 -0.2467  0.0007 -0.1714
 7166SOL    HW132960   2.556   3.027   3.537 -2.8171 -0.4946  1.0999
 7166SOL    HW232961   2.529   3.012   3.400 -0.1915  0.7985 -0.9100
 7167SOL     OW32962   0.392   3.554   2.399 -0.5961 -0.1930  0.2496
 7167SOL    HW132963   0.297   3.564   2.390 -0.7534  0.2222  2.6197
 7167SOL    HW232964   0.417   3.568   2.307  1.2667 -0.6838  0.6962
 7168SOL     OW32965   3.845   4.105   4.582 -0.1820 -0.0596 -0.5041
 7168SOL    HW132966   3.834   4.019   4.542  1.6544  0.4073 -1.9910
 7168SOL    HW232967   3.773   4.094   4.645  2.1449 -2.7980  1.6347
 7169SOL     OW32968   1.519   2.903   5.946  0.4993 -0.3315  0.2562
 7169SOL    HW132969   1.484   2.987   5.974 -1.2302 -0.8827 -0.2329
 7169SOL    HW232970   1.450   2.875   5.884 -0.3949  0.9790  0.6672
 7170SOL     OW32971   0.878   0.308   2.343  0.2622 -0.0140 -0.5612
 7170SOL    HW132972   0.837   0.233   2.386  3.2795 -0.6602  1.1291
 7170SOL    HW232973   0.803   0.339   2.291 -0.0213  0.0456 -0.1206
 7171SOL     OW32974   1.756   2.837   6.059  0.1807  0.4344 -0.2915
 7171SOL    HW132975   1.679   2.884   6.028  0.4962  2.1914  1.6041
 7171SOL    HW232976   1.727   2.748   6.036 -0.4989  0.6802 -0.3792
 7172SOL     OW32977   3.909   4.562   3.941 -0.0168  0.1571  0.3774
 7172SOL    HW132978   3.869   4.638   3.899  1.9618  0.0044 -1.7918
 7172SOL    HW232979   3.926   4.508   3.864  1.4202  1.0142  0.0777
 7173SOL     OW32980   4.286   1.786   6.515  0.1092 -0.3381 -0.2049
 7173SOL    HW132981   4.207   1.738   6.491  1.2336 -2.8087  1.0286
 7173SOL    HW232982   4.330   1.794   6.430  2.0318  1.6952  0.9525
 7174SOL     OW32983   3.272   3.133   5.757 -0.6764 -0.6585 -0.6534
 7174SOL    HW132984   3.302   3.216   5.795  1.3891 -1.5391 -0.3276
 7174SOL    HW232985   3.187   3.154   5.718 -1.1537 -0.4945  0.4888
 7175SOL     OW32986   1.923   0.369   2.211  0.7756  0.0573  0.4384
 7175SOL    HW132987   1.855   0.410   2.159  1.5596  0.3619 -0.3525
 7175SOL    HW232988   1.897   0.281   2.183  2.1187 -0.4327  0.7158
 7176SOL     OW32989   4.051   0.641   1.864 -0.2926  0.4507  0.1261
 7176SOL    HW132990   4.021   0.591   1.788 -0.1365  1.8236 -0.8473
 7176SOL    HW232991   3.986   0.711   1.861  0.5337  1.2260  0.2260
 7177SOL     OW32992   2.516   2.989  11.594 -0.7884 -0.0496 -0.0724
 7177SOL    HW132993   2.495   3.036  11.675  0.8704 -0.0060  0.3253
 7177SOL    HW232994   2.607   2.965  11.609 -1.1288  0.1131  2.2153
 7178SOL     OW32995   1.041   0.138  12.872  0.0195 -0.5921 -0.4021
 7178SOL    HW132996   0.975   0.151  12.804  1.1336 -2.0850 -1.7950
 7178SOL    HW232997   1.120   0.142  12.818 -1.2695  2.3943 -2.0564
 7179SOL     OW32998   3.261   1.011  12.617 -0.1835  0.0486 -0.5284
 7179SOL    HW132999   3.286   1.102  12.601 -0.9912  0.2756 -0.5012
 7179SOL    HW233000   3.194   0.996  12.550  1.1860 -1.9889 -1.4415
 7180SOL     OW33001   2.247   1.102   0.856  1.0317  0.0121 -0.3226
 7180SOL    HW133002   2.205   1.180   0.820 -1.0020 -0.0470  1.9096
 7180SOL    HW233003   2.186   1.036   0.823  0.2393  2.0813 -2.9580
 7181SOL     OW33004   3.357   0.969   0.845 -0.0480  0.3499 -0.3472
 7181SOL    HW133005   3.391   0.969   0.935  0.1381 -2.8905 -0.3930
 7181SOL    HW233006   3.433   1.012   0.805  0.8059  0.1066  0.9856
 7182SOL     OW33007   3.725   3.784   1.719  0.3542  0.4905 -0.3551
 7182SOL    HW133008   3.689   3.700   1.692  0.8429  1.3982 -3.8476
 7182SOL    HW233009   3.757   3.832   1.642 -0.6725  1.8091  0.0342
 7183SOL     OW33010   4.060   0.340   1.526 -0.3560  0.5945  0.1911
 7183SOL    HW133011   3.965   0.344   1.513 -0.2113  2.1998 -0.3648
 7183SOL    HW233012   4.070   0.319   1.619 -0.0220  1.3140  0.3214
 7184SOL     OW33013   2.394   1.695   0.866 -0.5764 -0.0294 -0.4966
 7184SOL    HW133014   2.467   1.633   0.869  0.0893  0.7811 -0.1549
 7184SOL    HW233015   2.360   1.681   0.954  0.5572  0.4595  0.0111
 7185SOL     OW33016   2.310   2.489   1.658 -0.0778  0.1004 -0.5658
 7185SOL    HW133017   2.344   2.401   1.643 -1.4423 -0.9804  2.6391
 7185SOL    HW233018   2.299   2.521   1.569  1.4752  1.4188 -0.2787
 7186SOL     OW33019   0.435   1.412   3.727  0.3606 -0.1763 -0.5563
 7186SOL    HW133020   0.499   1.441   3.792 -1.3267 -0.0310  1.0313
 7186SOL    HW233021   0.431   1.487   3.667  1.7009 -1.8491 -2.7475
 7187SOL     OW33022   2.165   4.211  11.494 -0.3394  0.0088 -0.2505
 7187SOL    HW133023   2.230   4.209  11.564  0.6096  1.7447 -1.0824
 7187SOL    HW233024   2.150   4.117  11.484 -0.1672  0.1045 -1.4215
 7188SOL     OW33025   2.715   3.792   1.419 -0.1447  0.0317  0.7290
 7188SOL    HW133026   2.758   3.714   1.454  1.5236 -0.3801 -2.2678
 7188SOL    HW233027   2.777   3.815   1.350 -1.5920 -0.0710 -0.6090
 7189SOL     OW33028   2.766   2.883  11.656  0.2124  0.0663 -0.5351
 7189SOL    HW133029   2.798   2.873  11.566 -0.3457  1.7158 -0.9192
 7189SOL    HW233030   2.846   2.860  11.703  0.1684 -0.6747 -0.8216
 7190SOL     OW33031   2.116   3.762   4.556  0.1281  0.2595  0.4546
 7190SOL    HW133032   2.124   3.797   4.467 -1.8543  0.1247  0.2204
 7190SOL    HW233033   2.177   3.689   4.550  0.2080  0.4653 -1.2036
 7191SOL     OW33034   3.815   2.471   2.934 -0.0932  0.1384  0.0100
 7191SOL    HW133035   3.888   2.533   2.927  0.8675 -1.2549 -2.3833
 7191SOL    HW233036   3.758   2.507   2.866  0.6553  0.8616 -0.2426
 7192SOL     OW33037   1.211   0.804  11.414  0.2276 -0.6763 -0.4433
 7192SOL    HW133038   1.306   0.814  11.421  0.1905 -0.4944 -0.1870
 7192SOL    HW233039   1.180   0.735  11.472 -0.9795  0.0247 -0.2343
 7193SOL     OW33040   1.479   4.644  16.980  0.4099  0.6686  0.8884
 7193SOL    HW133041   1.384   4.647  16.995  0.0266 -0.1020 -1.3832
 7193SOL    HW233042   1.487   4.602  16.894  0.9388 -0.7350  1.6216
 7194SOL     OW33043   2.385   0.024  15.441 -0.0212 -0.0016 -0.1398
 7194SOL    HW133044   2.471   4.707  15.437 -0.1350 -0.1046 -1.4106
 7194SOL    HW233045   2.388   0.076  15.361  0.2956 -0.4752 -0.4394
 7195SOL     OW33046   3.409   1.501   4.363 -0.5921  0.1913 -0.0843
 7195SOL    HW133047   3.369   1.545   4.288  2.6378  2.4256 -0.5079
 7195SOL    HW233048   3.488   1.553   4.374 -0.1188 -0.8180  1.1782
 7196SOL     OW33049   2.226   1.548  11.878  0.2656 -0.3743 -0.1977
 7196SOL    HW133050   2.282   1.479  11.913  1.3815  0.3522 -0.5391
 7196SOL    HW233051   2.170   1.578  11.950 -0.7756 -0.1170 -1.1360
 7197SOL     OW33052   3.491   2.508   2.583 -0.7427 -0.1513 -0.1984
 7197SOL    HW133053   3.472   2.439   2.519 -1.3934 -0.2175  0.0700
 7197SOL    HW233054   3.409   2.500   2.631  0.6033  2.0916  2.4536
 7198SOL     OW33055   2.053   2.028   7.786  0.1746  0.3310 -0.5611
 7198SOL    HW133056   2.059   1.942   7.746 -0.0807  0.1484 -0.2034
 7198SOL    HW233057   2.042   1.997   7.875  2.0458  0.5683 -0.2398
 7199SOL     OW33058   3.053   3.801   9.839  0.3740  0.0563 -0.7282
 7199SOL    HW133059   3.143   3.772   9.853  0.2026  1.1466  2.7091
 7199SOL    HW233060   3.067   3.877   9.895  0.3555  1.4278 -2.5953
 7200SOL     OW33061   4.435   1.955   3.839  0.3831 -0.4159  0.0102
 7200SOL    HW133062   4.432   2.004   3.757  2.3624 -1.0957 -0.4690
 7200SOL    HW233063   4.372   2.008   3.887  0.3045 -0.4051 -0.1060
 7201SOL     OW33064   1.497   1.433   8.318 -0.1526  0.5955 -0.6319
 7201SOL    HW133065   1.533   1.351   8.352  2.0926  1.5604 -0.6934
 7201SOL    HW233066   1.409   1.397   8.304  0.0686 -0.7298  1.2773
 7202SOL     OW33067   4.194   4.194   6.486  0.2872 -0.3807  0.3289
 7202SOL    HW133068   4.135   4.120   6.472 -1.1237  0.2810  2.8067
 7202SOL    HW233069   4.267   4.141   6.518  0.5757  1.6614  2.9812
 7203SOL     OW33070   0.068   2.775   5.513  0.3763  0.0909  0.0137
 7203SOL    HW133071   4.721   2.821   5.559 -1.3619 -2.3779 -0.1618
 7203SOL    HW233072   0.043   2.682   5.521 -4.9740  1.5253 -0.0853
 7204SOL     OW33073   4.537   2.527  11.679 -0.4333 -0.1231  0.6205
 7204SOL    HW133074   4.524   2.607  11.730 -2.8203 -0.4019  0.4128
 7204SOL    HW233075   4.533   2.557  11.588  0.9820  0.0381  0.6065
 7205SOL     OW33076   0.038   4.182   4.947 -0.8073  0.3920  0.4917
 7205SOL    HW133077   0.126   4.189   4.983  1.2337 -0.2306 -4.3378
 7205SOL    HW233078   0.007   4.107   4.999  0.5606 -0.8913 -0.5449
 7206SOL     OW33079   0.673   1.868   3.961  0.0207 -0.4086 -0.2196
 7206SOL    HW133080   0.684   1.885   3.868 -2.3249 -0.3397 -0.4754
 7206SOL    HW233081   0.584   1.903   3.969 -0.4139 -1.3950 -0.8096
 7207SOL     OW33082   1.892   3.137   8.684  0.1075 -0.1757  0.2528
 7207SOL    HW133083   1.846   3.186   8.616 -1.1156 -3.1834 -1.1202
 7207SOL    HW233084   1.818   3.126   8.744  0.5606  0.8781  0.9983
 7208SOL     OW33085   3.696   4.389   6.756 -0.0333 -0.6417  0.2767
 7208SOL    HW133086   3.648   4.317   6.715  0.7267 -0.9375 -0.0771
 7208SOL    HW233087   3.758   4.417   6.690 -0.7793  0.7806  0.1684
 7209SOL     OW33088   2.238   3.282   8.653  0.1480 -0.3554  0.4482
 7209SOL    HW133089   2.225   3.199   8.607 -0.5389 -1.4119  2.5262
 7209SOL    HW233090   2.164   3.280   8.714 -0.3601 -0.2181 -0.1579
 7210SOL     OW33091   4.556   0.523   1.738 -0.0461  0.1635  0.3397
 7210SOL    HW133092   4.486   0.574   1.778  0.6687  1.6750 -0.3412
 7210SOL    HW233093   4.518   0.517   1.651  0.2401 -0.7103  0.2736
 7211SOL     OW33094   1.554   2.146   1.884 -0.7022 -0.1911  0.0841
 7211SOL    HW133095   1.580   2.181   1.969 -3.3046  1.2240  0.2931
 7211SOL    HW233096   1.629   2.088   1.867 -0.1331  0.3959  0.6179
 7212SOL     OW33097   2.165   2.381   8.456  0.1566  0.0469 -0.1474
 7212SOL    HW133098   2.139   2.473   8.450  1.2683  0.4479  1.3105
 7212SOL    HW233099   2.129   2.360   8.542 -2.7853 -0.6561 -1.5524
 7213SOL     OW33100   1.848   2.815  12.902  0.0470  0.4805  0.1184
 7213SOL    HW133101   1.817   2.864  12.825  3.2296  1.4192 -0.5656
 7213SOL    HW233102   1.779   2.751  12.920  1.1611 -0.2246  1.8116
 7214SOL     OW33103   1.561   4.183   4.034  0.0428 -0.5347 -0.0462
 7214SOL    HW133104   1.610   4.206   3.955  0.5207  0.8410  0.6398
 7214SOL    HW233105   1.505   4.260   4.041 -1.8803 -1.8833 -0.6396
 7215SOL     OW33106   0.956   1.407  11.170 -0.0575 -0.0863 -0.3039
 7215SOL    HW133107   0.864   1.386  11.155 -1.0060  1.3490  3.4282
 7215SOL    HW233108   0.964   1.369  11.258  0.2335  2.8768  0.9515
 7216SOL     OW33109   0.438   4.211   8.260 -0.2711 -0.0389  0.3042
 7216SOL    HW133110   0.507   4.203   8.326  0.3614 -2.2150 -0.6083
 7216SOL    HW233111   0.482   4.195   8.176  0.1422  1.5863  0.1985
 7217SOL     OW33112   2.160   0.383  11.342  0.1463  0.1533 -0.1669
 7217SOL    HW133113   2.240   0.382  11.290 -0.1545  2.6437 -0.7067
 7217SOL    HW233114   2.201   0.371  11.428  4.4344  1.3651 -2.0623
 7218SOL     OW33115   2.074   1.738  14.322 -0.7180 -0.6518  0.6709
 7218SOL    HW133116   2.113   1.729  14.235 -0.3521  0.4204  0.7269
 7218SOL    HW233117   2.135   1.694  14.381  2.7429  0.0782 -2.3476
 7219SOL     OW33118   2.378   0.273  11.136  0.6696  0.3107  0.3400
 7219SOL    HW133119   2.413   0.347  11.184 -1.2705  0.6384  1.2254
 7219SOL    HW233120   2.303   0.316  11.097  1.5820 -0.1498 -1.9510
 7220SOL     OW33121   0.736   2.877  15.794 -0.1564  0.5506  0.2749
 7220SOL    HW133122   0.820   2.856  15.836 -0.5330 -0.7577  0.3598
 7220SOL    HW233123   0.676   2.823  15.845  1.3576 -2.7411 -1.4327
 7221SOL     OW33124   4.179   2.999   4.838 -0.1525  0.2250 -0.3831
 7221SOL    HW133125   4.217   2.951   4.912 -0.4775 -0.2232 -0.5033
 7221SOL    HW233126   4.234   3.077   4.844 -1.4572  1.0767  0.4752
 7222SOL     OW33127   4.571   4.212   8.425 -0.7143  0.1587  0.4113
 7222SOL    HW133128   4.622   4.155   8.367 -2.4495  0.1033 -1.0829
 7222SOL    HW233129   4.573   4.164   8.507 -0.9492 -1.4071 -0.4958
 7223SOL     OW33130   0.762   1.891  16.823  0.2099 -0.3440  0.0981
 7223SOL    HW133131   0.851   1.920  16.806  0.7824 -1.7341  0.7446
 7223SOL    HW233132   0.790   1.811  16.867  2.2400  0.2813 -0.0598
 7224SOL     OW33133   1.226   2.854   6.020  0.3702  0.0444 -0.2096
 7224SOL    HW133134   1.277   2.806   6.085 -1.1898 -1.7945 -0.3513
 7224SOL    HW233135   1.178   2.911   6.080 -1.0750 -2.0363  0.6048
 7225SOL     OW33136   0.984   3.463   3.654  0.5390  0.0167 -0.3147
 7225SOL    HW133137   1.029   3.545   3.633  0.3372  0.4438  0.9436
 7225SOL    HW233138   1.044   3.431   3.722  1.8043  1.0873 -0.9288
 7226SOL     OW33139   3.828   1.558   1.464 -0.5243  0.0381 -0.0967
 7226SOL    HW133140   3.774   1.543   1.542  0.4446 -0.6312  0.4442
 7226SOL    HW233141   3.759   1.523   1.408 -1.1381 -1.7426  1.7507
 7227SOL     OW33142   0.301   3.861   4.019  0.5678  0.0734  0.0146
 7227SOL    HW133143   0.281   3.944   3.976  0.4220  1.1069  2.0537
 7227SOL    HW233144   0.377   3.833   3.968 -1.1823 -1.1893 -1.8420
 7228SOL     OW33145   4.432   2.139   6.999 -0.1504  0.2040  0.2761
 7228SOL    HW133146   4.408   2.166   6.910  0.8455  0.8716  0.2066
 7228SOL    HW233147   4.379   2.194   7.057 -0.5619  0.8325 -0.6846
 7229SOL     OW33148   4.434   0.742   5.505 -0.4733 -0.1696 -0.0844
 7229SOL    HW133149   4.447   0.656   5.463 -0.3173 -0.3962  0.4309
 7229SOL    HW233150   4.502   0.796   5.464 -2.2311  2.0156 -0.1176
 7230SOL     OW33151   1.832   4.478   3.283  0.9340 -0.1911  0.1549
 7230SOL    HW133152   1.832   4.559   3.233 -1.0434 -0.2571  0.0633
 7230SOL    HW233153   1.757   4.430   3.249  0.3358  0.1816  0.9788
 7231SOL     OW33154   4.690   2.337  12.156  0.0863  0.4735  0.1917
 7231SOL    HW133155   4.649   2.291  12.229 -1.1550 -0.1370 -0.8855
 7231SOL    HW233156   4.615   2.376  12.110  0.7431  0.5230 -0.8347
 7232SOL     OW33157   1.822   3.943   1.578  0.2026 -0.6532 -0.2788
 7232SOL    HW133158   1.893   3.936   1.513  0.7714  0.0177  0.2580
 7232SOL    HW233159   1.746   3.975   1.530  1.3844 -0.6255 -2.1597
 7233SOL     OW33160   4.629   1.637   7.292  0.0190  0.0717  0.4341
 7233SOL    HW133161   4.684   1.709   7.261 -1.0760 -0.3929 -2.5005
 7233SOL    HW233162   4.680   1.565   7.255  0.4127  0.0470  1.0163
 7234SOL     OW33163   1.317   2.859   8.837  0.4957  0.4932 -0.4599
 7234SOL    HW133164   1.294   2.872   8.930 -0.6785 -0.8700 -0.5650
 7234SOL    HW233165   1.400   2.812   8.842  0.3922  0.1673 -2.0589
 7235SOL     OW33166   2.359   0.779   5.204 -0.2049  0.4054  0.1136
 7235SOL    HW133167   2.363   0.734   5.288  1.1021 -0.5595 -0.4636
 7235SOL    HW233168   2.451   0.786   5.177  0.0735 -0.3814  0.8749
 7236SOL     OW33169   1.203   4.108   4.329 -0.3507 -0.0366  0.6397
 7236SOL    HW133170   1.213   4.200   4.353 -0.1103  0.5259 -1.5997
 7236SOL    HW233171   1.283   4.079   4.372 -1.4107 -1.2753  1.7896
 7237SOL     OW33172   4.587   0.197  17.448 -0.2629  0.8999  0.2206
 7237SOL    HW133173   4.524   0.210  17.377 -0.7230 -1.5851  0.1527
 7237SOL    HW233174   4.633   0.280  17.448 -0.6659  1.1288  1.0149
 7238SOL     OW33175   0.426   0.031  12.071 -0.5765  0.3745  0.2411
 7238SOL    HW133176   0.519   0.044  12.052 -0.1695 -2.2458  0.5354
 7238SOL    HW233177   0.423   0.069  12.159 -1.0917 -0.2347  0.4825
 7239SOL     OW33178   1.437   2.611   1.800  0.1847 -0.5126  0.0044
 7239SOL    HW133179   1.405   2.659   1.724  1.2134 -1.6357 -1.1267
 7239SOL    HW233180   1.370   2.643   1.861 -0.1462  0.1385 -0.7055
 7240SOL     OW33181   1.086   0.850   1.635 -0.8452  0.1794 -0.3689
 7240SOL    HW133182   1.047   0.926   1.593  0.2051  1.2847  0.6543
 7240SOL    HW233183   1.006   0.824   1.682 -1.2218 -0.1550 -1.1938
 7241SOL     OW33184   2.630   2.318   2.974  0.5026  0.3413  0.0725
 7241SOL    HW133185   2.610   2.271   2.894 -0.2438  1.6316 -0.5048
 7241SOL    HW233186   2.579   2.398   2.962  1.4867  0.8080 -1.0390
 7242SOL     OW33187   3.592   3.020   5.219 -0.3221  0.0483  0.3831
 7242SOL    HW133188   3.662   2.966   5.257  3.0801  2.1703 -2.8430
 7242SOL    HW233189   3.624   3.034   5.130 -0.7673  0.1438  0.2402
 7243SOL     OW33190   0.450   1.830   3.282 -0.4763  0.2115  0.1830
 7243SOL    HW133191   0.505   1.753   3.293 -1.3082 -0.5932 -1.3269
 7243SOL    HW233192   0.506   1.892   3.235  2.2379  0.2778  3.4589
 7244SOL     OW33193   1.680   2.180  10.423  0.6584  0.0929  0.1696
 7244SOL    HW133194   1.637   2.134  10.351 -0.5756 -0.6059  1.3493
 7244SOL    HW233195   1.762   2.131  10.425  0.9740  0.6229  0.1616
 7245SOL     OW33196   2.350   1.544   9.343 -0.0553 -0.2795  0.6486
 7245SOL    HW133197   2.340   1.557   9.249 -2.1278 -0.6012  0.8234
 7245SOL    HW233198   2.323   1.452   9.340  0.4809 -0.4184  0.2092
 7246SOL     OW33199   3.764   4.025   0.807  0.0426  0.1690  0.0990
 7246SOL    HW133200   3.710   4.066   0.739 -2.3592 -0.3443  1.6848
 7246SOL    HW233201   3.769   4.098   0.869 -1.7800 -0.7184  1.2981
 7247SOL     OW33202   4.502   4.067   0.795  0.5054 -0.1161 -0.0739
 7247SOL    HW133203   4.509   3.982   0.751 -1.5362  0.8516 -2.2748
 7247SOL    HW233204   4.503   4.058   0.890  2.4667 -1.0590 -0.1830
 7248SOL     OW33205   4.068   4.606   8.865  0.4179  0.4509  0.7497
 7248SOL    HW133206   4.020   4.550   8.925  0.5259 -0.3192  0.1079
 7248SOL    HW233207   4.116   4.659   8.929  2.8731  1.2213 -1.6856
 7249SOL     OW33208   4.156   0.770  14.155 -0.1467 -0.3533 -0.0441
 7249SOL    HW133209   4.206   0.748  14.233 -1.4141  2.5050  1.5810
 7249SOL    HW233210   4.196   0.856  14.140 -0.7078  0.1554  1.3222
 7250SOL     OW33211   2.360   3.145  17.614 -0.0842  0.2123  0.0585
 7250SOL    HW133212   2.300   3.077  17.644 -1.1432  0.8574 -0.6081
 7250SOL    HW233213   2.332   3.230  17.648  1.0925  1.0257 -0.9825
 7251SOL     OW33214   4.266   1.227  15.646 -0.0488 -0.4270 -0.6841
 7251SOL    HW133215   4.356   1.194  15.647 -1.0247 -3.0692  2.1767
 7251SOL    HW233216   4.277   1.321  15.655 -0.7350 -0.7123  3.2582
 7252SOL     OW33217   0.029   1.480  12.704 -0.4749  0.2516  0.0281
 7252SOL    HW133218   0.043   1.535  12.627  0.6578  1.8011  1.3536
 7252SOL    HW233219   0.121   1.463  12.726 -1.0833  0.7479  2.8909
 7253SOL     OW33220   2.909   3.438  15.722  0.2484  0.2671  0.0292
 7253SOL    HW133221   2.916   3.359  15.668  0.9806  0.2679  0.1329
 7253SOL    HW233222   2.956   3.505  15.672 -1.1643  0.0056 -1.6410
 7254SOL     OW33223   0.711   1.368   6.159  0.1071  0.1764 -0.5608
 7254SOL    HW133224   0.761   1.407   6.088  1.6899 -2.7325 -1.0188
 7254SOL    HW233225   0.708   1.446   6.215 -0.7076  0.7452 -1.3996
 7255SOL     OW33226   4.178   2.855   4.111  0.0757  0.5376  0.4296
 7255SOL    HW133227   4.209   2.832   4.199 -1.7737 -1.8695  0.4391
 7255SOL    HW233228   4.244   2.906   4.064 -1.5077  1.3790 -0.8900
 7256SOL     OW33229   2.320   1.176   7.867  0.3244 -0.1088  0.0660
 7256SOL    HW133230   2.382   1.174   7.794  1.8624 -1.9625  1.4216
 7256SOL    HW233231   2.341   1.094   7.912 -0.8228  0.8522  2.3647
 7257SOL     OW33232   3.296   0.704  11.845 -0.0488  0.1426 -0.1789
 7257SOL    HW133233   3.278   0.793  11.873  2.1466  0.0460  1.5384
 7257SOL    HW233234   3.383   0.725  11.813 -0.2000 -1.0838 -1.3947
 7258SOL     OW33235   1.458   4.024   7.947 -0.1168 -0.6921 -0.4153
 7258SOL    HW133236   1.542   4.029   7.991 -0.1841  0.3334 -0.3933
 7258SOL    HW233237   1.418   3.947   7.989  1.1788 -1.4008 -0.4999
 7259SOL     OW33238   0.334   0.658   7.307  0.1846 -0.1282 -0.0591
 7259SOL    HW133239   0.245   0.644   7.339 -0.4214  1.5100 -0.9986
 7259SOL    HW233240   0.346   0.570   7.271  0.5594  0.5614 -1.6515
 7260SOL     OW33241   0.447   4.345   6.364 -0.5114 -0.7191  0.5666
 7260SOL    HW133242   0.497   4.421   6.335  0.0150 -1.2294  0.1381
 7260SOL    HW233243   0.514   4.288   6.401  0.1881  0.0894  0.5313
 7261SOL     OW33244   1.510   1.806  11.196 -0.6214  0.3657 -0.5270
 7261SOL    HW133245   1.456   1.884  11.208 -2.3362 -0.7708 -0.8306
 7261SOL    HW233246   1.438   1.749  11.167 -0.1252  0.1712 -1.3940
 7262SOL     OW33247   2.593   4.682   5.402  0.6016  0.1103  0.2189
 7262SOL    HW133248   2.501   4.699   5.418  0.3147  0.3059 -1.7163
 7262SOL    HW233249   2.603   4.610   5.465 -1.1111  0.5491  0.9856
 7263SOL     OW33250   2.121   2.563   7.344 -0.6733  0.3031  0.3562
 7263SOL    HW133251   2.157   2.642   7.385 -1.0293  1.2245 -1.0902
 7263SOL    HW233252   2.205   2.518   7.334  0.4620  2.8319 -1.6646
 7264SOL     OW33253   3.520   1.177   4.358  0.4326  0.0224  0.3036
 7264SOL    HW133254   3.526   1.248   4.422  2.2159 -0.9636  1.2171
 7264SOL    HW233255   3.424   1.175   4.356  0.4213 -1.0883  2.4812
 7265SOL     OW33256   4.024   2.943  10.476 -0.1914  0.1385  0.6163
 7265SOL    HW133257   4.037   3.023  10.528  2.2812 -0.6518  1.2072
 7265SOL    HW233258   4.025   2.972  10.385 -0.6726 -0.3027  0.4746
 7266SOL     OW33259   2.400   0.491  11.568 -0.7400 -0.3269 -0.1471
 7266SOL    HW133260   2.409   0.423  11.634  2.2490  1.3389  1.1794
 7266SOL    HW233261   2.465   0.451  11.510  1.5002  1.3522  1.1889
 7267SOL     OW33262   3.258   3.675   7.269  0.5645 -0.4055 -0.7661
 7267SOL    HW133263   3.319   3.712   7.205  1.6248  1.7689  1.5163
 7267SOL    HW233264   3.290   3.724   7.345 -2.1646 -0.4068  0.3957
 7268SOL     OW33265   2.083   2.419   5.996  0.7651 -0.3263  0.3066
 7268SOL    HW133266   2.142   2.431   6.070  1.1148  0.3765 -0.0769
 7268SOL    HW233267   2.117   2.342   5.951 -1.4617 -0.6063 -0.8635
 7269SOL     OW33268   0.823   3.017  12.324  0.0575 -0.1247 -0.2204
 7269SOL    HW133269   0.766   2.941  12.315  2.6427 -2.2461  1.5582
 7269SOL    HW233270   0.768   3.088  12.291 -0.7885 -0.9406 -0.5860
 7270SOL     OW33271   3.793   1.971  11.102 -0.1257 -0.1236 -0.8064
 7270SOL    HW133272   3.856   2.038  11.128 -1.4706  1.6231 -2.0150
 7270SOL    HW233273   3.714   2.014  11.133 -1.0233 -2.1742 -0.2887
 7271SOL     OW33274   1.862   0.105  11.972  0.0718 -0.7734  0.8162
 7271SOL    HW133275   1.840   0.015  11.951 -2.8985  0.1940 -0.2409
 7271SOL    HW233276   1.845   0.138  11.883 -1.1480 -1.6378  0.7365
 7272SOL     OW33277   1.619   1.993   8.999 -0.4413 -0.0462 -0.1442
 7272SOL    HW133278   1.553   2.052   9.035 -0.5267 -1.2807  1.7149
 7272SOL    HW233279   1.603   1.979   8.906  0.8996 -2.6890  0.0148
 7273SOL     OW33280   0.133   2.084   6.304 -0.3447 -0.1165 -0.0261
 7273SOL    HW133281   0.116   2.047   6.391 -1.6520  0.6298  0.0434
 7273SOL    HW233282   0.152   2.171   6.336 -1.2359  0.2041 -0.3589
 7274SOL     OW33283   2.455   1.244  10.952  0.3474  0.1781 -0.3027
 7274SOL    HW133284   2.469   1.262  10.859  1.0405 -1.6176 -0.5390
 7274SOL    HW233285   2.362   1.222  10.951  0.6174 -1.1099  2.3839
 7275SOL     OW33286   3.058   1.721   4.196  0.3959 -0.0926  0.1569
 7275SOL    HW133287   3.036   1.811   4.219  1.0562  0.2509 -0.5717
 7275SOL    HW233288   3.058   1.719   4.100  1.8732 -1.2792  0.1769
 7276SOL     OW33289   3.264   4.258   7.524  0.2876  0.2272 -0.1232
 7276SOL    HW133290   3.339   4.228   7.575 -0.0184  1.4169  1.0360
 7276SOL    HW233291   3.275   4.352   7.538  1.8261  0.0669 -0.3361
 7277SOL     OW33292   3.284   4.151   5.315  0.4514  0.1642  0.0436
 7277SOL    HW133293   3.346   4.184   5.250  1.0934  0.2625  0.6944
 7277SOL    HW233294   3.219   4.117   5.255 -0.6590 -1.3144  2.0886
 7278SOL     OW33295   4.567   2.260  15.610  0.2116  0.1120 -0.5335
 7278SOL    HW133296   4.659   2.280  15.599 -0.2491  1.6592 -1.5466
 7278SOL    HW233297   4.569   2.208  15.690  2.4183  0.3311 -0.4685
 7279SOL     OW33298   1.706   1.002   2.443  0.2636  0.3573  0.0102
 7279SOL    HW133299   1.742   0.915   2.424 -0.2371 -0.5599  3.1990
 7279SOL    HW233300   1.756   1.024   2.522 -0.8179 -0.9856  1.0796
 7280SOL     OW33301   3.435   4.071   0.629 -0.6271  0.0277 -0.1788
 7280SOL    HW133302   3.422   4.110   0.715 -2.5312 -0.4178 -0.2758
 7280SOL    HW233303   3.349   4.041   0.601 -0.0977 -1.7033  0.0511
 7281SOL     OW33304   4.144   3.587   5.993  0.1063  0.5546  0.0692
 7281SOL    HW133305   4.216   3.649   5.981 -0.1321  0.8381  0.0968
 7281SOL    HW233306   4.181   3.514   6.042  0.1155 -0.3022 -1.2070
 7282SOL     OW33307   3.666   2.496   9.655  0.6332 -0.1703 -0.1189
 7282SOL    HW133308   3.737   2.545   9.697  0.4357 -0.4585  0.5310
 7282SOL    HW233309   3.707   2.411   9.642 -0.2513 -0.9708  2.4592
 7283SOL     OW33310   1.298   3.929   6.888 -0.1426 -0.2906 -0.1675
 7283SOL    HW133311   1.218   3.980   6.901 -1.5304 -2.5251 -0.0018
 7283SOL    HW233312   1.361   3.980   6.940 -0.3068 -2.4908  2.2126
 7284SOL     OW33313   0.082   3.765  14.479  0.1027  0.0415  0.2187
 7284SOL    HW133314   0.102   3.738  14.389 -1.9994 -1.3271  0.1480
 7284SOL    HW233315   0.016   3.698  14.495  0.0402  0.2107  0.6647
 7285SOL     OW33316   0.575   1.015  13.040 -0.2170  0.4188  0.0735
 7285SOL    HW133317   0.519   1.027  12.963  0.0781 -0.7761 -0.3337
 7285SOL    HW233318   0.543   0.935  13.081 -0.1694 -0.6641 -1.9847
 7286SOL     OW33319   1.812   4.394   4.143 -0.3687 -0.3954 -0.0966
 7286SOL    HW133320   1.774   4.481   4.126 -1.6488 -0.6698  1.3777
 7286SOL    HW233321   1.875   4.403   4.071 -0.9555 -0.9194 -0.6702
 7287SOL     OW33322   3.518   1.318   2.759 -0.0336  0.3371  0.3612
 7287SOL    HW133323   3.517   1.371   2.838  0.6668 -2.3958  2.1895
 7287SOL    HW233324   3.550   1.389   2.702  0.0304  0.1264  0.1324
 7288SOL     OW33325   1.765   0.814   8.060  0.6256 -0.1380 -0.7092
 7288SOL    HW133326   1.703   0.750   8.023  1.9061 -1.0145 -1.3548
 7288SOL    HW233327   1.845   0.762   8.059  0.8718  0.2359  0.1013
 7289SOL     OW33328   2.011   3.115   1.473 -0.3612 -0.1038 -0.9838
 7289SOL    HW133329   2.081   3.057   1.444  0.2527  0.5656 -0.8388
 7289SOL    HW233330   1.947   3.104   1.404 -1.6096  1.3891 -0.0614
 7290SOL     OW33331   0.242   1.846   2.199 -0.1353  0.8475  0.6558
 7290SOL    HW133332   0.206   1.911   2.138 -1.9587 -1.4453 -0.7024
 7290SOL    HW233333   0.308   1.808   2.140 -2.5777 -0.4785 -1.2302
 7291SOL     OW33334   2.664   1.320  15.895 -0.2738 -0.5230 -0.0345
 7291SOL    HW133335   2.587   1.326  15.952  0.6655 -0.6179  1.2553
 7291SOL    HW233336   2.686   1.413  15.883  0.6230 -0.7129  0.1356
 7292SOL     OW33337   1.670   1.110  11.789 -0.0761  0.6746  0.2183
 7292SOL    HW133338   1.701   1.024  11.759 -1.0408  1.3123 -2.5455
 7292SOL    HW233339   1.757   1.149  11.794  0.5622 -0.6712 -0.2762
 7293SOL     OW33340   2.536   4.158   9.321 -0.0079 -0.8209  0.8787
 7293SOL    HW133341   2.563   4.164   9.229 -1.1025 -1.1847  0.5279
 7293SOL    HW233342   2.526   4.249   9.346 -0.7630 -0.4508 -0.7700
 7294SOL     OW33343   2.923   3.043  10.058  0.1126  0.0334  0.3775
 7294SOL    HW133344   2.906   3.020  10.149  1.0246  0.7755  0.7320
 7294SOL    HW233345   2.845   3.012  10.011  0.9542  0.2070 -1.1456
 7295SOL     OW33346   4.188   3.592   3.092 -0.0371  0.1473  0.3178
 7295SOL    HW133347   4.167   3.666   3.149 -0.4352  0.2693  0.0093
 7295SOL    HW233348   4.281   3.570   3.103  0.1300  0.9064  0.4161
 7296SOL     OW33349   1.865   2.072   9.269  0.1265 -0.4049 -1.0816
 7296SOL    HW133350   1.914   2.151   9.290 -0.2580 -0.8259  1.3203
 7296SOL    HW233351   1.836   2.030   9.350 -1.6695 -0.8008 -1.9233
 7297SOL     OW33352   2.992   0.066  10.485 -0.1914  0.1116  0.1428
 7297SOL    HW133353   3.059   0.037  10.424 -0.7214 -0.2117 -0.2909
 7297SOL    HW233354   3.051   0.058  10.560  0.2790  1.0778 -0.1268
 7298SOL     OW33355   3.851   4.131   8.072 -0.2922  0.7327  0.3116
 7298SOL    HW133356   3.923   4.185   8.039  1.6259 -0.3461  2.7676
 7298SOL    HW233357   3.776   4.180   8.038  0.9812  1.6124 -1.2612
 7299SOL     OW33358   1.407   0.918   4.743 -0.0356  0.0246 -0.2066
 7299SOL    HW133359   1.494   0.916   4.704  0.1452  0.9083  0.1505
 7299SOL    HW233360   1.411   0.962   4.828  0.0654  0.4658 -0.4400
 7300SOL     OW33361   2.379   0.901   8.004 -0.2450  0.2478 -0.4308
 7300SOL    HW133362   2.337   0.821   7.973  0.7674  0.1473 -1.5330
 7300SOL    HW233363   2.302   0.957   8.018 -1.5602 -1.4532 -0.9443
 7301SOL     OW33364   2.942   3.003   8.497  0.3910  0.3080 -0.4044
 7301SOL    HW133365   2.851   3.020   8.521  1.4245  2.5229  1.8873
 7301SOL    HW233366   2.965   3.059   8.422  3.3461 -0.7958 -0.2844
 7302SOL     OW33367   1.766   1.854  14.169 -0.5652  0.1524 -0.2084
 7302SOL    HW133368   1.780   1.792  14.241 -0.1683  1.8297  1.1667
 7302SOL    HW233369   1.854   1.868  14.136 -0.8963 -0.7280 -1.4699
 7303SOL     OW33370   3.513   4.027   8.467 -0.0270 -0.0032 -0.0840
 7303SOL    HW133371   3.605   4.038   8.492  0.0172 -1.2697  0.3306
 7303SOL    HW233372   3.494   3.935   8.487 -0.4752 -0.0575 -0.7453
 7304SOL     OW33373   1.825   3.866   9.223  0.3434  0.2753 -0.1026
 7304SOL    HW133374   1.776   3.826   9.294 -1.2167  2.3084 -0.0263
 7304SOL    HW233375   1.902   3.810   9.222  1.5596  1.9283  0.7430
 7305SOL     OW33376   0.943   1.548   9.491 -0.1545 -0.2525  0.2532
 7305SOL    HW133377   0.890   1.601   9.551  0.7355  0.6430  0.2491
 7305SOL    HW233378   0.973   1.620   9.435 -0.5889  0.3244  0.7562
 7306SOL     OW33379   3.657   2.648   2.754 -0.3229  0.1627  0.3895
 7306SOL    HW133380   3.706   2.707   2.696  0.1991 -0.5667  0.0788
 7306SOL    HW233381   3.595   2.606   2.694  1.9379  2.3796 -3.5659
 7307SOL     OW33382   1.304   4.578   3.822  0.2242  0.0764  0.1692
 7307SOL    HW133383   1.245   4.576   3.747 -0.2868  1.2414  0.5415
 7307SOL    HW233384   1.287   4.665   3.858  0.7164  0.4124 -0.4077
 7308SOL     OW33385   0.587   3.566   6.882  0.2325  0.3970 -0.2620
 7308SOL    HW133386   0.506   3.515   6.875  1.2054 -1.1133 -0.4721
 7308SOL    HW233387   0.589   3.586   6.976 -1.2646  0.4047 -0.2282
 7309SOL     OW33388   1.363   3.966   1.998 -0.4126 -0.3670  0.3312
 7309SOL    HW133389   1.442   3.916   1.978  1.5884  1.4113  3.8441
 7309SOL    HW233390   1.301   3.894   2.009  1.3501 -2.0606 -0.8464
 7310SOL     OW33391   1.991   0.220   2.484  0.7093 -0.2816  0.0225
 7310SOL    HW133392   2.065   0.193   2.430 -0.3658 -0.3397 -1.4150
 7310SOL    HW233393   1.922   0.240   2.420 -1.0944  0.7267  2.2684
 7311SOL     OW33394   3.437   2.559  10.594 -0.3161 -0.4669  0.4511
 7311SOL    HW133395   3.346   2.539  10.617 -0.3319 -0.4352  0.4154
 7311SOL    HW233396   3.461   2.477  10.550  4.8349  1.6275 -0.6755
 7312SOL     OW33397   2.881   4.484   3.679  0.2075  0.6829  0.0950
 7312SOL    HW133398   2.808   4.453   3.734 -0.1022 -1.0858 -1.3294
 7312SOL    HW233399   2.928   4.540   3.740  0.0134  2.2071 -1.1666
 7313SOL     OW33400   0.382   1.110   9.074  0.1189  0.0072 -0.0442
 7313SOL    HW133401   0.415   1.171   9.140  0.9415 -0.8436  0.3159
 7313SOL    HW233402   0.445   1.125   9.003 -1.1846 -0.2022 -1.2551
 7314SOL     OW33403   3.559   0.345   1.686 -0.7951 -0.0979 -0.1622
 7314SOL    HW133404   3.570   0.270   1.628  2.3957  1.7968 -2.0418
 7314SOL    HW233405   3.647   0.341   1.725 -0.3744  1.6676 -0.9466
 7315SOL     OW33406   2.160   0.915   2.465 -0.0315  0.8159  0.1275
 7315SOL    HW133407   2.111   0.850   2.515  0.5886 -1.0264 -1.6631
 7315SOL    HW233408   2.159   0.987   2.528 -2.2374 -0.6097  1.7166
 7316SOL     OW33409   2.525   1.527  15.470 -0.2142 -0.9141 -0.0569
 7316SOL    HW133410   2.456   1.507  15.533  0.0415  2.7540  1.4340
 7316SOL    HW233411   2.567   1.441  15.460 -1.6967 -1.8948  2.0704
 7317SOL     OW33412   1.956   2.812   2.175  0.7462  0.2376  0.0090
 7317SOL    HW133413   2.018   2.848   2.111  1.1926  0.0924  0.3639
 7317SOL    HW233414   1.894   2.884   2.185  0.2068  0.0761 -2.0900
 7318SOL     OW33415   1.795   2.046   2.758  0.0781 -0.3838 -0.5220
 7318SOL    HW133416   1.830   2.135   2.751  2.6003 -1.4424 -1.1361
 7318SOL    HW233417   1.724   2.053   2.695 -0.3485 -1.7815 -0.2024
 7319SOL     OW33418   2.025   0.177   0.483  0.7407  0.7102  0.2799
 7319SOL    HW133419   1.986   0.252   0.529 -1.3771 -0.5893  0.5750
 7319SOL    HW233420   2.117   0.204   0.477  0.8812  0.7557  2.8139
 7320SOL     OW33421   3.352   2.409   0.606  0.7225  0.0690 -0.2818
 7320SOL    HW133422   3.280   2.412   0.668 -0.4426  0.9318 -1.6775
 7320SOL    HW233423   3.369   2.503   0.612 -1.3355  0.3653  0.7846
 7321SOL     OW33424   1.472   2.600   4.176  0.1207 -0.2164 -0.1247
 7321SOL    HW133425   1.484   2.652   4.256 -1.1809  0.1718 -0.1813
 7321SOL    HW233426   1.528   2.637   4.108  1.3866  0.5230  1.3044
 7322SOL     OW33427   0.250   0.793  13.027  0.4685  0.1722  0.0430
 7322SOL    HW133428   0.272   0.708  13.064 -1.4128  0.1441  1.0997
 7322SOL    HW233429   0.250   0.843  13.109  0.3382 -0.1601  0.2449
 7323SOL     OW33430   3.935   3.859  13.349  0.0903  0.1871 -0.1887
 7323SOL    HW133431   3.894   3.937  13.385 -1.7596 -0.4380 -0.9645
 7323SOL    HW233432   4.010   3.849  13.408  0.4804 -2.4731 -1.1463
 7324SOL     OW33433   4.539   3.815   7.438 -0.0097  0.2397 -0.7592
 7324SOL    HW133434   4.536   3.769   7.354  0.7565 -1.4115  0.1123
 7324SOL    HW233435   4.446   3.815   7.459  0.6211 -1.3594  2.0350
 7325SOL     OW33436   1.692   4.622   2.673 -0.3138 -0.0189 -0.3347
 7325SOL    HW133437   1.769   4.565   2.682  0.4507  0.8611 -1.3748
 7325SOL    HW233438   1.641   4.559   2.622 -1.6260  1.3353 -0.6772
 7326SOL     OW33439   0.406   4.370  15.986  0.0527  0.0987 -0.0706
 7326SOL    HW133440   0.376   4.387  16.075 -0.8384  0.8587 -0.5205
 7326SOL    HW233441   0.460   4.291  15.994  0.0033  0.5295  4.4360
 7327SOL     OW33442   0.676   4.149   1.605  0.0796 -0.2783 -0.2031
 7327SOL    HW133443   0.748   4.209   1.626  0.9012 -1.3168 -0.0615
 7327SOL    HW233444   0.719   4.086   1.548 -1.4624 -0.0039 -1.6906
 7328SOL     OW33445   1.938   0.493   9.045 -0.1784  0.3536 -0.2272
 7328SOL    HW133446   2.011   0.456   8.995  2.9025  2.5209  2.6534
 7328SOL    HW233447   1.974   0.582   9.045 -1.0922  0.7189 -0.8019
 7329SOL     OW33448   2.315   4.069   4.783 -0.5260 -0.0802  0.3256
 7329SOL    HW133449   2.271   4.040   4.862  0.0199 -0.3537  0.5314
 7329SOL    HW233450   2.398   4.026   4.806  0.2776  0.0054 -2.3790
 7330SOL     OW33451   4.202   4.606   6.406 -0.4387  0.1057  0.1003
 7330SOL    HW133452   4.258   4.532   6.381  0.4025  0.6282  0.4698
 7330SOL    HW233453   4.208   4.666   6.332 -2.0135 -1.5179 -1.3613
 7331SOL     OW33454   1.638   1.209   9.638 -0.7158  0.4696  0.0196
 7331SOL    HW133455   1.726   1.222   9.676 -1.1520 -1.4243  1.6999
 7331SOL    HW233456   1.611   1.143   9.702 -1.2124  1.0297  0.3825
 7332SOL     OW33457   0.378   2.662   4.258 -0.1217  0.5460  0.3370
 7332SOL    HW133458   0.368   2.607   4.336  0.2575  2.0247  1.4382
 7332SOL    HW233459   0.441   2.728   4.287  0.2766  0.8349 -1.2015
 7333SOL     OW33460   2.020   0.703  11.689  0.5769  0.1755  0.5790
 7333SOL    HW133461   2.108   0.703  11.651  0.0864  0.6011 -0.5713
 7333SOL    HW233462   2.034   0.619  11.732 -1.7454  0.1495  1.2864
 7334SOL     OW33463   1.878   4.682   0.533  0.0993  0.2955  0.3206
 7334SOL    HW133464   1.948   0.016   0.500 -0.5520  0.4834 -0.7251
 7334SOL    HW233465   1.910   4.596   0.505 -0.4402 -0.0350  0.7207
 7335SOL     OW33466   0.266   3.326   4.855  0.2080  0.3755  0.1887
 7335SOL    HW133467   0.176   3.326   4.886 -0.7478  0.6729 -2.6459
 7335SOL    HW233468   0.263   3.384   4.779  1.6687 -0.5099 -0.5491
 7336SOL     OW33469   4.435   4.705   8.821 -0.1663  0.1135 -0.1436
 7336SOL    HW133470   4.396   4.639   8.878  1.7714 -0.9937 -0.1185
 7336SOL    HW233471   4.493   0.017   8.888 -0.8002  0.8727 -0.0044
 7337SOL     OW33472   4.206   2.605   6.427 -0.0627 -0.1546 -0.5230
 7337SOL    HW133473   4.227   2.626   6.518 -0.7753 -0.4788 -0.2915
 7337SOL    HW233474   4.294   2.576   6.402  0.0538 -1.4362  1.4192
 7338SOL     OW33475   2.968   3.856   7.959 -0.1815  0.3169 -0.7046
 7338SOL    HW133476   3.046   3.839   7.907 -0.5010 -1.7418 -0.5298
 7338SOL    HW233477   2.948   3.948   7.941  0.7706  0.6998  0.2463
 7339SOL     OW33478   4.161   1.723   5.954  0.5686 -0.2893 -0.3423
 7339SOL    HW133479   4.162   1.684   6.042  0.8399  0.2895 -0.0898
 7339SOL    HW233480   4.199   1.811   5.961  1.2790 -0.5235 -1.2269
 7340SOL     OW33481   3.976   1.768  11.049 -0.1669  0.2363  0.5648
 7340SOL    HW133482   3.909   1.827  11.084  0.8806  0.5097  2.0966
 7340SOL    HW233483   3.954   1.687  11.095  1.6713  1.0831  2.9093
 7341SOL     OW33484   1.593   1.432   7.314  0.2757  0.2444  0.3261
 7341SOL    HW133485   1.630   1.379   7.243  0.4371 -0.2233  0.7595
 7341SOL    HW233486   1.646   1.403   7.388  1.6623 -0.6338 -0.9849
 7342SOL     OW33487   0.692   1.103   5.369 -0.3368  0.9089 -0.0536
 7342SOL    HW133488   0.760   1.112   5.302  0.0553 -0.3040  0.1868
 7342SOL    HW233489   0.667   1.195   5.371 -1.4104  0.6107  0.1765
 7343SOL     OW33490   2.511   3.888   0.757 -0.4868 -0.0106 -0.4253
 7343SOL    HW133491   2.486   3.796   0.766  0.6222 -0.4212 -1.5360
 7343SOL    HW233492   2.451   3.911   0.687 -1.3405 -0.4645  0.1583
 7344SOL     OW33493   3.426   0.455   9.240 -0.1858  0.0512  0.1646
 7344SOL    HW133494   3.341   0.484   9.272 -0.2374 -2.9671  2.8023
 7344SOL    HW233495   3.424   0.359   9.241 -3.9382  0.1331 -0.4827
 7345SOL     OW33496   4.280   2.942   8.648 -0.7662  0.3953 -0.2996
 7345SOL    HW133497   4.258   2.859   8.689  0.4423  0.3639  0.2983
 7345SOL    HW233498   4.314   2.993   8.722  2.0850 -2.1062  0.1190
 7346SOL     OW33499   0.851   2.958   6.054  1.1601 -0.2677 -0.1559
 7346SOL    HW133500   0.881   3.045   6.026 -0.1462 -0.1968 -1.2965
 7346SOL    HW233501   0.811   2.926   5.974  1.9909  1.4114 -1.2533
 7347SOL     OW33502   2.387   0.094   7.204 -0.4903 -0.2491 -0.2123
 7347SOL    HW133503   2.475   0.063   7.184 -0.3145 -0.0145  0.1967
 7347SOL    HW233504   2.341   0.011   7.189 -1.0308  0.1899 -1.0568
 7348SOL     OW33505   1.533   1.603   7.693 -0.4169 -0.0552 -0.4725
 7348SOL    HW133506   1.469   1.605   7.764 -1.3726  2.4766 -1.4038
 7348SOL    HW233507   1.482   1.620   7.613 -1.2685  2.0248  0.5014
 7349SOL     OW33508   0.052   3.772   3.420 -0.0187 -0.1924 -0.5451
 7349SOL    HW133509   0.097   3.788   3.502 -2.0431  0.7630  0.3776
 7349SOL    HW233510   4.686   3.786   3.451  1.0120  0.9710  1.8816
 7350SOL     OW33511   4.681   4.056   2.918  0.0734 -0.2191  0.4540
 7350SOL    HW133512   4.663   4.144   2.953  2.6740 -0.8662  3.3861
 7350SOL    HW233513   4.611   4.055   2.852 -0.4372  0.9258  0.9684
 7351SOL     OW33514   1.761   1.428  10.554  0.1108  0.3086  0.6541
 7351SOL    HW133515   1.719   1.353  10.510 -1.8943  2.1271 -0.5781
 7351SOL    HW233516   1.763   1.393  10.643 -3.1591 -0.1666  0.5457
 7352SOL     OW33517   2.540   4.562  11.245 -0.3851  0.2587 -0.0064
 7352SOL    HW133518   2.487   4.552  11.165 -0.6744 -2.0160  0.4566
 7352SOL    HW233519   2.627   4.532  11.220 -0.5847 -0.3819  0.0517
 7353SOL     OW33520   2.561   1.493   6.851  0.2694 -0.6101 -0.2388
 7353SOL    HW133521   2.594   1.531   6.770  2.0281  0.2273  0.8768
 7353SOL    HW233522   2.611   1.544   6.914 -1.0762 -1.3749  1.4590
 7354SOL     OW33523   2.124   3.378  10.120  0.0242  0.0038  0.4048
 7354SOL    HW133524   2.211   3.390  10.081  0.7659  0.0778  2.1019
 7354SOL    HW233525   2.149   3.369  10.212 -0.2975  2.1954  0.7055
 7355SOL     OW33526   4.573   3.512  17.392 -0.6013 -0.6747 -0.2306
 7355SOL    HW133527   4.505   3.470  17.444 -0.7298  0.2977  0.3830
 7355SOL    HW233528   4.535   3.515  17.304 -0.2753 -1.5244 -0.3964
 7356SOL     OW33529   0.944   0.466   4.151  0.2064 -0.0302 -0.1984
 7356SOL    HW133530   0.886   0.443   4.079  0.0940  0.1672 -0.1712
 7356SOL    HW233531   0.987   0.384   4.174  1.1764  0.5044 -0.0800
 7357SOL     OW33532   2.507   2.184   0.119 -0.0118  0.1574 -0.5012
 7357SOL    HW133533   2.577   2.119   0.121 -0.7512 -0.7359 -3.5381
 7357SOL    HW233534   2.524   2.243   0.192 -0.7078  0.8006 -0.8577
 7358SOL     OW33535   4.340   2.544  16.391  0.0573  0.0440  0.3538
 7358SOL    HW133536   4.251   2.568  16.414 -0.3519  0.8892 -2.1341
 7358SOL    HW233537   4.380   2.631  16.384  1.5313 -0.7582 -1.3529
 7359SOL     OW33538   4.396   2.010   4.365 -0.6341 -0.0962  0.3093
 7359SOL    HW133539   4.360   1.978   4.283  2.1381  0.0892 -0.9697
 7359SOL    HW233540   4.355   2.096   4.377  0.2295 -0.0385  2.7997
 7360SOL     OW33541   2.656   4.596   5.928 -0.0136 -0.1760  0.0376
 7360SOL    HW133542   2.681   4.612   5.837  2.5032  1.1724  1.0036
 7360SOL    HW233543   2.726   4.645   5.970 -0.1944 -0.6178  0.8632
 7361SOL     OW33544   3.496   2.038  13.471  0.2149 -0.0313 -0.2322
 7361SOL    HW133545   3.556   1.990  13.527  0.0393 -0.7368 -0.6542
 7361SOL    HW233546   3.462   2.098  13.538  1.5670  0.2550  0.1888
 7362SOL     OW33547   2.806   1.122  10.186  0.6318  0.4007  0.0876
 7362SOL    HW133548   2.809   1.035  10.227 -0.5805 -0.6213 -2.0038
 7362SOL    HW233549   2.896   1.132  10.156 -0.2618  0.8928 -2.4381
 7363SOL     OW33550   2.229   1.778   9.756 -0.2061  0.1537 -1.0056
 7363SOL    HW133551   2.219   1.869   9.727  1.1491 -0.3049 -2.8817
 7363SOL    HW233552   2.139   1.751   9.737 -0.4021 -0.4702  0.8269
 7364SOL     OW33553   3.098   2.969   2.236 -0.0780  0.0971  0.0449
 7364SOL    HW133554   3.167   2.910   2.266 -1.1963 -1.0446  0.4160
 7364SOL    HW233555   3.132   3.051   2.271 -0.9519  0.1969  0.6822
 7365SOL     OW33556   2.410   4.034   4.520  0.2894 -0.1867 -0.1780
 7365SOL    HW133557   2.351   4.054   4.593  0.4465 -1.5813  0.3530
 7365SOL    HW233558   2.401   4.115   4.471 -0.7653 -0.0167  0.3008
 7366SOL     OW33559   3.991   1.819   1.422 -0.1979  0.1006 -0.6241
 7366SOL    HW133560   3.923   1.752   1.412  0.0435 -0.0882 -1.0125
 7366SOL    HW233561   4.051   1.803   1.349  0.1228 -1.7042  0.0290
 7367SOL     OW33562   3.976   2.906   7.319 -0.1693  0.0380 -0.2479
 7367SOL    HW133563   3.925   2.853   7.258 -1.0233  1.0517 -0.4101
 7367SOL    HW233564   3.970   2.995   7.286  0.4008  0.1484 -0.0530
 7368SOL     OW33565   4.062   1.874   5.040 -0.0184 -0.0961  0.3254
 7368SOL    HW133566   4.069   1.885   5.135  0.6392  1.4278  0.0926
 7368SOL    HW233567   4.153   1.885   5.013 -0.2740  0.9969 -0.0824
 7369SOL     OW33568   4.079   3.313  16.061 -0.8825 -0.3054 -0.2306
 7369SOL    HW133569   4.174   3.303  16.063 -1.0102 -1.2312  1.6343
 7369SOL    HW233570   4.050   3.287  16.148  2.4030  0.4782  1.0940
 7370SOL     OW33571   2.467   3.347  10.061  0.0389 -0.2997 -0.1188
 7370SOL    HW133572   2.553   3.330  10.099 -0.4972  0.9643  1.6311
 7370SOL    HW233573   2.463   3.273  10.000 -1.0595 -1.7932  1.7753
 7371SOL     OW33574   4.204   1.035  14.008  0.2078  0.0256 -0.2018
 7371SOL    HW133575   4.126   1.074  13.970  1.1783  2.4143  0.2867
 7371SOL    HW233576   4.224   1.091  14.083  0.6108 -2.0925  1.2832
 7372SOL     OW33577   4.691   0.356  16.589 -0.6551  0.0202 -0.0839
 7372SOL    HW133578   4.635   0.325  16.661 -0.8644  0.7080  0.0490
 7372SOL    HW233579   4.696   0.284  16.527 -2.1864 -0.6195  0.5168
 7373SOL     OW33580   3.443   4.240  16.564  0.0996  0.1209 -0.1269
 7373SOL    HW133581   3.492   4.293  16.501 -0.0539  3.5504  2.6570
 7373SOL    HW233582   3.401   4.174  16.508  1.9913  0.4817 -1.9826
 7374SOL     OW33583   1.475   1.633  14.664  0.1202  0.8084  0.1822
 7374SOL    HW133584   1.543   1.606  14.725 -0.3151  1.8729  1.1529
 7374SOL    HW233585   1.507   1.717  14.631 -0.2681  0.9715  0.2214
 7375SOL     OW33586   1.121   0.167  12.494 -0.2735  0.1796 -0.3708
 7375SOL    HW133587   1.055   0.215  12.544  0.0264  0.0666  0.1381
 7375SOL    HW233588   1.203   0.209  12.522  0.4503 -1.8220  0.5485
 7376SOL     OW33589   0.954   3.226   2.759 -0.1610 -0.6938 -0.3868
 7376SOL    HW133590   0.968   3.319   2.744  0.2316 -0.8852 -1.2133
 7376SOL    HW233591   0.984   3.191   2.675 -0.0095  0.4080 -0.7836
 7377SOL     OW33592   3.332   4.455   3.512  0.4896 -0.0524  0.4419
 7377SOL    HW133593   3.332   4.545   3.481  2.2154 -0.2196 -0.0662
 7377SOL    HW233594   3.259   4.414   3.466 -0.1706  3.6123 -1.7748
 7378SOL     OW33595   0.190   4.388   5.965  0.5176  0.0002  0.3279
 7378SOL    HW133596   0.149   4.304   5.948 -0.1112  0.3330  0.2032
 7378SOL    HW233597   0.269   4.382   5.911  0.4883 -4.4367  0.8332
 7379SOL     OW33598   0.169   3.974   9.742  0.3081  0.1268  0.3061
 7379SOL    HW133599   0.188   3.884   9.768  0.3656 -0.0500 -0.3402
 7379SOL    HW233600   0.172   4.017   9.827  0.1220  1.2352 -0.2577
 7380SOL     OW33601   4.315   0.067   0.971  0.1064 -0.7438 -0.1878
 7380SOL    HW133602   4.323   0.108   1.057 -0.8876  1.4775 -1.1375
 7380SOL    HW233603   4.377   4.719   0.967 -0.2488 -1.1835  2.4698
 7381SOL     OW33604   2.756   2.272  10.536 -0.1782 -0.2188 -0.0687
 7381SOL    HW133605   2.723   2.184  10.517  0.6559 -0.2201 -1.4785
 7381SOL    HW233606   2.832   2.247  10.589  0.4296 -1.9524 -1.7801
 7382SOL     OW33607   2.732   0.431   5.549 -0.7579 -0.1431  0.1770
 7382SOL    HW133608   2.821   0.431   5.583 -2.0857 -4.0939  3.6306
 7382SOL    HW233609   2.730   0.366   5.479  0.1246  0.2413 -0.2072
 7383SOL     OW33610   0.727   3.574   8.871 -0.3511  0.3520 -0.1600
 7383SOL    HW133611   0.697   3.544   8.957  2.8042  1.3778  1.3204
 7383SOL    HW233612   0.642   3.578   8.827  0.4963 -3.0744 -2.0834
 7384SOL     OW33613   1.985   3.205   6.440  0.4276 -0.1144 -0.4663
 7384SOL    HW133614   1.891   3.210   6.423  0.3420  0.2360  0.1078
 7384SOL    HW233615   1.983   3.199   6.535 -0.9121 -2.0224 -0.6303
 7385SOL     OW33616   0.708   1.595  10.976 -0.2788  0.2226 -0.0248
 7385SOL    HW133617   0.685   1.635  11.060  0.5748  1.1314 -0.2282
 7385SOL    HW233618   0.705   1.664  10.909  1.0272 -0.7737 -1.0833
 7386SOL     OW33619   4.670   0.414  13.490  0.3421 -0.1289  0.0177
 7386SOL    HW133620   4.623   0.332  13.505 -0.7321  0.2215 -1.4612
 7386SOL    HW233621   4.601   0.478  13.474 -1.0386 -1.5811  0.1748
 7387SOL     OW33622   0.472   2.286   2.505 -0.2359 -0.3069 -0.2854
 7387SOL    HW133623   0.445   2.353   2.442  0.2889  0.6677  0.5326
 7387SOL    HW233624   0.564   2.312   2.517 -0.5137  0.8597 -0.6931
 7388SOL     OW33625   0.718   0.899   7.876  0.0274 -0.4448  0.4282
 7388SOL    HW133626   0.660   0.965   7.839  0.1117 -0.6686 -0.1036
 7388SOL    HW233627   0.806   0.925   7.848 -1.1014  3.8505  0.8815
 7389SOL     OW33628   4.266   1.562   1.135 -0.3892  0.1692 -0.0599
 7389SOL    HW133629   4.177   1.528   1.131  0.2761 -1.7685  1.7916
 7389SOL    HW233630   4.318   1.485   1.111  0.6490  0.8836 -0.0980
 7390SOL     OW33631   0.753   0.782   7.256  0.1827 -0.1884 -0.6939
 7390SOL    HW133632   0.691   0.825   7.198  0.9744  1.9266  0.0412
 7390SOL    HW233633   0.785   0.858   7.304 -1.6782  1.7119 -2.5125
 7391SOL     OW33634   0.028   2.217   7.726 -0.5784  0.5233 -0.7390
 7391SOL    HW133635   0.012   2.247   7.816 -1.3780 -0.4074 -0.5827
 7391SOL    HW233636   0.123   2.232   7.727 -0.3208 -1.1834 -0.3300
 7392SOL     OW33637   2.044   2.220   6.983  0.4675  0.0349  0.2444
 7392SOL    HW133638   1.979   2.208   7.053  0.3695  2.3362  0.5529
 7392SOL    HW233639   2.016   2.155   6.919 -2.2225 -1.1558  2.6007
 7393SOL     OW33640   0.304   4.031   7.009  0.5627  0.6906 -0.1978
 7393SOL    HW133641   0.209   4.016   7.012  0.7312 -0.4065 -0.2100
 7393SOL    HW233642   0.321   4.076   6.927  1.1445 -1.0514 -1.0442
 7394SOL     OW33643   0.949   0.443   5.888 -0.0797  0.7059  0.3082
 7394SOL    HW133644   0.994   0.383   5.948 -2.1257  0.9166  2.0644
 7394SOL    HW233645   0.965   0.529   5.926  1.9671  0.4407  0.0063
 7395SOL     OW33646   3.940   0.238  17.141  0.2058  0.1483  0.3445
 7395SOL    HW133647   3.864   0.182  17.151  1.3268 -1.4258  0.0062
 7395SOL    HW233648   3.904   0.317  17.101  1.8764 -0.0598 -1.5527
 7396SOL     OW33649   1.157   3.936  10.883 -0.0811  0.0154  0.5830
 7396SOL    HW133650   1.199   3.854  10.857 -3.3499 -1.0973 -1.1489
 7396SOL    HW233651   1.144   3.901  10.971 -0.0253 -1.2420  0.0975
 7397SOL     OW33652   4.161   2.381  12.584 -0.0316 -0.4095  0.7708
 7397SOL    HW133653   4.229   2.431  12.627  0.5543 -0.9756  0.4993
 7397SOL    HW233654   4.208   2.368  12.501  0.7900  2.0764  0.8624
 7398SOL     OW33655   2.770   3.274   6.278  0.1983  0.8276  0.3563
 7398SOL    HW133656   2.860   3.261   6.306  0.4621 -0.2599 -0.9961
 7398SOL    HW233657   2.727   3.203   6.325  0.1350  1.0547  0.6392
 7399SOL     OW33658   3.500   0.376   7.510 -1.1095 -0.0329  0.1089
 7399SOL    HW133659   3.446   0.430   7.569 -3.0095  0.7169 -2.3138
 7399SOL    HW233660   3.576   0.433   7.504 -0.2318 -1.3673 -1.4282
 7400SOL     OW33661   2.660   2.069  12.472 -0.1924 -0.0925  0.0074
 7400SOL    HW133662   2.724   2.081  12.543 -0.8783 -1.2640  0.8195
 7400SOL    HW233663   2.691   2.130  12.406  0.4412 -0.4304 -0.0110
 7401SOL     OW33664   3.848   1.440  15.522 -0.1589 -0.5151  0.5790
 7401SOL    HW133665   3.816   1.367  15.574 -0.5902 -0.0238  1.0081
 7401SOL    HW233666   3.774   1.498  15.503 -1.0713 -1.7950  0.2727
 7402SOL     OW33667   1.232   1.444   5.805 -0.5652 -0.3902 -0.2505
 7402SOL    HW133668   1.247   1.461   5.712  0.6828 -1.8529 -0.3095
 7402SOL    HW233669   1.318   1.445   5.845 -0.2461  0.3685 -0.9520
 7403SOL     OW33670   0.087   3.917   0.880  0.0627 -0.1242  0.3736
 7403SOL    HW133671   0.080   3.859   0.956  1.4773 -1.8165 -0.7745
 7403SOL    HW233672   0.176   3.950   0.895 -0.3286  1.5596 -1.0840
 7404SOL     OW33673   1.980   2.932   3.132  0.4921 -0.8762 -0.3263
 7404SOL    HW133674   1.967   3.005   3.071  0.2493 -1.9567 -1.5732
 7404SOL    HW233675   2.058   2.953   3.184 -0.3255  0.1826  0.4785
 7405SOL     OW33676   2.521   1.202  13.454 -0.1110  0.2167 -0.0646
 7405SOL    HW133677   2.567   1.205  13.370  1.8272  1.4427  1.0558
 7405SOL    HW233678   2.448   1.144  13.433  0.3687 -1.0186  1.6137
 7406SOL     OW33679   4.008   2.579   2.348  0.1971 -0.2112 -0.3136
 7406SOL    HW133680   4.057   2.573   2.265 -0.0529  0.4224 -0.5105
 7406SOL    HW233681   4.027   2.497   2.392  0.6035  0.1188  0.1212
 7407SOL     OW33682   1.577   3.875   5.665 -0.3352  0.1545 -0.1277
 7407SOL    HW133683   1.566   3.947   5.602  0.1053 -1.4630 -2.0674
 7407SOL    HW233684   1.642   3.822   5.619  1.1154  1.7821  0.0380
 7408SOL     OW33685   0.598   0.239  10.032  0.1959 -0.4446 -0.2357
 7408SOL    HW133686   0.625   0.277  10.116  2.2886 -0.2044 -1.0072
 7408SOL    HW233687   0.540   0.304   9.993 -0.3292 -2.1459 -2.2684
 7409SOL     OW33688   2.524   0.422   4.523  0.0881  0.1910 -0.4025
 7409SOL    HW133689   2.500   0.400   4.433 -0.7945 -2.2716  0.4219
 7409SOL    HW233690   2.438   0.444   4.560  0.5729  0.1026  0.7723
 7410SOL     OW33691   1.406   3.829  16.556 -0.3022 -0.3605  0.1953
 7410SOL    HW133692   1.317   3.865  16.560 -0.4567 -0.6349 -0.7562
 7410SOL    HW233693   1.397   3.736  16.578 -0.3944 -0.4165 -0.0900
 7411SOL     OW33694   4.330   3.246   5.290 -0.1715  0.4116 -0.4393
 7411SOL    HW133695   4.237   3.224   5.281 -0.0389 -0.5340  0.4851
 7411SOL    HW233696   4.335   3.304   5.214  3.2845 -0.4265 -0.8529
 7412SOL     OW33697   1.308   1.477   5.547 -0.2448 -0.2585  0.2467
 7412SOL    HW133698   1.316   1.554   5.492  2.7690 -0.4161  0.4700
 7412SOL    HW233699   1.358   1.412   5.499 -0.8258  0.3997 -1.2344
 7413SOL     OW33700   4.001   2.904   7.594  0.0018 -0.1538 -0.4584
 7413SOL    HW133701   4.038   2.829   7.641  0.1905  0.4845  0.4116
 7413SOL    HW233702   4.005   2.871   7.504 -1.6615 -3.5181  0.6908
 7414SOL     OW33703   0.833   0.423  13.655  0.5617 -0.0331  0.5527
 7414SOL    HW133704   0.854   0.513  13.679 -0.2328  0.1008  0.7705
 7414SOL    HW233705   0.864   0.380  13.735  0.3430 -3.2755 -1.0788
 7415SOL     OW33706   2.283   2.288   9.537 -0.5346 -0.3043  1.0608
 7415SOL    HW133707   2.330   2.360   9.578 -0.0825  0.6828 -1.2461
 7415SOL    HW233708   2.196   2.319   9.510  0.3519 -1.0743 -2.6513
 7416SOL     OW33709   2.993   3.915   3.596 -0.5855  0.4380 -0.6263
 7416SOL    HW133710   3.087   3.924   3.611 -0.9733  0.3580  1.9078
 7416SOL    HW233711   2.972   3.987   3.537  1.2163  2.4786  1.2446
 7417SOL     OW33712   0.045   0.992   3.687 -0.1415  0.0213 -0.5705
 7417SOL    HW133713   0.001   0.964   3.767  0.8489 -0.1680 -0.1057
 7417SOL    HW233714   0.129   0.946   3.691 -1.8097 -3.2171 -2.7087
 7418SOL     OW33715   3.651   3.454  17.130  0.0530 -0.0416 -0.1761
 7418SOL    HW133716   3.685   3.543  17.142  0.0577 -0.1450  0.5611
 7418SOL    HW233717   3.603   3.438  17.211  0.1611  0.6288  0.0211
 7419SOL     OW33718   1.288   1.543   9.527  0.2627 -0.2554  0.1699
 7419SOL    HW133719   1.315   1.485   9.457  3.0489  0.1159  0.9577
 7419SOL    HW233720   1.279   1.617   9.466  0.2794  1.8474  2.6800
 7420SOL     OW33721   4.714   1.729  17.484  0.0145  0.5385  0.1366
 7420SOL    HW133722   4.664   1.748  17.405  0.3063 -1.6526 -0.5764
 7420SOL    HW233723   0.061   1.792  17.469 -0.9897  2.2056  2.4090
 7421SOL     OW33724   0.149   4.061   3.878  0.1265  0.3495 -0.2094
 7421SOL    HW133725   0.086   3.998   3.844  0.5484 -0.7843  1.1095
 7421SOL    HW233726   0.086   4.126   3.908  1.1618  1.1832  0.1542
 7422SOL     OW33727   0.927   1.349   4.556 -0.0875  0.1045 -0.4071
 7422SOL    HW133728   0.970   1.434   4.567  0.7396 -0.5631  1.5320
 7422SOL    HW233729   0.928   1.309   4.642  2.1051 -2.0320 -1.4399
 7423SOL     OW33730   0.261   2.630   1.346 -0.2662 -0.1761  0.1825
 7423SOL    HW133731   0.253   2.565   1.417  2.6665  0.0407  0.7249
 7423SOL    HW233732   0.178   2.676   1.357  0.1160  0.9241 -1.5732
 7424SOL     OW33733   1.310   2.834  12.352 -0.2916 -0.7067  0.2824
 7424SOL    HW133734   1.218   2.857  12.334 -0.2888 -0.6361  0.3613
 7424SOL    HW233735   1.297   2.771  12.423  0.3453 -1.9537 -0.7096
 7425SOL     OW33736   3.506   2.702   7.462  0.4267  0.4234  0.1444
 7425SOL    HW133737   3.435   2.662   7.513 -1.2775  0.8496 -1.9024
 7425SOL    HW233738   3.520   2.788   7.500 -0.4794  0.6084  0.0610
 7426SOL     OW33739   3.267   2.479   7.099 -0.2115 -0.2307 -0.1964
 7426SOL    HW133740   3.322   2.545   7.142  1.9143 -1.7243 -0.5853
 7426SOL    HW233741   3.287   2.498   7.007 -1.1506 -1.0731 -0.5744
 7427SOL     OW33742   3.917   1.923  15.030 -0.4275 -0.0499 -0.6524
 7427SOL    HW133743   4.007   1.890  15.027 -0.9290 -1.5277  0.9383
 7427SOL    HW233744   3.869   1.899  14.951  2.6425 -0.6691 -2.3622
 7428SOL     OW33745   1.839   4.070   8.390  0.7771  1.0106  0.0022
 7428SOL    HW133746   1.893   4.123   8.449  1.7692  0.6813 -0.6203
 7428SOL    HW233747   1.899   4.009   8.349  0.4463 -1.5106  3.2425
 7429SOL     OW33748   4.477   3.646   6.273 -0.3396 -0.0456 -0.0555
 7429SOL    HW133749   4.567   3.612   6.277  0.6330  2.5033 -0.2685
 7429SOL    HW233750   4.430   3.563   6.277 -2.9161  1.3390 -2.2104
 7430SOL     OW33751   0.368   3.132   8.563  0.4672 -0.2369  0.5516
 7430SOL    HW133752   0.386   3.177   8.646  0.2167  0.2785  0.3311
 7430SOL    HW233753   0.445   3.077   8.548  0.1674  0.4056 -3.2991
 7431SOL     OW33754   2.804   0.731  17.437 -0.8905 -0.1337 -0.0750
 7431SOL    HW133755   2.808   0.751  17.530 -0.3380 -1.7439  0.2418
 7431SOL    HW233756   2.895   0.750  17.413 -0.9424  0.7270  0.4157
 7432SOL     OW33757   3.789   1.994   1.648 -0.3275 -0.1528 -0.4526
 7432SOL    HW133758   3.819   1.986   1.557 -0.0818 -0.6478 -0.3255
 7432SOL    HW233759   3.877   1.998   1.686 -1.3671  0.4552  1.9042
 7433SOL     OW33760   4.372   0.303   8.303 -0.2507  0.1415  0.4669
 7433SOL    HW133761   4.339   0.235   8.244  1.4216 -0.7098  0.4899
 7433SOL    HW233762   4.298   0.363   8.301 -0.1069  0.2982 -0.1290
 7434SOL     OW33763   1.281   4.546  17.534  0.0293 -0.5162 -0.2209
 7434SOL    HW133764   1.269   4.637  17.505 -1.4900 -0.8074 -0.5193
 7434SOL    HW233765   1.291   4.570  17.627 -0.3252 -0.2225 -0.2584
 7435SOL     OW33766   0.507   4.279  14.244 -0.1272 -0.2979  0.0167
 7435SOL    HW133767   0.477   4.349  14.186  1.3597 -0.0546 -0.4810
 7435SOL    HW233768   0.463   4.303  14.325 -0.0010 -0.4208  0.1212
 7436SOL     OW33769   3.990   3.919   5.340  0.3625  0.1741  0.0967
 7436SOL    HW133770   3.914   3.963   5.302 -0.9095 -0.1445  2.2724
 7436SOL    HW233771   4.038   3.899   5.260  1.9226 -0.5850  1.2227
 7437SOL     OW33772   3.392   1.537  11.175 -0.1425  0.3412 -0.1127
 7437SOL    HW133773   3.448   1.467  11.210 -0.1379  0.4249  0.0502
 7437SOL    HW233774   3.346   1.482  11.111 -1.8532  1.3901  0.1986
 7438SOL     OW33775   3.980   2.827   8.411  0.4609 -0.5378  0.7064
 7438SOL    HW133776   3.961   2.755   8.471  1.8314 -0.8019  0.8061
 7438SOL    HW233777   3.999   2.773   8.334 -1.7372  0.3706 -0.4830
 7439SOL     OW33778   3.401   2.935   5.966  0.2899 -0.5480  0.2265
 7439SOL    HW133779   3.406   2.965   5.876 -3.2019 -1.1813 -0.1837
 7439SOL    HW233780   3.464   2.864   5.972  1.4452  0.6210  2.3257
 7440SOL     OW33781   2.034   2.507   3.034 -0.6027  0.3936 -0.2088
 7440SOL    HW133782   1.952   2.515   3.083  0.8330  1.1962  2.0748
 7440SOL    HW233783   1.998   2.540   2.951  1.3681  1.2912 -0.7123
 7441SOL     OW33784   3.238   1.722   2.365 -0.0083  0.0205  0.2304
 7441SOL    HW133785   3.261   1.647   2.309 -1.9295 -0.1370 -0.3328
 7441SOL    HW233786   3.173   1.677   2.419 -1.2575  0.9523 -0.5067
 7442SOL     OW33787   2.412   4.177  11.614 -0.0263 -0.6488  0.7360
 7442SOL    HW133788   2.448   4.239  11.551  1.0022 -0.8885  1.0852
 7442SOL    HW233789   2.435   4.090  11.581 -1.0225 -1.0016  0.9797
 7443SOL     OW33790   3.552   1.973   9.733  0.0811 -0.0368 -0.2489
 7443SOL    HW133791   3.617   1.920   9.778  0.0257 -2.2824 -2.7975
 7443SOL    HW233792   3.553   2.060   9.774  1.1386 -0.9654  1.6794
 7444SOL     OW33793   2.744   1.197   0.948 -0.1506  0.4781 -0.7234
 7444SOL    HW133794   2.717   1.105   0.947 -0.6850  0.6071  2.6763
 7444SOL    HW233795   2.803   1.196   1.023  1.5056 -0.9715 -2.0482
 7445SOL     OW33796   4.332   1.350   1.394  0.0669  0.2779  0.1863
 7445SOL    HW133797   4.384   1.351   1.475 -0.7081 -0.1768  0.6921
 7445SOL    HW233798   4.260   1.411   1.408  1.5642  1.8424  1.0661
 7446SOL     OW33799   2.249   3.378   6.353  0.0741 -0.1528  0.1830
 7446SOL    HW133800   2.175   3.357   6.409 -1.6534  0.1073 -1.9921
 7446SOL    HW233801   2.236   3.321   6.277 -2.8985  0.0706  0.5060
 7447SOL     OW33802   3.069   3.247   8.768  0.3742  0.2115 -0.4334
 7447SOL    HW133803   3.006   3.176   8.781  0.6672  0.0566  0.1421
 7447SOL    HW233804   3.136   3.204   8.715  0.3445  0.1964 -0.4587
 7448SOL     OW33805   0.533   1.689   4.627  0.3946 -0.0497 -0.2483
 7448SOL    HW133806   0.467   1.689   4.696 -0.5533 -1.2324 -1.1301
 7448SOL    HW233807   0.604   1.650   4.679 -1.1506 -1.3343  0.9049
 7449SOL     OW33808   0.192   0.291   8.002 -0.4994  0.5805 -0.6218
 7449SOL    HW133809   0.154   0.356   8.062  2.0104  0.8037  0.7347
 7449SOL    HW233810   0.269   0.338   7.969  0.2529 -0.0485  0.2226
 7450SOL     OW33811   0.709   2.889   0.292  0.0857  0.1335 -0.3193
 7450SOL    HW133812   0.762   2.963   0.320  0.0891  0.4583 -1.1805
 7450SOL    HW233813   0.777   2.823   0.306 -1.0557 -0.5583  1.9195
 7451SOL     OW33814   0.854   1.785  15.977 -0.1720 -0.0501 -0.0139
 7451SOL    HW133815   0.797   1.852  15.938  2.2279  1.1040 -1.5154
 7451SOL    HW233816   0.938   1.808  15.938 -0.6543  0.5936 -0.6886
 7452SOL     OW33817   2.752   2.700   8.084 -0.1634  0.0258 -0.1765
 7452SOL    HW133818   2.732   2.672   8.173  1.0066 -1.0713 -0.2754
 7452SOL    HW233819   2.796   2.621   8.054  1.9623  1.0896  0.1319
 7453SOL     OW33820   2.466   3.163  10.438 -0.1184  0.2864 -0.1907
 7453SOL    HW133821   2.381   3.177  10.479 -1.5357 -1.1343 -2.6767
 7453SOL    HW233822   2.524   3.210  10.497  1.1635 -1.1950 -0.2678
 7454SOL     OW33823   3.420   0.296   7.849 -0.1161  0.2634 -0.1840
 7454SOL    HW133824   3.373   0.319   7.769 -0.9941 -0.3721  0.1468
 7454SOL    HW233825   3.449   0.382   7.879  0.1953 -0.3495  1.3119
 7455SOL     OW33826   0.920   2.295   8.536  0.0548 -0.2501 -0.1258
 7455SOL    HW133827   0.967   2.322   8.457 -0.5269 -1.2767 -0.8214
 7455SOL    HW233828   0.918   2.375   8.590  2.1831 -1.7716  2.1850
 7456SOL     OW33829   3.643   0.721  14.296  0.4150 -0.2133 -0.4042
 7456SOL    HW133830   3.709   0.655  14.318 -0.0920 -0.7897 -0.6058
 7456SOL    HW233831   3.571   0.689  14.351  2.0097 -0.5630  1.4991
 7457SOL     OW33832   2.951   3.018   8.840  0.2416  0.4765 -0.1300
 7457SOL    HW133833   2.940   2.971   8.922  2.1973  1.8860  0.9537
 7457SOL    HW233834   2.905   2.957   8.782  1.1452  0.3094 -0.6654
 7458SOL     OW33835   2.278   3.176   7.316  0.5247  0.4511 -0.0368
 7458SOL    HW133836   2.242   3.245   7.373  0.4064 -1.2269  1.9327
 7458SOL    HW233837   2.355   3.144   7.364  3.0733  0.4858 -4.1404
 7459SOL     OW33838   0.660   1.595  17.547  0.0241 -0.1561 -0.0142
 7459SOL    HW133839   0.631   1.514  17.590 -0.5076  0.6430  1.1364
 7459SOL    HW233840   0.731   1.612  17.609 -0.3722  1.0010  0.1289
 7460SOL     OW33841   0.909   1.569  15.310 -0.4411 -0.2032  0.3356
 7460SOL    HW133842   0.860   1.532  15.384 -2.2954  0.6400 -0.4740
 7460SOL    HW233843   0.887   1.662  15.308 -1.7110 -0.4744  1.5650
 7461SOL     OW33844   1.883   0.372   0.604  0.3133  0.2783 -0.2401
 7461SOL    HW133845   1.873   0.452   0.552  2.5136 -0.5812 -2.0017
 7461SOL    HW233846   1.887   0.406   0.693 -1.1430  2.9308 -1.1967
 7462SOL     OW33847   3.169   1.194   2.646 -0.1777 -0.8802  0.2596
 7462SOL    HW133848   3.077   1.166   2.645  0.4652 -2.8294 -3.5465
 7462SOL    HW233849   3.165   1.245   2.727  0.6230 -1.3891  0.6178
 7463SOL     OW33850   1.906   3.782   6.594 -0.6352  0.0835 -0.3367
 7463SOL    HW133851   1.923   3.856   6.536 -1.2071 -1.0577 -1.9646
 7463SOL    HW233852   1.811   3.773   6.582 -0.5600 -0.3339 -0.6113
 7464SOL     OW33853   0.841   3.778   9.081 -0.5152 -0.3805  0.4334
 7464SOL    HW133854   0.832   3.822   8.997 -2.6819 -1.0636  0.3079
 7464SOL    HW233855   0.792   3.697   9.070 -0.1016 -0.6033  0.2245
 7465SOL     OW33856   3.260   1.167  16.410 -0.2768  0.0670 -0.3004
 7465SOL    HW133857   3.327   1.213  16.462  0.0749  0.3088 -0.9745
 7465SOL    HW233858   3.299   1.163  16.323 -0.6196 -0.7668 -0.4081
 7466SOL     OW33859   0.914   3.741  11.871 -0.4885 -0.8206  0.0767
 7466SOL    HW133860   0.992   3.734  11.815  2.7377  0.0589  4.4732
 7466SOL    HW233861   0.855   3.672  11.839 -1.5290 -0.5620  1.4315
 7467SOL     OW33862   3.560   2.220   9.452 -0.6884 -0.0783 -0.3417
 7467SOL    HW133863   3.624   2.186   9.390  1.0997 -0.5516  1.7661
 7467SOL    HW233864   3.609   2.215   9.534 -0.9704 -1.8339 -0.2843
 7468SOL     OW33865   3.644   2.033   4.576  0.3560 -0.4730 -0.1505
 7468SOL    HW133866   3.704   2.091   4.624  0.6365 -2.1093  1.4992
 7468SOL    HW233867   3.669   2.048   4.485  1.7151  0.5966  0.3969
 7469SOL     OW33868   4.452   1.775   2.733 -0.2915  0.3814  0.3012
 7469SOL    HW133869   4.466   1.743   2.822 -1.0681  1.6827  0.8867
 7469SOL    HW233870   4.543   1.788   2.706 -0.5793 -0.2233 -0.9884
 7470SOL     OW33871   3.464   4.296   3.168 -0.3261 -0.4167 -0.4598
 7470SOL    HW133872   3.463   4.273   3.261  2.3309  2.5390  0.3041
 7470SOL    HW233873   3.410   4.227   3.130 -0.4806 -1.2615  1.2907
 7471SOL     OW33874   0.507   2.831   5.340 -0.1079 -0.4155 -0.1359
 7471SOL    HW133875   0.443   2.860   5.405 -0.7706 -1.4781 -0.3170
 7471SOL    HW233876   0.464   2.871   5.265  1.2085  1.8601  0.3268
 7472SOL     OW33877   0.571   2.830   7.430  0.0153  0.1060 -0.4426
 7472SOL    HW133878   0.644   2.811   7.372  1.5675  0.6110  1.3575
 7472SOL    HW233879   0.603   2.805   7.517 -0.6280  0.9758  0.0436
 7473SOL     OW33880   0.867   0.214  12.679 -0.8354 -0.0458  0.1882
 7473SOL    HW133881   0.791   0.168  12.643 -1.5564 -0.4186  2.2053
 7473SOL    HW233882   0.821   0.294  12.702  0.9950  0.6383  1.4608
 7474SOL     OW33883   1.207   4.568   2.591 -0.0566 -0.3831 -0.1965
 7474SOL    HW133884   1.251   4.525   2.664  0.7420  1.9652  0.7130
 7474SOL    HW233885   1.176   4.497   2.535  0.6392 -0.1124 -0.9221
 7475SOL     OW33886   2.990   0.952  11.165  0.1018  0.5521 -0.3078
 7475SOL    HW133887   2.958   0.934  11.253  1.1303 -1.4244 -0.3460
 7475SOL    HW233888   2.948   0.887  11.109  2.8892 -1.1008 -0.4581
 7476SOL     OW33889   2.893   0.136  16.335  0.1350  0.8421 -0.1158
 7476SOL    HW133890   2.911   0.227  16.312  1.3575  0.6929  0.2665
 7476SOL    HW233891   2.929   0.120  16.422  0.0142  2.2711  0.2016
 7477SOL     OW33892   1.441   4.609   4.751 -0.3213  0.3671  0.2586
 7477SOL    HW133893   1.445   4.647   4.838  0.2903  0.3592  0.2327
 7477SOL    HW233894   1.502   4.535   4.750 -1.2782 -0.3795 -3.4307
 7478SOL     OW33895   3.404   3.962   1.105 -0.0114  0.1013  0.2383
 7478SOL    HW133896   3.379   4.008   1.025 -0.9787 -0.2461  0.3477
 7478SOL    HW233897   3.325   3.974   1.158 -1.0224  1.4968 -1.5794
 7479SOL     OW33898   1.022   4.442  17.523  0.5486  0.2117  0.0626
 7479SOL    HW133899   0.991   4.509  17.584 -0.2969  1.4025 -1.6793
 7479SOL    HW233900   1.117   4.457  17.529  0.5632  0.0437  0.2641
 7480SOL     OW33901   0.638   4.117  17.282  0.4270 -0.0135  0.1008
 7480SOL    HW133902   0.666   4.147  17.369  0.5927  1.0346 -0.3067
 7480SOL    HW233903   0.713   4.070  17.246  1.2567  0.7257  0.8414
 7481SOL     OW33904   1.264   0.137   7.453 -0.3379  0.3747  0.4850
 7481SOL    HW133905   1.188   0.192   7.431  0.6079  0.8933 -1.5288
 7481SOL    HW233906   1.222   0.057   7.485 -2.5544 -0.0885 -3.6037
 7482SOL     OW33907   3.102   3.492   6.393 -0.2019  0.1519 -0.0573
 7482SOL    HW133908   3.152   3.473   6.472 -1.3315  0.3132  0.6955
 7482SOL    HW233909   3.029   3.542   6.430 -0.9703  0.8286 -2.4945
 7483SOL     OW33910   3.263   3.108  16.773 -0.1025  0.3483  0.2090
 7483SOL    HW133911   3.278   3.192  16.728  0.1697 -0.6662 -1.6191
 7483SOL    HW233912   3.239   3.136  16.861 -0.0085 -2.3511  1.0817
 7484SOL     OW33913   0.991   1.937   7.236  0.1327 -0.5489  0.1104
 7484SOL    HW133914   1.033   1.923   7.321 -1.1530 -3.1240  0.3052
 7484SOL    HW233915   1.019   2.028   7.223 -0.6956 -0.2153  0.6363
 7485SOL     OW33916   4.154   2.124   1.383  0.2826 -0.4118 -0.2781
 7485SOL    HW133917   4.085   2.058   1.378  0.7361 -0.8281 -0.9729
 7485SOL    HW233918   4.226   2.079   1.427  0.5065  0.6214  0.4182
 7486SOL     OW33919   3.273   2.870   3.602  0.2151 -0.1697  0.1859
 7486SOL    HW133920   3.194   2.829   3.638  0.4915 -0.0167  0.9628
 7486SOL    HW233921   3.233   2.901   3.521  0.7855 -1.1675 -0.4769
 7487SOL     OW33922   0.264   0.014   5.876  0.3798  0.3037 -0.3752
 7487SOL    HW133923   0.351   4.706   5.899  0.5097  1.6017  0.9485
 7487SOL    HW233924   0.290   0.106   5.880  0.7881  0.1618  0.2905
 7488SOL     OW33925   1.234   0.392   7.579  0.1711  0.2645 -0.6226
 7488SOL    HW133926   1.310   0.344   7.613 -0.4196 -0.4939 -0.3554
 7488SOL    HW233927   1.189   0.318   7.538 -1.3879  1.9160 -1.8998
 7489SOL     OW33928   0.306   3.990   7.853  0.6942 -0.6413 -0.9925
 7489SOL    HW133929   0.349   4.071   7.879  1.5317 -0.9372 -1.4493
 7489SOL    HW233930   0.380   3.930   7.840  1.9052  0.4970  0.6877
 7490SOL     OW33931   1.785   4.343   1.222 -0.3907 -0.6426 -0.0383
 7490SOL    HW133932   1.819   4.423   1.180 -0.3719  0.8311  2.7840
 7490SOL    HW233933   1.753   4.378   1.305  0.1504 -1.9205  0.7113
 7491SOL     OW33934   1.704   0.569  12.267  0.0853  0.1878  0.1093
 7491SOL    HW133935   1.680   0.516  12.343 -1.7718  0.1782 -0.4897
 7491SOL    HW233936   1.761   0.509  12.218  0.1303  0.5090 -0.2209
 7492SOL     OW33937   3.436   3.454   8.798 -0.1653  0.5328  0.3817
 7492SOL    HW133938   3.399   3.504   8.724 -0.7754 -2.0571 -1.0685
 7492SOL    HW233939   3.390   3.370   8.802  0.4369  0.0574 -2.5505
 7493SOL     OW33940   1.968   0.782   8.355 -0.0194  0.2939  0.0248
 7493SOL    HW133941   1.991   0.865   8.315 -2.6922 -0.0519 -2.2222
 7493SOL    HW233942   1.930   0.738   8.279 -1.5530 -0.9102  1.4596
 7494SOL     OW33943   4.440   3.398  12.484  0.1157  0.2856 -0.5792
 7494SOL    HW133944   4.391   3.398  12.566 -0.3965 -0.1931 -0.8863
 7494SOL    HW233945   4.412   3.315  12.445 -1.4500  0.4387  0.2304
 7495SOL     OW33946   1.125   4.118   6.256  0.0657  0.2436  0.5153
 7495SOL    HW133947   1.083   4.183   6.313 -1.3268  0.0168 -0.2593
 7495SOL    HW233948   1.056   4.052   6.250 -0.7703  1.3701 -2.4589
 7496SOL     OW33949   0.951   0.605  14.019 -0.6745 -0.4424  0.4939
 7496SOL    HW133950   0.989   0.522  13.989  0.2674 -0.1293  0.8231
 7496SOL    HW233951   0.922   0.647  13.938 -0.1683 -0.6976  0.1822
 7497SOL     OW33952   1.994   4.683  10.835  0.2727  0.3260 -0.6080
 7497SOL    HW133953   2.012   0.053  10.829  2.3899  0.0893  2.1271
 7497SOL    HW233954   1.914   4.670  10.887  1.4035 -0.4790  0.9244
 7498SOL     OW33955   1.703   3.185   7.714 -0.0575  0.6294 -0.1533
 7498SOL    HW133956   1.623   3.165   7.763 -1.0193  0.5746 -1.7730
 7498SOL    HW233957   1.767   3.151   7.777  1.6156 -0.1052 -2.2398
 7499SOL     OW33958   3.062   0.440   4.653 -0.3376  0.0882  0.1196
 7499SOL    HW133959   3.016   0.519   4.681  0.9497  1.8962 -2.9611
 7499SOL    HW233960   3.046   0.436   4.559  0.0507 -0.2805  0.0672
 7500SOL     OW33961   0.678   1.976   6.313 -0.0412  0.2948  0.0538
 7500SOL    HW133962   0.608   1.998   6.251  0.8293  1.5287 -0.4941
 7500SOL    HW233963   0.755   1.996   6.259  1.7936 -0.6818  2.3086
 7501SOL     OW33964   1.136   1.846  16.178 -0.1748 -0.1382 -0.6552
 7501SOL    HW133965   1.045   1.839  16.208  0.9535  1.1625  3.0383
 7501SOL    HW233966   1.125   1.843  16.083 -2.3730  0.1105 -0.4134
 7502SOL     OW33967   4.223   1.481   9.012 -0.2406  0.6411 -0.6324
 7502SOL    HW133968   4.208   1.447   9.100  0.4634 -0.4717 -0.9477
 7502SOL    HW233969   4.292   1.540   9.042 -1.4554  0.5021  2.3426
 7503SOL     OW33970   4.408   4.079   6.667  0.6148 -0.1430 -0.3750
 7503SOL    HW133971   4.453   4.055   6.586 -0.9005  1.2888 -1.6236
 7503SOL    HW233972   4.416   4.001   6.722 -0.5512 -0.1000 -0.1423
 7504SOL     OW33973   1.812   3.684   1.004 -0.4246  0.0104  0.0452
 7504SOL    HW133974   1.740   3.747   1.008 -2.2817 -2.1698  1.3679
 7504SOL    HW233975   1.857   3.705   1.086  0.2870 -1.0892 -0.0692
 7505SOL     OW33976   3.286   3.157   9.376  0.0427  0.1145  0.0979
 7505SOL    HW133977   3.252   3.174   9.464 -0.4138 -0.7049  0.0833
 7505SOL    HW233978   3.224   3.086   9.360  0.4239 -0.3380  0.6148
 7506SOL     OW33979   4.052   2.306   3.026 -0.0609 -0.6605  0.3573
 7506SOL    HW133980   4.128   2.352   2.993  0.6909 -1.0926  1.4873
 7506SOL    HW233981   3.995   2.314   2.949  0.6846 -0.5949 -0.1796
 7507SOL     OW33982   2.503   3.631   5.479 -0.3366  0.0270 -0.6961
 7507SOL    HW133983   2.547   3.614   5.396  0.1558 -1.6592 -0.0812
 7507SOL    HW233984   2.575   3.636   5.541 -0.2294 -0.4432 -0.7837
 7508SOL     OW33985   0.943   2.710   4.773  0.1168 -0.4378  0.3073
 7508SOL    HW133986   0.938   2.775   4.843  0.7632  0.9467 -0.9453
 7508SOL    HW233987   0.885   2.745   4.706 -0.8396 -2.3808  0.1092
 7509SOL     OW33988   1.924   0.643   0.497  0.2369 -0.2639 -0.1431
 7509SOL    HW133989   1.979   0.646   0.420  0.1982 -1.5962 -0.2341
 7509SOL    HW233990   1.858   0.699   0.457  0.2137 -0.3622 -0.2434
 7510SOL     OW33991   1.373   1.961   5.493 -0.4342 -0.2202 -0.5755
 7510SOL    HW133992   1.406   1.899   5.558  0.7417 -0.0742 -1.0366
 7510SOL    HW233993   1.442   2.026   5.497  1.1797 -2.1445  2.3810
 7511SOL     OW33994   3.999   2.862  16.491 -0.3642  0.5002 -0.1458
 7511SOL    HW133995   4.004   2.953  16.461 -1.6627  0.4531 -0.5513
 7511SOL    HW233996   3.985   2.869  16.585  0.9699 -1.3975  0.1927
 7512SOL     OW33997   3.560   2.434   6.849  0.7454  0.1616 -0.0929
 7512SOL    HW133998   3.489   2.498   6.846 -0.5174 -1.2489  0.2175
 7512SOL    HW233999   3.553   2.389   6.765  0.0958  0.0112  0.0404
 7513SOL     OW34000   1.645   1.959   6.729 -0.4369 -0.3633 -0.3016
 7513SOL    HW134001   1.570   1.900   6.727 -0.2177 -0.6334 -0.7606
 7513SOL    HW234002   1.623   2.024   6.663  3.2303  1.3056  0.1297
 7514SOL     OW34003   0.623   1.634   9.872  0.3513  0.5417  0.1252
 7514SOL    HW134004   0.619   1.728   9.889 -0.4860  0.8168 -1.6080
 7514SOL    HW234005   0.537   1.623   9.831  0.3542  0.5983  0.1039
 7515SOL     OW34006   3.566   4.509   2.557  0.1068 -0.2029  0.6096
 7515SOL    HW134007   3.563   4.597   2.521 -0.4178 -0.1546  0.7593
 7515SOL    HW234008   3.621   4.464   2.492 -1.2550  0.4241 -0.9844
 7516SOL     OW34009   1.858   3.509   6.176  0.2704  0.2046 -0.2587
 7516SOL    HW134010   1.887   3.562   6.101  0.8101  0.7208  0.3151
 7516SOL    HW234011   1.922   3.440   6.162  0.8454 -0.0584  3.6126
 7517SOL     OW34012   3.291   3.973   2.535 -0.1298 -0.1911  0.0454
 7517SOL    HW134013   3.357   3.931   2.591  1.3852 -0.1313 -1.7108
 7517SOL    HW234014   3.260   4.050   2.583  0.8239  0.7632 -0.8688
 7518SOL     OW34015   3.583   3.336  14.928  0.0796 -0.3065  0.4512
 7518SOL    HW134016   3.489   3.338  14.910  0.2492 -2.7400 -0.6952
 7518SOL    HW234017   3.596   3.431  14.920  0.2054 -0.3517  0.1042
 7519SOL     OW34018   3.306   3.445   9.429 -0.4740  0.1188 -0.9353
 7519SOL    HW134019   3.257   3.435   9.348  0.8019 -1.8794 -1.4574
 7519SOL    HW234020   3.358   3.364   9.427  2.0367  1.7331 -0.2856
 7520SOL     OW34021   4.255   1.233   0.324  0.3715 -0.2188 -0.4591
 7520SOL    HW134022   4.337   1.203   0.365 -0.2202 -0.7422  0.3385
 7520SOL    HW234023   4.238   1.158   0.267  1.9540 -1.8020  1.1274
 7521SOL     OW34024   3.951   1.780   4.507 -0.0962  0.0110  0.4216
 7521SOL    HW134025   4.017   1.845   4.481  2.2878 -2.8012 -0.4978
 7521SOL    HW234026   3.953   1.788   4.603  1.4147  1.3964  0.2902
 7522SOL     OW34027   0.506   1.207   5.067  1.0081  0.4157 -0.0369
 7522SOL    HW134028   0.490   1.181   4.976 -3.2468 -0.8282  1.0361
 7522SOL    HW234029   0.597   1.181   5.083 -0.0502 -2.7170  1.0543
 7523SOL     OW34030   3.020   1.269  16.334  0.2126  0.0523  0.2263
 7523SOL    HW134031   3.027   1.246  16.242  2.9211  2.8093 -0.2538
 7523SOL    HW234032   3.100   1.225  16.361 -0.8888 -1.2907  1.2582
 7524SOL     OW34033   2.839   4.484  11.902 -0.1775 -0.1325 -0.2579
 7524SOL    HW134034   2.907   4.433  11.946  1.6124  0.2181 -2.6284
 7524SOL    HW234035   2.831   4.444  11.815 -0.2246  4.6371 -2.4528
 7525SOL     OW34036   1.386   1.104  16.769  0.4083 -0.0142  0.0050
 7525SOL    HW134037   1.346   1.032  16.816 -0.7526  1.4330  1.2352
 7525SOL    HW234038   1.386   1.168  16.840  0.5966 -1.5204  1.3411
 7526SOL     OW34039   1.343   1.935  11.625  0.3409 -0.2928 -0.0190
 7526SOL    HW134040   1.359   2.018  11.671 -0.0075  0.0740 -0.5534
 7526SOL    HW234041   1.248   1.939  11.618  0.0968 -1.1357  2.7808
 7527SOL     OW34042   0.081   3.454   5.712  0.5253 -0.0093 -0.0326
 7527SOL    HW134043   0.095   3.373   5.761  1.8564  0.3694  0.2022
 7527SOL    HW234044   0.168   3.465   5.673  0.9022  0.7857  1.0262
 7528SOL     OW34045   1.199   3.468   8.404  0.3921 -0.0095 -0.3941
 7528SOL    HW134046   1.208   3.476   8.499  0.1725  1.8615 -0.5218
 7528SOL    HW234047   1.124   3.409   8.403 -0.3571  0.9543 -0.7360
 7529SOL     OW34048   3.563   2.300   5.733  0.4033  0.7008  0.7855
 7529SOL    HW134049   3.515   2.311   5.815 -2.2583 -1.7081 -0.4288
 7529SOL    HW234050   3.530   2.218   5.696  0.4690  0.2362  1.7698
 7530SOL     OW34051   1.716   1.795  14.649 -0.0144 -0.1947  0.5340
 7530SOL    HW134052   1.748   1.767  14.563 -0.2261 -0.4295  0.5347
 7530SOL    HW234053   1.773   1.870  14.668 -0.0245 -0.3237  1.0902
 7531SOL     OW34054   0.638   2.707  15.592  0.1027 -0.0053 -0.0528
 7531SOL    HW134055   0.655   2.769  15.663  0.0381 -1.1605  0.9766
 7531SOL    HW234056   0.723   2.690  15.551 -0.6308 -2.8088 -0.4310
 7532SOL     OW34057   0.164   0.656  12.616 -0.8735 -0.3013 -0.1659
 7532SOL    HW134058   0.198   0.745  12.608 -1.3222 -0.1765 -0.7240
 7532SOL    HW234059   0.072   0.675  12.595 -0.6012  0.9321 -0.2668
 7533SOL     OW34060   2.875   1.999   3.489 -0.2401  0.2017 -0.3698
 7533SOL    HW134061   2.785   2.012   3.457 -0.3544 -1.0694 -0.5434
 7533SOL    HW234062   2.869   2.072   3.552 -1.5154  1.0684 -1.4833
 7534SOL     OW34063   0.007   0.802   1.640 -0.4212  0.2999 -0.4422
 7534SOL    HW134064   4.695   0.742   1.574 -0.0755 -1.6587  1.1904
 7534SOL    HW234065   0.062   0.863   1.591  1.0477 -0.9777 -0.3629
 7535SOL     OW34066   4.152   1.959   7.491  0.2412 -0.0715  0.6999
 7535SOL    HW134067   4.233   1.937   7.444  0.4941  1.3958  0.4597
 7535SOL    HW234068   4.092   1.888   7.467  2.0983 -1.1904 -0.7059
 7536SOL     OW34069   0.096   3.872   4.711  0.7262 -0.2935  0.4465
 7536SOL    HW134070   0.004   3.870   4.737  0.7042  2.0328  0.5877
 7536SOL    HW234071   0.100   3.962   4.679  2.3363 -0.9262 -1.1261
 7537SOL     OW34072   0.627   0.955   7.115  0.8930 -0.4095 -0.1462
 7537SOL    HW134073   0.599   1.000   7.035  1.9491 -1.3083 -1.0251
 7537SOL    HW234074   0.543   0.945   7.159  2.0106 -2.5695  1.4606
 7538SOL     OW34075   0.184   0.199   9.236  0.0290  0.0365 -0.3830
 7538SOL    HW134076   0.100   0.235   9.262  0.4491  1.7607 -1.4131
 7538SOL    HW234077   0.165   0.109   9.210 -0.3825  0.0778 -0.2222
 7539SOL     OW34078   3.273   0.834   8.162 -0.1191 -0.3886  0.3391
 7539SOL    HW134079   3.264   0.924   8.193 -1.9406 -0.7566  0.8682
 7539SOL    HW234080   3.332   0.858   8.090 -1.3501 -0.2044 -0.6036
 7540SOL     OW34081   1.162   2.683   1.031 -0.2995  0.4387  0.0576
 7540SOL    HW134082   1.252   2.693   1.063  0.1713  0.3441 -1.2532
 7540SOL    HW234083   1.126   2.771   1.024 -0.4282  0.3073 -0.8759
 7541SOL     OW34084   2.505   1.096   8.633 -0.2891 -0.0357  0.2313
 7541SOL    HW134085   2.482   1.048   8.712  0.5574 -0.0544  0.4612
 7541SOL    HW234086   2.597   1.077   8.621  0.0884  0.4947  2.3076
 7542SOL     OW34087   1.245   3.067   0.591  0.2629  0.1773  0.0725
 7542SOL    HW134088   1.237   3.129   0.518  3.0862 -1.5589 -1.7528
 7542SOL    HW234089   1.329   3.103   0.619 -0.0570 -0.4063  1.7609
 7543SOL     OW34090   2.820   4.185   3.092 -0.5760  0.2114  0.1432
 7543SOL    HW134091   2.803   4.174   2.998  2.1531 -0.0277 -0.3273
 7543SOL    HW234092   2.745   4.142   3.132  0.4954 -1.0626  0.7554
 7544SOL     OW34093   4.607   2.458  16.373  0.1168  1.1734 -0.2079
 7544SOL    HW134094   4.601   2.381  16.317 -1.6140 -1.9441  4.2113
 7544SOL    HW234095   4.518   2.457  16.410 -0.3988  3.8741 -1.3879
 7545SOL     OW34096   3.347   0.501  14.151  0.2075 -0.1043  0.5062
 7545SOL    HW134097   3.254   0.487  14.137  0.9962 -4.0620 -0.8542
 7545SOL    HW234098   3.348   0.590  14.184 -0.9318  0.2125 -0.3302
 7546SOL     OW34099   2.807   0.299   3.587  0.1501  0.1726  0.5318
 7546SOL    HW134100   2.758   0.241   3.645 -0.0422 -0.6683 -0.4799
 7546SOL    HW234101   2.882   0.245   3.563 -1.6098 -0.5424 -3.2788
 7547SOL     OW34102   0.054   3.117   6.093 -0.2290  0.1977 -0.0241
 7547SOL    HW134103   4.694   3.079   6.117  0.7585 -0.6222  2.0941
 7547SOL    HW234104   0.108   3.081   6.163 -0.1253 -0.9148 -0.6798
 7548SOL     OW34105   3.666   3.376   8.678 -0.2004 -0.2934  0.4188
 7548SOL    HW134106   3.658   3.328   8.596  0.1341  0.9375 -0.3306
 7548SOL    HW234107   3.574   3.399   8.693 -0.2462 -0.0405 -0.2915
 7549SOL     OW34108   2.698   3.758   2.571 -0.4082 -0.0550 -0.2617
 7549SOL    HW134109   2.669   3.669   2.551  0.5946 -0.1070 -1.4878
 7549SOL    HW234110   2.612   3.800   2.567 -1.0178 -1.2715  0.0411
 7550SOL     OW34111   3.758   2.397   6.176 -0.1777  0.3346  0.0881
 7550SOL    HW134112   3.773   2.474   6.230  0.1011  0.4562 -0.1668
 7550SOL    HW234113   3.785   2.336   6.245 -2.2834  0.4479  0.9967
 7551SOL     OW34114   0.892   2.668  11.474  0.3036  0.4495 -0.0841
 7551SOL    HW134115   0.942   2.688  11.395  2.3258 -0.6539  0.9225
 7551SOL    HW234116   0.959   2.629  11.531 -0.3499  0.3463  0.6146
 7552SOL     OW34117   0.702   0.005   6.460  0.1249  0.5103  0.0618
 7552SOL    HW134118   0.792   0.004   6.430  0.8590 -0.3540  2.3185
 7552SOL    HW234119   0.715   4.688   6.546  3.1778  2.1187  0.3577
 7553SOL     OW34120   3.686   0.490   5.364 -0.5288  0.5746  0.2163
 7553SOL    HW134121   3.636   0.564   5.329 -0.5994  1.8046  2.9698
 7553SOL    HW234122   3.618   0.427   5.387  0.3420 -0.4849 -0.1192
 7554SOL     OW34123   0.773   1.168   5.098 -0.0683 -0.6363 -0.0029
 7554SOL    HW134124   0.828   1.226   5.046 -1.4953  1.7385  1.1529
 7554SOL    HW234125   0.841   1.105   5.124 -0.3803  0.1611  2.7789
 7555SOL     OW34126   2.088   4.455  12.717 -0.4965  0.0909 -0.0752
 7555SOL    HW134127   2.148   4.439  12.790 -0.2115 -1.0555 -0.5538
 7555SOL    HW234128   2.080   4.550  12.725  0.5721  0.1886 -0.2302
 7556SOL     OW34129   3.412   0.890   2.488 -0.4755  0.1374  0.3488
 7556SOL    HW134130   3.324   0.854   2.501  0.1844 -1.4689  0.3338
 7556SOL    HW234131   3.414   0.930   2.401 -0.0006 -1.0871 -0.2060
 7557SOL     OW34132   3.756   4.462   8.714  0.2207 -0.8171 -0.0503
 7557SOL    HW134133   3.776   4.538   8.660  0.0934  0.2950  1.4785
 7557SOL    HW234134   3.703   4.412   8.652 -1.7970  1.3170 -0.0437
 7558SOL     OW34135   1.105   3.825   0.206 -0.3365 -0.2380  0.3096
 7558SOL    HW134136   1.025   3.804   0.253  0.1227 -1.1406  0.6960
 7558SOL    HW234137   1.173   3.787   0.262  0.5880  1.7913  0.5793
 7559SOL     OW34138   0.110   2.249   5.554  0.3558 -0.0466  0.9839
 7559SOL    HW134139   0.058   2.325   5.528 -1.1183 -0.9842  1.1364
 7559SOL    HW234140   0.087   2.240   5.647 -2.0882  0.3214  0.4139
 7560SOL     OW34141   0.686   4.412   4.070 -0.3202 -0.2752 -0.0155
 7560SOL    HW134142   0.663   4.505   4.061 -1.1671 -0.2238  2.7723
 7560SOL    HW234143   0.757   4.439   4.129 -1.6405  0.1057  1.4116
 7561SOL     OW34144   2.372   0.539  11.258 -0.1878 -0.0293  0.3106
 7561SOL    HW134145   2.324   0.620  11.242  1.0153  0.6323  0.0090
 7561SOL    HW234146   2.417   0.560  11.340  0.2412  1.4576 -0.3014
 7562SOL     OW34147   3.573   1.759   8.490 -0.4729  0.4519 -0.1764
 7562SOL    HW134148   3.581   1.777   8.397 -1.5236  1.4882 -0.0688
 7562SOL    HW234149   3.479   1.740   8.493 -0.9011  2.5529 -0.0556
 7563SOL     OW34150   0.789   2.546   7.274 -0.0535  0.1152  0.0481
 7563SOL    HW134151   0.742   2.533   7.357  1.4667 -0.7396  0.7862
 7563SOL    HW234152   0.793   2.457   7.240 -2.5305  0.0174  0.0105
 7564SOL     OW34153   0.591   0.219  15.739 -0.1311 -0.7451 -0.6953
 7564SOL    HW134154   0.646   0.195  15.814 -0.5998  1.1457  0.2519
 7564SOL    HW234155   0.511   0.253  15.779  0.2881 -0.0174 -0.4907
 7565SOL     OW34156   4.645   0.713  12.460 -0.3344  0.3308  0.3411
 7565SOL    HW134157   4.581   0.780  12.436  0.0293  0.3174 -0.6564
 7565SOL    HW234158   4.708   0.737  12.392 -1.8139  0.2049 -1.0788
 7566SOL     OW34159   1.624   0.508  12.522  0.1154 -1.1638  0.9663
 7566SOL    HW134160   1.662   0.471  12.602  0.9683 -1.0097  0.6323
 7566SOL    HW234161   1.587   0.588  12.558 -1.4380 -1.7090  0.5757
 7567SOL     OW34162   4.104   0.604  16.310 -0.4811 -0.1739  0.4366
 7567SOL    HW134163   4.102   0.512  16.285  0.5781  0.4552 -1.9166
 7567SOL    HW234164   4.012   0.627  16.300 -0.2524  0.0421 -1.2139
 7568SOL     OW34165   0.353   2.552   0.601 -0.1591 -0.4605  0.0953
 7568SOL    HW134166   0.420   2.489   0.627  0.0613  0.6177  2.1730
 7568SOL    HW234167   0.273   2.507   0.625  0.1383 -0.6348  0.7629
 7569SOL     OW34168   3.402   2.991  11.801  0.0844  0.3527 -0.7818
 7569SOL    HW134169   3.326   2.946  11.764  0.9413 -1.7852  0.0576
 7569SOL    HW234170   3.381   3.024  11.889 -0.9229 -0.7667 -0.6000
 7570SOL     OW34171   3.017   4.479   7.525 -0.3415 -0.5851 -0.0869
 7570SOL    HW134172   3.009   4.520   7.611  1.1818  2.2572 -1.2959
 7570SOL    HW234173   3.100   4.520   7.498 -2.4120  2.2399 -2.2221
 7571SOL     OW34174   0.608   3.704   1.362 -0.0594  0.3425  0.5077
 7571SOL    HW134175   0.632   3.640   1.429 -0.5721  0.4972  0.8377
 7571SOL    HW234176   0.692   3.749   1.355  0.3031 -0.2429  1.1158
 7572SOL     OW34177   2.642   3.496   2.514 -0.4808  0.2518  0.9220
 7572SOL    HW134178   2.676   3.421   2.467 -1.1847 -0.4406  1.5230
 7572SOL    HW234179   2.609   3.463   2.598  0.5427 -0.1368  1.1710
 7573SOL     OW34180   3.785   3.440   1.277 -0.4356 -0.2435 -0.0058
 7573SOL    HW134181   3.842   3.502   1.231  0.3228 -0.3916  0.7343
 7573SOL    HW234182   3.721   3.427   1.207  0.3746 -2.1230 -0.3820
 7574SOL     OW34183   2.488   3.888  10.901  0.4616  0.2445  0.4172
 7574SOL    HW134184   2.407   3.938  10.914 -0.2967 -0.9735  0.3563
 7574SOL    HW234185   2.494   3.890  10.806  2.7021 -1.0981  0.5285
 7575SOL     OW34186   3.875   2.445  16.412  0.3212 -0.1637 -0.2311
 7575SOL    HW134187   3.944   2.504  16.443 -1.7973  2.0348  0.2845
 7575SOL    HW234188   3.861   2.472  16.322 -0.7656 -0.1000 -0.0337
 7576SOL     OW34189   2.768   1.122   8.986 -0.3160  0.3240  0.0949
 7576SOL    HW134190   2.715   1.153   9.060 -0.8484 -0.3921  0.0198
 7576SOL    HW234191   2.702   1.108   8.918 -0.7243  2.4339  0.0540
 7577SOL     OW34192   3.267   3.949   7.053  0.4880 -0.6958  0.0363
 7577SOL    HW134193   3.187   3.929   7.101 -0.3323  0.0272 -1.0189
 7577SOL    HW234194   3.310   4.001   7.120  0.1199 -1.4979  0.8961
 7578SOL     OW34195   3.335   3.012   2.580 -0.0429 -0.4137  0.2044
 7578SOL    HW134196   3.306   2.923   2.599 -1.9806  0.5119  1.5780
 7578SOL    HW234197   3.255   3.061   2.598 -0.0743 -0.2746 -0.3050
 7579SOL     OW34198   2.513   0.177   2.929 -0.2269 -0.0282  0.4234
 7579SOL    HW134199   2.423   0.183   2.897 -0.1299  0.5879  0.2590
 7579SOL    HW234200   2.499   0.107   2.993  0.8338  0.1468  0.8470
 7580SOL     OW34201   3.849   2.907   9.653  0.0010 -0.0381 -0.2663
 7580SOL    HW134202   3.868   2.837   9.590  1.7798  0.3127 -0.1139
 7580SOL    HW234203   3.785   2.867   9.712  0.7587 -0.8397  0.0187
 7581SOL     OW34204   3.045   2.550  15.504  0.3770 -0.1305 -0.0734
 7581SOL    HW134205   3.056   2.562  15.598  1.2301  2.6933 -0.5405
 7581SOL    HW234206   3.019   2.638  15.478 -2.0954 -0.0906  2.4648
 7582SOL     OW34207   4.591   0.303  11.553  0.2066  0.0870 -0.1823
 7582SOL    HW134208   4.623   0.286  11.464  2.8316 -2.1249  1.1916
 7582SOL    HW234209   4.566   0.211  11.562  1.4758  0.0095  2.4895
 7583SOL     OW34210   4.304   2.815   4.372 -0.2295  0.0820 -0.3946
 7583SOL    HW134211   4.328   2.808   4.464  1.1967 -0.5441 -0.8083
 7583SOL    HW234212   4.391   2.834   4.335  0.3341 -1.2594  0.2500
 7584SOL     OW34213   2.394   0.359   6.892  0.2153  0.6208  0.7119
 7584SOL    HW134214   2.455   0.308   6.945  0.8979 -0.2802 -0.9452
 7584SOL    HW234215   2.339   0.301   6.840  0.0686  1.4861 -0.0965
 7585SOL     OW34216   2.622   0.677   4.364 -0.3620 -0.3233 -0.0049
 7585SOL    HW134217   2.592   0.587   4.368 -0.7369 -0.1610  0.8402
 7585SOL    HW234218   2.545   0.728   4.388  0.4410  0.7970  0.1942
 7586SOL     OW34219   1.910   1.749  17.132  0.1006  0.0948  0.7579
 7586SOL    HW134220   1.955   1.695  17.196 -1.6471 -2.5894 -0.3100
 7586SOL    HW234221   1.925   1.839  17.162  3.4925 -0.8171  1.7079
 7587SOL     OW34222   3.655   2.857   4.133  0.3180  0.1812 -0.0442
 7587SOL    HW134223   3.571   2.903   4.138  0.0778 -0.2087 -0.4102
 7587SOL    HW234224   3.645   2.788   4.199 -0.3672 -0.3287 -0.6791
 7588SOL     OW34225   1.639   3.978   6.078 -0.2730  0.3547  0.0585
 7588SOL    HW134226   1.688   3.981   5.995  1.5489  1.5422  1.1754
 7588SOL    HW234227   1.656   4.066   6.110 -0.8566  0.1983  0.7845
 7589SOL     OW34228   1.156   1.622   0.839 -0.5866  0.4060  0.1915
 7589SOL    HW134229   1.248   1.629   0.865 -0.0441 -1.5407 -1.2374
 7589SOL    HW234230   1.149   1.563   0.764  1.0500 -0.1660  0.4824
 7590SOL     OW34231   3.440   2.900  10.348  1.0755  0.2168 -0.4022
 7590SOL    HW134232   3.413   2.886  10.257 -2.5592  0.4906  0.6710
 7590SOL    HW234233   3.488   2.983  10.345 -0.0410  0.8461 -1.0309
 7591SOL     OW34234   3.131   2.494   3.373 -0.0517  0.3598 -0.3620
 7591SOL    HW134235   3.060   2.507   3.436  0.3483 -0.9805  0.3588
 7591SOL    HW234236   3.132   2.577   3.325  1.9238  0.5658  0.0569
 7592SOL     OW34237   4.012   2.746   0.248  0.0588 -0.4354 -0.1895
 7592SOL    HW134238   3.972   2.783   0.327 -1.8849 -1.9197 -0.5097
 7592SOL    HW234239   3.984   2.655   0.242  0.0771 -0.6502  3.0406
 7593SOL     OW34240   4.285   3.910   4.501  0.0787  0.1596 -0.4608
 7593SOL    HW134241   4.246   3.825   4.522 -0.1282  0.3323 -0.1521
 7593SOL    HW234242   4.356   3.881   4.443 -0.6892 -0.0144 -1.3305
 7594SOL     OW34243   4.494   2.228   9.308 -0.0795 -0.1487  0.1990
 7594SOL    HW134244   4.578   2.209   9.350 -0.8312 -3.2817  0.3325
 7594SOL    HW234245   4.516   2.205   9.217 -1.3632 -2.8570  0.5629
 7595SOL     OW34246   4.566   2.395   5.658 -0.8427  0.0367  0.0290
 7595SOL    HW134247   4.522   2.479   5.669  1.1060  0.8626  1.5642
 7595SOL    HW234248   4.509   2.338   5.708 -0.1195  0.2046  1.0360
 7596SOL     OW34249   3.607   0.256  12.200  0.4262 -0.0404  0.0834
 7596SOL    HW134250   3.622   0.177  12.252  1.2705  1.4532  2.1164
 7596SOL    HW234251   3.552   0.222  12.129  1.5807  0.5133 -1.0736
 7597SOL     OW34252   1.913   0.437   9.686 -0.1701 -0.2234  0.3696
 7597SOL    HW134253   1.904   0.428   9.592  0.1384 -0.6842  0.3843
 7597SOL    HW234254   2.007   0.450   9.692 -0.5193  2.3496  0.2037
 7598SOL     OW34255   3.966   1.269  16.519  0.1665 -0.0701  0.2300
 7598SOL    HW134256   3.890   1.210  16.518  0.1368 -0.0510  3.2900
 7598SOL    HW234257   4.008   1.243  16.437 -2.8483 -0.8601 -1.0929
 7599SOL     OW34258   4.566   3.038  10.740 -0.9350 -0.5984 -0.1584
 7599SOL    HW134259   4.610   2.956  10.718 -2.0506 -1.7328  1.8321
 7599SOL    HW234260   4.475   3.021  10.714 -1.0497 -0.4215  0.1260
 7600SOL     OW34261   3.661   2.886   8.492  0.3299  0.1656 -0.0867
 7600SOL    HW134262   3.634   2.808   8.541  2.4028 -1.0773 -0.9352
 7600SOL    HW234263   3.716   2.933   8.554  1.9439 -0.1817 -1.2510
 7601SOL     OW34264   1.998   0.500  10.746  0.0636 -0.0635 -0.0314
 7601SOL    HW134265   2.086   0.510  10.711  0.0723 -3.5592 -1.0492
 7601SOL    HW234266   1.993   0.404  10.748  1.7538 -0.1492 -0.3049
 7602SOL     OW34267   3.153   3.704   8.259  0.3249 -0.1673  0.1753
 7602SOL    HW134268   3.238   3.746   8.250  0.0024  0.3788 -0.3340
 7602SOL    HW234269   3.101   3.769   8.305  0.2630 -0.0397 -0.0725
 7603SOL     OW34270   4.325   0.049   5.484  0.4191  0.2691  0.0857
 7603SOL    HW134271   4.354   0.112   5.418 -0.5393  0.0691 -0.5246
 7603SOL    HW234272   4.411   0.016   5.509  0.4414  0.7393  0.6277
 7604SOL     OW34273   3.663   2.582   3.497  0.2563  0.3974 -0.7790
 7604SOL    HW134274   3.595   2.638   3.534 -0.5141 -2.5431  2.3384
 7604SOL    HW234275   3.729   2.604   3.563  0.2878 -3.1455  0.3917
 7605SOL     OW34276   4.290   3.275   7.486 -0.0765 -0.0409  0.2738
 7605SOL    HW134277   4.350   3.206   7.515 -2.3718 -1.7638  0.9631
 7605SOL    HW234278   4.213   3.226   7.456 -0.2755 -0.0396  0.7841
 7606SOL     OW34279   3.760   1.376   6.923  0.5087  0.3500  0.1678
 7606SOL    HW134280   3.799   1.450   6.875  1.0553  0.3253  0.5819
 7606SOL    HW234281   3.703   1.421   6.986 -1.4703  1.1647 -2.1832
 7607SOL     OW34282   1.294   3.602   5.403  0.0834 -0.3882  0.6409
 7607SOL    HW134283   1.291   3.508   5.387  2.5493 -0.5734  1.3612
 7607SOL    HW234284   1.370   3.629   5.352  0.3499  0.1864  1.3423
 7608SOL     OW34285   3.231   3.761   2.327  0.3797 -0.6020 -0.1758
 7608SOL    HW134286   3.247   3.855   2.334 -4.4611  0.2063  0.1489
 7608SOL    HW234287   3.283   3.742   2.249 -0.7333  1.5659 -1.4399
 7609SOL     OW34288   2.970   2.406   3.819  0.3145 -0.2745  0.4136
 7609SOL    HW134289   2.904   2.446   3.875  1.8572 -0.4679  2.3706
 7609SOL    HW234290   3.031   2.365   3.881  1.8145  0.5643 -0.5316
 7610SOL     OW34291   4.677   0.194  14.476 -0.6956  0.2409  0.0878
 7610SOL    HW134292   0.007   0.272  14.466  1.9474 -1.4473  0.9392
 7610SOL    HW234293   4.620   0.220  14.548 -0.6095  0.1043  0.2059
 7611SOL     OW34294   1.366   2.919   4.579 -0.6536 -0.3112  0.7725
 7611SOL    HW134295   1.377   3.014   4.590  1.7536 -0.2550 -2.2257
 7611SOL    HW234296   1.285   2.901   4.627 -0.0584 -1.5411  1.3078
 7612SOL     OW34297   2.179   1.258  11.245  0.2863  0.3298  0.2717
 7612SOL    HW134298   2.195   1.297  11.331 -0.5272  1.1647  0.0388
 7612SOL    HW234299   2.207   1.334  11.194  1.3540  0.2049  0.6633
 7613SOL     OW34300   4.028   3.438   3.835 -0.1872 -0.6074 -0.2899
 7613SOL    HW134301   3.947   3.484   3.857 -0.6055 -1.0232 -0.9403
 7613SOL    HW234302   4.047   3.412   3.925  1.2277 -0.8975 -0.6746
 7614SOL     OW34303   0.571   2.424  10.076  0.3133  0.6406  1.0411
 7614SOL    HW134304   0.647   2.391  10.028  0.6819 -0.8913  2.6438
 7614SOL    HW234305   0.555   2.349  10.134  1.0971 -0.5435 -0.2850
 7615SOL     OW34306   4.563   4.380   5.403  0.0292 -0.0355 -0.2128
 7615SOL    HW134307   4.473   4.411   5.415 -0.1872 -0.9943  0.6122
 7615SOL    HW234308   4.600   4.395   5.490 -0.8875  0.6380  0.0638
 7616SOL     OW34309   3.191   1.400   1.529 -0.2462 -0.3286  0.7033
 7616SOL    HW134310   3.124   1.379   1.464 -1.0588  0.2540  1.3503
 7616SOL    HW234311   3.248   1.465   1.488  1.2580 -1.6601  0.6922
 7617SOL     OW34312   2.491   0.806   6.697  0.8617 -0.3476 -0.4510
 7617SOL    HW134313   2.587   0.806   6.695  0.9112  0.3924  1.6122
 7617SOL    HW234314   2.469   0.712   6.700 -1.0076  0.0160 -3.0784
 7618SOL     OW34315   4.522   4.378   6.571 -0.0125  1.1935 -0.1910
 7618SOL    HW134316   4.493   4.423   6.492 -0.1301  0.2624 -0.6766
 7618SOL    HW234317   4.439   4.343   6.602  0.2586  1.7517  1.1419
 7619SOL     OW34318   0.276   4.061   0.680 -0.1205 -0.3062  0.5124
 7619SOL    HW134319   0.320   4.082   0.598  0.2433  0.5247  0.9127
 7619SOL    HW234320   0.314   3.973   0.686 -0.8569 -0.6017  0.8695
 7620SOL     OW34321   3.597   4.681   5.710 -0.1243 -0.0745 -0.0766
 7620SOL    HW134322   3.515   4.681   5.660 -0.5964 -0.4100  0.7125
 7620SOL    HW234323   3.631   4.594   5.688  1.1849  0.2722  0.5818
 7621SOL     OW34324   0.662   0.411  10.800  0.2705  0.2385 -0.5891
 7621SOL    HW134325   0.611   0.393  10.879  0.2088 -0.7326 -0.8590
 7621SOL    HW234326   0.689   0.501  10.821 -1.8384  1.6540 -3.8062
 7622SOL     OW34327   0.768   4.232  15.465  0.4366 -0.4430 -0.5667
 7622SOL    HW134328   0.775   4.312  15.413  1.9259 -0.2035  0.0125
 7622SOL    HW234329   0.676   4.239  15.491  0.1758  1.5050 -1.9926
 7623SOL     OW34330   2.459   3.573   9.270 -0.2074  0.8219  0.6718
 7623SOL    HW134331   2.534   3.629   9.289  0.1737  1.2440 -2.0266
 7623SOL    HW234332   2.403   3.637   9.227 -1.0953 -0.2989  0.1518
 7624SOL     OW34333   1.274   3.446   8.678  0.1515 -0.6197  0.4408
 7624SOL    HW134334   1.252   3.480   8.765  2.9358  0.4838  0.7089
 7624SOL    HW234335   1.334   3.374   8.696 -0.3117 -0.1803  3.7481
 7625SOL     OW34336   2.434   1.070   8.262  0.2139 -0.1036  0.2182
 7625SOL    HW134337   2.375   1.123   8.314 -0.8091  2.4043 -3.4728
 7625SOL    HW234338   2.482   1.134   8.209 -0.7883  1.2267  0.9361
 7626SOL     OW34339   1.223   2.092   9.455 -0.0762  0.2495 -0.1471
 7626SOL    HW134340   1.186   2.142   9.382  0.5836 -0.3968 -0.9202
 7626SOL    HW234341   1.296   2.048   9.411 -1.8455 -1.5175 -1.3092
 7627SOL     OW34342   1.534   3.164   5.507 -0.0782  0.1775  0.5743
 7627SOL    HW134343   1.456   3.218   5.493 -0.5209 -0.7907 -0.7226
 7627SOL    HW234344   1.593   3.229   5.545 -2.2758  2.4804  0.0195
 7628SOL     OW34345   0.030   0.097   8.617 -0.0423  0.0262  0.5894
 7628SOL    HW134346   0.008   0.190   8.611 -2.0667 -0.4578  0.5055
 7628SOL    HW234347   0.106   0.105   8.675 -1.4949  0.2540  2.4920
 7629SOL     OW34348   2.789   2.233   3.661  0.1827  0.0704  0.0777
 7629SOL    HW134349   2.721   2.298   3.644 -1.1595 -1.4225 -0.2361
 7629SOL    HW234350   2.840   2.279   3.728  1.6872 -1.2208 -0.1914
 7630SOL     OW34351   1.179   0.819   1.256 -0.7127  0.1564  0.0787
 7630SOL    HW134352   1.109   0.867   1.298  2.5656  2.1798  3.2090
 7630SOL    HW234353   1.218   0.765   1.325 -1.1710  0.9123  0.9147
 7631SOL     OW34354   2.892   2.621  16.438 -0.7339  0.0194 -0.0098
 7631SOL    HW134355   2.984   2.602  16.457 -0.7170 -0.3562 -0.4653
 7631SOL    HW234356   2.858   2.537  16.409  0.5888 -0.3456 -0.5179
 7632SOL     OW34357   0.304   2.111  17.352  0.2245 -0.1233  0.4060
 7632SOL    HW134358   0.284   2.205  17.353 -0.3820 -0.2695  1.4118
 7632SOL    HW234359   0.369   2.112  17.281 -0.3679  0.3556 -0.1351
 7633SOL     OW34360   1.655   4.472  13.519 -0.7836  0.0211  0.3592
 7633SOL    HW134361   1.638   4.551  13.571 -0.3417  1.2231 -1.3605
 7633SOL    HW234362   1.676   4.515  13.437 -1.2971 -1.1101 -0.3648
 7634SOL     OW34363   1.964   2.821   7.467 -0.2822  0.2560 -0.0456
 7634SOL    HW134364   1.927   2.790   7.549  1.0008  2.7039  1.4683
 7634SOL    HW234365   2.024   2.892   7.491  0.7427 -0.8214  0.5688
 7635SOL     OW34366   3.927   2.860   5.657 -0.1859 -0.5221  0.2546
 7635SOL    HW134367   3.981   2.782   5.647  1.7095  0.8368 -0.1674
 7635SOL    HW234368   3.872   2.856   5.735  0.4479  1.6811  0.8210
 7636SOL     OW34369   0.390   4.080   7.259  0.4394 -0.4560 -0.2677
 7636SOL    HW134370   0.353   4.078   7.171  0.0488 -0.5669 -0.1014
 7636SOL    HW234371   0.321   4.027   7.299 -0.1027  1.1568  0.9320
 7637SOL     OW34372   0.345   0.879   9.256  0.5107  0.3073  0.4070
 7637SOL    HW134373   0.361   0.911   9.167 -2.6700 -2.5866 -1.2424
 7637SOL    HW234374   0.264   0.927   9.277 -0.2499  0.4163 -2.6632
 7638SOL     OW34375   3.547   3.536   0.557  0.3606 -0.6263 -0.2424
 7638SOL    HW134376   3.624   3.545   0.614  0.5910 -2.0549 -0.3167
 7638SOL    HW234377   3.539   3.625   0.524  1.8939 -0.2209  0.4717
 7639SOL     OW34378   2.171   2.894   9.540  0.2859  0.7083  0.3966
 7639SOL    HW134379   2.105   2.924   9.602 -1.2146  0.9043 -1.2716
 7639SOL    HW234380   2.234   2.862   9.604  0.9823 -0.8817 -1.0840
 7640SOL     OW34381   0.831   0.029   0.352 -0.0430  0.6956  0.0247
 7640SOL    HW134382   0.845   0.113   0.309  0.6736 -0.1378 -1.3715
 7640SOL    HW234383   0.736   0.036   0.364 -0.5603 -1.8328 -2.6227
 7641SOL     OW34384   1.084   1.406   1.666  0.4100  0.0723 -0.4588
 7641SOL    HW134385   1.169   1.450   1.659  0.7968 -0.5217  0.4645
 7641SOL    HW234386   1.030   1.450   1.601 -1.7993 -1.3153  0.4561
 7642SOL     OW34387   1.502   0.743  11.122 -0.2665  0.2679 -0.1274
 7642SOL    HW134388   1.409   0.731  11.143 -0.1089 -0.4845  0.1325
 7642SOL    HW234389   1.537   0.677  11.181  1.7314 -2.3642 -4.3039
 7643SOL     OW34390   1.877   3.044   5.783  0.1696 -0.3339  0.1320
 7643SOL    HW134391   1.797   2.992   5.768  1.9442 -2.5134 -1.7443
 7643SOL    HW234392   1.878   3.090   5.700 -1.8461 -1.6185 -0.6264
 7644SOL     OW34393   1.665   4.664   7.292  0.1139  0.0605 -0.5365
 7644SOL    HW134394   1.633   0.030   7.278  0.7624  0.4711  0.5519
 7644SOL    HW234395   1.641   4.652   7.383 -1.3402  1.8157 -0.6871
 7645SOL     OW34396   2.941   1.669   8.203  0.1206 -0.6122  0.0216
 7645SOL    HW134397   2.885   1.597   8.233  0.0452 -0.0224  1.2769
 7645SOL    HW234398   2.972   1.643   8.117  2.0102  2.0170 -0.0918
 7646SOL     OW34399   4.066   0.614   4.044  0.5060  0.1086  0.1994
 7646SOL    HW134400   4.010   0.557   4.097  0.2852  0.9585  0.8650
 7646SOL    HW234401   4.090   0.679   4.110  1.0051 -0.8841  1.0045
 7647SOL     OW34402   3.339   4.280   2.156  0.4009  0.7797 -0.0740
 7647SOL    HW134403   3.246   4.302   2.155  1.1400  4.0057  1.9516
 7647SOL    HW234404   3.363   4.273   2.063 -1.6123 -0.7088 -0.4694
 7648SOL     OW34405   0.981   0.764   3.171 -0.4512  0.3575 -0.2905
 7648SOL    HW134406   0.923   0.836   3.148 -2.1725 -0.7187  0.7153
 7648SOL    HW234407   0.950   0.701   3.106  0.7548 -1.9640  1.3613
 7649SOL     OW34408   1.314   3.337   5.324 -0.2425  0.0390  0.1613
 7649SOL    HW134409   1.254   3.289   5.266  1.5232 -0.8010 -0.9523
 7649SOL    HW234410   1.397   3.327   5.278 -0.8779  1.2577 -1.2434
 7650SOL     OW34411   1.315   2.395   4.142 -0.0592  0.3166  0.0654
 7650SOL    HW134412   1.368   2.473   4.157 -0.5377  0.4718  0.9652
 7650SOL    HW234413   1.380   2.328   4.161 -1.0833  0.0360  2.5703
 7651SOL     OW34414   3.098   0.666  11.507 -0.3169  0.2706 -0.5734
 7651SOL    HW134415   3.123   0.701  11.422  2.9832  0.4747  0.4974
 7651SOL    HW234416   3.172   0.609  11.530 -2.8976 -3.2079 -0.9011
 7652SOL     OW34417   1.520   3.328  13.655 -0.2108 -0.2182  0.5068
 7652SOL    HW134418   1.472   3.325  13.738  1.4694  0.0518  1.4899
 7652SOL    HW234419   1.449   3.327  13.591 -0.9248 -2.2665  1.3307
 7653SOL     OW34420   2.529   1.586   4.360  0.4521  0.4206  0.3882
 7653SOL    HW134421   2.610   1.536   4.374  1.6793  2.7180  1.6094
 7653SOL    HW234422   2.521   1.578   4.265 -0.7434  1.0260  0.4448
 7654SOL     OW34423   3.088   0.038   7.469 -0.1268  0.2746 -0.4647
 7654SOL    HW134424   3.175   0.018   7.504 -0.7050 -1.9288 -0.2999
 7654SOL    HW234425   3.042   0.066   7.548  0.0802  0.7090 -0.4971
 7655SOL     OW34426   1.409   4.323   8.109  0.5416 -0.4106  0.5722
 7655SOL    HW134427   1.452   4.245   8.143  1.2006 -0.2369  0.1572
 7655SOL    HW234428   1.468   4.393   8.138  0.3335  0.1432 -0.3381
 7656SOL     OW34429   3.283   3.215   2.815  0.1954 -0.4785 -0.0352
 7656SOL    HW134430   3.332   3.148   2.768  1.5739 -0.0204  0.7683
 7656SOL    HW234431   3.293   3.292   2.759 -0.4484  0.6734  1.4249
 7657SOL     OW34432   2.415   4.711   8.354 -0.4050  0.1846 -0.0187
 7657SOL    HW134433   2.500   0.025   8.377  0.1187 -2.5321  2.3870
 7657SOL    HW234434   2.441   4.659   8.279 -1.3361  0.0561 -0.2432
 7658SOL     OW34435   3.349   4.530   9.133 -0.3412  0.2983  0.4670
 7658SOL    HW134436   3.439   4.563   9.140 -0.0569 -0.6874  1.3455
 7658SOL    HW234437   3.368   4.442   9.101 -2.0450  1.3552 -3.4903
 7659SOL     OW34438   4.073   0.008  12.812  0.3854 -0.3825  0.0832
 7659SOL    HW134439   4.106   4.652  12.770  0.8871  0.4103 -1.0034
 7659SOL    HW234440   4.128   0.075  12.771  0.9468 -0.8730  0.0404
 7660SOL     OW34441   3.144   0.841   9.004  0.3184  0.4880  0.1059
 7660SOL    HW134442   3.225   0.872   8.964  1.3713 -1.6301  0.5999
 7660SOL    HW234443   3.120   0.787   8.928  0.6096  0.9645 -0.3269
 7661SOL     OW34444   0.144   0.851   2.890  0.1789 -0.4262  0.1158
 7661SOL    HW134445   0.192   0.795   2.952  0.7689  1.9093  1.8049
 7661SOL    HW234446   0.107   0.777   2.842 -1.0624  0.4826 -0.3224
 7662SOL     OW34447   4.239   2.775  15.071 -0.2179  0.2333 -0.1423
 7662SOL    HW134448   4.174   2.834  15.034  0.0009  0.8321  0.4343
 7662SOL    HW234449   4.229   2.794  15.164 -3.1859 -1.2235 -0.1459
 7663SOL     OW34450   1.999   0.549   7.101 -0.8767  0.0422 -0.3008
 7663SOL    HW134451   1.921   0.605   7.104  0.0239  1.3459 -1.3428
 7663SOL    HW234452   2.058   0.606   7.052 -0.4795 -1.7922 -1.9780
 7664SOL     OW34453   1.110   0.726   2.497  0.1610 -0.5024  0.2099
 7664SOL    HW134454   1.109   0.820   2.481  0.8123 -0.4274  0.6195
 7664SOL    HW234455   1.024   0.691   2.475 -0.7436  0.7552  1.8024
 7665SOL     OW34456   4.470   4.049   9.463 -0.0202  0.3348 -0.4412
 7665SOL    HW134457   4.402   4.062   9.530  0.3484 -0.4016  0.0741
 7665SOL    HW234458   4.522   3.979   9.503 -1.0293 -0.4770 -0.5529
 7666SOL     OW34459   0.232   3.659   3.265  0.1517  0.4434  0.0610
 7666SOL    HW134460   0.300   3.635   3.328  0.7021 -2.6334 -1.7129
 7666SOL    HW234461   0.162   3.689   3.322  0.6320  0.9069  0.4089
 7667SOL     OW34462   2.930   1.070   9.641 -0.4802  0.5650 -0.3050
 7667SOL    HW134463   2.892   1.114   9.717 -1.9253 -2.7119  0.8580
 7667SOL    HW234464   3.018   1.109   9.640 -0.2892  0.1633  0.7990
 7668SOL     OW34465   2.320   4.094   5.078  0.0711  0.2774 -0.2175
 7668SOL    HW134466   2.264   4.115   5.153 -1.1601 -2.7526 -0.2911
 7668SOL    HW234467   2.413   4.096   5.099  0.3565 -1.3647 -1.3822
 7669SOL     OW34468   0.018   1.432   8.059  0.2416  0.2175  0.2388
 7669SOL    HW134469   0.084   1.364   8.074 -0.3535  0.3766  3.6021
 7669SOL    HW234470   0.028   1.452   7.966  0.0539  2.5878  0.7323
 7670SOL     OW34471   1.824   2.580   7.628  0.3409  0.3295  0.3676
 7670SOL    HW134472   1.734   2.554   7.609  0.6745 -1.2065  0.8762
 7670SOL    HW234473   1.859   2.563   7.541 -0.8282 -2.7715  0.5219
 7671SOL     OW34474   2.659   4.277   7.190  0.1690 -0.2585  0.2624
 7671SOL    HW134475   2.721   4.293   7.118 -0.2244 -1.8690 -0.4487
 7671SOL    HW234476   2.697   4.208   7.244 -2.1955 -1.4995  0.3428
 7672SOL     OW34477   3.667   1.761  15.768  0.4502  0.2765 -0.1901
 7672SOL    HW134478   3.632   1.675  15.791 -1.6304  1.4660  1.0999
 7672SOL    HW234479   3.691   1.746  15.676 -0.1478  0.9889 -0.4613
 7673SOL     OW34480   3.672   2.870  17.662  0.3795 -0.4160 -0.0784
 7673SOL    HW134481   3.669   2.776  17.644  0.8497 -0.3303 -0.6421
 7673SOL    HW234482   3.588   2.883   0.009  1.5015 -1.3682  2.3819
 7674SOL     OW34483   0.449   2.418   9.165  0.3766  0.2974 -0.2525
 7674SOL    HW134484   0.390   2.376   9.102  1.1538 -1.6007  0.2782
 7674SOL    HW234485   0.417   2.385   9.249  1.0722  2.3504  0.8112
 7675SOL     OW34486   4.308   1.466  14.125 -0.1275  0.4226  0.0047
 7675SOL    HW134487   4.281   1.375  14.129 -1.2184  0.7347 -0.2076
 7675SOL    HW234488   4.276   1.495  14.210  1.6057  0.1125  0.7629
 7676SOL     OW34489   3.735   4.612   7.551 -0.3852 -0.1674  0.0766
 7676SOL    HW134490   3.801   4.668   7.512  0.2720 -0.6704  0.4658
 7676SOL    HW234491   3.762   4.599   7.642  0.4334 -0.6299 -0.2360
 7677SOL     OW34492   1.171   4.061   2.870  0.0568  0.5618 -0.0613
 7677SOL    HW134493   1.112   4.136   2.873 -0.2204  0.3909 -1.0658
 7677SOL    HW234494   1.125   4.009   2.805  0.1321 -1.1615  1.2811
 7678SOL     OW34495   0.002   0.806   1.909  0.1164  0.5467 -0.3461
 7678SOL    HW134496   0.093   0.781   1.922 -0.7969 -2.9997 -0.9031
 7678SOL    HW234497   4.720   0.781   1.817 -1.0700  0.4021 -0.2441
 7679SOL     OW34498   2.504   0.007   7.466 -0.3241  0.2114 -0.2523
 7679SOL    HW134499   2.456   0.034   7.544 -2.5475 -0.4927 -1.3781
 7679SOL    HW234500   2.436   0.011   7.399 -2.3233 -1.7982  1.6191
 7680SOL     OW34501   0.471   1.898  15.935  0.7793 -0.2262 -0.1457
 7680SOL    HW134502   0.505   1.808  15.932  0.2758 -0.3832 -1.0005
 7680SOL    HW234503   0.537   1.946  15.886  0.4496 -0.1622 -0.5297
 7681SOL     OW34504   3.125   2.278   5.326 -0.0499  1.0008 -0.4438
 7681SOL    HW134505   3.153   2.187   5.322 -2.2442  0.2882  0.3474
 7681SOL    HW234506   3.189   2.317   5.387 -1.0575  3.0304 -0.6651
 7682SOL     OW34507   4.390   2.754   3.305 -0.2188 -0.3212  0.7981
 7682SOL    HW134508   4.325   2.824   3.305  0.3706  0.2342 -0.1508
 7682SOL    HW234509   4.348   2.696   3.241 -2.6420  0.9005  1.3295
 7683SOL     OW34510   3.826   2.694  12.102  0.0047  0.0699 -0.0130
 7683SOL    HW134511   3.773   2.640  12.160  0.2724 -2.3986 -2.0757
 7683SOL    HW234512   3.770   2.758  12.057  1.1658  0.8008 -0.4187
 7684SOL     OW34513   2.792   1.906  10.653  0.0108 -0.2278  0.6748
 7684SOL    HW134514   2.837   1.980  10.693  0.7015 -0.2967  0.0401
 7684SOL    HW234515   2.837   1.835  10.699 -3.0429 -1.7492  1.2640
 7685SOL     OW34516   3.110   1.996   6.412 -0.4319  0.2867 -0.1969
 7685SOL    HW134517   3.082   2.074   6.366  2.5219  0.8067 -1.1530
 7685SOL    HW234518   3.110   2.009   6.507  2.2298  3.2433 -0.5839
 7686SOL     OW34519   4.369   3.747   0.874 -0.2207  0.4330 -0.4148
 7686SOL    HW134520   4.281   3.771   0.843  0.6168  1.8355 -1.7532
 7686SOL    HW234521   4.389   3.692   0.798  0.7671 -0.7568  0.7283
 7687SOL     OW34522   2.103   1.642  15.059 -0.1715 -0.6397  0.4700
 7687SOL    HW134523   2.073   1.704  14.991  0.2047 -1.0243 -0.0424
 7687SOL    HW234524   2.075   1.557  15.026 -0.7201  0.0264 -0.7984
 7688SOL     OW34525   3.911   2.998  12.543 -0.2143  0.6526 -1.0620
 7688SOL    HW134526   3.966   3.073  12.567 -0.0050  0.9214 -2.3259
 7688SOL    HW234527   3.854   3.047  12.483 -0.2528 -1.9741 -3.1536
 7689SOL     OW34528   3.991   4.101   3.072  0.0303 -0.4144  0.4829
 7689SOL    HW134529   3.938   4.134   2.999  0.4985  1.1655  0.8707
 7689SOL    HW234530   3.926   4.094   3.142 -0.5749 -0.9149 -0.1189
 7690SOL     OW34531   3.488   2.143  16.668 -0.1864  0.4745 -0.3390
 7690SOL    HW134532   3.576   2.179  16.678 -0.6959  1.3790  0.8612
 7690SOL    HW234533   3.444   2.224  16.695 -2.3438 -0.6512 -0.4012
 7691SOL     OW34534   1.185   3.215   5.523  0.2389  0.1443  0.8005
 7691SOL    HW134535   1.227   3.264   5.452  1.6567 -0.9305  0.8869
 7691SOL    HW234536   1.114   3.276   5.543 -0.5665 -0.9506  1.2705
 7692SOL     OW34537   4.408   2.089  10.854  0.1229  0.2751 -0.0091
 7692SOL    HW134538   4.337   2.150  10.874  0.6439  0.7999  0.2257
 7692SOL    HW234539   4.383   2.055  10.768  0.0818 -0.9173  0.4763
 7693SOL     OW34540   3.588   0.956   5.649 -0.6280  0.0559  0.9014
 7693SOL    HW134541   3.619   0.923   5.565 -0.6846  0.9005  0.5449
 7693SOL    HW234542   3.661   1.011   5.678 -0.4478  0.2547  0.0641
 7694SOL     OW34543   3.100   1.034  10.202  0.7016 -0.1008  0.3023
 7694SOL    HW134544   3.119   1.091  10.128 -1.9196 -0.9658 -1.0686
 7694SOL    HW234545   3.096   1.103  10.268  0.2629 -0.3263  0.5143
 7695SOL     OW34546   1.603   0.802   6.580  0.2117 -0.1714 -0.2040
 7695SOL    HW134547   1.546   0.853   6.639 -0.4330 -0.4098 -0.6242
 7695SOL    HW234548   1.544   0.747   6.529 -0.5305 -0.8582  1.3891
 7696SOL     OW34549   2.390   0.651   5.440  0.1123 -0.2382 -0.0999
 7696SOL    HW134550   2.308   0.681   5.478 -0.3050  0.0569 -1.2265
 7696SOL    HW234551   2.421   0.600   5.515 -1.8661 -1.5365 -0.1733
 7697SOL     OW34552   0.290   0.620   9.036  0.8223 -0.4013 -0.0216
 7697SOL    HW134553   0.295   0.692   8.973  0.7922 -2.3499 -2.2283
 7697SOL    HW234554   0.223   0.571   8.987  2.7306 -0.7989 -2.2079
 7698SOL     OW34555   0.309   2.740  14.516  0.6176  0.3166  0.7775
 7698SOL    HW134556   0.275   2.810  14.572 -0.0130 -0.7540  1.7348
 7698SOL    HW234557   0.346   2.785  14.440 -0.8703 -1.1231 -0.7751
 7699SOL     OW34558   3.595   3.531   4.111  0.0938  0.1266  0.0549
 7699SOL    HW134559   3.533   3.598   4.140  2.0784  2.5104 -1.1336
 7699SOL    HW234560   3.629   3.489   4.190  1.3920  0.9422 -0.0690
 7700SOL     OW34561   4.511   1.721   3.003 -0.2734  0.1074  0.2008
 7700SOL    HW134562   4.570   1.707   3.077 -1.4440  0.0884  1.1318
 7700SOL    HW234563   4.427   1.717   3.048  0.3079  0.3123  1.3229
 7701SOL     OW34564   3.848   3.874   2.763 -0.4655 -0.2515  0.3678
 7701SOL    HW134565   3.879   3.919   2.685 -2.3348  1.7854  0.7950
 7701SOL    HW234566   3.931   3.831   2.784 -1.6001 -1.7594  1.8502
 7702SOL     OW34567   1.282   1.143   6.730 -0.3411 -0.5927  0.5668
 7702SOL    HW134568   1.341   1.218   6.732 -0.5093 -0.4470 -0.3957
 7702SOL    HW234569   1.217   1.180   6.671  0.6894  0.1105 -0.1312
 7703SOL     OW34570   4.286   3.863   8.273 -0.0336 -0.1669  0.3861
 7703SOL    HW134571   4.369   3.818   8.264 -0.9192 -1.6185 -0.5282
 7703SOL    HW234572   4.281   3.859   8.369 -0.3545  1.8125  0.4449
 7704SOL     OW34573   3.864   0.414   3.204 -0.4916 -0.5095  0.5080
 7704SOL    HW134574   3.823   0.328   3.213  1.7346 -1.6451 -0.2063
 7704SOL    HW234575   3.798   0.462   3.153 -1.3509  0.7257  2.7742
 7705SOL     OW34576   0.080   1.812   6.584 -0.1199  0.0013  0.0630
 7705SOL    HW134577   0.084   1.740   6.521 -0.6864  1.7882 -2.0162
 7705SOL    HW234578   4.712   1.837   6.583 -0.3822 -0.9571 -0.0775
 7706SOL     OW34579   2.379   4.624   5.967 -0.1549 -0.2507  0.3319
 7706SOL    HW134580   2.466   4.591   5.989 -0.2707  0.4841  1.9066
 7706SOL    HW234581   2.394   4.669   5.884  0.8277 -1.1884  0.0023
 7707SOL     OW34582   4.279   3.552  11.472  0.5781  0.1188 -0.2374
 7707SOL    HW134583   4.208   3.603  11.432 -0.4091 -0.8565  0.2657
 7707SOL    HW234584   4.319   3.519  11.391 -0.9141 -1.2972 -0.3904
 7708SOL     OW34585   3.824   2.172   9.370 -0.3613 -0.3430  0.1461
 7708SOL    HW134586   3.919   2.169   9.359 -0.0724 -0.8109  2.7426
 7708SOL    HW234587   3.816   2.225   9.450 -1.4396  0.3694 -0.4430
 7709SOL     OW34588   0.176   0.720  17.515  0.6497  0.6679  0.2214
 7709SOL    HW134589   0.231   0.642  17.517 -0.7771 -0.3210  1.7259
 7709SOL    HW234590   0.251   0.778  17.511  1.0261  0.1094 -0.9136
 7710SOL     OW34591   2.105   0.003   4.308  0.3747  0.2150  0.1241
 7710SOL    HW134592   2.114   4.639   4.270  0.3201 -0.0999  0.8384
 7710SOL    HW234593   2.095   4.691   4.397  2.1866  1.5709  0.8505
 7711SOL     OW34594   4.557   0.671   3.055 -0.3416 -0.4122  0.2997
 7711SOL    HW134595   4.562   0.684   3.149  1.5533 -0.2007  0.1649
 7711SOL    HW234596   4.557   0.761   3.022  0.2172 -0.5252 -0.0137
 7712SOL     OW34597   2.252   1.300   3.550 -0.2826  0.1341  0.5537
 7712SOL    HW134598   2.221   1.389   3.566  1.4763  0.4390  2.2909
 7712SOL    HW234599   2.325   1.323   3.493 -1.9704 -0.0412 -1.6815
 7713SOL     OW34600   0.234   4.662   4.716 -0.1778  0.0661  0.6902
 7713SOL    HW134601   0.250   0.009   4.654  1.0063 -0.4520  0.3917
 7713SOL    HW234602   0.157   4.628   4.671  0.0219 -0.1937  0.5473
 7714SOL     OW34603   1.046   1.775   9.148  0.1149 -0.7494  0.3549
 7714SOL    HW134604   0.974   1.753   9.089  1.3609 -0.6527 -1.2132
 7714SOL    HW234605   0.991   1.781   9.226 -1.5259  0.0667 -0.8646
 7715SOL     OW34606   2.859   0.538  11.160 -0.1015 -0.1680 -0.1125
 7715SOL    HW134607   2.942   0.494  11.143 -0.0416 -0.0933 -0.0147
 7715SOL    HW234608   2.854   0.527  11.255  2.2984  2.9598  0.3708
 7716SOL     OW34609   0.910   2.763   5.458 -0.3078  0.2839 -0.0616
 7716SOL    HW134610   0.959   2.843   5.437 -1.7024  0.8996 -0.9340
 7716SOL    HW234611   0.877   2.762   5.369 -0.0509  0.6321 -0.1606
 7717SOL     OW34612   1.207   2.351  14.100 -0.6729 -0.0515  0.2131
 7717SOL    HW134613   1.178   2.401  14.024 -1.5381  1.6439  1.6611
 7717SOL    HW234614   1.285   2.310  14.063  0.3688  1.5802  0.5718
 7718SOL     OW34615   2.938   3.335   9.516  0.2299  0.1708 -0.4253
 7718SOL    HW134616   2.870   3.366   9.576  0.2240 -1.3994  0.3820
 7718SOL    HW234617   2.984   3.270   9.568  0.0549  1.4321  1.2956
 7719SOL     OW34618   3.620   3.712   5.577 -0.1981 -0.2599  0.0316
 7719SOL    HW134619   3.696   3.732   5.522  0.3300 -0.5014  0.6704
 7719SOL    HW234620   3.613   3.621   5.550  1.7637 -0.4530  0.1613
 7720SOL     OW34621   0.048   3.884   8.803  0.6724  0.2258  0.3868
 7720SOL    HW134622   0.131   3.912   8.842 -0.3911  1.7087  1.5469
 7720SOL    HW234623   4.709   3.904   8.872  0.0154  0.0349 -0.1597
 7721SOL     OW34624   0.257   4.458   9.074  0.1299 -0.4941  0.8207
 7721SOL    HW134625   0.207   4.378   9.059  0.5906 -0.8379  1.1012
 7721SOL    HW234626   0.343   4.423   9.052 -0.1758  0.2930 -1.5762
 7722SOL     OW34627   3.448   0.663   8.276 -0.3099 -0.1036 -0.2555
 7722SOL    HW134628   3.478   0.586   8.228  0.2072 -1.8021  2.7608
 7722SOL    HW234629   3.396   0.704   8.208 -0.5745  1.9732  1.1801
 7723SOL     OW34630   1.854   1.056   3.205  0.3575  0.5618 -0.3973
 7723SOL    HW134631   1.887   0.967   3.194  0.6914  0.8544 -1.7429
 7723SOL    HW234632   1.936   1.105   3.205 -0.1481  1.3961 -1.4055
 7724SOL     OW34633   0.341   2.021   6.700 -0.5358  0.1981  0.1290
 7724SOL    HW134634   0.402   2.007   6.628 -2.1462  2.0459 -1.5706
 7724SOL    HW234635   0.313   2.112   6.691 -1.2619  0.0359  0.7605
 7725SOL     OW34636   3.932   0.243  16.533 -0.2242  0.5495  0.3903
 7725SOL    HW134637   3.874   0.310  16.568 -0.6028  0.8596 -0.8163
 7725SOL    HW234638   3.904   0.259  16.443 -0.8273 -4.1544 -0.2730
 7726SOL     OW34639   1.591   3.550   7.113 -0.3223  1.1840 -0.3573
 7726SOL    HW134640   1.600   3.574   7.021  0.4531 -0.5026 -0.7149
 7726SOL    HW234641   1.609   3.641   7.137  0.2112  0.8071  0.6919
 7727SOL     OW34642   3.291   4.029   8.199  0.2704 -0.1917  0.1653
 7727SOL    HW134643   3.272   4.076   8.117  1.2270  0.6128  0.4100
 7727SOL    HW234644   3.378   3.992   8.185  0.3863 -0.5215  1.8086
 7728SOL     OW34645   2.047   2.308   9.410  0.1353  0.3203 -0.0248
 7728SOL    HW134646   2.002   2.367   9.350  0.7253  1.4781  0.6921
 7728SOL    HW234647   1.978   2.291   9.475  1.1297 -1.1716  0.6601
 7729SOL     OW34648   3.443   1.320  16.546  0.3310 -0.1063  0.6780
 7729SOL    HW134649   3.530   1.353  16.522  0.0476 -0.6965 -1.1388
 7729SOL    HW234650   3.441   1.368  16.629  1.5417  1.4888 -0.2140
 7730SOL     OW34651   0.710   0.396   3.241  0.0713 -0.0027 -0.1090
 7730SOL    HW134652   0.672   0.347   3.313 -0.7650  0.3437 -0.3178
 7730SOL    HW234653   0.670   0.481   3.258  3.2361  1.3574  0.5254
 7731SOL     OW34654   1.905   2.419   8.607 -0.1568  0.1613 -0.3158
 7731SOL    HW134655   1.828   2.387   8.655 -0.9311  1.1832 -0.8648
 7731SOL    HW234656   1.876   2.510   8.598 -2.1174 -0.4127  0.1214
 7732SOL     OW34657   3.583   3.813   9.070  0.1748 -0.5365 -0.6137
 7732SOL    HW134658   3.511   3.752   9.089  0.3378 -0.8645 -1.0534
 7732SOL    HW234659   3.651   3.754   9.038 -0.8275 -2.3963  0.6984
 7733SOL     OW34660   3.000   0.977   3.202 -0.5912 -0.0385 -0.1863
 7733SOL    HW134661   3.085   0.945   3.172 -1.3538 -0.3842 -1.9754
 7733SOL    HW234662   2.968   1.006   3.116 -0.1767  1.9083  0.3183
 7734SOL     OW34663   1.347   2.179   9.062 -0.4361 -0.1253 -0.7370
 7734SOL    HW134664   1.262   2.135   9.055 -0.5941  0.2385 -1.1513
 7734SOL    HW234665   1.345   2.260   9.010  0.0491  0.6519  0.4799
 7735SOL     OW34666   2.451   3.157   6.681 -0.3862 -0.1497  0.5680
 7735SOL    HW134667   2.531   3.184   6.636 -0.8333  1.4273  0.7083
 7735SOL    HW234668   2.480   3.080   6.730 -0.2163 -0.0930  0.5553
 7736SOL     OW34669   0.329   2.826   8.371 -0.1539 -0.0812 -0.5887
 7736SOL    HW134670   0.234   2.814   8.369  0.0298 -1.1070 -3.1318
 7736SOL    HW234671   0.335   2.916   8.337  0.8024  0.4038  0.8350
 7737SOL     OW34672   2.154   0.392  11.019 -0.1880  0.0006 -0.1999
 7737SOL    HW134673   2.117   0.353  10.940 -0.0278  0.4489 -0.4952
 7737SOL    HW234674   2.147   0.486  11.001 -0.4122 -0.3367 -1.8746
 7738SOL     OW34675   4.350   0.641   1.897  0.4698  0.3474  0.1315
 7738SOL    HW134676   4.351   0.561   1.950  4.2262 -0.2522 -0.8402
 7738SOL    HW234677   4.257   0.635   1.877  0.3141  0.3399  0.8645
 7739SOL     OW34678   2.352   4.406   9.271  0.2123 -0.8076  0.0107
 7739SOL    HW134679   2.420   4.422   9.206 -2.2695  0.0876 -2.3898
 7739SOL    HW234680   2.287   4.472   9.249 -0.2788 -0.9417  1.0470
 7740SOL     OW34681   4.663   0.777   6.238 -0.4547  0.2423 -0.3697
 7740SOL    HW134682   4.657   0.871   6.254  0.5866  0.2695 -0.1167
 7740SOL    HW234683   4.615   0.732   6.307  2.5287 -1.2304  0.7308
 7741SOL     OW34684   3.563   0.936  16.383 -0.0676 -0.2857 -0.7110
 7741SOL    HW134685   3.485   0.916  16.332  0.4456  0.0573 -1.6339
 7741SOL    HW234686   3.547   0.867  16.447 -0.4126  0.5303  0.0789
 7742SOL     OW34687   2.963   0.344   3.265  0.1610 -0.1245 -0.3267
 7742SOL    HW134688   3.029   0.275   3.279 -2.4057 -2.2334  1.3802
 7742SOL    HW234689   2.884   0.292   3.251  1.0003 -0.8824 -2.3506
 7743SOL     OW34690   4.511   1.408  15.535  0.4523  0.4410 -0.0492
 7743SOL    HW134691   4.492   1.488  15.583  1.4723  0.8141 -0.2705
 7743SOL    HW234692   4.451   1.431  15.464  1.2926 -0.2152 -0.9742
 7744SOL     OW34693   4.630   2.463   6.484  0.1590  0.4265 -0.0557
 7744SOL    HW134694   4.662   2.539   6.531  0.2901 -0.0340  0.5897
 7744SOL    HW234695   4.636   2.389   6.544  1.0400  1.1590  0.7627
 7745SOL     OW34696   1.058   2.569   2.168 -0.1196 -0.3583  0.3047
 7745SOL    HW134697   1.047   2.591   2.260  0.9623  0.1839  0.3036
 7745SOL    HW234698   1.022   2.648   2.127  1.3084 -0.6265 -1.5151
 7746SOL     OW34699   0.843   0.699  13.798 -0.3093  0.1776  0.1387
 7746SOL    HW134700   0.747   0.692  13.797 -0.3573  0.9462 -0.8811
 7746SOL    HW234701   0.856   0.794  13.803  0.1414  0.0409  1.6538
 7747SOL     OW34702   4.488   0.995   0.223  0.2082 -0.1865 -0.3016
 7747SOL    HW134703   4.501   0.902   0.203  1.9326 -0.0241  0.0548
 7747SOL    HW234704   4.393   1.002   0.214  0.1270 -0.5634  0.3020
 7748SOL     OW34705   1.416   1.941   9.339  0.3498 -0.2607  0.5868
 7748SOL    HW134706   1.492   1.885   9.326  0.6399 -0.1873  1.9015
 7748SOL    HW234707   1.353   1.878   9.304  0.4382  0.5660 -1.0580
 7749SOL     OW34708   0.888   2.839   6.294 -0.4529  0.8052 -0.0822
 7749SOL    HW134709   0.940   2.767   6.331  0.3060  1.0359 -0.7151
 7749SOL    HW234710   0.884   2.825   6.200 -2.8777  0.8551  0.0070
 7750SOL     OW34711   4.081   2.282   2.298 -0.4247  0.3752  0.3877
 7750SOL    HW134712   4.131   2.201   2.293  0.8755  1.2099 -0.2616
 7750SOL    HW234713   4.013   2.271   2.366 -1.7893  0.8547 -0.8930
 7751SOL     OW34714   0.760   3.609  14.078  0.1126  0.4972  0.0106
 7751SOL    HW134715   0.667   3.632  14.088  0.4106  1.8535 -0.3558
 7751SOL    HW234716   0.756   3.513  14.073 -2.0803  0.5491  0.8225
 7752SOL     OW34717   3.008   0.353   5.698  0.1646 -0.5911 -0.5761
 7752SOL    HW134718   3.052   0.333   5.615  2.3932 -2.2720  0.9946
 7752SOL    HW234719   3.025   0.448   5.695 -0.8665 -0.4735 -2.5101
 7753SOL     OW34720   0.968   4.699   4.326  0.2226 -0.3728 -0.3658
 7753SOL    HW134721   0.990   4.623   4.381  0.5798 -0.6347 -0.8694
 7753SOL    HW234722   0.985   4.663   4.239  0.1129 -0.4988 -0.3354
 7754SOL     OW34723   1.165   1.257   9.994  0.3828  0.2683 -0.3082
 7754SOL    HW134724   1.094   1.316  10.021 -0.2690  0.1111 -1.6704
 7754SOL    HW234725   1.234   1.315  10.027 -0.3006  1.9382 -1.7769
 7755SOL     OW34726   4.042   1.326   5.755 -0.1601  0.0917  0.0485
 7755SOL    HW134727   4.076   1.301   5.669 -0.2329 -0.2959  0.1353
 7755SOL    HW234728   4.119   1.324   5.813  0.1770 -0.9163 -0.4390
 7756SOL     OW34729   2.606   3.277  11.830  0.3436  0.4685  0.0767
 7756SOL    HW134730   2.520   3.245  11.855  0.5639  0.7403  1.2066
 7756SOL    HW234731   2.582   3.365  11.800  1.1696  0.1397 -1.5459
 7757SOL     OW34732   0.315   2.191   3.594 -0.2233 -0.1706 -0.1948
 7757SOL    HW134733   0.323   2.176   3.688 -1.4978 -1.7930 -0.3283
 7757SOL    HW234734   0.371   2.268   3.585 -0.2400 -0.7226 -5.0292
 7758SOL     OW34735   2.589   2.831  15.008  0.3758  0.1565 -0.1431
 7758SOL    HW134736   2.587   2.908  15.064  1.0255  0.8205 -1.0275
 7758SOL    HW234737   2.533   2.861  14.937  0.9697  2.2060  0.2682
 7759SOL     OW34738   2.486   2.690   6.286 -0.2533  0.1891 -0.5016
 7759SOL    HW134739   2.497   2.745   6.363  0.4852  0.6605 -0.9476
 7759SOL    HW234740   2.562   2.717   6.234  1.1534 -0.6328  1.1686
 7760SOL     OW34741   1.429   1.952   4.257 -0.1772  0.2498  0.1993
 7760SOL    HW134742   1.484   2.030   4.261 -1.1702  0.8332  2.3324
 7760SOL    HW234743   1.380   1.959   4.175 -0.9799 -1.4160  0.5423
 7761SOL     OW34744   2.381   0.550   8.793 -0.3527 -0.0254 -0.6215
 7761SOL    HW134745   2.411   0.601   8.868  1.3795 -1.6324 -0.2158
 7761SOL    HW234746   2.418   0.596   8.717 -1.5046  3.2704  0.8279
 7762SOL     OW34747   2.666   1.975   4.515 -0.3338  0.2785 -0.0175
 7762SOL    HW134748   2.643   1.996   4.606  1.1789  3.5287 -0.4015
 7762SOL    HW234749   2.754   2.011   4.512 -1.3357  2.8786  1.5706
 7763SOL     OW34750   3.303   1.001  14.958  0.4796  0.0075 -0.6486
 7763SOL    HW134751   3.282   1.088  14.990 -0.8504 -0.7069  0.4336
 7763SOL    HW234752   3.396   0.999  14.983 -0.2763  0.1405  2.1806
 7764SOL     OW34753   0.228   0.711   3.556  0.0094  0.4374 -0.2288
 7764SOL    HW134754   0.137   0.723   3.586 -0.3963 -0.2560 -1.1854
 7764SOL    HW234755   0.206   0.665   3.475  0.9492  2.3713 -1.6004
 7765SOL     OW34756   1.879   4.604   8.134  0.0408  0.0941  0.9604
 7765SOL    HW134757   1.972   4.597   8.158  0.6195  0.6339 -1.2083
 7765SOL    HW234758   1.853   4.695   8.143  0.0302  0.4110 -2.3636
 7766SOL     OW34759   3.810   4.188   3.309  0.1673  0.2391  0.3314
 7766SOL    HW134760   3.770   4.104   3.285  0.9159 -0.1949  0.6139
 7766SOL    HW234761   3.892   4.166   3.353 -0.1966  0.0431  0.9047
 7767SOL     OW34762   2.387   4.285  13.650  0.4226  0.2136 -0.8571
 7767SOL    HW134763   2.298   4.254  13.669  1.2870 -0.2311  2.4652
 7767SOL    HW234764   2.400   4.334  13.731 -1.3779  0.8913 -0.9928
 7768SOL     OW34765   1.162   1.579   2.712 -0.5161 -0.2571  0.0950
 7768SOL    HW134766   1.195   1.659   2.671 -0.1160  0.0143  0.9277
 7768SOL    HW234767   1.074   1.611   2.732 -0.1098  2.4126 -2.3727
 7769SOL     OW34768   2.153   0.203   5.884 -0.0461 -0.1912  0.1686
 7769SOL    HW134769   2.065   0.231   5.859  0.7792  1.0642 -1.2964
 7769SOL    HW234770   2.188   0.187   5.796 -1.8217  2.1230 -0.9565
 7770SOL     OW34771   0.604   1.118  10.824  0.0800  0.2229 -0.1232
 7770SOL    HW134772   0.664   1.048  10.849 -0.6551  0.1758  1.4666
 7770SOL    HW234773   0.664   1.190  10.847 -2.2527  1.7875  0.9852
 7771SOL     OW34774   3.113   2.156  15.851  0.2839 -0.5939 -0.5199
 7771SOL    HW134775   3.157   2.168  15.934  0.7687 -1.2980 -0.6759
 7771SOL    HW234776   3.021   2.168  15.876  1.0016  0.9201  1.4050
 7772SOL     OW34777   1.965   4.684   6.663 -0.2033 -0.3824 -0.1909
 7772SOL    HW134778   1.881   0.005   6.658  0.2054  0.2426 -1.3979
 7772SOL    HW234779   1.948   4.633   6.742 -0.0200  2.0678  1.4215
 7773SOL     OW34780   0.271   1.003   7.004  0.3810  0.8910  0.1280
 7773SOL    HW134781   0.209   1.068   6.972  1.1527  0.8999 -1.3858
 7773SOL    HW234782   0.353   1.051   6.990  0.7901 -0.2984 -1.6137
 7774SOL     OW34783   3.531   3.764   2.510  0.2155  0.2348 -0.1298
 7774SOL    HW134784   3.525   3.694   2.444  1.2211  1.1913 -1.2460
 7774SOL    HW234785   3.554   3.836   2.451 -1.0229  0.2656 -0.5820
 7775SOL     OW34786   4.182   1.450   6.688 -0.1389  0.5118 -0.4093
 7775SOL    HW134787   4.102   1.408   6.659  0.6009 -0.7448 -0.6305
 7775SOL    HW234788   4.233   1.375   6.718  0.2188  0.8982 -0.0450
 7776SOL     OW34789   2.429   2.291   8.874 -0.3593  0.0471 -0.4437
 7776SOL    HW134790   2.464   2.249   8.953  2.1191  0.6043 -1.2451
 7776SOL    HW234791   2.334   2.284   8.882 -0.4877  1.5613 -0.7329
 7777SOL     OW34792   1.468   0.976   4.308 -0.0947 -1.0072 -0.0791
 7777SOL    HW134793   1.413   1.041   4.353 -0.4227 -1.7327  0.5628
 7777SOL    HW234794   1.532   1.030   4.263 -1.8631  1.6872  0.5976
 7778SOL     OW34795   0.727   2.035   6.737  0.4375  0.5865 -0.3556
 7778SOL    HW134796   0.729   2.118   6.784 -2.7800  0.8898 -0.6937
 7778SOL    HW234797   0.713   2.052   6.644  0.8145  0.1182 -0.4998
 7779SOL     OW34798   2.200   1.228   4.364  0.3269 -0.1588  0.0574
 7779SOL    HW134799   2.232   1.138   4.353  3.1615  0.9671 -0.9936
 7779SOL    HW234800   2.106   1.210   4.366  0.4805 -0.6440  2.9776
 7780SOL     OW34801   3.845   1.914  15.900 -1.1841 -0.6246 -0.0908
 7780SOL    HW134802   3.832   1.891  15.992  0.4535 -1.5452 -0.0883
 7780SOL    HW234803   3.799   1.846  15.850  0.5377 -1.1126 -1.0210
 7781SOL     OW34804   3.921   3.255   4.992  0.2304  0.1166  0.6110
 7781SOL    HW134805   3.859   3.189   4.961 -0.6715  1.3273 -0.1811
 7781SOL    HW234806   3.994   3.234   4.933  0.7476 -1.2680  1.7306
 7782SOL     OW34807   3.965   4.252  15.175  0.0293  0.4766 -0.4421
 7782SOL    HW134808   3.906   4.214  15.241  1.0779 -0.2464  0.0707
 7782SOL    HW234809   3.956   4.345  15.191  2.6742  0.5663  0.3240
 7783SOL     OW34810   1.102   2.043   9.068  0.1437  0.2415  0.0665
 7783SOL    HW134811   1.104   1.952   9.096 -0.8300 -0.3262 -1.7401
 7783SOL    HW234812   1.007   2.044   9.069  0.1494 -1.0516  1.2867
 7784SOL     OW34813   0.545   1.345   8.235 -0.3876  0.6562  0.7267
 7784SOL    HW134814   0.533   1.350   8.330 -0.6810  0.8400  0.6787
 7784SOL    HW234815   0.541   1.440   8.224 -0.3157  0.3357 -2.0261
 7785SOL     OW34816   1.208   3.969   8.158 -0.1999 -0.2396  0.2815
 7785SOL    HW134817   1.242   3.892   8.113  1.6836  0.5450  0.3862
 7785SOL    HW234818   1.160   3.936   8.234 -2.4482  2.1029 -0.1010
 7786SOL     OW34819   0.653   1.532  13.126 -0.2308  0.5172  0.1272
 7786SOL    HW134820   0.610   1.472  13.065  0.3722 -0.1425  0.3422
 7786SOL    HW234821   0.579   1.580  13.163 -0.4843 -0.0116  0.3084
 7787SOL     OW34822   4.251   2.545   3.186 -0.2406 -0.6181  0.4158
 7787SOL    HW134823   4.296   2.524   3.104 -1.1726  0.3179 -0.3233
 7787SOL    HW234824   4.181   2.604   3.159  2.1741  1.3301 -1.6107
 7788SOL     OW34825   0.384   0.359   7.260  0.1093 -0.2742  0.0223
 7788SOL    HW134826   0.323   0.359   7.334 -1.1053  0.6298 -0.9790
 7788SOL    HW234827   0.357   0.278   7.216  1.7850  0.8984 -3.2219
 7789SOL     OW34828   4.440   4.071   1.072 -0.4990 -0.2118 -0.4326
 7789SOL    HW134829   4.354   4.104   1.097 -0.5906 -2.1797  1.9425
 7789SOL    HW234830   4.498   4.144   1.094 -0.4086  0.3072 -2.3963
 7790SOL     OW34831   1.040   4.067  15.730 -0.0495 -0.0526 -0.3313
 7790SOL    HW134832   1.026   4.106  15.643 -1.4727  1.5425  0.6043
 7790SOL    HW234833   1.059   4.143  15.785 -0.5255  0.7723 -1.3040
 7791SOL     OW34834   3.133   0.798  16.737  0.5141 -0.6534 -0.0187
 7791SOL    HW134835   3.110   0.877  16.688 -1.5848  0.0952  2.2038
 7791SOL    HW234836   3.142   0.735  16.666  1.7241 -1.1144  0.5304
 7792SOL     OW34837   2.775   2.484   4.013 -0.0569  0.0496  0.3102
 7792SOL    HW134838   2.681   2.485   3.998 -0.0780 -1.7292  0.3426
 7792SOL    HW234839   2.779   2.579   4.027 -1.3777 -0.1817  2.2520
 7793SOL     OW34840   4.032   2.119   7.651 -0.1664  0.1558 -0.5717
 7793SOL    HW134841   4.092   2.072   7.593  1.4707 -1.0960  2.1140
 7793SOL    HW234842   4.027   2.203   7.607 -0.4082  0.0548 -0.7377
 7794SOL     OW34843   4.704   3.978   5.173  0.3730 -0.1894 -0.1809
 7794SOL    HW134844   0.031   3.988   5.254  1.5172  0.6060 -1.0086
 7794SOL    HW234845   4.629   4.025   5.210 -0.0937  0.0143 -1.4078
 7795SOL     OW34846   4.715   0.462   7.742  0.1278 -0.2149 -0.0105
 7795SOL    HW134847   4.650   0.423   7.800  0.2079 -1.5399 -0.7896
 7795SOL    HW234848   0.052   0.392   7.717 -2.5626 -1.8762 -1.8328
 7796SOL     OW34849   3.094   1.215   9.939 -0.3187  0.4940 -0.1419
 7796SOL    HW134850   3.150   1.188   9.866  1.7972  0.8600  1.3278
 7796SOL    HW234851   3.025   1.250   9.884 -0.3345 -0.7258 -0.9049
 7797SOL     OW34852   0.409   0.552   5.166 -0.0515  0.5439 -0.3161
 7797SOL    HW134853   0.337   0.490   5.163 -0.6049  1.1908 -0.4613
 7797SOL    HW234854   0.426   0.558   5.260  0.3718  0.7520 -0.4053
 7798SOL     OW34855   3.293   1.263   9.196 -0.2245 -0.2588  0.0896
 7798SOL    HW134856   3.249   1.324   9.255  0.0358 -0.6713  0.7084
 7798SOL    HW234857   3.379   1.262   9.239 -0.2481  0.3913  0.1590
 7799SOL     OW34858   4.405   3.159   2.620  0.0988  0.0633  0.3659
 7799SOL    HW134859   4.328   3.144   2.566  0.8875 -0.1291 -0.7072
 7799SOL    HW234860   4.450   3.231   2.577  0.7702 -0.0546  0.8638
 7800SOL     OW34861   0.631   2.333   5.131 -0.1033 -0.8187 -0.2511
 7800SOL    HW134862   0.615   2.279   5.209  2.4680 -0.5609  0.4601
 7800SOL    HW234863   0.624   2.424   5.160 -1.0140 -0.8150 -0.4887
 7801SOL     OW34864   4.052   2.399  10.237 -0.2554 -0.4280  0.0428
 7801SOL    HW134865   4.025   2.313  10.268  0.3341 -0.9437 -0.8937
 7801SOL    HW234866   4.033   2.390  10.144  2.7378  1.9102 -0.8057
 7802SOL     OW34867   3.062   2.554   5.141 -0.2271 -0.0697 -0.5530
 7802SOL    HW134868   3.099   2.628   5.189  1.6507 -1.1609 -0.3223
 7802SOL    HW234869   3.114   2.482   5.177 -1.8029 -1.2399 -0.5861
 7803SOL     OW34870   3.299   1.713   8.483 -0.1056  0.1466 -0.0749
 7803SOL    HW134871   3.242   1.789   8.474 -1.7586 -1.1515 -0.7704
 7803SOL    HW234872   3.265   1.684   8.567  0.6025 -0.9464 -0.1554
 7804SOL     OW34873   2.188   3.483   5.119 -0.6043 -0.3350 -0.2254
 7804SOL    HW134874   2.098   3.517   5.118 -1.0030 -1.3859  0.1198
 7804SOL    HW234875   2.226   3.536   5.189  1.2054 -1.4560 -0.3738
 7805SOL     OW34876   2.470   1.000   4.121  0.8837  0.0354  0.4245
 7805SOL    HW134877   2.555   1.036   4.144  0.5978 -0.8527  2.8534
 7805SOL    HW234878   2.425   1.014   4.205  1.1253 -1.4273  0.7966
 7806SOL     OW34879   2.846   4.560   8.617 -0.2027 -0.3099  0.1991
 7806SOL    HW134880   2.886   4.633   8.571  0.5752 -0.9027 -0.0698
 7806SOL    HW234881   2.913   4.539   8.682  0.3224 -2.7904 -1.1558
 7807SOL     OW34882   0.080   2.967   8.158  0.0807  0.3325 -0.4892
 7807SOL    HW134883   0.005   3.019   8.128  0.0662  0.3273 -0.4620
 7807SOL    HW234884   0.065   2.943   8.249  0.3110  0.4841 -0.4120
 7808SOL     OW34885   4.273   0.756  14.399 -0.6828 -0.8651  0.2927
 7808SOL    HW134886   4.348   0.700  14.417  0.2726  0.6984  1.0747
 7808SOL    HW234887   4.224   0.752  14.481 -0.3126  2.3068  0.6274
 7809SOL     OW34888   3.500   4.012   5.918 -0.6550 -0.2820 -0.0332
 7809SOL    HW134889   3.561   4.086   5.910 -1.8769  0.6835 -0.5408
 7809SOL    HW234890   3.418   4.061   5.920 -0.5425 -0.1304  0.6894
 7810SOL     OW34891   2.344   0.531   7.090  0.0115  0.5238  0.0898
 7810SOL    HW134892   2.362   0.494   7.003 -2.2277  2.3504 -1.1596
 7810SOL    HW234893   2.330   0.452   7.143 -0.5798  0.2042 -0.5437
 7811SOL     OW34894   0.952   3.608   7.454  0.0986 -0.3271  0.0353
 7811SOL    HW134895   0.930   3.553   7.529  1.4147 -2.2666 -0.9948
 7811SOL    HW234896   1.047   3.594   7.454  0.2043  0.4251  0.5914
 7812SOL     OW34897   2.054   1.334   6.178  0.4214  0.3165  0.3846
 7812SOL    HW134898   2.008   1.380   6.107 -0.5024 -2.1263 -0.6128
 7812SOL    HW234899   1.983   1.334   6.243  1.5515 -0.3939  1.6119
 7813SOL     OW34900   4.266   1.497   9.880 -0.3839  0.0841 -0.0008
 7813SOL    HW134901   4.255   1.554   9.955  1.4751  0.4540 -0.0038
 7813SOL    HW234902   4.224   1.415   9.905  1.7359 -1.4137 -1.3444
 7814SOL     OW34903   3.532   2.833   4.564 -0.2835 -0.4965  0.0071
 7814SOL    HW134904   3.583   2.822   4.483  1.8747 -0.3012  1.3350
 7814SOL    HW234905   3.474   2.757   4.558 -1.0977  0.2121 -1.0343
 7815SOL     OW34906   3.287   3.655   9.865  0.3294 -0.2301 -0.0972
 7815SOL    HW134907   3.266   3.631   9.775 -2.7691 -1.3271  0.9391
 7815SOL    HW234908   3.269   3.580   9.922  0.6863 -0.2006  0.0571
 7816SOL     OW34909   0.377   1.032   6.622  0.5218 -0.5462  0.3480
 7816SOL    HW134910   0.376   1.083   6.541  1.9193  0.3266  0.8802
 7816SOL    HW234911   0.448   1.072   6.673 -1.0169  1.3400  1.0224
 7817SOL     OW34912   2.337   1.433   1.835  0.3565  0.5710  0.4890
 7817SOL    HW134913   2.346   1.444   1.741 -1.0858 -0.9977  0.1605
 7817SOL    HW234914   2.416   1.380   1.847 -1.6005 -2.4863 -0.2015
 7818SOL     OW34915   2.289   2.673   7.956 -0.5858 -0.3723 -0.5487
 7818SOL    HW134916   2.228   2.615   8.001 -1.7844  2.3313  1.3346
 7818SOL    HW234917   2.342   2.704   8.029  0.9186 -1.1329 -1.3260
 7819SOL     OW34918   2.626   2.352   0.714  0.6052 -0.1229  0.1420
 7819SOL    HW134919   2.571   2.289   0.762 -0.6192  2.7317  2.4666
 7819SOL    HW234920   2.572   2.429   0.698  2.9005  1.3151 -0.6140
 7820SOL     OW34921   4.312   2.822   5.050  0.5687 -0.4587 -0.0519
 7820SOL    HW134922   4.407   2.831   5.058  0.7264 -0.2726 -2.2944
 7820SOL    HW234923   4.300   2.728   5.037 -0.4387 -0.3545  0.0689
 7821SOL     OW34924   4.169   0.661   8.070 -0.0411  0.0425 -0.3177
 7821SOL    HW134925   4.103   0.651   8.139  0.4072  0.5726  0.1864
 7821SOL    HW234926   4.196   0.751   8.090  0.9302 -0.2082 -0.5013
 7822SOL     OW34927   2.680   3.687   8.373 -0.3245 -0.1476  0.0623
 7822SOL    HW134928   2.599   3.733   8.353 -0.5004  0.2115  1.6027
 7822SOL    HW234929   2.732   3.711   8.296  0.3030 -0.8910  0.2500
 7823SOL     OW34930   3.919   0.725   6.172 -0.3124 -0.2404 -0.1748
 7823SOL    HW134931   3.892   0.749   6.083 -1.3106  2.3131  0.8260
 7823SOL    HW234932   3.895   0.806   6.218 -0.2704  1.5306 -3.2385
 7824SOL     OW34933   2.997   1.615  12.179 -0.0197  0.6279  0.2666
 7824SOL    HW134934   2.923   1.576  12.132 -0.7949  0.7999  1.3605
 7824SOL    HW234935   2.974   1.585  12.267 -0.0013  0.1269  0.1046
 7825SOL     OW34936   4.429   2.818   1.962 -0.0208 -0.2459 -0.0364
 7825SOL    HW134937   4.447   2.733   2.003  2.7362  0.1563 -0.4119
 7825SOL    HW234938   4.378   2.855   2.034 -0.4229  0.0769 -0.4909
 7826SOL     OW34939   0.086   1.270   3.764 -0.6136 -0.1560  0.5434
 7826SOL    HW134940   0.064   1.178   3.751 -1.8372  0.2829 -0.5406
 7826SOL    HW234941   4.722   1.306   3.747 -0.9556 -1.8832 -1.2098
 7827SOL     OW34942   1.984   1.433   1.454 -0.1291  0.0028 -0.2786
 7827SOL    HW134943   2.061   1.407   1.403  0.8183  0.5308  0.8731
 7827SOL    HW234944   1.951   1.350   1.487 -0.8896  0.0819 -0.8396
 7828SOL     OW34945   2.617   0.292   2.670 -0.5054 -0.4522  0.4538
 7828SOL    HW134946   2.547   0.335   2.621 -0.5479 -2.9859 -1.7293
 7828SOL    HW234947   2.573   0.226   2.724  3.9290 -2.8984  1.0638
 7829SOL     OW34948   3.538   2.031   3.259  0.1418 -0.2205  0.2467
 7829SOL    HW134949   3.579   2.079   3.331  1.9314  0.1645 -1.0194
 7829SOL    HW234950   3.618   2.006   3.212  0.7349  2.8338 -0.3857
 7830SOL     OW34951   4.576   1.541  16.411 -0.7761  0.5808  0.2341
 7830SOL    HW134952   4.517   1.583  16.473  0.8620  0.0839  2.1443
 7830SOL    HW234953   4.554   1.578  16.325 -1.3644 -1.2117 -0.4077
 7831SOL     OW34954   4.276   3.595   1.109 -0.1963  0.1880  0.1750
 7831SOL    HW134955   4.252   3.683   1.136  0.5621 -0.0738  1.7251
 7831SOL    HW234956   4.342   3.615   1.042 -0.5996  1.6345  0.2123
 7832SOL     OW34957   2.129   4.083  17.117  0.2394  0.2042 -0.4324
 7832SOL    HW134958   2.044   4.124  17.130 -0.6825 -2.0530  0.7743
 7832SOL    HW234959   2.131   4.076  17.022  2.8961 -0.4188 -0.3298
 7833SOL     OW34960   2.086   1.695   4.122  0.0655 -0.2185 -1.0151
 7833SOL    HW134961   2.154   1.757   4.148  0.5973 -0.8893 -0.8176
 7833SOL    HW234962   2.064   1.736   4.038  0.6785  0.8496 -0.6522
 7834SOL     OW34963   2.170   0.366   8.195  0.2185  0.3353  0.0230
 7834SOL    HW134964   2.217   0.369   8.112 -0.1887 -1.9931 -0.2931
 7834SOL    HW234965   2.183   0.275   8.221  0.8402  0.6416  0.7841
 7835SOL     OW34966   2.533   4.642   8.118  0.5440  0.0486 -0.4056
 7835SOL    HW134967   2.598   4.576   8.098 -0.3568 -1.2131  0.8239
 7835SOL    HW234968   2.596   4.714   8.124  0.7810 -0.0124 -2.3901
 7836SOL     OW34969   3.510   0.030   6.437 -0.1600 -0.0402 -0.1621
 7836SOL    HW134970   3.563   0.108   6.422  0.6383 -0.5884 -0.2131
 7836SOL    HW234971   3.472   0.055   6.521  0.7386  0.8600 -0.0288
 7837SOL     OW34972   2.992   0.583   8.397 -0.2931  0.1342 -0.1562
 7837SOL    HW134973   3.071   0.619   8.438 -0.1101  0.1301 -0.5057
 7837SOL    HW234974   2.957   0.525   8.464 -0.2580 -0.8722 -1.0077
 7838SOL     OW34975   0.188   0.373   2.969  0.1463 -0.2620  0.1139
 7838SOL    HW134976   0.276   0.348   2.940  0.4421 -0.8129  1.4687
 7838SOL    HW234977   0.134   0.331   2.903  0.3219 -2.4568  1.3483
 7839SOL     OW34978   1.162   3.872  11.130 -0.2999  0.3349 -0.1385
 7839SOL    HW134979   1.126   3.791  11.165  1.2126 -0.2226  0.1114
 7839SOL    HW234980   1.249   3.872  11.170 -0.2584  1.9547 -0.2089
 7840SOL     OW34981   2.667   2.825   7.744  0.0954  0.2321  0.6688
 7840SOL    HW134982   2.606   2.760   7.710 -1.0332  1.7551 -0.1785
 7840SOL    HW234983   2.750   2.777   7.749  0.0575  0.4089  3.1164
 7841SOL     OW34984   1.013   0.005  14.342  0.5671  0.2636  0.0015
 7841SOL    HW134985   1.070   4.652  14.333  1.3170  0.8434 -0.1810
 7841SOL    HW234986   0.974   0.005  14.255 -0.4053  1.2207  0.4353
 7842SOL     OW34987   4.414   3.588  13.279 -0.3333 -0.2096  0.4251
 7842SOL    HW134988   4.392   3.612  13.190  0.6354 -1.7804 -0.2455
 7842SOL    HW234989   4.496   3.636  13.293  0.3329 -0.9628 -0.8627
 7843SOL     OW34990   4.709   4.422   3.716 -0.8263  0.0078  0.5445
 7843SOL    HW134991   4.713   4.476   3.637  1.5100  0.1742  0.7754
 7843SOL    HW234992   4.688   4.486   3.784  0.5649 -0.2636  1.2184
 7844SOL     OW34993   4.141   2.401   7.013 -0.0896  0.1444  0.4227
 7844SOL    HW134994   4.086   2.326   7.035  1.0504 -1.3541 -1.8406
 7844SOL    HW234995   4.077   2.471   7.024 -1.7183 -2.0278  4.6416
 7845SOL     OW34996   4.148   2.777  16.140 -0.3345  0.0057  0.0514
 7845SOL    HW134997   4.097   2.746  16.216  0.1522 -0.4802  0.1781
 7845SOL    HW234998   4.235   2.788  16.178  0.1865 -2.3700 -0.4699
 7846SOL     OW34999   2.538   2.994   5.991  0.2061  0.2987  0.0213
 7846SOL    HW135000   2.468   2.929   5.980 -0.2456  0.8465 -0.3110
 7846SOL    HW235001   2.490   3.075   5.973 -1.6527 -1.1213 -1.3904
 7847SOL     OW35002   1.037   1.871   3.289  0.4837 -0.2475  0.9898
 7847SOL    HW135003   0.970   1.928   3.326 -0.6050 -1.7976  1.3768
 7847SOL    HW235004   1.117   1.924   3.298 -0.5907  1.3927  0.8410
 7848SOL     OW35005   2.982   4.400   1.869  0.0852 -0.3138  0.2865
 7848SOL    HW135006   2.901   4.360   1.836  0.2452  0.2723 -0.8396
 7848SOL    HW235007   3.034   4.386   1.789 -1.1902 -0.6684 -0.4726
 7849SOL     OW35008   3.736   2.557   7.496 -0.6157 -0.0095  0.0841
 7849SOL    HW135009   3.653   2.600   7.477  0.2398  1.9719  0.8802
 7849SOL    HW235010   3.721   2.525   7.585  1.5075 -0.1598  0.4018
 7850SOL     OW35011   0.720   3.516   3.755 -0.4596 -0.3865  0.3602
 7850SOL    HW135012   0.732   3.611   3.747  1.3082 -0.6727 -0.2248
 7850SOL    HW235013   0.796   3.480   3.709 -0.0686 -2.3125  2.5099
 7851SOL     OW35014   3.219   1.150   7.982  0.4113  0.1203  0.0794
 7851SOL    HW135015   3.178   1.076   7.936 -0.6927  1.7512 -1.5852
 7851SOL    HW235016   3.206   1.220   7.917 -0.8170 -0.5376 -0.3718
 7852SOL     OW35017   3.616   2.008   6.683  0.5251  0.0600  0.6611
 7852SOL    HW135018   3.684   2.028   6.748  1.1899 -1.3795  0.4120
 7852SOL    HW235019   3.532   2.028   6.723  0.1695  0.2379 -0.1940
 7853SOL     OW35020   0.091   2.650   8.279  0.0726 -0.3988 -0.0389
 7853SOL    HW135021   0.056   2.566   8.250 -2.3625  0.5748  0.1568
 7853SOL    HW235022   0.066   2.711   8.211 -2.0522  1.5517  2.4857
 7854SOL     OW35023   4.518   2.100   2.615  0.3337  0.1725 -0.3572
 7854SOL    HW135024   4.591   2.150   2.578 -0.6389  1.2292 -0.8383
 7854SOL    HW235025   4.512   2.019   2.563 -0.7903 -0.3463  0.5796
 7855SOL     OW35026   2.161   4.615   9.302 -0.2981 -0.2134  0.0771
 7855SOL    HW135027   2.072   4.601   9.268 -0.6302  1.7425  0.1492
 7855SOL    HW235028   2.179   4.702   9.265 -0.1536 -0.0043  0.6477
 7856SOL     OW35029   2.073   4.120   5.222  0.2671 -0.4745  0.0525
 7856SOL    HW135030   2.035   4.032   5.227 -1.3939  0.1863 -1.1351
 7856SOL    HW235031   1.997   4.177   5.236  1.9528  1.9004 -0.4996
 7857SOL     OW35032   0.864   4.230   7.705 -0.1495  0.0049  0.3527
 7857SOL    HW135033   0.933   4.164   7.706  1.4980  1.7143 -0.6944
 7857SOL    HW235034   0.802   4.180   7.651  0.1754  0.4322 -0.4168
 7858SOL     OW35035   2.148   1.436   3.033  0.2946 -0.0381  0.1062
 7858SOL    HW135036   2.192   1.500   3.089  2.1930 -2.3368  1.2650
 7858SOL    HW235037   2.100   1.501   2.981 -1.3591 -0.0231  1.6548
 7859SOL     OW35038   2.636   3.404  12.374 -0.7066 -0.2339  0.2684
 7859SOL    HW135039   2.620   3.316  12.339 -0.2554 -0.0353 -0.4381
 7859SOL    HW235040   2.576   3.399  12.448  0.0717  2.5815  1.0831
 7860SOL     OW35041   3.678   4.404   5.300 -0.1224 -0.4743  0.0409
 7860SOL    HW135042   3.688   4.314   5.268 -0.7192 -0.4633 -0.1931
 7860SOL    HW235043   3.767   4.430   5.324 -0.8220  0.4310  1.6553
 7861SOL     OW35044   3.180   1.100   3.785 -0.0613  0.4757  0.2165
 7861SOL    HW135045   3.212   1.133   3.702  2.0235  0.2040  0.9236
 7861SOL    HW235046   3.259   1.064   3.824 -0.5639  0.3534  1.1336
 7862SOL     OW35047   3.297   1.955   6.195  0.0993  0.5101 -0.3644
 7862SOL    HW135048   3.288   2.049   6.183  0.2507  0.4464 -0.9831
 7862SOL    HW235049   3.221   1.946   6.254 -1.9174 -0.5162 -3.0876
 7863SOL     OW35050   3.733   4.009   5.278 -0.3678 -0.2839  0.4413
 7863SOL    HW135051   3.656   3.952   5.274 -0.2803 -0.5111  2.1938
 7863SOL    HW235052   3.696   4.058   5.352  0.1388  2.6452 -1.2463
 7864SOL     OW35053   1.443   1.031   8.129 -0.3502  0.3885 -0.5298
 7864SOL    HW135054   1.508   0.993   8.188  0.0390 -1.8272 -2.3883
 7864SOL    HW235055   1.504   1.079   8.074  0.6421  0.0546  0.2837
 7865SOL     OW35056   3.253   4.177  12.460 -0.6603 -0.6977  0.2092
 7865SOL    HW135057   3.306   4.110  12.505 -0.2448 -0.3572  0.2231
 7865SOL    HW235058   3.164   4.146  12.444 -0.6165  0.2988 -1.9416
 7866SOL     OW35059   1.977   4.249   3.714  0.6988  0.6225  0.1626
 7866SOL    HW135060   1.939   4.161   3.706  0.6260  0.5852  0.8650
 7866SOL    HW235061   2.009   4.239   3.804  0.2834 -0.0837  0.2390
 7867SOL     OW35062   3.938   1.521  12.571 -0.1013  0.1403 -0.3778
 7867SOL    HW135063   3.858   1.571  12.557  0.2078  0.0259 -2.6951
 7867SOL    HW235064   3.994   1.546  12.496  1.3530  0.8808  0.9460
 7868SOL     OW35065   1.712   4.666  13.940  0.5024  0.1527 -0.2505
 7868SOL    HW135066   1.696   4.672  13.846 -0.8219 -0.2041 -0.0480
 7868SOL    HW235067   1.745   4.577  13.941  2.3087  0.8544  1.6737
 7869SOL     OW35068   2.486   0.806  11.345  0.1653 -1.2841 -0.0804
 7869SOL    HW135069   2.479   0.900  11.326  1.4203 -0.6542  2.5357
 7869SOL    HW235070   2.529   0.820  11.429 -0.7674  0.7933  0.0593
 7870SOL     OW35071   3.941   2.451  12.417 -0.5034  0.1353 -0.3441
 7870SOL    HW135072   4.006   2.426  12.483 -2.9007 -2.6116  0.9527
 7870SOL    HW235073   3.933   2.542  12.445 -0.5358  0.3609 -1.0891
 7871SOL     OW35074   1.377   2.232   9.963  0.1623 -0.6605  0.2266
 7871SOL    HW135075   1.370   2.294  10.036  2.2400 -0.6504  0.4187
 7871SOL    HW235076   1.291   2.242   9.921  1.2522 -0.0491 -1.8794
 7872SOL     OW35077   2.072   0.286  15.786 -0.2352 -0.1321 -0.8203
 7872SOL    HW135078   2.091   0.370  15.830 -1.3344  0.5676 -1.6876
 7872SOL    HW235079   1.999   0.322  15.735  0.5880  2.4715 -0.1927
 7873SOL     OW35080   3.886   1.963  17.163  0.1724  0.9050  0.0120
 7873SOL    HW135081   3.797   1.971  17.128 -0.2266 -0.8569  0.6275
 7873SOL    HW235082   3.866   1.949  17.256 -1.0061  1.9707 -0.0884
 7874SOL     OW35083   1.402   1.449  10.012 -0.0006  0.1854  0.6193
 7874SOL    HW135084   1.344   1.461   9.937  3.0754  1.1869 -1.5741
 7874SOL    HW235085   1.392   1.534  10.055  1.4557 -0.1367  1.5930
 7875SOL     OW35086   4.429   3.738  10.457 -0.3932 -0.4239 -0.5086
 7875SOL    HW135087   4.485   3.769  10.386 -2.4969  1.0284 -1.5430
 7875SOL    HW235088   4.341   3.767  10.432 -0.5981 -1.1564 -0.6360
 7876SOL     OW35089   0.833   4.383   7.919  0.8151 -0.6237  0.4439
 7876SOL    HW135090   0.927   4.391   7.937  1.5599 -4.0003 -2.0471
 7876SOL    HW235091   0.829   4.324   7.843 -2.5551 -0.4894  0.4921
 7877SOL     OW35092   0.559   4.172   6.564 -0.4086  0.2176 -0.1475
 7877SOL    HW135093   0.499   4.122   6.619  0.6355  1.2601  1.9110
 7877SOL    HW235094   0.584   4.106   6.500 -0.1969  0.5924 -0.4509
 7878SOL     OW35095   1.056   1.167   5.383  0.1862 -0.1970  0.1237
 7878SOL    HW135096   1.094   1.188   5.297 -0.0652 -0.5887 -0.0800
 7878SOL    HW235097   1.041   1.259   5.404 -0.0491 -0.2908  0.3686
 7879SOL     OW35098   3.218   0.156   3.964 -0.3155  0.2801 -0.2326
 7879SOL    HW135099   3.230   0.214   4.039 -0.0149 -0.2092  0.0913
 7879SOL    HW235100   3.193   0.215   3.892 -0.1476  1.5442  0.7465
 7880SOL     OW35101   3.744   0.255  14.406  0.1847 -0.0206  0.4936
 7880SOL    HW135102   3.691   0.328  14.438 -0.1160  0.1670 -0.4078
 7880SOL    HW235103   3.678   0.211  14.352  1.0278 -1.8299  0.9561
 7881SOL     OW35104   3.603   1.869   2.881  0.2089 -0.0815 -0.3339
 7881SOL    HW135105   3.516   1.833   2.869 -0.2232  1.2127 -1.0983
 7881SOL    HW235106   3.602   1.945   2.823 -0.3765  1.5226  1.7908
 7882SOL     OW35107   3.163   1.343   8.642  0.4945  0.0630 -0.4221
 7882SOL    HW135108   3.096   1.277   8.662  0.1014  0.2708 -1.0577
 7882SOL    HW235109   3.108   1.414   8.610  0.4014  0.3105  0.2873
 7883SOL     OW35110   3.401   3.410   2.661  0.0352  0.2657  0.0276
 7883SOL    HW135111   3.409   3.363   2.578 -1.7412 -0.8285  0.4906
 7883SOL    HW235112   3.353   3.487   2.629  1.6975  0.9810 -0.7723
 7884SOL     OW35113   3.315   2.801   2.330  0.2689 -0.3341  0.6453
 7884SOL    HW135114   3.307   2.802   2.425 -2.5412 -0.1941  0.4061
 7884SOL    HW235115   3.365   2.882   2.320 -0.7824  0.3185  0.6340
 7885SOL     OW35116   3.676   2.972   4.722  0.0265 -0.2005  0.7546
 7885SOL    HW135117   3.768   2.948   4.714 -0.3009 -0.5116 -2.0072
 7885SOL    HW235118   3.628   2.906   4.672 -0.6787  0.0012  1.1589
 7886SOL     OW35119   2.930   1.032   4.712  0.2378  0.4214  0.1588
 7886SOL    HW135120   3.017   1.040   4.672  0.8145  0.1301  1.3495
 7886SOL    HW235121   2.931   1.109   4.769  0.1506  2.0093 -1.9983
 7887SOL     OW35122   4.493   1.693   1.799  0.1623 -0.2195  0.4006
 7887SOL    HW135123   4.429   1.714   1.867 -2.4098  1.0966 -2.4480
 7887SOL    HW235124   4.576   1.683   1.846 -0.2056 -1.6872  0.7433
 7888SOL     OW35125   3.052   1.738   5.812 -0.3322  0.1817 -0.5200
 7888SOL    HW135126   3.029   1.669   5.874  0.3564  0.4804  0.0688
 7888SOL    HW235127   3.123   1.782   5.858 -1.5312 -0.7860  2.2713
 7889SOL     OW35128   3.892   0.882   1.844 -0.0058  0.4433  0.3844
 7889SOL    HW135129   3.803   0.859   1.820 -0.2907  1.6202  0.3103
 7889SOL    HW235130   3.908   0.958   1.788  0.3794  0.7692  0.9312
 7890SOL     OW35131   0.077   3.480  12.668  0.1839 -0.4107  0.0923
 7890SOL    HW135132   0.049   3.405  12.616  0.9533 -1.4600  1.1797
 7890SOL    HW235133   0.079   3.546  12.599 -1.2261 -0.4692 -0.0147
 7891SOL     OW35134   4.676   0.862   1.272  0.1023  0.2840 -0.2235
 7891SOL    HW135135   4.614   0.814   1.327  0.1092  0.4359 -0.0853
 7891SOL    HW235136   4.689   0.800   1.200 -2.3845  1.7323 -1.9430
 7892SOL     OW35137   4.698   0.749   7.833  0.4133 -0.2116 -0.7426
 7892SOL    HW135138   4.708   0.659   7.801  0.3662 -0.9017  1.2112
 7892SOL    HW235139   4.652   0.793   7.761  1.2602 -0.8749 -1.6897
 7893SOL     OW35140   0.344   1.898   5.653 -0.4128 -0.2979 -0.7027
 7893SOL    HW135141   0.412   1.904   5.720 -1.0707 -1.1354  0.0420
 7893SOL    HW235142   0.269   1.931   5.702  0.6828 -1.2799  1.6135
 7894SOL     OW35143   3.015   2.349   2.307 -0.1102 -0.3005 -0.4512
 7894SOL    HW135144   3.068   2.427   2.289  0.7106 -1.0489 -1.2644
 7894SOL    HW235145   3.053   2.310   2.386 -1.2683  1.3561  0.9393
 7895SOL     OW35146   4.498   4.171   2.413  0.3497  0.1478  0.0567
 7895SOL    HW135147   4.428   4.128   2.461 -0.4150 -0.9892 -2.0687
 7895SOL    HW235148   4.541   4.218   2.484 -1.4256 -0.1270  1.3193
 7896SOL     OW35149   0.993   3.506   2.688 -0.0118  0.7114 -0.2871
 7896SOL    HW135150   0.925   3.517   2.754 -0.5741 -0.2795 -0.6947
 7896SOL    HW235151   0.958   3.547   2.609  0.8645  0.6745 -0.6951
 7897SOL     OW35152   0.186   1.077   1.141 -0.6100  0.0230 -0.4599
 7897SOL    HW135153   0.252   1.010   1.157 -0.9997  0.0528  1.3517
 7897SOL    HW235154   0.104   1.028   1.150 -0.1592 -0.4392  1.1419
 7898SOL     OW35155   1.838   0.880   7.530  0.1292 -0.0184  0.3365
 7898SOL    HW135156   1.813   0.829   7.453 -1.7029 -1.3367  1.7919
 7898SOL    HW235157   1.812   0.822   7.602 -2.5887  1.1187  0.2782
 7899SOL     OW35158   2.888   0.001   8.062  0.4515  0.5306  0.7884
 7899SOL    HW135159   2.943   0.061   8.111  0.2281  0.1530  1.5017
 7899SOL    HW235160   2.814   0.057   8.038  0.3526 -0.1041 -0.3844
 7900SOL     OW35161   3.166   4.180   4.724 -0.6836 -0.2129  0.1585
 7900SOL    HW135162   3.094   4.188   4.662  0.0869 -0.9908 -0.8245
 7900SOL    HW235163   3.232   4.234   4.681 -1.9431  0.0618 -1.3874
 7901SOL     OW35164   2.349   3.231  10.732  0.2649 -0.7335  0.2108
 7901SOL    HW135165   2.319   3.312  10.773 -0.7793 -0.7462 -0.5132
 7901SOL    HW235166   2.270   3.179  10.748 -0.5313  0.4550  0.1371
 7902SOL     OW35167   2.073   2.198   3.001 -0.4169  0.3678 -0.2438
 7902SOL    HW135168   2.003   2.152   3.047  0.6665 -1.8708 -0.8252
 7902SOL    HW235169   2.057   2.290   3.021  3.0740  1.1539 -1.0455
 7903SOL     OW35170   4.464   0.356   5.643 -0.3423  0.4520 -0.0500
 7903SOL    HW135171   4.406   0.337   5.716  0.3399  0.1014  0.4089
 7903SOL    HW235172   4.427   0.433   5.600  2.2962  0.7984 -1.7150
 7904SOL     OW35173   3.569   3.571   4.882  0.0440 -0.0615 -0.1918
 7904SOL    HW135174   3.534   3.659   4.870 -1.6033 -1.1981 -3.7752
 7904SOL    HW235175   3.650   3.587   4.931 -0.9265  1.6215  0.8332
 7905SOL     OW35176   3.615   4.198   8.746  0.0517 -0.0096 -0.4043
 7905SOL    HW135177   3.593   4.241   8.663 -0.3164  0.8149  0.1229
 7905SOL    HW235178   3.704   4.171   8.721  0.1077 -1.8442  1.7992
 7906SOL     OW35179   1.947   4.058  10.088 -0.3308 -0.0440  0.1641
 7906SOL    HW135180   1.951   4.150  10.061 -1.0942  0.0588  0.4144
 7906SOL    HW235181   1.930   4.057  10.182 -4.5287  1.6155 -0.6161
 7907SOL     OW35182   3.783   0.091   3.834 -0.3476  0.0222 -0.3641
 7907SOL    HW135183   3.717   0.157   3.856  1.3095  1.1928  1.1326
 7907SOL    HW235184   3.863   0.137   3.807 -0.1165  0.8239  1.7202
 7908SOL     OW35185   3.569   3.137  10.331 -0.5440 -0.3460  0.5619
 7908SOL    HW135186   3.661   3.144  10.305 -0.9611 -0.6483 -0.9505
 7908SOL    HW235187   3.582   3.102  10.420  0.6751  1.1155  0.9648
 7909SOL     OW35188   0.404   1.930  13.570 -0.0986 -0.1836  0.0229
 7909SOL    HW135189   0.472   1.944  13.505 -1.9094 -1.0004 -2.0482
 7909SOL    HW235190   0.335   1.886  13.520  1.5757 -3.2274  0.4037
 7910SOL     OW35191   1.438   0.657   6.400 -0.0727 -0.1548  0.4472
 7910SOL    HW135192   1.344   0.666   6.413  0.2897  1.2517  2.0633
 7910SOL    HW235193   1.444   0.672   6.305 -2.8517 -2.0349 -0.0325
 7911SOL     OW35194   2.276   3.853   6.449 -0.0219  0.8363  0.6211
 7911SOL    HW135195   2.300   3.927   6.394 -1.1854  1.0402  0.3937
 7911SOL    HW235196   2.332   3.782   6.417 -1.7830  1.0234 -2.9177
 7912SOL     OW35197   1.510   1.870   7.009  0.2274  0.2420 -0.2591
 7912SOL    HW135198   1.510   1.787   6.960  0.4304  1.0235 -1.5739
 7912SOL    HW235199   1.571   1.844   7.078  0.4846 -0.5858 -0.7903
 7913SOL     OW35200   1.900   4.473   2.745  0.5224 -0.0755  0.2757
 7913SOL    HW135201   1.863   4.430   2.822 -2.0714  3.2813  0.9196
 7913SOL    HW235202   1.955   4.408   2.701 -0.1136  0.3560 -1.1528
 7914SOL     OW35203   1.255   0.745  15.236 -0.1860  0.2168  0.6805
 7914SOL    HW135204   1.247   0.672  15.298  0.4370 -0.6605 -0.2643
 7914SOL    HW235205   1.339   0.779  15.266  0.5036 -1.8192  1.0489
 7915SOL     OW35206   4.370   0.789   7.756 -0.0411 -0.6162  0.0730
 7915SOL    HW135207   4.425   0.835   7.692 -0.5162 -0.7053 -0.3968
 7915SOL    HW235208   4.344   0.867   7.803 -0.1454 -0.3517 -0.4210
 7916SOL     OW35209   3.158   1.415   6.211 -0.0755  0.4937 -0.7707
 7916SOL    HW135210   3.090   1.431   6.276  0.9241  0.0440  0.3917
 7916SOL    HW235211   3.153   1.320   6.213 -0.9797  0.5374 -1.0067
 7917SOL     OW35212   2.802   3.111   4.137 -0.0967  0.1953 -0.2740
 7917SOL    HW135213   2.799   3.184   4.199  0.5778  0.6089 -0.7265
 7917SOL    HW235214   2.807   3.161   4.055 -1.0005 -2.3725 -1.8956
 7918SOL     OW35215   1.609   1.827   4.542  0.1983 -0.2458  0.2185
 7918SOL    HW135216   1.644   1.798   4.626  0.3268  3.1836  1.3449
 7918SOL    HW235217   1.685   1.863   4.497  0.1421  1.0167  1.1273
 7919SOL     OW35218   4.036   1.102  15.557 -0.2006  0.1254 -0.2510
 7919SOL    HW135219   4.106   1.150  15.601 -0.1498  1.1201 -1.3984
 7919SOL    HW235220   4.088   1.087  15.478  1.0612 -2.1757  1.0053
 7920SOL     OW35221   2.906   2.077   3.125 -0.0442 -0.2841  0.3269
 7920SOL    HW135222   2.832   2.028   3.161 -0.6455  0.3148 -0.0875
 7920SOL    HW235223   2.976   2.046   3.182  0.0544  3.1272  2.0978
 7921SOL     OW35224   0.087   3.550  11.879 -0.1724  0.6948  0.1776
 7921SOL    HW135225   0.101   3.548  11.784  1.5801  0.8907  0.4236
 7921SOL    HW235226   0.040   3.633  11.885  0.0816  0.9087 -0.8120
 7922SOL     OW35227   2.687   3.408  13.234  0.4597  0.6461 -0.1178
 7922SOL    HW135228   2.776   3.441  13.226  0.6606 -0.3078 -1.6941
 7922SOL    HW235229   2.657   3.401  13.144  1.0748  0.7951 -0.3311
 7923SOL     OW35230   3.325   3.801   6.260  0.0473  0.0869  0.1670
 7923SOL    HW135231   3.267   3.808   6.336 -1.4343  2.4429 -1.1702
 7923SOL    HW235232   3.400   3.859   6.275  1.3213 -1.3164 -0.7975
 7924SOL     OW35233   0.717   1.339  12.124  0.3578  0.6736  0.2259
 7924SOL    HW135234   0.790   1.365  12.180  0.5497  1.2075 -0.2781
 7924SOL    HW235235   0.751   1.258  12.084  0.9147  1.2135 -0.3964
 7925SOL     OW35236   4.159   2.165   3.470 -0.0685  0.2494 -0.0982
 7925SOL    HW135237   4.134   2.140   3.381  1.0048  1.1517 -0.6486
 7925SOL    HW235238   4.180   2.258   3.458 -1.8230  0.8205  1.2882
 7926SOL     OW35239   4.130   3.314   6.069 -0.0261  0.1688 -0.9224
 7926SOL    HW135240   4.044   3.276   6.088  0.1108  0.3746  0.0531
 7926SOL    HW235241   4.108   3.369   5.993  2.8755  0.9538 -1.1709
 7927SOL     OW35242   2.134   3.493   9.315 -0.6457  0.2940  0.0145
 7927SOL    HW135243   2.216   3.449   9.295  0.6383  2.3059  0.8778
 7927SOL    HW235244   2.099   3.431   9.378  0.5901  1.6569  2.0145
 7928SOL     OW35245   4.154   0.396   5.247  0.1074  0.0868 -0.0478
 7928SOL    HW135246   4.111   0.383   5.162  0.8311  0.8780 -0.5363
 7928SOL    HW235247   4.082   0.433   5.298 -1.4526 -0.1860 -2.0485
 7929SOL     OW35248   2.282   2.557   5.463  0.3537 -0.1387 -0.6988
 7929SOL    HW135249   2.319   2.540   5.549 -1.3132  1.2980  0.2980
 7929SOL    HW235250   2.188   2.561   5.482  0.2625  1.1133 -1.3511
 7930SOL     OW35251   0.183   4.475   3.941 -0.7530 -0.5592 -0.2564
 7930SOL    HW135252   0.141   4.394   3.971 -2.0695 -0.3365 -1.4848
 7930SOL    HW235253   0.112   4.540   3.941  0.1174  0.3855  0.6721
 7931SOL     OW35254   3.130   4.295  11.665 -0.0980 -0.4133 -0.8170
 7931SOL    HW135255   3.113   4.256  11.751 -0.4649  2.0638  0.2253
 7931SOL    HW235256   3.053   4.349  11.649 -0.4842 -0.6936  0.0510
 7932SOL     OW35257   4.458   3.707   3.779  0.1427  0.3803  0.6994
 7932SOL    HW135258   4.379   3.661   3.752  1.0204 -0.0004 -1.1995
 7932SOL    HW235259   4.442   3.706   3.873 -1.4600  2.3274  0.4428
 7933SOL     OW35260   1.348   3.578   7.213 -0.5721 -0.4465 -1.2585
 7933SOL    HW135261   1.313   3.595   7.126 -0.2294  2.1794 -0.8907
 7933SOL    HW235262   1.433   3.550   7.179  1.2347  2.6661  0.7423
 7934SOL     OW35263   0.556   4.295   3.326  0.3265 -0.1940 -0.6001
 7934SOL    HW135264   0.650   4.289   3.343  0.0339 -1.8825  0.4105
 7934SOL    HW235265   0.548   4.203   3.301  0.8073  0.5740 -3.6324
 7935SOL     OW35266   1.916   2.663   1.834 -0.4032  0.1452  0.0968
 7935SOL    HW135267   2.011   2.657   1.843 -0.6900 -1.4471  1.9985
 7935SOL    HW235268   1.914   2.752   1.799 -2.7450 -0.2895 -0.8823
 7936SOL     OW35269   1.217   0.738   8.650 -0.4137 -0.5506  0.2663
 7936SOL    HW135270   1.286   0.768   8.709 -0.3425 -0.9529  0.3951
 7936SOL    HW235271   1.254   0.716   8.565 -1.3542  0.3726 -0.3808
 7937SOL     OW35272   1.448   1.072   7.531 -0.3834 -0.1365 -0.6455
 7937SOL    HW135273   1.448   0.986   7.573 -4.1082 -0.1446 -0.7038
 7937SOL    HW235274   1.366   1.068   7.482 -0.6136  1.6986 -0.4162
 7938SOL     OW35275   2.450   0.895   9.537 -0.4581  0.5997  0.4348
 7938SOL    HW135276   2.435   0.987   9.556  0.6069  0.4307  2.0945
 7938SOL    HW235277   2.545   0.895   9.533 -0.2831  1.7559  4.0902
 7939SOL     OW35278   4.143   2.844   2.458 -0.5229  0.1737 -0.1406
 7939SOL    HW135279   4.174   2.756   2.435 -0.7321  0.2262 -0.6149
 7939SOL    HW235280   4.137   2.845   2.554 -0.0597  1.2174 -0.1203
 7940SOL     OW35281   0.697   1.665   4.390  0.4544 -0.3547 -0.1909
 7940SOL    HW135282   0.665   1.576   4.376  0.0568  0.0664 -2.0419
 7940SOL    HW235283   0.650   1.692   4.468 -0.1650 -0.7407 -0.4269
 7941SOL     OW35284   2.180   2.491   0.734  0.1856 -0.1674 -0.0642
 7941SOL    HW135285   2.227   2.568   0.702  2.3430 -1.0676  0.9057
 7941SOL    HW235286   2.234   2.478   0.812  2.0619 -0.5665 -1.4191
 7942SOL     OW35287   4.362   0.841   4.587 -0.4661 -0.0194 -0.1008
 7942SOL    HW135288   4.367   0.875   4.497  1.6502  2.2392  0.8420
 7942SOL    HW235289   4.428   0.896   4.631  0.3748 -0.5437 -0.7014
 7943SOL     OW35290   4.550   1.755   4.203 -0.1929  0.2595  0.1470
 7943SOL    HW135291   4.513   1.672   4.173  1.4458 -1.7295  3.7234
 7943SOL    HW235292   4.603   1.792   4.132  3.7767 -0.8905  2.5030
 7944SOL     OW35293   0.640   2.180   5.657  0.2097 -0.0541 -0.9995
 7944SOL    HW135294   0.572   2.164   5.723  1.0737 -1.1536 -0.3749
 7944SOL    HW235295   0.590   2.247   5.610 -1.7601 -0.6027  0.2922
 7945SOL     OW35296   2.548   2.637   0.925 -0.0523 -0.2524  0.1030
 7945SOL    HW135297   2.607   2.693   0.874 -0.5435  2.0477  2.0161
 7945SOL    HW235298   2.580   2.665   1.011  0.1596 -0.6199  0.1414
 7946SOL     OW35299   1.162   1.091   3.790  0.0785 -0.6017  0.3206
 7946SOL    HW135300   1.223   1.095   3.716 -0.1937 -1.3291  0.0545
 7946SOL    HW235301   1.165   1.000   3.819  1.8863 -0.2215  1.2766
 7947SOL     OW35302   0.795   3.005   2.704  0.5859 -0.4591  0.1128
 7947SOL    HW135303   0.805   3.100   2.696 -1.6527 -0.4398 -2.8281
 7947SOL    HW235304   0.825   3.000   2.794  0.9386  0.9640  0.0777
 7948SOL     OW35305   2.363   3.124   5.738 -0.4743 -0.1023 -0.0464
 7948SOL    HW135306   2.437   3.106   5.680  0.9820 -0.1192  1.8154
 7948SOL    HW235307   2.309   3.180   5.682 -0.9302 -0.4561  0.0325
 7949SOL     OW35308   2.466   0.244  15.565 -0.9073  0.2450 -0.0055
 7949SOL    HW135309   2.424   0.168  15.524  2.0343 -1.5536  0.3481
 7949SOL    HW235310   2.443   0.241  15.658  1.7882  3.6004  0.7211
 7950SOL     OW35311   3.746   0.848   4.863 -0.1616  0.2745 -0.0954
 7950SOL    HW135312   3.703   0.832   4.947  2.3472  0.3868  1.2119
 7950SOL    HW235313   3.672   0.849   4.803  0.8554 -1.7440 -1.3684
 7951SOL     OW35314   1.711   1.962   5.372 -0.2737 -0.0358 -0.6235
 7951SOL    HW135315   1.664   2.025   5.318 -1.6943  1.5964  2.5786
 7951SOL    HW235316   1.716   1.881   5.321 -0.6024  1.0743 -2.4144
 7952SOL     OW35317   1.042   3.674   4.670 -0.3536  0.3248  0.2858
 7952SOL    HW135318   1.038   3.721   4.753  0.2570  0.5472  0.1912
 7952SOL    HW235319   1.131   3.690   4.637  0.0130  0.0583  1.1543
 7953SOL     OW35320   0.799   2.120   8.756 -0.6857  0.0973  0.0547
 7953SOL    HW135321   0.834   2.167   8.680  1.0496 -0.7675  0.3352
 7953SOL    HW235322   0.835   2.035   8.730 -1.0389  0.2685 -1.0143
 7954SOL     OW35323   3.624   0.625   9.319  0.3556 -0.4620  0.2319
 7954SOL    HW135324   3.550   0.569   9.296  0.6478 -1.0221  0.6588
 7954SOL    HW235325   3.626   0.690   9.248 -2.3290 -0.2159  0.4083
 7955SOL     OW35326   3.659   3.076   0.190 -0.3037 -0.6482  0.2570
 7955SOL    HW135327   3.733   3.133   0.208 -0.8038  0.5948 -1.6321
 7955SOL    HW235328   3.712   3.016   0.136 -0.0006 -0.4547  0.3401
 7956SOL     OW35329   3.084   0.330   2.939 -0.2996  0.4241 -0.3235
 7956SOL    HW135330   2.996   0.297   2.920  0.1012 -1.1258  0.4750
 7956SOL    HW235331   3.122   0.348   2.854 -0.3218  0.7714 -0.2571
 7957SOL     OW35332   4.174   1.585   5.726 -0.1051  0.4394  0.0698
 7957SOL    HW135333   4.117   1.511   5.744  0.7400 -0.4743 -0.9993
 7957SOL    HW235334   4.180   1.637   5.806 -0.9518 -1.1430  1.1557
 7958SOL     OW35335   0.727   1.980  12.972 -0.0017  0.0396  0.1726
 7958SOL    HW135336   0.788   2.053  12.984 -0.2808  0.3778 -0.4634
 7958SOL    HW235337   0.731   1.979  12.877  1.7583 -0.2073  0.2457
 7959SOL     OW35338   2.282   3.201  15.356  0.6823  0.4582  0.5803
 7959SOL    HW135339   2.202   3.147  15.359 -0.0031  1.2085 -3.5425
 7959SOL    HW235340   2.248   3.254  15.284  0.7119 -1.0437 -0.5469
 7960SOL     OW35341   1.512   0.191   7.318  0.1614  0.1639  0.0418
 7960SOL    HW135342   1.432   0.148   7.347  0.0443  0.0637 -0.4170
 7960SOL    HW235343   1.487   0.281   7.338  0.2012  0.0040  0.7966
 7961SOL     OW35344   3.672   3.512   7.390  0.4707  0.0766 -0.2143
 7961SOL    HW135345   3.658   3.449   7.320  1.3042 -1.8266  1.3150
 7961SOL    HW235346   3.648   3.468   7.472  2.3173 -0.4361  0.0345
 7962SOL     OW35347   1.240   2.127   4.426  0.1925 -0.1727 -0.0263
 7962SOL    HW135348   1.309   2.111   4.361 -1.9974 -1.2054 -2.0799
 7962SOL    HW235349   1.161   2.117   4.374  1.6436  1.0896 -2.4995
 7963SOL     OW35350   4.277   4.599   4.659  0.4308  0.0484 -0.1912
 7963SOL    HW135351   4.341   4.553   4.714 -1.5598 -0.1318  1.9285
 7963SOL    HW235352   4.206   4.610   4.722  0.4249  2.4527 -0.6293
 7964SOL     OW35353   1.667   0.279  17.256 -0.3989 -0.2203  0.0584
 7964SOL    HW135354   1.666   0.200  17.310  0.4739 -0.4288 -0.2256
 7964SOL    HW235355   1.756   0.307  17.278 -0.3699 -0.6153  0.4312
 7965SOL     OW35356   2.799   3.063   1.051 -0.1722 -0.1761  0.4058
 7965SOL    HW135357   2.860   3.027   0.987 -0.3639  0.5681 -0.2066
 7965SOL    HW235358   2.813   3.157   1.040  1.1530 -0.6113 -1.5951
 7966SOL     OW35359   0.855   0.870  14.253 -0.0405  0.1297  0.0516
 7966SOL    HW135360   0.794   0.941  14.232 -0.3038 -0.5407 -1.4709
 7966SOL    HW235361   0.937   0.899  14.214  0.7203 -0.3471  1.3129
 7967SOL     OW35362   1.984   0.675   8.770 -0.1627 -0.6631 -0.6706
 7967SOL    HW135363   1.990   0.608   8.701 -0.6320 -0.3362 -1.0267
 7967SOL    HW235364   1.900   0.716   8.749 -0.4922 -1.7987 -1.6044
 7968SOL     OW35365   0.582   3.784   3.262  1.0498 -0.0168  0.0504
 7968SOL    HW135366   0.547   3.729   3.192 -4.2953  2.5482  0.7206
 7968SOL    HW235367   0.637   3.723   3.311 -0.4867 -0.8249  0.7531
 7969SOL     OW35368   1.516   4.705  11.978 -0.1420  0.2346 -0.2079
 7969SOL    HW135369   1.435   4.659  11.955 -0.2613 -0.9776  2.6261
 7969SOL    HW235370   1.486   0.065  12.013 -0.6741 -0.9504  2.1329
 7970SOL     OW35371   2.793   3.312   1.420 -0.4760  0.1016  0.5293
 7970SOL    HW135372   2.876   3.280   1.456  0.3007  3.8053  2.0265
 7970SOL    HW235373   2.740   3.233   1.411 -1.2281  1.0932 -3.4357
 7971SOL     OW35374   2.284   3.941   3.945  0.2968 -0.0068 -0.0698
 7971SOL    HW135375   2.327   3.855   3.944 -1.4310 -0.8808  2.9950
 7971SOL    HW235376   2.354   4.006   3.938 -0.0951  0.5551  1.3465
 7972SOL     OW35377   3.363   1.528   5.371  0.5720 -0.0669  0.0724
 7972SOL    HW135378   3.272   1.557   5.383  1.6719  3.8254 -1.0094
 7972SOL    HW235379   3.376   1.548   5.278 -2.0114 -0.8971 -0.4675
 7973SOL     OW35380   0.070   2.887   7.660  0.1634 -0.1969 -0.1444
 7973SOL    HW135381   0.039   2.797   7.654  1.3869 -0.6384  0.0505
 7973SOL    HW235382   0.073   2.900   7.566  2.0384 -0.8849 -0.1752
 7974SOL     OW35383   3.397   2.304   4.396  0.2783  0.5900 -0.5118
 7974SOL    HW135384   3.370   2.305   4.488  2.5538  2.1490  0.1320
 7974SOL    HW235385   3.365   2.388   4.363 -1.1382  0.0133 -0.6181
 7975SOL     OW35386   0.867   0.322  17.200 -0.4897 -0.1478  0.1335
 7975SOL    HW135387   0.772   0.308  17.202 -0.7301  1.7527  1.5628
 7975SOL    HW235388   0.875   0.408  17.159 -0.0698 -0.1573  0.1937
 7976SOL     OW35389   2.831   3.225  17.193 -0.2318  0.0374 -0.1134
 7976SOL    HW135390   2.801   3.136  17.207  1.9156 -0.4882  1.1096
 7976SOL    HW235391   2.885   3.246  17.269  0.6454 -0.3378 -0.6204
 7977SOL     OW35392   0.916   4.062   8.290 -0.2948  0.0008 -0.2460
 7977SOL    HW135393   0.923   4.049   8.195 -0.9349 -1.9987 -0.0061
 7977SOL    HW235394   0.826   4.094   8.286 -0.0505  0.9640  1.7333
 7978SOL     OW35395   3.720   0.534   9.914  0.1732 -0.5644  0.0299
 7978SOL    HW135396   3.785   0.475   9.953 -0.2790 -1.7115 -0.9459
 7978SOL    HW235397   3.697   0.573   9.998  0.4760  1.0827 -0.6488
 7979SOL     OW35398   2.260   1.937  11.810  0.4479  0.3361  0.7911
 7979SOL    HW135399   2.185   1.877  11.813  0.6623  0.0375  0.2030
 7979SOL    HW235400   2.236   1.993  11.884 -0.7992  1.6678 -0.6286
 7980SOL     OW35401   3.534   2.363   3.115  0.1893 -0.5058 -0.0634
 7980SOL    HW135402   3.556   2.349   3.207  3.0492 -1.0741 -0.8453
 7980SOL    HW235403   3.442   2.384   3.133  0.7810  1.6609  0.4030
 7981SOL     OW35404   1.823   0.144   8.165  0.0460  0.0834 -0.0737
 7981SOL    HW135405   1.771   0.221   8.144 -1.5221 -0.8707  0.3140
 7981SOL    HW235406   1.914   0.172   8.151 -0.3100  1.7870  1.0560
 7982SOL     OW35407   0.887   0.786   1.820 -0.1348  0.2833  0.9815
 7982SOL    HW135408   0.945   0.723   1.863  0.6187 -0.6188 -1.3814
 7982SOL    HW235409   0.830   0.723   1.776  2.4230 -0.7841 -0.7492
 7983SOL     OW35410   2.419   3.696   8.934  0.1555  0.1441  0.3591
 7983SOL    HW135411   2.332   3.655   8.925  0.7400 -0.9007 -0.5691
 7983SOL    HW235412   2.461   3.690   8.848 -0.6587 -2.8075  0.1397
 7984SOL     OW35413   0.041   4.291   9.104  0.2375  0.2982  0.0544
 7984SOL    HW135414   4.712   4.305   9.182 -0.0417 -1.2233  0.1452
 7984SOL    HW235415   0.102   4.222   9.132 -0.6402 -0.7303 -0.5409
 7985SOL     OW35416   2.192   2.612   2.278 -0.1469  0.2789 -0.6358
 7985SOL    HW135417   2.157   2.532   2.318  0.3756  1.0234  1.3127
 7985SOL    HW235418   2.106   2.635   2.243 -0.8260  1.6299  1.9520
 7986SOL     OW35419   4.117   1.410   7.096  0.4366 -0.3322  0.2866
 7986SOL    HW135420   4.188   1.457   7.139  1.2210 -1.2405  0.0049
 7986SOL    HW235421   4.088   1.479   7.037  1.4757 -0.7080 -0.6755
 7987SOL     OW35422   1.953   4.629   8.460 -0.1884 -0.4039 -0.0614
 7987SOL    HW135423   2.044   4.610   8.484  0.0049 -0.9246 -1.1770
 7987SOL    HW235424   1.963   4.667   8.372  2.6345 -2.1316 -0.5128
 7988SOL     OW35425   0.415   3.157   5.444  0.4616  0.3964 -0.0006
 7988SOL    HW135426   0.413   3.066   5.414 -0.9539  0.1266  0.9084
 7988SOL    HW235427   0.342   3.150   5.505  0.4017 -3.3105 -0.4857
 7989SOL     OW35428   0.422   3.446   8.932 -0.4254  0.0736  0.0692
 7989SOL    HW135429   0.405   3.443   9.026 -1.6622  0.6317 -0.1246
 7989SOL    HW235430   0.332   3.443   8.899  0.3022 -1.6961 -1.7994
 7990SOL     OW35431   3.340   4.666  15.686 -0.5931 -0.5118  0.2096
 7990SOL    HW135432   3.385   0.022  15.659 -1.8349 -0.3728 -1.4422
 7990SOL    HW235433   3.282   4.701  15.753 -0.9852  1.8842 -1.4096
 7991SOL     OW35434   3.214   2.773   2.616  0.3145  0.1299  0.6178
 7991SOL    HW135435   3.155   2.710   2.576 -0.5771  1.0181  0.5524
 7991SOL    HW235436   3.180   2.768   2.705  1.2547  3.0885  1.1442
 7992SOL     OW35437   2.947   2.731  14.820 -0.2220 -0.0981 -0.1461
 7992SOL    HW135438   2.926   2.796  14.753  1.6621 -0.5043 -1.1325
 7992SOL    HW235439   2.862   2.699  14.849 -0.3293 -0.4903 -0.9208
 7993SOL     OW35440   1.506   1.653   4.783  0.1260 -0.4704  0.1709
 7993SOL    HW135441   1.577   1.590   4.783  0.5917  0.0605  1.8944
 7993SOL    HW235442   1.559   1.729   4.806  0.0493  0.2485 -1.9705
 7994SOL     OW35443   3.478   4.528   4.442  0.7394 -0.2616 -0.4181
 7994SOL    HW135444   3.468   4.608   4.390 -0.1382  1.3353  2.1877
 7994SOL    HW235445   3.573   4.531   4.452  0.6004  0.4719  0.6790
 7995SOL     OW35446   2.871   3.388   6.042 -0.9070  0.3259 -0.5237
 7995SOL    HW135447   2.833   3.367   6.127  0.8378 -0.0149  0.1678
 7995SOL    HW235448   2.821   3.334   5.980 -1.1141 -0.6934  0.5450
 7996SOL     OW35449   1.030   0.545  14.872 -0.0047  0.1751 -0.3925
 7996SOL    HW135450   1.027   0.534  14.967  1.3168 -0.0346 -0.3734
 7996SOL    HW235451   1.093   0.475  14.853  0.4503  0.4562  0.0742
 7997SOL     OW35452   1.257   0.055   1.910 -0.2373 -0.3921 -0.2006
 7997SOL    HW135453   1.213   0.088   1.832 -0.7668  1.1548  0.7414
 7997SOL    HW235454   1.334   0.113   1.916 -1.1817  0.8667 -0.2763
 7998SOL     OW35455   3.110   3.474   3.879  0.2283 -0.3618  0.1098
 7998SOL    HW135456   3.190   3.465   3.827 -0.1747 -1.1533 -0.3827
 7998SOL    HW235457   3.055   3.401   3.849  0.4678  0.0295 -1.3028
 7999SOL     OW35458   0.686   2.655  17.503  0.3581  0.1765 -0.3699
 7999SOL    HW135459   0.699   2.722  17.570  1.5347 -0.3781 -0.0324
 7999SOL    HW235460   0.599   2.627  17.528  1.7712 -1.5426  2.6070
 8000SOL     OW35461   2.128   0.628   5.521 -0.1867  0.3549 -0.4809
 8000SOL    HW135462   2.046   0.672   5.499  1.2501  3.0473 -0.4560
 8000SOL    HW235463   2.106   0.539   5.495 -3.8327  0.6294  1.7766
 8001SOL     OW35464   1.786   4.433   3.550  0.0800 -0.2188  0.0171
 8001SOL    HW135465   1.785   4.436   3.454 -3.0508 -0.4244  0.0482
 8001SOL    HW235466   1.800   4.339   3.557  2.3394  0.3253  3.0642
 8002SOL     OW35467   1.986   2.418  13.078 -0.2751  0.1090  0.0621
 8002SOL    HW135468   1.937   2.463  13.147 -2.1123  0.0992 -1.2254
 8002SOL    HW235469   1.989   2.329  13.113 -0.6285 -0.9760 -2.6901
 8003SOL     OW35470   0.223   4.326   6.525 -0.3860  0.2488 -0.0869
 8003SOL    HW135471   0.283   4.359   6.458 -1.9053  2.2660 -0.4735
 8003SOL    HW235472   0.247   4.235   6.539 -1.8744 -0.6707 -3.3099
 8004SOL     OW35473   3.990   2.786   8.134 -0.2958 -0.3950 -0.2456
 8004SOL    HW135474   4.060   2.787   8.069  0.7100 -1.2066  0.8061
 8004SOL    HW235475   3.996   2.880   8.151  4.0648 -0.3876 -1.7222
 8005SOL     OW35476   1.607   0.627  10.138 -0.2630  0.0686  0.1036
 8005SOL    HW135477   1.575   0.649  10.050 -2.4725 -0.6379  0.7350
 8005SOL    HW235478   1.523   0.620  10.184  1.2080 -0.0804  2.7488
 8006SOL     OW35479   2.069   1.330   5.298  0.1535 -0.2854 -0.4083
 8006SOL    HW135480   2.086   1.238   5.277  0.0825 -0.3749 -0.0834
 8006SOL    HW235481   1.978   1.325   5.326  0.2996  1.5165  0.3716
 8007SOL     OW35482   1.143   2.401   1.082  0.0013  0.3285  0.4053
 8007SOL    HW135483   1.156   2.471   1.019  0.1501 -1.4287 -1.5444
 8007SOL    HW235484   1.229   2.391   1.122 -0.9804 -1.2688  2.1311
 8008SOL     OW35485   0.076   1.921   8.892  0.3005 -0.4488 -0.5744
 8008SOL    HW135486   0.132   1.957   8.960 -1.2865  1.1397 -0.1084
 8008SOL    HW235487   0.112   1.837   8.862  0.5381 -0.5057 -0.1186
 8009SOL     OW35488   4.181   2.816  15.863 -0.0495  0.1674 -0.0521
 8009SOL    HW135489   4.167   2.744  15.802  3.3535  0.5390 -1.2486
 8009SOL    HW235490   4.178   2.775  15.949 -1.5720 -0.7141 -0.5214
 8010SOL     OW35491   3.676   0.927   8.209 -0.4255  0.0826 -0.3624
 8010SOL    HW135492   3.677   0.946   8.303 -1.6231  1.2600 -0.5951
 8010SOL    HW235493   3.584   0.940   8.186 -0.4617  0.3758 -0.0455
 8011SOL     OW35494   2.832   4.137   6.027  0.0373  0.0684 -0.3143
 8011SOL    HW135495   2.840   4.042   6.015 -0.7328 -0.1619  0.9697
 8011SOL    HW235496   2.871   4.152   6.113 -2.6710  1.0223  0.7577
 8012SOL     OW35497   2.878   3.307   1.002  0.3905 -0.0312  0.4330
 8012SOL    HW135498   2.853   3.346   0.918 -0.0535 -0.2071  0.4851
 8012SOL    HW235499   2.892   3.376   1.068 -1.4893 -0.0272  0.8305
 8013SOL     OW35500   4.523   2.697  13.973 -0.3182 -0.0875 -0.5460
 8013SOL    HW135501   4.471   2.705  14.053  2.8933 -3.0927  1.8726
 8013SOL    HW235502   4.475   2.748  13.908  2.7711  0.5263 -2.3869
 8014SOL     OW35503   4.357   1.850   7.326  0.3436  0.1603 -0.3292
 8014SOL    HW135504   4.366   1.854   7.230 -1.8474 -0.6315 -0.5515
 8014SOL    HW235505   4.370   1.762   7.360 -0.6190  0.1669  0.0447
 8015SOL     OW35506   3.973   1.785   7.365  0.4152  0.0793  0.4326
 8015SOL    HW135507   3.955   1.693   7.387  0.8039 -0.3731 -1.0991
 8015SOL    HW235508   4.005   1.779   7.275  1.3643  1.3285  0.6898
 8016SOL     OW35509   3.008   3.965   8.730  0.1490 -0.3932  0.4067
 8016SOL    HW135510   2.937   3.940   8.789 -1.0530 -1.5729 -1.5251
 8016SOL    HW235511   2.975   4.044   8.687  0.2248 -0.7192 -0.2507
 8017SOL     OW35512   4.367   3.816  17.151  0.1251  0.0322 -0.4429
 8017SOL    HW135513   4.319   3.870  17.213 -1.4350 -1.7130 -0.1236
 8017SOL    HW235514   4.336   3.726  17.167  1.3296 -0.2693  0.1357
 8018SOL     OW35515   2.341   2.570   5.752  0.0750  0.0034 -0.1145
 8018SOL    HW135516   2.425   2.555   5.797  0.3531  0.2690 -0.5477
 8018SOL    HW235517   2.296   2.499   5.799  2.4010 -0.6981  1.0811
 8019SOL     OW35518   1.675   1.335  10.810  0.8807  0.1159 -0.0125
 8019SOL    HW135519   1.708   1.260  10.858  0.2481 -0.1324  0.0397
 8019SOL    HW235520   1.641   1.383  10.886  1.6694 -1.8675  1.5753
 8020SOL     OW35521   3.828   4.471   9.183 -0.2278  0.4488 -0.1918
 8020SOL    HW135522   3.768   4.428   9.123  1.7927 -1.5937 -0.7418
 8020SOL    HW235523   3.815   4.414   9.258  2.7103 -3.7925 -2.9040
 8021SOL     OW35524   4.549   3.817   5.671  0.1789  0.1233  0.3583
 8021SOL    HW135525   4.515   3.843   5.756 -1.7381  1.3569 -0.7674
 8021SOL    HW235526   4.555   3.903   5.628  1.9644 -0.9226 -1.4922
 8022SOL     OW35527   2.279   1.654  15.285 -0.2745 -0.4537 -0.2594
 8022SOL    HW135528   2.331   1.583  15.322 -2.8195 -1.1557  1.9178
 8022SOL    HW235529   2.262   1.614  15.199 -1.9915  0.7027 -0.4603
 8023SOL     OW35530   0.581   0.677   3.246  0.1055  0.2636 -0.1817
 8023SOL    HW135531   0.576   0.675   3.341  0.3740  0.7956 -0.1528
 8023SOL    HW235532   0.527   0.753   3.224  2.1603  1.6381 -0.4763
 8024SOL     OW35533   4.004   3.318  12.860 -0.1420  0.9874  0.1549
 8024SOL    HW135534   4.049   3.383  12.806  2.3208  0.7587  1.9550
 8024SOL    HW235535   3.979   3.371  12.936 -1.1358 -0.9787  1.2027
 8025SOL     OW35536   0.274   0.783   1.970 -0.4310 -0.0656 -0.2993
 8025SOL    HW135537   0.270   0.822   2.057 -0.1728  1.9593 -1.1773
 8025SOL    HW235538   0.368   0.793   1.956 -0.5313  0.4923 -0.5734
 8026SOL     OW35539   1.956   3.663   5.984 -0.3690  0.2877  0.1665
 8026SOL    HW135540   2.026   3.689   6.044 -1.8198  0.1937  1.8983
 8026SOL    HW235541   1.966   3.739   5.927 -2.3761  0.5926  0.1937
 8027SOL     OW35542   3.556   4.651   6.730  0.5274 -0.0795  0.3374
 8027SOL    HW135543   3.473   4.616   6.699 -0.2110  1.4686  0.5872
 8027SOL    HW235544   3.605   4.568   6.725  1.6181  0.5708  0.3350
 8028SOL     OW35545   4.453   2.980  16.565 -0.8756 -0.0551 -0.1588
 8028SOL    HW135546   4.480   2.988  16.657  1.0252  0.6859 -0.7842
 8028SOL    HW235547   4.479   3.060  16.519 -1.5155 -1.1569 -2.3975
 8029SOL     OW35548   1.588   4.519   0.913  0.4682  0.2766 -0.3907
 8029SOL    HW135549   1.628   4.463   0.979  0.3319  1.5753  0.8006
 8029SOL    HW235550   1.558   4.602   0.951  0.9167  1.6386 -2.9892
 8030SOL     OW35551   1.929   0.163   0.211  0.3943  0.1860 -0.1841
 8030SOL    HW135552   1.981   0.171   0.291  0.2500 -1.0781  0.0360
 8030SOL    HW235553   1.839   0.176   0.239  0.6767  1.6406  0.0797
 8031SOL     OW35554   1.357   2.694   5.376  0.1607 -0.1090  0.1942
 8031SOL    HW135555   1.416   2.619   5.376  0.8358  0.4209  2.1043
 8031SOL    HW235556   1.425   2.752   5.410 -0.8510  1.0591  0.2214
 8032SOL     OW35557   1.300   2.915   7.244 -0.1671  0.1301  0.0456
 8032SOL    HW135558   1.275   2.924   7.152  0.5557 -0.9629 -0.2583
 8032SOL    HW235559   1.385   2.957   7.238 -0.3790  0.1702 -2.9407
 8033SOL     OW35560   1.908   0.321   5.800  0.2144 -0.1963  0.3629
 8033SOL    HW135561   1.846   0.378   5.845  0.8051  0.9776 -0.3184
 8033SOL    HW235562   1.844   0.272   5.748  0.8474  0.2706 -0.8771
 8034SOL     OW35563   2.875   0.864   9.018 -0.3349  0.0608 -0.3727
 8034SOL    HW135564   2.851   0.954   8.997 -0.2346  0.5068  1.4279
 8034SOL    HW235565   2.970   0.864   9.020 -0.3891 -1.6634  2.0609
 8035SOL     OW35566   3.644   3.770   7.917 -0.1398  0.1138  0.5322
 8035SOL    HW135567   3.597   3.692   7.887  0.2290  1.1676 -2.8549
 8035SOL    HW235568   3.721   3.725   7.952 -0.6426 -0.7780  0.4650
 8036SOL     OW35569   4.495   2.729  12.266  0.4865 -0.0356  0.0799
 8036SOL    HW135570   4.405   2.710  12.293  0.7538 -1.2572  0.0822
 8036SOL    HW235571   4.478   2.774  12.183  0.2800  1.1160  0.7392
 8037SOL     OW35572   1.691   4.462   0.385 -0.1869  0.2974  0.6084
 8037SOL    HW135573   1.596   4.472   0.394  0.0233  1.7427  1.2295
 8037SOL    HW235574   1.727   4.549   0.405  0.6363 -0.2046  1.2615
 8038SOL     OW35575   2.280   3.229   9.790  0.1437  0.0767 -0.1367
 8038SOL    HW135576   2.199   3.198   9.749  0.0803  0.3760 -0.2412
 8038SOL    HW235577   2.259   3.322   9.795  0.9375  0.2518 -0.0935
 8039SOL     OW35578   0.457   0.295   4.005 -0.3462 -0.0155  0.0581
 8039SOL    HW135579   0.400   0.369   3.985 -0.4311  0.1460  0.9088
 8039SOL    HW235580   0.431   0.238   3.932  2.0496 -1.0924  0.0378
 8040SOL     OW35581   1.524   0.300   8.463  0.2373  0.5693  0.0777
 8040SOL    HW135582   1.512   0.390   8.495 -0.4898 -0.4755  2.7250
 8040SOL    HW235583   1.474   0.247   8.525 -2.1230  0.2559 -2.1227
 8041SOL     OW35584   2.599   3.823   6.902  0.3116 -0.6417 -0.3233
 8041SOL    HW135585   2.573   3.803   6.992  1.1456 -0.0383  0.0473
 8041SOL    HW235586   2.530   3.784   6.848 -0.8757  0.9585  0.0382
 8042SOL     OW35587   4.227   3.273  11.589  0.4973  0.3222  0.1721
 8042SOL    HW135588   4.132   3.264  11.599  0.3733  1.7909  0.2604
 8042SOL    HW235589   4.221   3.344  11.526 -0.4824 -1.1662 -1.4276
 8043SOL     OW35590   3.302   1.844   1.948  0.1366  0.0131  0.7953
 8043SOL    HW135591   3.316   1.822   1.856 -0.0666  1.1635  0.4848
 8043SOL    HW235592   3.218   1.890   1.943  0.8796  1.2841  0.1181
 8044SOL     OW35593   3.931   2.945   4.979 -0.3859 -0.0615  0.3894
 8044SOL    HW135594   3.975   2.920   5.059  0.8696 -1.0252 -0.5958
 8044SOL    HW235595   4.006   2.942   4.920 -2.2123  1.1549 -2.0225
 8045SOL     OW35596   4.595   4.110  17.563  0.4962 -0.2983  0.4057
 8045SOL    HW135597   4.662   4.041  17.565 -0.3620 -1.0549  2.1585
 8045SOL    HW235598   4.652   4.186  17.553  1.8307 -1.0416  2.3659
 8046SOL     OW35599   1.580   0.618   7.986  0.5699  0.2038 -0.2721
 8046SOL    HW135600   1.489   0.642   8.003  0.1469 -0.9808 -0.8316
 8046SOL    HW235601   1.565   0.549   7.922  0.0727 -0.2344  0.3238
 8047SOL     OW35602   1.434   0.066   3.590  0.0000 -0.1539 -0.4625
 8047SOL    HW135603   1.420   0.088   3.682 -0.0619 -0.7986 -0.3208
 8047SOL    HW235604   1.357   0.013   3.567 -0.8015  0.7534  0.1211
 8048SOL     OW35605   2.127   4.114  13.111  0.2741  0.2789  0.2743
 8048SOL    HW135606   2.060   4.115  13.179  0.2036 -1.9568  0.2436
 8048SOL    HW235607   2.098   4.057  13.040  1.5114  0.3288 -0.2809
 8049SOL     OW35608   3.516   0.355  11.195  0.3055  0.1456 -0.4272
 8049SOL    HW135609   3.599   0.319  11.227  0.1214  0.5965  0.5430
 8049SOL    HW235610   3.538   0.446  11.177 -1.6988  0.3354 -1.9544
 8050SOL     OW35611   3.770   3.232   7.160 -0.6687  0.2498 -1.0934
 8050SOL    HW135612   3.718   3.170   7.108 -1.6464 -0.7706  1.0951
 8050SOL    HW235613   3.707   3.303   7.171  0.8285  1.4402 -0.2634
 8051SOL     OW35614   4.070   4.077  17.616 -0.1929 -0.1340  0.1429
 8051SOL    HW135615   4.142   4.092  17.555 -1.7114 -0.9932 -1.8523
 8051SOL    HW235616   4.126   4.040  17.685  1.1065 -0.7302 -1.2385
 8052SOL     OW35617   3.379   4.465   3.801 -0.3637  0.8223  0.4599
 8052SOL    HW135618   3.429   4.546   3.801 -1.1488  1.3117  0.8068
 8052SOL    HW235619   3.344   4.465   3.712  0.6435  0.7778  0.0655
 8053SOL     OW35620   2.879   0.699   5.224 -0.3178  0.0735  0.4240
 8053SOL    HW135621   2.808   0.696   5.288  0.8305  0.8172  1.7372
 8053SOL    HW235622   2.872   0.784   5.181  2.1693  0.7592  1.3563
 8054SOL     OW35623   2.996   2.900  15.063  0.0120 -0.0052  0.0665
 8054SOL    HW135624   3.045   2.855  15.132 -0.8781 -2.8016 -1.1504
 8054SOL    HW235625   2.992   2.840  14.988  1.0004  0.2536 -0.2016
 8055SOL     OW35626   0.091   4.075  15.602 -0.5057 -0.3721  0.1409
 8055SOL    HW135627   0.042   4.016  15.546 -1.5831 -0.5739  1.2973
 8055SOL    HW235628   0.118   4.012  15.668  0.8977 -0.5550 -0.6112
 8056SOL     OW35629   2.536   3.589   1.669 -0.7935 -0.1825  0.3056
 8056SOL    HW135630   2.589   3.534   1.726  0.6711  1.2145  0.2678
 8056SOL    HW235631   2.597   3.608   1.598 -1.1878 -1.3571 -0.3413
 8057SOL     OW35632   1.866   0.164  16.501  0.4240  0.7256  0.1630
 8057SOL    HW135633   1.786   0.213  16.484 -0.2670  0.0154  1.3816
 8057SOL    HW235634   1.887   0.145  16.410 -2.0213  1.7053 -0.6004
 8058SOL     OW35635   4.026   2.330   6.646 -0.2787  0.0528  0.2401
 8058SOL    HW135636   4.044   2.253   6.700 -1.2867  0.4080  1.0611
 8058SOL    HW235637   4.091   2.310   6.578 -2.5874 -1.3477 -1.5340
 8059SOL     OW35638   2.802   1.945  11.712 -0.1173 -0.2953  0.5752
 8059SOL    HW135639   2.730   1.908  11.660 -1.0263 -0.3192  1.8336
 8059SOL    HW235640   2.791   2.033  11.677 -3.3743 -0.7637  0.4346
 8060SOL     OW35641   4.020   1.184   5.271  0.3749 -0.2034 -0.0837
 8060SOL    HW135642   4.102   1.138   5.286  0.0500 -0.9507 -0.6225
 8060SOL    HW235643   3.965   1.134   5.333 -0.3481 -0.3977 -0.8886
 8061SOL     OW35644   0.197   3.240   5.865 -0.2216  0.2790  0.3146
 8061SOL    HW135645   0.168   3.268   5.952 -0.8992 -2.9912  1.1656
 8061SOL    HW235646   0.267   3.178   5.886  0.0052  0.9034  1.4187
 8062SOL     OW35647   4.482   3.885   4.332 -0.3691  0.2402 -0.2809
 8062SOL    HW135648   4.503   3.805   4.284  0.7435  1.2572 -1.4831
 8062SOL    HW235649   4.566   3.920   4.363  1.0133 -3.0384 -0.2659
 8063SOL     OW35650   4.513   1.760   7.765  0.2824  0.4254  0.0483
 8063SOL    HW135651   4.590   1.753   7.823 -0.0055  0.8935  0.4942
 8063SOL    HW235652   4.482   1.848   7.786 -0.1927 -0.0544  1.3694
 8064SOL     OW35653   0.749   3.778   5.810  0.0145  0.1898  0.3251
 8064SOL    HW135654   0.757   3.770   5.715 -1.0780  2.3430  0.0501
 8064SOL    HW235655   0.811   3.848   5.829  0.1907  0.8207 -2.6175
 8065SOL     OW35656   3.871   3.283   6.139 -0.0080  0.0760  0.2037
 8065SOL    HW135657   3.834   3.279   6.227  0.3270 -1.8640  0.2782
 8065SOL    HW235658   3.799   3.323   6.092 -0.6464  0.0687  1.1696
 8066SOL     OW35659   1.678   2.860   5.723 -0.2447 -0.5049 -0.0504
 8066SOL    HW135660   1.606   2.819   5.675  0.4564 -0.4750 -1.1113
 8066SOL    HW235661   1.637   2.852   5.809  0.2672  0.9775  0.3324
 8067SOL     OW35662   2.355   4.631  10.505 -0.0798  0.0084  0.2291
 8067SOL    HW135663   2.336   4.723  10.526 -1.0046  0.2099 -1.4292
 8067SOL    HW235664   2.421   4.603  10.568  1.1646  1.7607 -0.2828
 8068SOL     OW35665   2.796   0.217   5.825  0.8472 -0.4049 -0.4079
 8068SOL    HW135666   2.854   0.284   5.788  2.4493 -1.7222 -0.2657
 8068SOL    HW235667   2.775   0.241   5.916  0.3198 -0.0189 -0.6300
 8069SOL     OW35668   0.412   0.897   3.173  0.7031  0.7765  0.1112
 8069SOL    HW135669   0.369   0.927   3.253 -0.6273  1.2303 -0.7781
 8069SOL    HW235670   0.351   0.834   3.134  1.2426  0.7439 -0.6900
 8070SOL     OW35671   2.252   3.441  14.299 -0.4222 -0.0171 -0.2117
 8070SOL    HW135672   2.220   3.488  14.376  0.0361 -0.7316  0.4053
 8070SOL    HW235673   2.334   3.487  14.284 -0.2114 -0.2582  0.2048
 8071SOL     OW35674   3.012   2.944  16.086 -0.1313 -0.0697 -0.6274
 8071SOL    HW135675   2.923   2.975  16.068 -0.4957 -1.1142 -0.6214
 8071SOL    HW235676   3.056   3.018  16.128 -0.0606  0.4872 -1.6637
 8072SOL     OW35677   4.634   1.562   4.403  0.3631 -0.2888  0.0886
 8072SOL    HW135678   4.647   1.644   4.356 -1.3730  0.7295  1.3985
 8072SOL    HW235679   4.561   1.522   4.356 -0.0812  1.6756 -0.8794
 8073SOL     OW35680   0.977   0.717   4.030 -0.0905  0.0613  0.0494
 8073SOL    HW135681   0.920   0.663   3.977  0.1002 -0.9008  0.8220
 8073SOL    HW235682   1.010   0.641   4.079  0.0669  0.0188 -0.1244
 8074SOL     OW35683   2.024   1.108  16.015  0.0341  0.1081  0.9873
 8074SOL    HW135684   1.999   1.141  16.101  0.4123 -0.2940  1.2468
 8074SOL    HW235685   2.118   1.125  16.023 -0.1271  0.7488  1.5531
 8075SOL     OW35686   3.135   4.262   5.030 -0.3495  0.2695  0.8580
 8075SOL    HW135687   3.111   4.212   4.952  1.2907  0.5246  0.1797
 8075SOL    HW235688   3.230   4.247   5.023 -0.6457 -0.9782 -0.4530
 8076SOL     OW35689   0.835   3.916   1.074  0.2886 -0.4717 -0.5803
 8076SOL    HW135690   0.872   4.005   1.074 -0.2746 -0.2388  0.5291
 8076SOL    HW235691   0.862   3.886   1.161  1.2030  2.8993  0.3177
 8077SOL     OW35692   0.901   0.380   9.108 -0.0868  0.5563 -0.0295
 8077SOL    HW135693   0.921   0.472   9.126 -0.3760  0.8854 -1.3529
 8077SOL    HW235694   0.956   0.342   9.176  0.9307 -0.9309 -1.6638
 8078SOL     OW35695   4.469   2.978   0.622 -0.3068  0.5125 -0.1067
 8078SOL    HW135696   4.537   3.022   0.571 -0.6289  4.0507  2.5003
 8078SOL    HW235697   4.512   2.894   0.641 -1.2850  0.9907  4.2217
 8079SOL     OW35698   1.459   0.510   4.839 -0.4411 -0.4919 -0.7470
 8079SOL    HW135699   1.416   0.559   4.769 -2.5124  1.0562  1.6218
 8079SOL    HW235700   1.400   0.436   4.851 -0.5325 -0.1099  1.0811
 8080SOL     OW35701   0.172   3.141   3.982 -0.2038 -0.0760 -0.5642
 8080SOL    HW135702   0.257   3.119   3.942  0.1271  0.2853 -0.0675
 8080SOL    HW235703   0.124   3.161   3.902 -0.4618 -0.7312 -0.5780
 8081SOL     OW35704   2.296   2.197   1.650 -0.0637  0.3395  0.2330
 8081SOL    HW135705   2.337   2.156   1.574 -1.2858  2.8172 -1.7766
 8081SOL    HW235706   2.216   2.144   1.657 -0.0187  0.3041  0.4755
 8082SOL     OW35707   3.540   3.170   6.131  0.1334  0.8529 -0.1820
 8082SOL    HW135708   3.505   3.112   6.064  1.4727 -1.1031  0.8000
 8082SOL    HW235709   3.506   3.257   6.109  1.9089  1.3744 -0.8785
 8083SOL     OW35710   1.664   0.237   0.912  0.3812 -0.2202  0.3271
 8083SOL    HW135711   1.750   0.266   0.943 -0.0091 -0.4189  1.5606
 8083SOL    HW235712   1.606   0.256   0.986  1.6812 -0.9981  1.5360
 8084SOL     OW35713   4.559   0.503   3.923 -0.1147 -0.6900 -0.2952
 8084SOL    HW135714   4.533   0.571   3.860  1.2953 -1.0943 -1.3268
 8084SOL    HW235715   4.616   0.554   3.980  0.4905 -1.4244 -0.2328
 8085SOL     OW35716   3.583   3.448  11.909 -0.4740  0.0683  0.1023
 8085SOL    HW135717   3.630   3.380  11.957  0.6095  0.5120 -0.3543
 8085SOL    HW235718   3.492   3.424  11.892 -1.2060  1.4279  2.0742
 8086SOL     OW35719   0.748   1.748   1.014 -0.0195  0.3391  0.4253
 8086SOL    HW135720   0.830   1.780   0.975 -0.7246  0.7093 -0.7423
 8086SOL    HW235721   0.761   1.761   1.108  1.5413 -0.6006  0.3496
 8087SOL     OW35722   2.139   1.570   4.373  0.1465 -0.7393 -0.0683
 8087SOL    HW135723   2.218   1.526   4.341  0.4390  0.4386 -0.9919
 8087SOL    HW235724   2.107   1.603   4.289 -0.1619  0.6654  0.6045
 8088SOL     OW35725   2.191   1.927   8.558 -0.0947 -0.6904 -0.7701
 8088SOL    HW135726   2.240   1.973   8.626 -0.4286 -0.5272 -0.6406
 8088SOL    HW235727   2.198   1.997   8.494 -0.2192 -0.4337 -0.5028
 8089SOL     OW35728   3.469   4.423   8.211 -0.3679 -0.0834 -0.2385
 8089SOL    HW135729   3.451   4.491   8.146  0.8725  1.0598  0.6138
 8089SOL    HW235730   3.489   4.481   8.284  0.0052 -0.6896  0.1407
 8090SOL     OW35731   3.167   1.064   0.683  0.3538  0.4792  0.0584
 8090SOL    HW135732   3.248   1.045   0.731  0.4499  1.7858  0.4119
 8090SOL    HW235733   3.179   0.987   0.627  2.4235  0.6410  0.2715
 8091SOL     OW35734   2.726   2.168  15.343  0.8269 -0.1645 -0.6358
 8091SOL    HW135735   2.721   2.232  15.273 -0.5283 -0.2418 -0.6156
 8091SOL    HW235736   2.793   2.210  15.398  2.1472  0.0841 -2.4395
 8092SOL     OW35737   0.156   0.219   7.752 -0.3620 -0.2078 -0.4751
 8092SOL    HW135738   0.193   0.131   7.747 -1.6598 -0.7671 -0.1026
 8092SOL    HW235739   0.163   0.237   7.845  0.8158 -3.4896  0.0521
 8093SOL     OW35740   0.317   0.324   5.519 -0.3876  0.6921 -0.0420
 8093SOL    HW135741   0.281   0.409   5.493 -1.9256  0.6681  2.0502
 8093SOL    HW235742   0.411   0.341   5.508 -0.0772 -1.3492 -0.5352
 8094SOL     OW35743   0.617   4.081   5.815 -1.0484 -0.2879  0.1557
 8094SOL    HW135744   0.707   4.075   5.848 -0.2512  0.1284 -1.9662
 8094SOL    HW235745   0.605   4.004   5.759 -2.9727  1.9242 -2.4838
 8095SOL     OW35746   2.885   3.943   2.565 -0.0956 -0.8765  0.1986
 8095SOL    HW135747   2.866   3.970   2.475  2.1143  1.2478  0.3802
 8095SOL    HW235748   2.838   3.860   2.572  0.2067 -0.9571  1.3491
 8096SOL     OW35749   3.800   1.209   2.959 -0.1230  0.0907  0.2805
 8096SOL    HW135750   3.824   1.299   2.935  0.7436 -0.1531  0.2318
 8096SOL    HW235751   3.756   1.167   2.885  0.6836  0.1821 -0.2494
 8097SOL     OW35752   3.107   1.539  16.361  0.4066 -0.1607 -0.0703
 8097SOL    HW135753   3.050   1.589  16.419  1.0092  1.3680 -0.8008
 8097SOL    HW235754   3.073   1.450  16.368 -0.5822  0.0916 -1.6859
 8098SOL     OW35755   1.663   2.426   7.010 -0.3742  0.2642 -0.1086
 8098SOL    HW135756   1.601   2.362   6.974  1.4719 -1.7541  0.2644
 8098SOL    HW235757   1.690   2.484   6.939  0.0480  1.8723  1.3912
 8099SOL     OW35758   0.134   1.162   5.276  0.7820 -0.6682  0.2383
 8099SOL    HW135759   0.173   1.093   5.223 -2.0687 -2.0734 -0.0283
 8099SOL    HW235760   0.185   1.237   5.245 -0.6985  0.9632  1.7533
 8100SOL     OW35761   2.212   2.935   1.352 -0.0140 -0.2967 -0.5691
 8100SOL    HW135762   2.156   2.867   1.390  1.0429 -0.0037  1.5590
 8100SOL    HW235763   2.302   2.908   1.369  0.5363  1.0889 -1.2894
 8101SOL     OW35764   2.613   4.244   0.927 -0.0187  0.0006 -0.1873
 8101SOL    HW135765   2.552   4.273   0.858 -0.2553 -2.0450 -0.8228
 8101SOL    HW235766   2.687   4.217   0.873 -1.2951 -1.9594 -0.9667
 8102SOL     OW35767   2.458   2.284  17.001 -0.4685  0.1221 -0.1640
 8102SOL    HW135768   2.445   2.267  17.094 -0.8996 -2.6511 -0.7468
 8102SOL    HW235769   2.367   2.281  16.972  0.3850 -1.1382 -2.7060
 8103SOL     OW35770   3.193   1.936   1.565 -0.5636  0.0074  0.0175
 8103SOL    HW135771   3.286   1.947   1.586 -0.2061  0.6871 -1.9137
 8103SOL    HW235772   3.172   1.843   1.561 -1.4331  0.1374  1.7429
 8104SOL     OW35773   4.125   2.778  10.786  0.2544 -0.0463  0.4069
 8104SOL    HW135774   4.106   2.742  10.873 -2.4219 -0.1906 -0.2425
 8104SOL    HW235775   4.040   2.822  10.780  0.7085  0.6692 -0.7441
 8105SOL     OW35776   3.141   4.237   1.083 -0.5083 -0.2709 -0.1034
 8105SOL    HW135777   3.079   4.191   1.027  0.7794 -0.1601 -1.6226
 8105SOL    HW235778   3.149   4.177   1.157  1.3569 -1.9203 -1.6304
 8106SOL     OW35779   2.188   0.086   8.172  0.5428  0.1415  0.0395
 8106SOL    HW135780   2.153   4.722   8.187 -2.0242  1.5065  2.0023
 8106SOL    HW235781   2.282   0.065   8.179  0.5916  0.2009 -0.4524
 8107SOL     OW35782   3.083   4.622   8.319 -0.0677  0.1176 -0.1068
 8107SOL    HW135783   3.102   4.700   8.268  0.4733 -0.8802 -1.4268
 8107SOL    HW235784   3.066   4.664   8.403 -0.9872  1.8423 -1.1437
 8108SOL     OW35785   0.690   1.738   6.049 -0.6503  0.6798  0.1314
 8108SOL    HW135786   0.761   1.674   6.045 -0.4856  0.8467  0.3708
 8108SOL    HW235787   0.655   1.741   6.138  0.9995  0.9065  0.7856
 8109SOL     OW35788   1.461   1.891  13.294 -0.3254  0.1574  0.5525
 8109SOL    HW135789   1.376   1.864  13.258 -0.2539  1.0032 -0.2295
 8109SOL    HW235790   1.468   1.983  13.269  2.5518 -0.6044 -1.4665
 8110SOL     OW35791   3.250   3.268   7.842 -0.3503 -0.1801 -0.0271
 8110SOL    HW135792   3.230   3.271   7.749 -0.1950  0.0403 -0.0550
 8110SOL    HW235793   3.173   3.312   7.877 -0.9388 -0.9467 -0.3839
 8111SOL     OW35794   1.504   4.401  17.443  0.0767 -0.1547 -0.1537
 8111SOL    HW135795   1.422   4.443  17.468  0.2987 -0.6177  1.4148
 8111SOL    HW235796   1.504   4.392  17.348 -0.8012 -1.5239 -0.0335
 8112SOL     OW35797   0.022   0.271   0.925 -0.4804  0.2127  0.4527
 8112SOL    HW135798   0.096   0.333   0.930 -0.2853  0.0342 -0.2673
 8112SOL    HW235799   4.680   0.314   0.979  0.0316  1.7223 -0.1073
 8113SOL     OW35800   3.666   3.759  16.865 -0.4269  0.3802  0.4443
 8113SOL    HW135801   3.734   3.778  16.801 -1.6513  1.5179 -0.5086
 8113SOL    HW235802   3.705   3.795  16.945 -0.0782  0.8668  0.0521
 8114SOL     OW35803   3.822   2.685   9.471 -0.2764  0.3932  0.0500
 8114SOL    HW135804   3.812   2.645   9.384 -0.3468  0.7388 -0.0994
 8114SOL    HW235805   3.848   2.609   9.523 -0.4346  1.6812  2.0050
 8115SOL     OW35806   2.286   1.702   6.222  0.2189  0.9045 -0.2258
 8115SOL    HW135807   2.297   1.612   6.191  2.8514  0.1382  2.9770
 8115SOL    HW235808   2.192   1.716   6.207 -0.2120 -1.9715 -0.2775
 8116SOL     OW35809   3.676   0.162   3.090 -0.2836 -0.4363 -0.2601
 8116SOL    HW135810   3.643   0.084   3.132  2.0592 -0.0674  2.2728
 8116SOL    HW235811   3.747   0.127   3.036 -0.6373 -1.8608  0.2152
 8117SOL     OW35812   4.660   1.335   8.720  0.4165  1.0609  0.0507
 8117SOL    HW135813   4.692   1.413   8.766 -0.9846  0.7875  1.4834
 8117SOL    HW235814   0.003   1.320   8.653 -0.1824  0.0348 -0.3049
 8118SOL     OW35815   1.246   1.425   4.899 -0.0477 -0.4266  0.0726
 8118SOL    HW135816   1.236   1.478   4.978  0.6826 -0.1849  0.0060
 8118SOL    HW235817   1.236   1.501   4.842  0.9492  0.9988  1.7772
 8119SOL     OW35818   4.385   2.903  12.582  0.4383  0.1940  0.1481
 8119SOL    HW135819   4.314   2.907  12.518  0.4088 -1.7120  0.0747
 8119SOL    HW235820   4.350   2.917  12.670 -2.0506 -3.0878 -0.3412
 8120SOL     OW35821   1.652   0.424   7.582 -0.0694 -0.0887 -0.4578
 8120SOL    HW135822   1.600   0.502   7.563  1.5339  0.3477 -3.0021
 8120SOL    HW235823   1.720   0.433   7.515 -1.0333 -0.8673 -1.5559
 8121SOL     OW35824   1.718   4.678   5.265  0.8753  0.0902 -0.4056
 8121SOL    HW135825   1.793   4.711   5.215  1.0734 -1.0619 -0.8817
 8121SOL    HW235826   1.701   0.035   5.313 -0.8276 -2.3833  3.1601
 8122SOL     OW35827   0.358   4.217  10.032 -0.1611 -0.2297 -0.0269
 8122SOL    HW135828   0.288   4.152  10.023 -0.3485 -0.1517  0.9035
 8122SOL    HW235829   0.310   4.293  10.066 -0.4380  0.7977 -2.6533
 8123SOL     OW35830   3.834   0.369   8.842  0.0251  0.0643 -0.5933
 8123SOL    HW135831   3.861   0.367   8.750  2.6795  1.9292  0.1324
 8123SOL    HW235832   3.796   0.457   8.841  2.0400  0.9318  1.5993
 8124SOL     OW35833   4.615   4.539   2.280 -0.4393  0.2217 -0.3606
 8124SOL    HW135834   4.638   4.630   2.263  0.6026  0.4595  2.3112
 8124SOL    HW235835   4.521   4.534   2.297 -0.1875 -1.0897  0.6439
 8125SOL     OW35836   3.810   2.712   4.797  0.0156 -0.0546  0.4777
 8125SOL    HW135837   3.875   2.685   4.863  0.3617 -1.2717 -0.3592
 8125SOL    HW235838   3.850   2.793   4.765  0.6564 -0.4966  0.1680
 8126SOL     OW35839   0.697   4.129   9.513 -0.2090  0.1376  0.1608
 8126SOL    HW135840   0.734   4.041   9.523 -1.4827 -0.5311 -1.0077
 8126SOL    HW235841   0.608   4.107   9.542 -0.4294 -1.0150 -1.4044
 8127SOL     OW35842   1.549   3.845  11.885 -0.1745  0.1913  0.1634
 8127SOL    HW135843   1.603   3.906  11.935  0.7987  0.2050 -0.9137
 8127SOL    HW235844   1.565   3.870  11.794 -2.8264  0.5395 -0.2263
 8128SOL     OW35845   3.291   3.348   4.649  0.2930  0.3213 -0.1908
 8128SOL    HW135846   3.255   3.273   4.601  0.5083 -0.3666  0.7269
 8128SOL    HW235847   3.369   3.306   4.682  0.3560  0.2278 -0.4611
 8129SOL     OW35848   1.407   0.425   2.809  0.9557  0.2592 -0.5818
 8129SOL    HW135849   1.391   0.518   2.825  0.0523  0.5529 -3.3473
 8129SOL    HW235850   1.422   0.427   2.715  3.1227 -2.2070 -0.2574
 8130SOL     OW35851   1.654   4.455   8.137  0.0573 -0.3723 -0.0858
 8130SOL    HW135852   1.592   4.527   8.138 -0.2281 -0.6346  1.1649
 8130SOL    HW235853   1.730   4.508   8.157  0.2030 -0.0665 -1.4132
 8131SOL     OW35854   3.268   3.452   7.546 -0.5867  0.2776  0.6009
 8131SOL    HW135855   3.244   3.360   7.546 -2.8272  0.8440 -2.0526
 8131SOL    HW235856   3.361   3.456   7.524 -0.9184  0.2208 -0.8245
 8132SOL     OW35857   3.000   1.555   5.623 -0.3348 -0.0971 -0.3575
 8132SOL    HW135858   3.028   1.616   5.692 -0.9475  1.6578 -1.6457
 8132SOL    HW235859   2.907   1.557   5.644  0.0591 -2.3233  1.4995
 8133SOL     OW35860   3.198   0.329   4.161 -0.1487  0.0639  0.1147
 8133SOL    HW135861   3.169   0.377   4.239  0.1798  0.3510  0.0576
 8133SOL    HW235862   3.215   0.404   4.104 -1.7301 -0.4473 -1.0491
 8134SOL     OW35863   4.509   0.115   2.124 -0.4670 -0.1614 -0.9765
 8134SOL    HW135864   4.513   0.042   2.063 -1.5276 -0.2247 -0.9663
 8134SOL    HW235865   4.532   0.187   2.065  0.3351  1.2925  1.0903
 8135SOL     OW35866   2.750   0.158   8.686  0.3786 -0.1952  0.2619
 8135SOL    HW135867   2.673   0.159   8.743  1.9204  0.3601  2.3255
 8135SOL    HW235868   2.821   0.179   8.746  1.8015 -0.7365 -1.2103
 8136SOL     OW35869   3.368   0.672   6.902 -0.3747  1.1931  0.5825
 8136SOL    HW135870   3.318   0.745   6.866 -2.7070  0.4467  2.2569
 8136SOL    HW235871   3.444   0.723   6.930 -0.6430  0.6627  2.3046
 8137SOL     OW35872   0.036   1.953  14.210  0.0570 -0.5645  0.7617
 8137SOL    HW135873   0.121   1.992  14.192 -0.7594  0.6485 -0.4053
 8137SOL    HW235874   4.691   2.017  14.191  2.5259  1.4354 -1.3344
 8138SOL     OW35875   1.360   2.255   7.797 -0.3088  0.0903  0.5527
 8138SOL    HW135876   1.411   2.324   7.839 -0.1270 -0.6180  1.4978
 8138SOL    HW235877   1.422   2.222   7.732 -1.8466 -1.2125 -0.2580
 8139SOL     OW35878   0.057   4.439   1.126 -0.5728 -0.4352 -0.3519
 8139SOL    HW135879   0.080   4.531   1.136 -1.7182  0.0361 -2.1023
 8139SOL    HW235880   0.016   4.436   1.040  0.5294  0.1343 -0.8990
 8140SOL     OW35881   2.431   1.341   4.846  0.0701 -0.1884 -0.2405
 8140SOL    HW135882   2.520   1.325   4.815 -0.2991 -0.0420 -1.3756
 8140SOL    HW235883   2.378   1.343   4.767 -0.6253  1.6477  0.2679
 8141SOL     OW35884   3.640   2.488   4.771  0.3310 -0.1522  0.2277
 8141SOL    HW135885   3.707   2.547   4.806 -0.1892  0.4772  0.1640
 8141SOL    HW235886   3.682   2.478   4.686  0.5127  1.3476  0.1366
 8142SOL     OW35887   0.826   2.798   5.203 -0.5249  0.1646  0.9930
 8142SOL    HW135888   0.877   2.816   5.124 -1.0673 -0.7229  0.4559
 8142SOL    HW235889   0.789   2.886   5.208 -1.3767 -0.1515  0.2063
 8143SOL     OW35890   2.370   0.445   4.248 -0.2181  0.7334 -0.2425
 8143SOL    HW135891   2.378   0.354   4.279  1.4853  0.3334 -1.8641
 8143SOL    HW235892   2.432   0.446   4.175  0.8249  1.1813  0.6527
 8144SOL     OW35893   0.900   0.011   9.198  0.2726  0.6708  0.1441
 8144SOL    HW135894   0.915   4.641   9.181 -0.9423  0.8013 -1.6696
 8144SOL    HW235895   0.868   0.007   9.287 -0.6988 -1.2988 -0.3021
 8145SOL     OW35896   4.240   1.197   9.721  0.6288  0.1911  0.3414
 8145SOL    HW135897   4.221   1.110   9.758  2.2912  0.0166  0.7698
 8145SOL    HW235898   4.331   1.216   9.742  1.3735 -0.1213 -2.6242
 8146SOL     OW35899   0.143   4.303  12.995 -0.0007  0.5369  0.7428
 8146SOL    HW135900   0.094   4.262  13.067 -0.4791  3.1547  1.8810
 8146SOL    HW235901   0.180   4.384  13.028  1.4027  0.7737 -1.4193
 8147SOL     OW35902   2.099   4.228   1.435  0.0658  0.2613 -0.0734
 8147SOL    HW135903   2.182   4.274   1.423 -0.5273  1.3240 -0.0926
 8147SOL    HW235904   2.040   4.302   1.448  0.6821  1.0075 -1.5925
 8148SOL     OW35905   4.587   0.984   9.049 -0.5227  0.1037 -0.6147
 8148SOL    HW135906   4.675   0.949   9.042 -0.7964 -0.3667 -1.7635
 8148SOL    HW235907   4.559   1.004   8.960 -0.6715  0.7919 -0.4141
 8149SOL     OW35908   4.435   3.846  11.717 -0.2483 -0.3775  0.4359
 8149SOL    HW135909   4.463   3.756  11.701  0.3753  0.2656 -1.9846
 8149SOL    HW235910   4.391   3.865  11.635  1.4787  3.2710  0.3786
 8150SOL     OW35911   3.773   1.381   5.802  0.6284 -0.2305 -0.1320
 8150SOL    HW135912   3.801   1.469   5.829  0.0473  1.1882 -4.0656
 8150SOL    HW235913   3.860   1.356   5.772  0.4575 -0.0819 -0.7569
 8151SOL     OW35914   1.071   1.449  10.264  0.5864 -0.5101 -0.1662
 8151SOL    HW135915   1.042   1.540  10.265  1.3625 -0.2654 -0.1279
 8151SOL    HW235916   1.070   1.420  10.355  1.3797  0.7209  0.2368
 8152SOL     OW35917   3.770   0.888   3.502  0.0153  0.4617 -0.0817
 8152SOL    HW135918   3.824   0.849   3.433  0.8966  0.8976  0.3475
 8152SOL    HW235919   3.682   0.890   3.464  0.5506 -2.7968 -1.5207
 8153SOL     OW35920   3.304   4.445   8.812 -0.4325 -0.1304  0.4019
 8153SOL    HW135921   3.337   4.380   8.749  0.4535 -0.7979  1.5393
 8153SOL    HW235922   3.347   4.414   8.892  1.6056  2.3325  0.2662
 8154SOL     OW35923   2.058   0.705   6.040  0.5016 -0.4847 -0.2729
 8154SOL    HW135924   2.036   0.797   6.025  1.4375 -0.2287 -0.1377
 8154SOL    HW235925   2.058   0.684   5.947 -0.3565 -0.8825 -0.1857
 8155SOL     OW35926   0.767   1.538   7.772 -0.1678 -0.1180 -0.0722
 8155SOL    HW135927   0.795   1.472   7.836  0.7762  0.0106 -0.3630
 8155SOL    HW235928   0.823   1.610   7.801 -1.4460  1.1226 -0.6822
 8156SOL     OW35929   0.942   3.036   7.818  0.1895 -0.1865 -0.2581
 8156SOL    HW135930   0.974   2.975   7.752  1.6342 -1.3846  1.5573
 8156SOL    HW235931   1.028   3.071   7.839  0.5314 -1.0624 -0.2183
 8157SOL     OW35932   1.503   0.773  11.588  0.1104  0.3398 -0.4533
 8157SOL    HW135933   1.472   0.854  11.548  0.3605 -0.3291 -1.9754
 8157SOL    HW235934   1.590   0.802  11.617 -0.8344  2.4995  0.2796
 8158SOL     OW35935   4.001   1.592   3.415  0.1438  0.3597  0.1634
 8158SOL    HW135936   3.998   1.676   3.369  0.3392  1.1854  1.6712
 8158SOL    HW235937   3.929   1.539   3.379  1.2347 -0.6380 -0.5657
 8159SOL     OW35938   1.594   1.289  13.656  0.0382 -0.8554 -0.4404
 8159SOL    HW135939   1.562   1.370  13.697  0.2012 -1.9633  1.8772
 8159SOL    HW235940   1.683   1.293  13.691 -0.6310 -1.1232  1.3192
 8160SOL     OW35941   1.584   0.195   8.922 -0.1232  0.3902  0.2354
 8160SOL    HW135942   1.491   0.207   8.902 -0.4710 -2.3683  0.2368
 8160SOL    HW235943   1.607   0.288   8.932 -1.7480  0.8128  0.1262
 8161SOL     OW35944   3.776   1.947  13.012 -0.2691 -0.5221  0.0900
 8161SOL    HW135945   3.705   1.929  12.951 -1.3036  1.3631  0.7275
 8161SOL    HW235946   3.734   1.969  13.096  0.1201  0.6091 -0.0055
 8162SOL     OW35947   1.979   2.648  10.470  0.3461 -0.3529 -0.3296
 8162SOL    HW135948   2.035   2.608  10.537 -1.2030 -2.3364 -0.2228
 8162SOL    HW235949   1.960   2.730  10.514  0.6532  0.9251 -2.5736
 8163SOL     OW35950   3.273   3.364  16.450 -0.0754 -0.2199 -0.2044
 8163SOL    HW135951   3.191   3.319  16.469  0.1137 -0.2679  0.5086
 8163SOL    HW235952   3.335   3.293  16.467  0.0395 -0.1531 -0.3355
 8164SOL     OW35953   1.525   2.394   4.411  0.3946 -0.1194 -0.4233
 8164SOL    HW135954   1.565   2.377   4.496 -2.2624  1.1986  1.0918
 8164SOL    HW235955   1.511   2.488   4.396 -1.0287 -0.0978  1.0091
 8165SOL     OW35956   0.206   4.528   6.740 -0.1640  0.6508 -0.5304
 8165SOL    HW135957   0.110   4.526   6.748 -0.3265 -0.1226 -2.7950
 8165SOL    HW235958   0.224   4.482   6.658  0.4819 -0.1069  0.0336
 8166SOL     OW35959   3.791   0.647   8.761 -0.0425  0.3483 -0.4232
 8166SOL    HW135960   3.704   0.689   8.759 -0.9495 -1.4728  0.9249
 8166SOL    HW235961   3.841   0.705   8.818 -0.1579  1.6400 -1.6311
 8167SOL     OW35962   1.905   1.582   3.227  0.8098  0.2479 -0.2119
 8167SOL    HW135963   1.813   1.579   3.200  1.0621 -0.1524 -1.0184
 8167SOL    HW235964   1.948   1.553   3.147  1.0553 -1.3552  0.4901
 8168SOL     OW35965   0.680   2.800   0.583 -1.0185 -0.0478  0.4505
 8168SOL    HW135966   0.699   2.816   0.675  1.7701 -2.2726  0.2912
 8168SOL    HW235967   0.693   2.706   0.570  0.8755  0.6322 -2.7809
 8169SOL     OW35968   3.146   1.682   1.538  0.5674 -0.5071  0.2643
 8169SOL    HW135969   3.057   1.683   1.501  0.4320 -0.9208  0.5783
 8169SOL    HW235970   3.191   1.623   1.478 -0.2668 -0.2875 -0.5778
 8170SOL     OW35971   1.094   3.289   6.341  0.3307 -0.0104  0.0878
 8170SOL    HW135972   1.018   3.293   6.400 -2.1507  0.8327 -3.1337
 8170SOL    HW235973   1.102   3.194   6.341  0.9063  0.0443  0.7262
 8171SOL     OW35974   2.744   1.178  16.181  0.2778 -0.0965  0.6162
 8171SOL    HW135975   2.737   1.179  16.276 -1.6162  1.1738  0.4794
 8171SOL    HW235976   2.735   1.088  16.151  2.9662 -0.5063  1.0813
 8172SOL     OW35977   3.302   4.091   6.370 -0.0075  0.1527 -0.1172
 8172SOL    HW135978   3.330   4.182   6.383 -1.2980  0.6286 -0.6378
 8172SOL    HW235979   3.277   4.067   6.459  0.7125  0.6215  0.2212
 8173SOL     OW35980   3.329   3.213   6.760  0.1256  0.0249 -0.1121
 8173SOL    HW135981   3.302   3.132   6.716  0.2823 -0.0853 -0.0064
 8173SOL    HW235982   3.241   3.245   6.777 -0.1867 -0.8671 -0.0697
 8174SOL     OW35983   1.828   3.520   8.108  0.6217 -0.1954  0.1929
 8174SOL    HW135984   1.773   3.450   8.074  0.7790 -0.5927  0.7607
 8174SOL    HW235985   1.871   3.540   8.025  0.6815  1.1739  0.5600
 8175SOL     OW35986   1.967   2.002  17.226  0.4153 -0.1412  0.3878
 8175SOL    HW135987   1.992   2.046  17.145 -0.7387 -1.5275 -0.7148
 8175SOL    HW235988   2.055   1.978  17.254 -0.3674  0.0241  3.0322
 8176SOL     OW35989   1.617   2.405   2.795  0.2041 -0.0359 -0.1781
 8176SOL    HW135990   1.658   2.417   2.709 -3.4921 -0.2615 -1.9385
 8176SOL    HW235991   1.533   2.448   2.782  0.0170 -0.5261 -0.5868
 8177SOL     OW35992   3.201   4.546   5.454 -0.0372  0.2411 -0.3550
 8177SOL    HW135993   3.153   4.474   5.413 -1.4106  0.1309  1.4603
 8177SOL    HW235994   3.283   4.553   5.404  0.4255 -0.0573  0.3564
 8178SOL     OW35995   2.595   3.977   4.281 -0.0464  0.0184 -0.8701
 8178SOL    HW135996   2.533   3.952   4.349  0.1159  1.3604 -0.2296
 8178SOL    HW235997   2.603   3.896   4.230  4.7185  0.5383 -0.9407
 8179SOL     OW35998   2.798   2.496   6.316  0.2267  0.1366  0.4301
 8179SOL    HW135999   2.786   2.427   6.381  0.4106  0.3913  0.7314
 8179SOL    HW236000   2.719   2.481   6.263 -0.3374 -2.9727  2.1565
 8180SOL     OW36001   3.243   3.253   5.145 -0.2477 -1.1569 -0.0468
 8180SOL    HW136002   3.332   3.245   5.112 -0.0651 -0.0875  0.1758
 8180SOL    HW236003   3.225   3.343   5.117  2.9586 -0.8917 -1.2518
 8181SOL     OW36004   1.223   2.502   6.656 -0.3208 -0.1380  0.2066
 8181SOL    HW136005   1.133   2.534   6.647 -0.4053 -0.4219  0.0207
 8181SOL    HW236006   1.251   2.572   6.714 -0.0400  1.8327 -2.3303
 8182SOL     OW36007   0.320   0.190   8.623  0.1719  0.7244  0.5963
 8182SOL    HW136008   0.348   0.101   8.601 -0.6716  0.3344  1.0988
 8182SOL    HW236009   0.279   0.211   8.540 -0.0143  1.1652  0.8027
 8183SOL     OW36010   4.115   4.055  17.292  0.2872  0.1278 -0.0853
 8183SOL    HW136011   4.113   4.057  17.196  0.2196  0.1595 -0.0835
 8183SOL    HW236012   4.046   4.120  17.304  0.4331 -0.0224  1.5886
 8184SOL     OW36013   4.450   0.767   8.360  0.4973  0.2779  0.0103
 8184SOL    HW136014   4.410   0.801   8.280 -0.5255  1.2391  0.9374
 8184SOL    HW236015   4.375   0.758   8.418  1.0519  0.7609  0.8068
 8185SOL     OW36016   4.171   2.207   5.039 -0.1037  0.7327 -0.5784
 8185SOL    HW136017   4.245   2.255   5.075 -0.1817  0.6331 -0.2864
 8185SOL    HW236018   4.200   2.116   5.042 -1.4665  0.3231  0.3020
 8186SOL     OW36019   2.802   0.779  14.718  0.5790 -0.6828  0.1936
 8186SOL    HW136020   2.792   0.874  14.708 -2.5152 -1.0041  0.3187
 8186SOL    HW236021   2.761   0.746  14.638  2.1373  0.7767 -1.2172
 8187SOL     OW36022   2.924   1.825   7.572 -0.3907 -0.5478  0.6068
 8187SOL    HW136023   2.931   1.766   7.497 -0.1066 -0.7706  0.8106
 8187SOL    HW236024   2.947   1.769   7.646  0.1400 -1.5992 -0.3601
 8188SOL     OW36025   4.129   1.244   5.526  0.0734 -0.1273 -0.2806
 8188SOL    HW136026   4.179   1.163   5.539 -0.8014 -0.3609  1.6138
 8188SOL    HW236027   4.059   1.223   5.464 -1.7686  3.0956  0.7344
 8189SOL     OW36028   1.796   3.279  12.019  0.2379 -0.1192 -0.6407
 8189SOL    HW136029   1.718   3.248  11.973  0.8460 -1.1733 -0.9542
 8189SOL    HW236030   1.778   3.225  12.096  1.9720  0.9206  0.4976
 8190SOL     OW36031   1.373   2.518   2.798 -0.8677 -0.1050  0.4205
 8190SOL    HW136032   1.386   2.587   2.733  1.1184 -0.2987  0.6290
 8190SOL    HW236033   1.278   2.528   2.807 -0.9593 -0.6233  0.0363
 8191SOL     OW36034   3.357   3.134   1.444  0.7559 -0.1803 -0.3538
 8191SOL    HW136035   3.384   3.053   1.487  1.6341 -0.1059 -0.7597
 8191SOL    HW236036   3.376   3.122   1.350  0.7153 -0.1611 -0.3645
 8192SOL     OW36037   2.256   4.340  10.517 -0.1830  0.9708  0.9743
 8192SOL    HW136038   2.302   4.293  10.586  0.6963 -1.3270 -1.2145
 8192SOL    HW236039   2.168   4.347  10.554 -0.3084  0.0517  0.8422
 8193SOL     OW36040   3.167   0.468   9.331  0.0785 -0.6837 -0.3385
 8193SOL    HW136041   3.106   0.541   9.332 -1.5763 -2.1140  4.9354
 8193SOL    HW236042   3.139   0.403   9.266 -2.5957 -3.8100  3.9917
 8194SOL     OW36043   1.120   0.966  17.121  0.1669 -0.2919  0.4467
 8194SOL    HW136044   1.178   0.952  17.046  1.2560 -0.3238  1.2976
 8194SOL    HW236045   1.155   0.893  17.173  1.4691 -0.8953 -1.2656
 8195SOL     OW36046   1.904   3.994   3.765 -0.0074 -0.4429  0.0281
 8195SOL    HW136047   1.897   3.964   3.856 -1.7387 -0.7068 -0.1975
 8195SOL    HW236048   1.969   3.929   3.741 -0.1308 -1.0799  1.4343
 8196SOL     OW36049   3.130   1.970   4.987 -0.0652 -0.0354  0.5635
 8196SOL    HW136050   3.130   1.982   5.083  1.8147  1.9575  0.3170
 8196SOL    HW236051   3.177   1.888   4.976 -0.9672 -0.5073  0.2733
 8197SOL     OW36052   0.547   0.611   6.488  0.5305 -0.3201  0.0007
 8197SOL    HW136053   0.489   0.676   6.449  2.4070  0.8741 -0.8155
 8197SOL    HW236054   0.625   0.658   6.517  0.4148  0.1543 -0.4428
 8198SOL     OW36055   4.574   1.712   6.067  0.3547  0.1603 -0.2606
 8198SOL    HW136056   4.613   1.647   6.008  1.3536  1.0843 -0.6244
 8198SOL    HW236057   4.570   1.789   6.011  0.1615  0.2106 -0.1779
 8199SOL     OW36058   4.321   1.888   7.055 -0.2892 -0.0077 -0.0014
 8199SOL    HW136059   4.358   1.972   7.027  3.1740 -2.1114 -1.7296
 8199SOL    HW236060   4.363   1.830   6.992  0.2586  0.3461  0.0416
 8200SOL     OW36061   1.424   1.060  10.079 -0.3019 -0.1127  0.7571
 8200SOL    HW136062   1.503   1.048  10.131  0.6005 -0.0325 -0.5933
 8200SOL    HW236063   1.386   1.146  10.101 -1.5457 -0.6624  0.7461
 8201SOL     OW36064   1.239   3.061   1.202 -0.2784  0.1540  0.4530
 8201SOL    HW136065   1.187   3.019   1.134 -0.7121 -0.5356  1.2209
 8201SOL    HW236066   1.276   3.139   1.160 -0.1683  0.0500  0.3554
 8202SOL     OW36067   4.001   1.862   2.629  0.2921 -0.0996 -0.3794
 8202SOL    HW136068   3.957   1.782   2.599 -1.6601  1.9749 -3.1144
 8202SOL    HW236069   3.918   1.908   2.630  0.3594  0.0452 -1.1584
 8203SOL     OW36070   0.445   0.793   2.449 -0.0865 -0.1985  1.0697
 8203SOL    HW136071   0.408   0.863   2.503 -0.4628 -0.9623  1.7877
 8203SOL    HW236072   0.422   0.716   2.501 -1.2850 -0.9886 -0.6117
 8204SOL     OW36073   2.705   3.543   5.680  0.1743 -0.0148  0.0204
 8204SOL    HW136074   2.792   3.574   5.655 -0.3528  0.7367 -0.8652
 8204SOL    HW236075   2.700   3.453   5.647 -3.3072  0.1896 -0.0323
 8205SOL     OW36076   0.410   1.889   8.742  0.0129 -0.2731  0.2169
 8205SOL    HW136077   0.450   1.931   8.667  0.6246 -0.4854  0.4245
 8205SOL    HW236078   0.438   1.942   8.817  0.9680 -2.6456  1.5528
 8206SOL     OW36079   3.888   2.775   1.699 -0.1211  0.3134  0.0690
 8206SOL    HW136080   3.963   2.830   1.679  1.1411 -1.4268 -0.0036
 8206SOL    HW236081   3.860   2.738   1.615 -0.9803  2.1563 -0.4544
 8207SOL     OW36082   3.341   1.770  11.081 -0.3781 -0.8569 -0.1210
 8207SOL    HW136083   3.435   1.778  11.093 -0.5517  2.2036 -0.7062
 8207SOL    HW236084   3.336   1.679  11.111 -0.9276  0.1791  2.9378
 8208SOL     OW36085   2.781   4.706   3.971 -0.0463 -0.1064  0.0078
 8208SOL    HW136086   2.871   4.694   3.939 -0.5198  0.0982 -1.4155
 8208SOL    HW236087   2.795   4.694   4.065 -1.9575 -0.7539  0.2054
 8209SOL     OW36088   3.103   3.612   5.661 -0.2435 -0.3001  0.1095
 8209SOL    HW136089   3.036   3.677   5.638  0.0475 -0.7691 -2.0526
 8209SOL    HW236090   3.180   3.666   5.640  1.0195 -1.9676  0.4200
 8210SOL     OW36091   3.327   4.566   6.619 -0.4491 -0.4830 -0.1373
 8210SOL    HW136092   3.291   4.479   6.634  0.0823 -0.9104 -1.3402
 8210SOL    HW236093   3.267   4.584   6.547  1.6860  1.4120 -1.4310
 8211SOL     OW36094   2.028   3.133  15.803  0.5627 -0.0607  0.2521
 8211SOL    HW136095   2.087   3.208  15.793  0.4790  0.4813  3.8478
 8211SOL    HW236096   2.081   3.067  15.760 -0.6931  0.1022 -1.5517
 8212SOL     OW36097   4.528   3.458   7.398 -0.0808 -0.5143 -0.9940
 8212SOL    HW136098   4.514   3.369   7.429  1.8113 -0.7466 -0.8463
 8212SOL    HW236099   4.464   3.456   7.327 -0.8698 -3.4432 -0.1668
 8213SOL     OW36100   2.534   1.091   6.557  0.1752 -0.6079  0.1537
 8213SOL    HW136101   2.452   1.137   6.573  1.2219  0.6817  1.7760
 8213SOL    HW236102   2.557   1.089   6.650 -1.7090 -1.5203  0.5992
 8214SOL     OW36103   3.542   4.153   6.721  0.0887  0.2922  0.0016
 8214SOL    HW136104   3.533   4.070   6.675 -0.5513 -0.1482  0.9200
 8214SOL    HW236105   3.571   4.124   6.807  0.7426  0.2342 -0.2332
 8215SOL     OW36106   4.150   3.108   2.424  0.1298  0.6603 -0.7687
 8215SOL    HW136107   4.070   3.126   2.473 -0.6560  1.8569 -2.4992
 8215SOL    HW236108   4.154   3.014   2.442  0.0030  0.7927 -0.0325
 8216SOL     OW36109   1.251   3.225   4.141 -0.1154  0.4374 -0.8069
 8216SOL    HW136110   1.240   3.139   4.182  1.3933  1.0984  1.0056
 8216SOL    HW236111   1.305   3.265   4.210  2.0771  0.4383 -2.5321
 8217SOL     OW36112   1.300   1.590   5.129 -0.0075  0.5484  0.4692
 8217SOL    HW136113   1.348   1.672   5.117 -3.3084  2.4398  0.1857
 8217SOL    HW236114   1.279   1.591   5.223  0.2880 -1.1683  0.5559
 8218SOL     OW36115   2.635   2.949   3.261  1.0196 -0.2174 -0.3281
 8218SOL    HW136116   2.634   2.994   3.177  1.7728 -0.5070 -0.4895
 8218SOL    HW236117   2.730   2.946   3.267  0.9240 -0.1015  1.2858
 8219SOL     OW36118   0.656   2.301   6.665 -0.5452  0.4613 -0.0076
 8219SOL    HW136119   0.583   2.341   6.618 -3.1178 -0.0846  3.5432
 8219SOL    HW236120   0.732   2.315   6.609 -0.5518 -1.3688 -0.4485
 8220SOL     OW36121   3.128   4.210   9.176  0.6762 -0.4433  0.4605
 8220SOL    HW136122   3.080   4.142   9.128 -1.5375  0.3033  1.6241
 8220SOL    HW236123   3.071   4.214   9.252  0.6717 -0.7941  0.4748
 8221SOL     OW36124   0.636   3.394   4.409 -0.1146 -0.1958 -0.2875
 8221SOL    HW136125   0.707   3.449   4.442 -0.0610 -0.2503 -0.3098
 8221SOL    HW236126   0.577   3.460   4.374  0.8274  0.0256 -1.4495
 8222SOL     OW36127   2.773   3.594   3.901  0.4148  0.4094  0.3963
 8222SOL    HW136128   2.814   3.663   3.954  1.0485 -1.7171  2.6724
 8222SOL    HW236129   2.795   3.632   3.816  0.2934 -0.3087  0.0498
 8223SOL     OW36130   1.000   3.272   0.761 -0.5538 -0.0322  0.4141
 8223SOL    HW136131   0.907   3.286   0.745 -0.2269  0.4954 -1.0427
 8223SOL    HW236132   1.002   3.182   0.794  0.7426  0.2116  0.9877
 8224SOL     OW36133   1.032   2.192  10.143 -0.4061  0.0267 -0.2324
 8224SOL    HW136134   1.050   2.211  10.051 -0.8935  1.7646  0.0353
 8224SOL    HW236135   1.101   2.242  10.187  0.3854 -0.4519 -0.9203
 8225SOL     OW36136   3.251   0.873   3.137 -0.2855 -0.3786 -0.2535
 8225SOL    HW136137   3.269   0.779   3.142 -0.9227 -0.3923  1.8127
 8225SOL    HW236138   3.332   0.914   3.106 -0.4504 -0.8916 -1.3707
 8226SOL     OW36139   2.603   0.240   4.712  0.1961 -0.1027  0.3514
 8226SOL    HW136140   2.578   0.307   4.649 -1.3453  0.7541  1.8560
 8226SOL    HW236141   2.698   0.236   4.710  0.2482  0.6334  1.3297
 8227SOL     OW36142   4.183   1.610   8.763  0.7961  0.1692  0.4155
 8227SOL    HW136143   4.164   1.540   8.701  0.8733 -0.2349  0.8525
 8227SOL    HW236144   4.211   1.565   8.842  1.1891 -1.3718 -0.6162
 8228SOL     OW36145   2.804   2.516  10.647 -0.1573  0.5024 -0.5106
 8228SOL    HW136146   2.848   2.542  10.566  0.4394 -3.6710 -1.5344
 8228SOL    HW236147   2.773   2.425  10.636 -0.2697  0.7962 -2.5735
 8229SOL     OW36148   1.390   1.332   7.591 -0.1045 -0.4881  0.0579
 8229SOL    HW136149   1.433   1.246   7.590  1.6235  0.3776  0.5023
 8229SOL    HW236150   1.421   1.357   7.678 -1.8819 -1.5442  0.9835
 8230SOL     OW36151   3.738   4.086   0.192  0.8796  0.3577  0.1226
 8230SOL    HW136152   3.831   4.105   0.189  0.5148  2.0504 -0.6840
 8230SOL    HW236153   3.737   3.996   0.161  1.3493 -0.0041  1.1661
 8231SOL     OW36154   2.032   2.261  10.339 -0.1697  0.4738  0.3959
 8231SOL    HW136155   2.097   2.332  10.338  0.6496 -0.2726  0.4269
 8231SOL    HW236156   2.001   2.258  10.248  0.0418 -4.5058  0.4643
 8232SOL     OW36157   2.541   1.744   6.171 -0.4072  0.3076  0.1656
 8232SOL    HW136158   2.446   1.734   6.173 -0.2741 -0.6782  1.4209
 8232SOL    HW236159   2.545   1.809   6.241 -1.9021 -1.2177  1.6782
 8233SOL     OW36160   1.532   2.886   5.463 -0.0430  0.0983 -0.0710
 8233SOL    HW136161   1.614   2.863   5.420  0.3766 -0.2604  0.9041
 8233SOL    HW236162   1.539   2.982   5.465  2.3583 -0.0541 -1.1120
 8234SOL     OW36163   4.284   2.227   2.665  0.1777  0.1237 -0.0568
 8234SOL    HW136164   4.363   2.222   2.611 -0.5495  0.9749 -1.2222
 8234SOL    HW236165   4.253   2.137   2.659 -1.0182  0.6132 -1.2586
 8235SOL     OW36166   1.475   1.031  13.593  0.5200  0.3765  0.1657
 8235SOL    HW136167   1.482   1.004  13.685 -0.0674  4.6823  1.4928
 8235SOL    HW236168   1.521   1.115  13.602  0.8690  0.4583 -2.5665
 8236SOL     OW36169   3.509   1.981   1.572  0.2145  0.4055  0.2128
 8236SOL    HW136170   3.602   2.000   1.583  0.2177  0.7330 -0.3608
 8236SOL    HW236171   3.506   1.962   1.478  1.3871 -1.7141  0.6170
 8237SOL     OW36172   2.123   0.566   4.198  0.4192  0.1551  0.1447
 8237SOL    HW136173   2.206   0.518   4.193 -0.9856 -2.1655 -1.1231
 8237SOL    HW236174   2.077   0.542   4.118  0.6008 -1.3594  0.4933
 8238SOL     OW36175   3.044   1.615   2.529  0.3197  0.3578  0.5437
 8238SOL    HW136176   3.020   1.523   2.540  0.8057  0.1444 -0.2198
 8238SOL    HW236177   2.957   1.651   2.545  0.4224 -0.0455  2.0926
 8239SOL     OW36178   2.620   4.280   6.061  0.4066 -0.1406  0.6273
 8239SOL    HW136179   2.582   4.284   5.973  1.1580  0.7464  0.3451
 8239SOL    HW236180   2.696   4.226   6.042  1.7842  1.7200  0.8254
 8240SOL     OW36181   4.309   3.122  16.207  0.0177 -0.2324  0.2739
 8240SOL    HW136182   4.377   3.147  16.270 -1.7763  0.2512  2.0216
 8240SOL    HW236183   4.369   3.067  16.156 -1.2204 -2.5194  1.3144
 8241SOL     OW36184   1.116   0.211   6.000  1.0172 -0.0402 -0.2673
 8241SOL    HW136185   1.084   0.135   5.953 -0.6192  0.9669 -0.8044
 8241SOL    HW236186   1.178   0.245   5.936  2.9403  1.2225  2.2882
 8242SOL     OW36187   1.347   4.026   3.970 -0.0006 -0.2891 -0.3898
 8242SOL    HW136188   1.400   3.961   3.923 -1.6364 -2.5359  0.8817
 8242SOL    HW236189   1.414   4.078   4.013 -0.2255 -1.2257  1.1111
 8243SOL     OW36190   2.689   0.931   0.941  0.5315 -0.1916 -0.0487
 8243SOL    HW136191   2.705   0.839   0.964 -0.1967  0.1448  1.8067
 8243SOL    HW236192   2.594   0.940   0.944  0.4610 -1.1120  0.3781
 8244SOL     OW36193   1.292   3.664   6.953  0.1375  0.3765 -0.0505
 8244SOL    HW136194   1.285   3.758   6.942 -0.5743  0.1666 -1.3687
 8244SOL    HW236195   1.331   3.631   6.872  2.2903  1.8636  0.3686
 8245SOL     OW36196   1.937   4.578   6.915 -0.0908 -0.6883 -0.2298
 8245SOL    HW136197   1.887   4.496   6.919 -0.9087 -0.1916 -0.2739
 8245SOL    HW236198   1.957   4.586   7.008  2.2896 -0.4276 -0.7767
 8246SOL     OW36199   1.711   2.648   7.921 -0.1967  0.3140  0.5686
 8246SOL    HW136200   1.759   2.660   7.839  0.7611  0.7511  1.1924
 8246SOL    HW236201   1.774   2.645   7.993 -1.8943  1.1433  2.0998
 8247SOL     OW36202   4.129   3.855   9.574  0.5684 -0.5592 -0.3398
 8247SOL    HW136203   4.042   3.817   9.588  0.6877 -0.7327 -0.0890
 8247SOL    HW236204   4.166   3.788   9.516  1.3046  2.0749 -2.9122
 8248SOL     OW36205   4.057   1.271   1.139  0.5614  0.5992 -0.1666
 8248SOL    HW136206   4.039   1.365   1.135 -1.3189  0.2203 -0.4022
 8248SOL    HW236207   4.152   1.259   1.144  0.5023 -0.4562 -1.6780
 8249SOL     OW36208   0.209   4.676   2.575 -0.3679 -0.3027 -0.3242
 8249SOL    HW136209   0.147   4.605   2.556 -0.6544 -0.4628  1.2559
 8249SOL    HW236210   0.277   4.625   2.619  1.8737  2.5681 -0.4601
 8250SOL     OW36211   4.217   1.179   6.213  0.5870  0.2664 -0.0373
 8250SOL    HW136212   4.281   1.109   6.226  2.9279  2.3574 -0.1697
 8250SOL    HW236213   4.244   1.226   6.134  0.7942  3.2466  1.8044
 8251SOL     OW36214   1.831   3.835   7.950  0.1383 -0.1346 -0.3161
 8251SOL    HW136215   1.905   3.817   8.008 -1.5909 -0.9053  1.6265
 8251SOL    HW236216   1.772   3.871   8.016  0.2531  0.4039 -0.5014
 8252SOL     OW36217   1.871   0.306   3.704 -0.5186  0.3420 -0.0680
 8252SOL    HW136218   1.957   0.311   3.747  0.1333 -0.1113 -1.3134
 8252SOL    HW236219   1.873   0.380   3.644  0.6071 -1.4571 -2.2568
 8253SOL     OW36220   1.993   2.383  12.578  0.0957 -0.0750 -0.8892
 8253SOL    HW136221   1.952   2.298  12.559  0.3478 -0.7886  1.7532
 8253SOL    HW236222   2.077   2.354  12.614  0.0589 -0.9646 -1.5111
 8254SOL     OW36223   3.067   2.770   3.708  0.0324 -0.1677 -0.2265
 8254SOL    HW136224   3.023   2.852   3.733 -0.3899 -0.2575 -0.6741
 8254SOL    HW236225   3.037   2.720   3.784 -0.4005  0.2134 -0.1478
 8255SOL     OW36226   0.951   1.813   0.859 -0.3586  0.3163  0.1865
 8255SOL    HW136227   1.023   1.751   0.871  0.8858  1.5600 -0.9543
 8255SOL    HW236228   0.936   1.805   0.765 -0.4197 -0.5074  0.2635
 8256SOL     OW36229   1.149   0.953   5.508 -0.1147  0.0597 -0.6558
 8256SOL    HW136230   1.092   1.021   5.472 -2.2169 -0.4066  1.7412
 8256SOL    HW236231   1.166   0.903   5.428 -1.7645  1.5803 -1.9550
 8257SOL     OW36232   0.529   0.631   2.899 -0.7841 -0.2694  0.6299
 8257SOL    HW136233   0.608   0.626   2.845 -1.6479  0.5994 -0.7488
 8257SOL    HW236234   0.510   0.719   2.866  0.6907 -0.0394  0.4029
 8258SOL     OW36235   2.068   3.042   7.253 -0.0277 -0.0904 -0.7006
 8258SOL    HW136236   2.058   3.004   7.340  2.4271 -1.6126 -1.0801
 8258SOL    HW236237   2.150   3.088   7.274 -0.6727  0.3174  0.9266
 8259SOL     OW36238   0.271   2.606   9.652 -0.7502 -0.1453 -0.4949
 8259SOL    HW136239   0.269   2.596   9.747 -1.3851  0.8924 -0.3882
 8259SOL    HW236240   0.364   2.598   9.635 -0.8392 -1.7021 -0.1985
 8260SOL     OW36241   3.080   2.862   7.809  0.0804  1.1038 -0.1200
 8260SOL    HW136242   3.142   2.803   7.852  0.5763  1.9143  0.2903
 8260SOL    HW236243   3.032   2.895   7.885 -1.6812  1.4826 -1.4154
 8261SOL     OW36244   3.677   1.544   3.936  0.3540 -0.2173  0.1751
 8261SOL    HW136245   3.645   1.488   4.007 -0.6913  1.8135  1.2919
 8261SOL    HW236246   3.610   1.612   3.924  0.8464  0.1938 -0.2604
 8262SOL     OW36247   2.226   1.094   4.779 -0.2072 -0.0865 -0.1019
 8262SOL    HW136248   2.208   1.186   4.802 -0.7355 -0.8133  2.4481
 8262SOL    HW236249   2.180   1.052   4.852 -0.8105 -2.3239 -1.7671
 8263SOL     OW36250   0.494   1.152   6.932 -0.3774 -0.1321 -0.1733
 8263SOL    HW136251   0.518   1.241   6.958  0.3668  0.3209 -2.3795
 8263SOL    HW236252   0.534   1.152   6.845  2.3792  0.1146  1.0957
 8264SOL     OW36253   0.500   3.255   8.775 -0.2335  0.2513  0.3414
 8264SOL    HW136254   0.470   3.327   8.830 -0.3820 -0.1480  0.7809
 8264SOL    HW236255   0.536   3.199   8.844 -1.6404 -0.4223  0.5261
 8265SOL     OW36256   0.533   4.561   8.007 -0.3043 -0.3011 -0.9633
 8265SOL    HW136257   0.617   4.602   7.990 -0.2144 -1.4709 -3.3040
 8265SOL    HW236258   0.571   4.483   8.047  0.3371  0.6840  0.3156
 8266SOL     OW36259   0.923   4.210  11.070 -0.2946 -0.3582  0.3299
 8266SOL    HW136260   1.006   4.257  11.074 -1.0689  0.9844  0.5560
 8266SOL    HW236261   0.860   4.282  11.078 -0.1235 -0.0947 -0.7097
 8267SOL     OW36262   3.657   1.813   5.964  0.2872  0.0496  0.2079
 8267SOL    HW136263   3.582   1.754   5.968  1.1169 -1.0075  0.3822
 8267SOL    HW236264   3.645   1.867   6.042 -1.9691 -0.3879  0.1442
 8268SOL     OW36265   2.156   2.069   2.172  0.5323 -0.5236  0.3617
 8268SOL    HW136266   2.202   1.986   2.159  0.8351 -0.5503  1.6185
 8268SOL    HW236267   2.068   2.050   2.137  0.4906  1.9152 -0.8455
 8269SOL     OW36268   0.643   1.492  10.359 -0.6874  0.1360 -0.0496
 8269SOL    HW136269   0.705   1.421  10.372 -1.0587 -0.3554 -0.9225
 8269SOL    HW236270   0.559   1.447  10.350 -1.0790  0.5671  1.4955
 8270SOL     OW36271   1.069   2.726   2.413 -0.5569 -0.3015 -0.1114
 8270SOL    HW136272   0.984   2.771   2.412  0.2024  1.1428  0.2688
 8270SOL    HW236273   1.102   2.757   2.498  0.0720  1.0161 -0.8334
 8271SOL     OW36274   4.100   0.040   6.580 -0.6808 -0.7804 -0.5399
 8271SOL    HW136275   4.160   4.716   6.522 -0.3025  0.1026 -0.8737
 8271SOL    HW236276   4.015   0.016   6.542 -0.8718 -1.6130  0.4144
 8272SOL     OW36277   2.553   0.394   3.502  0.3408 -0.0762 -1.4996
 8272SOL    HW136278   2.588   0.474   3.462 -1.6762  2.1648  1.2531
 8272SOL    HW236279   2.632   0.353   3.537 -0.5737 -0.3503  0.2192
 8273SOL     OW36280   3.246   1.742   6.759 -0.2982  0.4105  0.0491
 8273SOL    HW136281   3.153   1.754   6.739 -0.9456 -2.0217  1.7332
 8273SOL    HW236282   3.274   1.801   6.689  2.5541  0.0911  0.8951
 8274SOL     OW36283   3.695   3.490   7.930  0.1958 -0.0453 -0.0419
 8274SOL    HW136284   3.717   3.402   7.900 -0.3618 -1.0458  2.5213
 8274SOL    HW236285   3.784   3.523   7.940  1.1180 -1.8687 -2.1660
 8275SOL     OW36286   1.121   1.307  11.868 -0.3064  0.0591  0.1684
 8275SOL    HW136287   1.207   1.324  11.906  0.3881 -1.2726 -0.8134
 8275SOL    HW236288   1.081   1.266  11.944 -0.9590 -0.3304 -0.3851
 8276SOL     OW36289   2.402   2.813   2.473 -0.0926  0.1567  0.2459
 8276SOL    HW136290   2.411   2.775   2.561 -1.1397 -0.2541  0.1896
 8276SOL    HW236291   2.386   2.902   2.503 -1.3151 -0.0655  0.2572
 8277SOL     OW36292   2.889   4.192   5.162 -0.1731  0.4070 -0.4314
 8277SOL    HW136293   2.836   4.197   5.083 -0.9204 -0.2785  0.0270
 8277SOL    HW236294   2.970   4.234   5.132 -0.0600  1.5025  1.3707
 8278SOL     OW36295   3.086   1.005  12.419 -0.2654  0.1646  0.3576
 8278SOL    HW136296   3.113   0.940  12.354 -0.6961  0.1038  0.2403
 8278SOL    HW236297   3.059   1.076  12.360  1.4225  0.9594  0.5604
 8279SOL     OW36298   2.243   0.377   0.708  0.1036  0.1806 -1.2171
 8279SOL    HW136299   2.230   0.465   0.672 -0.2608  1.1226  1.2248
 8279SOL    HW236300   2.163   0.372   0.760 -0.9322 -1.9994 -3.0287
 8280SOL     OW36301   1.655   1.242   1.593  0.0099 -0.2288  0.2024
 8280SOL    HW136302   1.737   1.201   1.566 -0.0213  0.6730 -1.2468
 8280SOL    HW236303   1.644   1.299   1.517 -0.3004  0.4666  0.7659
 8281SOL     OW36304   4.266   4.714   6.157 -0.1241 -0.2567  0.1113
 8281SOL    HW136305   4.310   4.635   6.127  0.6955  0.2970 -0.1364
 8281SOL    HW236306   4.201   0.007   6.088  0.0995  2.8441  0.6686
 8282SOL     OW36307   1.522   4.245  13.422 -0.3549 -0.6058 -0.6371
 8282SOL    HW136308   1.516   4.264  13.328  1.0785  0.8211 -0.4450
 8282SOL    HW236309   1.508   4.335  13.452 -1.1144 -1.6458  2.0957
 8283SOL     OW36310   2.483   3.326   4.060  0.3284 -0.5888 -0.0961
 8283SOL    HW136311   2.454   3.367   3.979  0.9304 -0.7097 -0.3718
 8283SOL    HW236312   2.579   3.329   4.054  0.3865  3.9256  2.7852
 8284SOL     OW36313   3.827   0.500   2.345  0.4034  0.2833  0.0202
 8284SOL    HW136314   3.897   0.544   2.297  0.8636  2.4087  2.6387
 8284SOL    HW236315   3.751   0.529   2.296  1.2617 -0.7851 -1.9239
 8285SOL     OW36316   4.055   3.305   2.285 -0.1390  0.0791 -0.2519
 8285SOL    HW136317   4.121   3.306   2.215  0.7383 -0.1004  0.5692
 8285SOL    HW236318   4.091   3.238   2.343 -0.3193  0.0124 -0.2189
 8286SOL     OW36319   3.468   3.570  11.455  0.0575  0.3454  0.1609
 8286SOL    HW136320   3.544   3.601  11.504 -1.7962  2.0689  1.9613
 8286SOL    HW236321   3.519   3.515  11.397 -0.5380 -0.6008  0.5333
 8287SOL     OW36322   4.213   1.493  15.681  0.3331  0.9467  0.0113
 8287SOL    HW136323   4.175   1.570  15.722 -1.7274 -0.6368  1.0578
 8287SOL    HW236324   4.175   1.516  15.596 -0.7249 -1.1005 -0.0508
 8288SOL     OW36325   3.592   2.963   2.629 -0.5383  0.8917 -0.3484
 8288SOL    HW136326   3.504   2.999   2.619  0.7044  2.9375 -4.1739
 8288SOL    HW236327   3.582   2.885   2.575 -1.0077  0.4511  0.3776
 8289SOL     OW36328   3.388   2.416   5.356  0.4465  0.0881  0.1207
 8289SOL    HW136329   3.454   2.448   5.417 -1.1419  2.4951  0.5718
 8289SOL    HW236330   3.436   2.345   5.313 -0.9932 -1.3981  0.9852
 8290SOL     OW36331   0.558   0.751   1.929  0.5351  0.0868 -0.2119
 8290SOL    HW136332   0.617   0.825   1.943 -1.0383  0.8894  1.9607
 8290SOL    HW236333   0.588   0.720   1.843 -0.4263 -0.5199 -0.3247
 8291SOL     OW36334   2.542   1.605  13.023  0.0388 -0.4128  0.1109
 8291SOL    HW136335   2.637   1.594  13.020  0.0259 -0.1189 -1.4764
 8291SOL    HW236336   2.516   1.566  12.939  1.8352 -2.2970  0.4057
 8292SOL     OW36337   0.851   2.910   4.925 -0.0215 -0.0163  0.1613
 8292SOL    HW136338   0.756   2.917   4.916 -0.1574 -0.3595  1.3222
 8292SOL    HW236339   0.882   2.985   4.874  1.2966 -0.0171  0.9543
 8293SOL     OW36340   1.691   2.387   4.898 -0.3422 -0.0704  0.5154
 8293SOL    HW136341   1.766   2.424   4.944 -0.4824 -0.0134  0.6992
 8293SOL    HW236342   1.699   2.295   4.924  0.0353 -0.0291  0.5436
 8294SOL     OW36343   2.238   2.973  12.797 -0.3445 -1.0180  0.1237
 8294SOL    HW136344   2.170   2.927  12.747 -0.8408  0.1827 -0.3072
 8294SOL    HW236345   2.233   2.918  12.875 -3.4686 -0.4391  0.3275
 8295SOL     OW36346   3.638   3.052  12.032  0.5042  0.4200 -0.3495
 8295SOL    HW136347   3.629   2.964  11.995  0.8480  0.7695 -1.2556
 8295SOL    HW236348   3.605   3.107  11.961 -3.1045  1.0726  1.8216
 8296SOL     OW36349   4.023   3.070   3.654 -0.6058  0.5741 -0.0116
 8296SOL    HW136350   3.967   2.992   3.654  1.7069 -1.0713  2.1675
 8296SOL    HW236351   3.969   3.126   3.598 -0.8726  0.6079  0.2749
 8297SOL     OW36352   2.039   3.804   4.017 -0.3262  0.4555 -0.1362
 8297SOL    HW136353   2.056   3.710   4.030 -0.0830  0.4068 -0.8209
 8297SOL    HW236354   2.122   3.841   3.988 -0.1156 -0.2384 -0.4265
 8298SOL     OW36355   2.700   3.527   0.408  0.1373 -0.0164 -0.1161
 8298SOL    HW136356   2.641   3.565   0.342 -1.2940 -1.9383  0.0369
 8298SOL    HW236357   2.673   3.569   0.489 -0.1115 -2.8088  1.2283
 8299SOL     OW36358   4.423   1.515  13.845 -0.2516 -0.2156  0.1709
 8299SOL    HW136359   4.342   1.510  13.795  0.4890 -1.5052 -0.8985
 8299SOL    HW236360   4.432   1.425  13.875 -0.5210 -0.3332 -0.1041
 8300SOL     OW36361   2.080   2.163   4.640 -0.6553 -0.3135 -0.8136
 8300SOL    HW136362   2.151   2.138   4.582  0.7143  2.0467 -0.1407
 8300SOL    HW236363   2.141   2.170   4.714  0.5354  0.5282 -1.8704
 8301SOL     OW36364   3.540   4.335   7.453  0.7372 -0.2193 -0.1803
 8301SOL    HW136365   3.498   4.405   7.403  0.2648 -1.7258 -1.8564
 8301SOL    HW236366   3.609   4.316   7.389  1.6636  1.7104  0.2316
 8302SOL     OW36367   4.389   3.011  14.994 -0.1438  0.0969 -0.5443
 8302SOL    HW136368   4.482   2.990  14.985 -0.4063 -1.7656  1.1586
 8302SOL    HW236369   4.352   2.924  15.004 -2.1293  1.1146  1.0797
 8303SOL     OW36370   3.316   2.943   7.014  1.0083 -0.2414  0.1977
 8303SOL    HW136371   3.258   2.983   6.949  2.3575  1.3643 -0.0106
 8303SOL    HW236372   3.269   2.970   7.093 -0.9155  0.6781 -1.2591
 8304SOL     OW36373   4.389   1.776   4.503  0.9978  0.7978 -0.6189
 8304SOL    HW136374   4.385   1.859   4.457 -0.8762  1.7689  1.2708
 8304SOL    HW236375   4.407   1.725   4.424  0.4134 -0.4165  0.0149
 8305SOL     OW36376   1.330   2.266   7.084  0.2259 -0.1699 -0.7795
 8305SOL    HW136377   1.304   2.340   7.028 -2.2646 -0.1496  0.4142
 8305SOL    HW236378   1.371   2.210   7.019  0.8296  0.1654 -0.6873
 8306SOL     OW36379   1.952   4.171  15.335  0.7049 -0.5369 -0.1492
 8306SOL    HW136380   1.920   4.156  15.424 -1.1020  0.7248 -0.5918
 8306SOL    HW236381   2.029   4.113  15.333  0.8602 -0.2908 -1.0897
 8307SOL     OW36382   3.184   1.090   7.575 -0.0947  0.5240  0.2887
 8307SOL    HW136383   3.273   1.112   7.600  0.5601 -0.3087 -1.3182
 8307SOL    HW236384   3.191   1.093   7.480 -0.5400 -1.4847  0.1786
 8308SOL     OW36385   2.665   3.582  10.785  0.2456  0.1056  0.1805
 8308SOL    HW136386   2.720   3.640  10.839  1.1523 -2.6557  2.2206
 8308SOL    HW236387   2.655   3.517  10.854  1.5819  2.2114  2.3540
 8309SOL     OW36388   2.417   4.229   1.480 -0.0466  0.4457  0.2612
 8309SOL    HW136389   2.428   4.141   1.516  4.9921  0.0046 -2.4223
 8309SOL    HW236390   2.506   4.253   1.454 -0.8280  2.6339 -0.3497
 8310SOL     OW36391   3.934   0.886   2.568  0.5063  0.3528  0.2510
 8310SOL    HW136392   3.935   0.791   2.581  0.3477  0.6175  2.1479
 8310SOL    HW236393   3.845   0.885   2.532  1.2896  1.0074 -1.7501
 8311SOL     OW36394   2.708   0.448   3.818  0.1868 -0.5444 -0.1009
 8311SOL    HW136395   2.761   0.401   3.882 -1.0482 -0.3293  1.0830
 8311SOL    HW236396   2.730   0.398   3.739  0.1563 -1.9776  0.8046
 8312SOL     OW36397   3.909   4.550   0.104  0.5319  0.0996  0.1771
 8312SOL    HW136398   3.823   4.524   0.137 -0.3034  2.3749 -0.2113
 8312SOL    HW236399   3.895   4.551   0.009 -2.1174  0.3651  0.5767
 8313SOL     OW36400   2.293   1.274   9.327 -0.0363 -0.2584  0.3947
 8313SOL    HW136401   2.301   1.185   9.293  0.7961 -0.1095  0.2020
 8313SOL    HW236402   2.207   1.266   9.367  0.4154 -1.0374  1.2158
 8314SOL     OW36403   1.928   4.192   8.118 -0.3409  0.1450 -0.0308
 8314SOL    HW136404   2.009   4.240   8.098  0.8030 -2.3852 -1.6640
 8314SOL    HW236405   1.889   4.235   8.193  0.3927  0.8532 -0.0525
 8315SOL     OW36406   2.169   4.467   0.407 -0.5567  0.2384  0.2607
 8315SOL    HW136407   2.092   4.432   0.452  0.3392 -0.1190  1.5142
 8315SOL    HW236408   2.185   4.393   0.349 -0.4625  1.0832 -0.7727
 8316SOL     OW36409   2.674   3.651  13.399  0.5514 -0.5160  0.2641
 8316SOL    HW136410   2.651   3.591  13.469 -0.7554 -2.3405 -1.7572
 8316SOL    HW236411   2.649   3.599  13.323  0.2505 -0.0456  0.0379
 8317SOL     OW36412   1.059   0.933   6.381 -1.0355 -0.3947  0.3155
 8317SOL    HW136413   1.118   0.886   6.322  0.2203  0.2435  1.0635
 8317SOL    HW236414   1.022   0.989   6.314  0.3424 -0.3785 -0.4447
 8318SOL     OW36415   2.831   0.412   8.562  0.4303 -0.2681 -0.8192
 8318SOL    HW136416   2.845   0.341   8.624  0.7586  3.4344  3.3670
 8318SOL    HW236417   2.740   0.435   8.579  1.2738  1.3030  1.6702
 8319SOL     OW36418   0.909   0.346  13.887  0.4235  0.4909  0.5902
 8319SOL    HW136419   0.963   0.273  13.858  1.6844  1.9011 -0.6109
 8319SOL    HW236420   0.917   0.330  13.981 -0.1139  0.6075  0.6585
 8320SOL     OW36421   2.709   2.350   6.543  0.2293 -0.9492 -0.3920
 8320SOL    HW136422   2.615   2.339   6.532  0.2109 -1.4626  0.2976
 8320SOL    HW236423   2.716   2.397   6.626  0.5462 -1.2949 -0.2224
 8321SOL     OW36424   1.394   1.217   6.034 -0.2578  0.1886 -0.6792
 8321SOL    HW136425   1.472   1.234   6.086  0.0643  0.1629 -1.1493
 8321SOL    HW236426   1.408   1.290   5.975  0.4938 -0.2123 -0.9920
 8322SOL     OW36427   0.447   3.810   8.659  0.1460 -0.2346 -0.0731
 8322SOL    HW136428   0.402   3.864   8.593  0.6040  2.2127  1.6422
 8322SOL    HW236429   0.456   3.726   8.612 -1.4691 -0.5717  0.1916
 8323SOL     OW36430   3.044   1.593   3.328 -0.7111  0.0448  0.0922
 8323SOL    HW136431   3.077   1.676   3.360  0.6755 -0.7095  0.6191
 8323SOL    HW236432   2.992   1.556   3.400 -0.5705 -0.3738 -0.0179
 8324SOL     OW36433   1.784   3.239  17.412 -0.0098  0.5377 -0.4687
 8324SOL    HW136434   1.730   3.313  17.440 -0.5739  1.0798 -2.9802
 8324SOL    HW236435   1.751   3.213  17.326  1.1546 -1.5246 -0.2868
 8325SOL     OW36436   1.227   4.072  15.970  0.3279  0.5949 -0.3316
 8325SOL    HW136437   1.201   4.012  15.900 -0.7234 -2.1884  2.4540
 8325SOL    HW236438   1.186   4.155  15.947 -0.1811  0.7943  1.2668
 8326SOL     OW36439   4.200   1.649   3.925  0.8290  0.3922  0.6624
 8326SOL    HW136440   4.270   1.671   3.864  0.4802 -0.1496  0.0815
 8326SOL    HW236441   4.138   1.714   3.891 -1.3942 -2.4233 -0.6579
 8327SOL     OW36442   3.149   1.541  11.790 -0.4991 -0.0236 -0.1093
 8327SOL    HW136443   3.072   1.587  11.822 -2.5168 -1.3410 -2.9978
 8327SOL    HW236444   3.160   1.585  11.705 -1.2049  0.3585  0.0055
 8328SOL     OW36445   0.252   4.109  15.090  0.3303 -0.3148 -0.1204
 8328SOL    HW136446   0.283   4.199  15.097 -0.6214 -0.3612  4.5332
 8328SOL    HW236447   0.247   4.074  15.179 -0.6467 -1.4828 -0.6253
 8329SOL     OW36448   3.896   1.523   2.222 -0.6482  0.1856  0.0716
 8329SOL    HW136449   3.902   1.610   2.182 -0.8678  0.4726  0.6648
 8329SOL    HW236450   3.805   1.523   2.251 -0.8818  0.3268 -0.6541
 8330SOL     OW36451   3.422   2.126  11.421  0.0201 -0.5819  0.4454
 8330SOL    HW136452   3.384   2.068  11.487  1.1052 -1.9134 -0.1103
 8330SOL    HW236453   3.352   2.191  11.419  0.4866 -0.0905  0.0711
 8331SOL     OW36454   3.873   3.759   9.570 -0.2459  0.3628 -0.3613
 8331SOL    HW136455   3.856   3.733   9.479  0.6474 -0.9187 -0.1695
 8331SOL    HW236456   3.802   3.820   9.586  0.5234  1.1214  0.1843
 8332SOL     OW36457   2.878   3.190  13.328  0.6217 -0.2205  0.6814
 8332SOL    HW136458   2.825   3.117  13.360  0.2239 -1.0299 -1.8043
 8332SOL    HW236459   2.809   3.252  13.309 -0.3713 -0.9796  1.8096
 8333SOL     OW36460   2.933   3.376  14.630 -0.1082  0.0636  0.3781
 8333SOL    HW136461   2.882   3.310  14.583  1.1076  0.4690 -1.5408
 8333SOL    HW236462   2.984   3.322  14.691  0.6239 -1.3500 -1.4679
 8334SOL     OW36463   1.239   2.631   7.215  0.4357 -0.5088  0.1487
 8334SOL    HW136464   1.233   2.727   7.218 -0.3606 -0.5896  1.2954
 8334SOL    HW236465   1.328   2.622   7.249  0.9926  0.9513 -0.9056
 8335SOL     OW36466   3.680   4.629   1.072 -0.2523  0.4261  0.4893
 8335SOL    HW136467   3.622   4.684   1.020 -1.2474  0.4051  1.5655
 8335SOL    HW236468   3.632   4.547   1.083 -0.4279  0.4149 -0.3651
 8336SOL     OW36469   1.613   1.659  17.360  0.2724  0.2203 -0.4439
 8336SOL    HW136470   1.690   1.678  17.414  1.6750 -0.2171 -2.2708
 8336SOL    HW236471   1.563   1.740  17.367  1.3341  0.8379  0.0356
 8337SOL     OW36472   2.484   1.604   8.755 -0.5481 -0.1370 -0.2198
 8337SOL    HW136473   2.430   1.642   8.824  0.7653  0.8778  0.2510
 8337SOL    HW236474   2.442   1.632   8.674  2.1467  2.6630 -0.6279
 8338SOL     OW36475   2.107   4.202   8.837 -0.2153  0.4019  0.2361
 8338SOL    HW136476   2.111   4.135   8.905  1.2871  1.5700  1.2785
 8338SOL    HW236477   2.016   4.226   8.857 -0.5552  0.7317 -1.6055
 8339SOL     OW36478   0.839   0.969  10.067  0.1918  0.0813  0.3664
 8339SOL    HW136479   0.888   0.890  10.046  0.2228  0.2811 -0.3018
 8339SOL    HW236480   0.878   0.996  10.151 -0.8069  0.7486  0.6202
 8340SOL     OW36481   2.237   0.521  10.633 -0.3151  0.3652 -0.0229
 8340SOL    HW136482   2.326   0.493  10.610 -1.3911 -2.2457 -1.0424
 8340SOL    HW236483   2.195   0.457  10.575  0.8908 -1.1860  0.8120
 8341SOL     OW36484   2.196   3.700  16.493  0.2082 -0.4138 -0.2976
 8341SOL    HW136485   2.152   3.654  16.565 -0.3455 -0.0461 -0.4038
 8341SOL    HW236486   2.276   3.648  16.492 -0.0017 -0.7333 -0.6638
 8342SOL     OW36487   0.248   4.039   9.206 -0.1284  0.1260 -0.3176
 8342SOL    HW136488   0.174   4.067   9.260 -0.1948  0.0228 -0.3547
 8342SOL    HW236489   0.316   4.014   9.269  1.8285  1.5511 -1.8437
 8343SOL     OW36490   3.237   1.777   2.670 -0.1345 -0.5458  0.0959
 8343SOL    HW136491   3.178   1.851   2.654 -1.1573 -1.0263  1.6334
 8343SOL    HW236492   3.211   1.709   2.608 -1.4779  0.3084 -0.2852
 8344SOL     OW36493   1.620   4.220   8.264 -0.0674  0.1834 -0.3803
 8344SOL    HW136494   1.684   4.224   8.335 -0.0868  1.3037 -0.4247
 8344SOL    HW236495   1.642   4.300   8.217  2.3104 -0.7041 -0.7845
 8345SOL     OW36496   2.739   1.082   4.932  0.3834 -0.1477  0.1685
 8345SOL    HW136497   2.778   1.034   5.005 -1.3831  1.5336  2.2025
 8345SOL    HW236498   2.757   1.173   4.955  0.4063  0.2645 -1.4334
 8346SOL     OW36499   1.235   1.523   9.804  0.5207  0.3014 -0.8617
 8346SOL    HW136500   1.166   1.589   9.813 -1.7185 -2.5382  2.5187
 8346SOL    HW236501   1.246   1.538   9.710  2.2678 -0.6079 -0.8095
 8347SOL     OW36502   3.823   3.891   2.160  0.3666 -0.5088  0.3658
 8347SOL    HW136503   3.862   3.973   2.191 -2.1120  0.3458  1.2302
 8347SOL    HW236504   3.851   3.895   2.069  0.7069  1.1924  0.5396
 8348SOL     OW36505   4.391   1.538   8.481 -0.0573 -0.2609  0.0045
 8348SOL    HW136506   4.300   1.559   8.464 -0.3752 -1.7243 -0.1337
 8348SOL    HW236507   4.383   1.474   8.552 -2.1044 -1.3229 -1.2023
 8349SOL     OW36508   0.979   3.472   9.818  0.0776 -0.2734  0.4209
 8349SOL    HW136509   0.915   3.489   9.888  2.3031 -1.2918  2.7214
 8349SOL    HW236510   1.061   3.471   9.869  1.2897 -1.7225 -1.5738
 8350SOL     OW36511   0.080   1.487   2.492  0.8540  0.6243  0.5783
 8350SOL    HW136512   0.111   1.577   2.502 -0.6332  1.3331 -1.0099
 8350SOL    HW236513   0.050   1.473   2.582 -1.2736 -0.8944 -0.3516
 8351SOL     OW36514   2.004   0.272   9.216  0.3412 -0.9239  0.2400
 8351SOL    HW136515   1.954   0.329   9.158 -0.1076 -0.5948  0.9530
 8351SOL    HW236516   1.999   0.321   9.297 -0.8233 -0.6015 -0.0250
 8352SOL     OW36517   0.507   3.475   3.933  0.0474 -0.2020  0.0889
 8352SOL    HW136518   0.573   3.518   3.880  1.7530 -2.8804  0.0570
 8352SOL    HW236519   0.570   3.442   3.997 -0.0709  0.9278  0.7773
 8353SOL     OW36520   3.277   2.010   3.097  0.0983 -0.2840  1.0804
 8353SOL    HW136521   3.365   2.018   3.134 -0.1407  1.8728  1.1415
 8353SOL    HW236522   3.220   2.036   3.169 -0.2986  2.0616 -0.1026
 8354SOL     OW36523   1.543   3.092   7.235 -0.0475 -0.2899 -0.1099
 8354SOL    HW136524   1.600   3.166   7.217 -0.7671  0.6341  1.4234
 8354SOL    HW236525   1.585   3.046   7.307 -0.3157 -3.3293 -1.8898
 8355SOL     OW36526   2.002   2.647   5.893 -0.1377 -0.6332 -0.5650
 8355SOL    HW136527   2.041   2.560   5.907  0.7297 -0.2901 -0.8363
 8355SOL    HW236528   1.925   2.612   5.848 -0.4363 -1.0027  0.2362
 8356SOL     OW36529   4.663   3.102   0.471  0.8330 -0.7517  0.0190
 8356SOL    HW136530   0.032   3.090   0.451  0.6055 -0.8383 -0.9797
 8356SOL    HW236531   4.662   3.197   0.458 -3.2981 -1.2209 -3.1889
 8357SOL     OW36532   4.680   1.120   0.364 -0.4112 -0.5462  0.7385
 8357SOL    HW136533   4.641   1.089   0.446  4.2386 -0.6117  2.9104
 8357SOL    HW236534   4.613   1.076   0.311  0.0207  0.7173 -0.8354
 8358SOL     OW36535   1.261   1.660   8.505  0.1644  0.1836 -0.1763
 8358SOL    HW136536   1.321   1.734   8.500  1.1797 -0.5545  1.0165
 8358SOL    HW236537   1.223   1.682   8.589 -1.0140  0.0003 -0.6650
 8359SOL     OW36538   4.506   3.690  12.648 -0.4613  0.1952  0.3913
 8359SOL    HW136539   4.420   3.665  12.682 -0.9741  0.5054 -0.6613
 8359SOL    HW236540   4.559   3.717  12.722 -0.6923  0.2781  0.5283
 8360SOL     OW36541   0.986   0.242   3.893 -0.2760 -0.2776  0.1863
 8360SOL    HW136542   0.936   0.246   3.975  2.3986  1.3274  1.7344
 8360SOL    HW236543   0.924   0.185   3.847 -0.7047  0.6003 -0.3453
 8361SOL     OW36544   4.116   1.135   3.660 -0.5018  0.0150 -0.3982
 8361SOL    HW136545   4.102   1.225   3.632 -1.4102 -0.3694 -1.1920
 8361SOL    HW236546   4.174   1.104   3.591 -0.0193 -0.1179  0.0648
 8362SOL     OW36547   2.819   2.794   5.638  0.2714 -0.2960  0.2821
 8362SOL    HW136548   2.726   2.794   5.616  0.7886  0.2352 -1.8459
 8362SOL    HW236549   2.853   2.717   5.593  0.2904  0.4340 -0.9297
 8363SOL     OW36550   0.179   2.397   0.340 -0.2054  0.5060 -0.3176
 8363SOL    HW136551   0.219   2.345   0.410  2.0723 -0.9614 -2.7109
 8363SOL    HW236552   0.236   2.388   0.263 -0.0445 -0.3765 -0.0979
 8364SOL     OW36553   0.521   3.221  15.460 -0.4849 -0.3606  0.0444
 8364SOL    HW136554   0.492   3.199  15.372 -0.1254 -2.2761  0.3982
 8364SOL    HW236555   0.615   3.213  15.443  0.0793  2.5865  1.7485
 8365SOL     OW36556   4.408   0.744   0.201  0.0180  0.3485 -0.5570
 8365SOL    HW136557   4.430   0.663   0.155  1.8580 -0.3170  1.5089
 8365SOL    HW236558   4.316   0.762   0.181 -0.2809 -1.8318 -1.1474
 8366SOL     OW36559   0.683   3.973   4.923  0.1537 -0.2359 -0.4465
 8366SOL    HW136560   0.710   4.062   4.945 -1.0394  0.2343 -0.8638
 8366SOL    HW236561   0.731   3.922   4.989  0.9601  0.8765 -0.1719
 8367SOL     OW36562   3.395   2.097   3.515  0.9019  0.6313 -0.2966
 8367SOL    HW136563   3.322   2.144   3.474  0.1783 -0.6635 -0.4966
 8367SOL    HW236564   3.346   2.070   3.593  3.2850  1.4824  1.4858
 8368SOL     OW36565   0.622   1.980  17.579  0.4039  0.2583 -0.0682
 8368SOL    HW136566   0.595   1.962  17.489  1.4953 -0.8264 -0.1719
 8368SOL    HW236567   0.690   2.045  17.564  0.1949 -0.3736 -3.7962
 8369SOL     OW36568   3.142   2.463  16.207  0.2841 -0.2299  0.3601
 8369SOL    HW136569   3.158   2.557  16.201  1.2036 -0.3787  0.5333
 8369SOL    HW236570   3.178   2.444  16.293  0.2503 -1.0764  0.1872
 8370SOL     OW36571   3.385   1.720  11.944  0.0188  0.1992 -0.0814
 8370SOL    HW136572   3.431   1.793  11.902  1.6272  0.8259  2.7786
 8370SOL    HW236573   3.312   1.762  11.990  0.3781 -0.2022  0.8446
 8371SOL     OW36574   3.232   0.300  14.449 -0.1009  0.1648 -0.2625
 8371SOL    HW136575   3.230   0.226  14.510 -1.4967  0.1647 -0.2946
 8371SOL    HW236576   3.291   0.265  14.382  0.0977  2.0263 -1.0672
 8372SOL     OW36577   1.613   4.652   6.673  0.0510 -0.1500  0.0312
 8372SOL    HW136578   1.552   4.702   6.728  0.1913  0.2777 -0.2081
 8372SOL    HW236579   1.597   4.701   6.593  2.1031  0.3260 -0.0897
 8373SOL     OW36580   2.084   0.364  14.486  0.4010  0.3720 -0.4152
 8373SOL    HW136581   2.087   0.351  14.392  0.6925 -0.9531 -0.2252
 8373SOL    HW236582   2.025   0.438  14.495  1.5546  1.0063  1.9771
 8374SOL     OW36583   2.628   4.188  15.899  0.4047 -0.2045  0.4742
 8374SOL    HW136584   2.664   4.269  15.863  1.4398 -0.6115  0.5914
 8374SOL    HW236585   2.545   4.180  15.853  1.3820  1.9579 -1.7029
 8375SOL     OW36586   3.965   2.699   8.745  0.3632 -0.6483  0.3328
 8375SOL    HW136587   3.965   2.642   8.668 -0.8913 -1.3137  0.8237
 8375SOL    HW236588   4.054   2.688   8.778  0.9690  2.0510 -0.3892
 8376SOL     OW36589   2.019   0.196   7.972 -0.3997 -0.5726 -0.1184
 8376SOL    HW136590   2.030   0.114   7.925  3.3917 -0.4551  0.5479
 8376SOL    HW236591   2.098   0.193   8.026 -0.2121  1.8226 -0.2273
 8377SOL     OW36592   2.865   1.065   6.942  0.6838  0.0320 -0.0044
 8377SOL    HW136593   2.851   1.055   6.848  0.3096  1.1193 -0.0698
 8377SOL    HW236594   2.847   0.973   6.961 -0.1851 -0.1609 -1.7918
 8378SOL     OW36595   3.041   3.829  10.646 -0.1575 -0.1794  0.2282
 8378SOL    HW136596   3.002   3.875  10.720 -1.3356  3.1115 -2.4379
 8378SOL    HW236597   3.098   3.900  10.617 -1.0154  0.0798 -0.8243
 8379SOL     OW36598   0.006   3.688  10.524 -0.7705 -0.0777 -0.3373
 8379SOL    HW136599   4.689   3.759  10.575 -0.4735 -1.1056  1.3473
 8379SOL    HW236600   4.685   3.702  10.441 -0.3287 -2.3272 -0.9418
 8380SOL     OW36601   3.296   1.663  12.837 -0.0823  0.8454  0.9467
 8380SOL    HW136602   3.253   1.724  12.898  1.8051  0.9641  2.1296
 8380SOL    HW236603   3.291   1.581  12.887  0.2888  1.4166  1.9289
 8381SOL     OW36604   2.888   1.151   2.275  0.2756  0.1676  0.2552
 8381SOL    HW136605   2.796   1.145   2.303  0.0057 -0.6628 -0.8008
 8381SOL    HW236606   2.922   1.065   2.297  0.5938  1.0709  3.2196
 8382SOL     OW36607   3.682   4.711   5.258 -0.0783  0.2117  0.2268
 8382SOL    HW136608   3.658   4.630   5.304 -0.1116  0.4007  0.5466
 8382SOL    HW236609   3.599   0.034   5.267 -0.1225  0.0046  0.9065
 8383SOL     OW36610   3.307   2.764   4.740  0.0542 -0.1055  0.7516
 8383SOL    HW136611   3.347   2.708   4.806  1.7861  0.0039 -0.1895
 8383SOL    HW236612   3.384   2.819   4.723 -0.4548  0.7182  1.1257
 8384SOL     OW36613   2.261   3.531   7.123  0.3610  0.5128  0.2021
 8384SOL    HW136614   2.225   3.448   7.093  0.3510  0.7544 -0.4552
 8384SOL    HW236615   2.241   3.574   7.040  0.5407  1.1367  0.4823
 8385SOL     OW36616   1.248   3.942   9.249  0.4255 -0.0451  0.6473
 8385SOL    HW136617   1.278   4.031   9.265  0.0029  0.2887 -0.3766
 8385SOL    HW236618   1.332   3.896   9.248  1.3010  1.6055 -0.9938
 8386SOL     OW36619   2.735   2.851   7.172 -0.1183  0.1471 -0.2967
 8386SOL    HW136620   2.770   2.930   7.214 -0.8826 -0.5155  1.5818
 8386SOL    HW236621   2.727   2.867   7.078 -0.7450  0.0079 -0.2683
 8387SOL     OW36622   4.044   0.284   5.030  0.2836  0.7166 -0.0546
 8387SOL    HW136623   3.950   0.271   5.046  0.0228  1.7731 -0.7105
 8387SOL    HW236624   4.040   0.313   4.939  0.6662 -2.2276 -0.9887
 8388SOL     OW36625   1.922   4.573   6.212  0.1460 -0.2241  0.0334
 8388SOL    HW136626   1.881   4.650   6.251 -0.1538  0.5989 -1.8697
 8388SOL    HW236627   1.997   4.610   6.165  0.6736 -0.4136  0.7437
 8389SOL     OW36628   2.105   3.394   3.818 -0.1188  0.0988 -0.3990
 8389SOL    HW136629   2.070   3.314   3.858 -0.3893 -0.1668 -1.1605
 8389SOL    HW236630   2.135   3.446   3.892  2.5260 -0.3220 -1.1560
 8390SOL     OW36631   2.494   1.452   5.931 -0.1101  0.6364 -0.6702
 8390SOL    HW136632   2.415   1.434   5.982 -0.7747 -1.4617 -2.4446
 8390SOL    HW236633   2.469   1.427   5.842 -1.5972  0.7925 -0.3042
 8391SOL     OW36634   1.461   1.927  10.853 -0.2462 -0.1436  0.3765
 8391SOL    HW136635   1.436   1.987  10.924 -0.7878  1.2966 -1.0137
 8391SOL    HW236636   1.535   1.877  10.884 -1.5537 -1.1320  1.9202
 8392SOL     OW36637   0.391   2.614   1.617  0.1297  0.0393 -0.2381
 8392SOL    HW136638   0.305   2.590   1.652  1.4810 -2.7078  1.2488
 8392SOL    HW236639   0.405   2.700   1.658  0.0899 -0.8954  1.7147
 8393SOL     OW36640   1.225   4.294   6.855  0.8365 -0.3569 -0.3986
 8393SOL    HW136641   1.240   4.245   6.775  1.9550 -1.5323  0.5270
 8393SOL    HW236642   1.160   4.242   6.903  0.3218 -0.7517 -1.5408
 8394SOL     OW36643   2.977   1.499   6.386 -0.1762  0.0617 -0.8171
 8394SOL    HW136644   2.904   1.511   6.326 -0.2737  2.8882 -0.1303
 8394SOL    HW236645   2.924   1.523   6.463 -0.7640 -1.7635 -0.6321
 8395SOL     OW36646   2.799   0.219   2.930  0.0268  0.2396 -0.0375
 8395SOL    HW136647   2.706   0.224   2.910 -0.1165 -0.1437  0.5545
 8395SOL    HW236648   2.805   0.222   3.025  1.0097 -2.1197 -0.0257
 8396SOL     OW36649   0.731   2.921   8.728 -0.2248 -0.0996  0.1790
 8396SOL    HW136650   0.665   2.888   8.790 -0.1380 -1.2170 -0.3287
 8396SOL    HW236651   0.710   3.014   8.723  0.9542  0.1311 -0.3505
 8397SOL     OW36652   3.766   0.771   7.179 -0.1728 -0.0078  0.1380
 8397SOL    HW136653   3.861   0.767   7.165 -0.2900  1.6233 -1.1557
 8397SOL    HW236654   3.763   0.834   7.251  1.0220  1.2676 -0.9112
 8398SOL     OW36655   4.303   4.055  13.918  0.3826  0.3240 -0.2707
 8398SOL    HW136656   4.366   3.991  13.884 -0.1197  0.3816 -1.3147
 8398SOL    HW236657   4.252   4.006  13.982  0.4263 -0.1553 -0.6041
 8399SOL     OW36658   4.336   1.743   3.707 -0.5809  0.6164  0.1344
 8399SOL    HW136659   4.271   1.794   3.659 -0.5019 -1.3407 -2.0913
 8399SOL    HW236660   4.374   1.811   3.762  4.0999 -1.7231 -0.2146
 8400SOL     OW36661   3.813   3.908   8.229 -0.5423  0.1141 -0.0179
 8400SOL    HW136662   3.804   3.978   8.164  0.6471 -0.4294 -0.7830
 8400SOL    HW236663   3.782   3.956   8.305  1.0579  0.3130  0.5108
 8401SOL     OW36664   4.135   1.968  14.084 -0.4510  0.4318  0.1330
 8401SOL    HW136665   4.076   2.033  14.122  2.4713  1.8244  2.2520
 8401SOL    HW236666   4.171   2.015  14.008  0.1734  0.0616  0.1943
 8402SOL     OW36667   1.798   2.454   3.962 -0.5591 -0.1735  0.4761
 8402SOL    HW136668   1.798   2.392   4.034  3.6404  0.9481  1.4201
 8402SOL    HW236669   1.737   2.522   3.991 -1.1726 -0.7973  0.6613
 8403SOL     OW36670   2.427   2.987   8.698  0.6025  0.4568  0.2350
 8403SOL    HW136671   2.492   2.922   8.723 -1.2569 -1.4661  0.1255
 8403SOL    HW236672   2.471   3.025   8.623  1.6231 -1.2090 -0.0049
 8404SOL     OW36673   0.356   3.265   3.156  0.2361  0.5545  0.4422
 8404SOL    HW136674   0.275   3.311   3.178  0.2233  0.2149  1.1051
 8404SOL    HW236675   0.318   3.202   3.095 -0.1103  2.0660 -0.8860
 8405SOL     OW36676   2.402   0.673   9.676 -0.3682 -0.0500  0.3193
 8405SOL    HW136677   2.488   0.639   9.649  0.6459  2.5682  0.1901
 8405SOL    HW236678   2.397   0.747   9.614 -0.4517 -0.5167 -0.2307
 8406SOL     OW36679   3.247   1.366   3.985  0.5499  0.0044  0.1623
 8406SOL    HW136680   3.181   1.399   3.923 -0.2775 -2.5306 -0.3426
 8406SOL    HW236681   3.325   1.360   3.930  0.3499 -2.2500  0.1006
 8407SOL     OW36682   4.179   4.409   2.490  0.1301  0.3672 -1.0689
 8407SOL    HW136683   4.104   4.463   2.464 -1.3755 -1.5013 -0.6629
 8407SOL    HW236684   4.147   4.319   2.476  0.5172 -0.0023  0.4054
 8408SOL     OW36685   4.203   3.676   7.738  0.4894 -0.1032 -0.3076
 8408SOL    HW136686   4.193   3.719   7.652  0.2369  0.3431 -0.0539
 8408SOL    HW236687   4.213   3.746   7.802 -1.8666  0.0100 -0.0963
 8409SOL     OW36688   0.276   1.262   1.373  0.4394  0.3712  0.4186
 8409SOL    HW136689   0.279   1.174   1.336  1.6891  0.8829 -0.7092
 8409SOL    HW236690   0.320   1.303   1.299 -1.9168  0.8045 -0.7599
 8410SOL     OW36691   2.265   1.918   4.158 -0.2983 -0.3477  0.4049
 8410SOL    HW136692   2.336   1.962   4.205 -0.4001 -0.6756  0.8629
 8410SOL    HW236693   2.187   1.967   4.184  0.3401  1.7243 -1.5505
 8411SOL     OW36694   0.902   4.533   2.328 -0.3873 -0.0165  0.2415
 8411SOL    HW136695   0.936   4.583   2.253  1.3365 -1.3966  0.1053
 8411SOL    HW236696   0.853   4.468   2.278  1.6755  0.4004 -2.3301
 8412SOL     OW36697   2.739   2.183   4.331 -0.0225  0.1104  0.0663
 8412SOL    HW136698   2.788   2.193   4.249  0.9484 -1.3393  0.4562
 8412SOL    HW236699   2.806   2.213   4.393  3.1364 -2.5376 -2.0419
 8413SOL     OW36700   1.365   1.238  17.257  0.1174  0.0264 -0.0313
 8413SOL    HW136701   1.399   1.153  17.226  0.7543 -0.3722  1.7876
 8413SOL    HW236702   1.305   1.212  17.327 -0.0839 -0.5379 -0.4074
 8414SOL     OW36703   3.309   3.231  13.650  0.1133 -0.1950  0.4108
 8414SOL    HW136704   3.341   3.144  13.630 -0.5823 -0.0834 -1.2123
 8414SOL    HW236705   3.297   3.227  13.745  1.8222  0.8448  0.6662
 8415SOL     OW36706   4.024   4.069   3.466  0.5095 -0.6373 -0.2968
 8415SOL    HW136707   4.111   4.041   3.494  1.7854  2.9493 -0.6519
 8415SOL    HW236708   3.980   4.066   3.551 -0.9528 -0.6561 -1.0559
 8416SOL     OW36709   3.591   1.966   7.177  0.2728  0.1471 -0.1360
 8416SOL    HW136710   3.635   2.013   7.248 -0.6171  1.2249 -0.3021
 8416SOL    HW236711   3.670   1.948   7.125 -0.2424 -2.7196  0.0816
 8417SOL     OW36712   4.015   2.500   8.519 -0.1040 -0.5848 -0.5224
 8417SOL    HW136713   4.044   2.523   8.431  0.9382  1.2391  0.2892
 8417SOL    HW236714   3.993   2.408   8.505  3.9018 -1.4239 -1.4791
 8418SOL     OW36715   3.805   1.786   3.956  0.0433  0.0065  0.1203
 8418SOL    HW136716   3.811   1.805   4.049  2.1742  1.1081 -0.2325
 8418SOL    HW236717   3.797   1.690   3.950  0.3105 -0.0407  0.5652
 8419SOL     OW36718   3.218   0.473  12.933 -0.7002 -0.2858  0.1157
 8419SOL    HW136719   3.288   0.504  12.875 -1.9288  1.0391 -0.6650
 8419SOL    HW236720   3.228   0.533  13.007 -0.8547  0.4535 -0.4525
 8420SOL     OW36721   2.523   1.978   2.012  0.3464  0.2046 -0.2954
 8420SOL    HW136722   2.535   2.048   2.076 -0.8410  0.3236 -0.1921
 8420SOL    HW236723   2.473   1.912   2.061 -0.2317  0.9849  0.1682
 8421SOL     OW36724   1.683   4.702   1.931  0.1762 -0.1019 -0.1779
 8421SOL    HW136725   1.728   0.018   2.006  1.9156 -1.2768 -0.6032
 8421SOL    HW236726   1.725   4.615   1.934 -1.0497 -0.6910 -0.2169
 8422SOL     OW36727   3.059   1.972   1.976  0.1296  0.5163  0.2617
 8422SOL    HW136728   3.009   1.935   2.049  1.6708 -1.8306  0.1370
 8422SOL    HW236729   3.043   2.063   2.002  2.8788  2.2681 -4.1900
 8423SOL     OW36730   2.022   3.478   3.553  0.1917  0.0240  0.2269
 8423SOL    HW136731   1.944   3.428   3.532 -0.3110  1.3035 -0.9406
 8423SOL    HW236732   2.038   3.448   3.643 -3.9198 -1.9502  0.2738
 8424SOL     OW36733   1.844   0.087  17.634 -0.0575 -0.3484 -0.2650
 8424SOL    HW136734   1.846   0.092   0.033 -1.6807 -1.0409 -0.1955
 8424SOL    HW236735   1.804   0.001  17.628 -2.3803  0.6955  0.0441
 8425SOL     OW36736   3.079   3.602   4.168  0.1541 -0.1486  0.2178
 8425SOL    HW136737   3.136   3.603   4.091  0.7290  4.9496  0.7229
 8425SOL    HW236738   3.137   3.646   4.230 -0.2812 -1.0110  1.2458
 8426SOL     OW36739   2.500   2.691   2.734  0.2609 -0.0261  0.4104
 8426SOL    HW136740   2.485   2.609   2.688 -1.5351 -0.0899  1.1099
 8426SOL    HW236741   2.510   2.656   2.822  0.5362 -0.0181  0.3838
 8427SOL     OW36742   2.675   0.194   7.367  0.0176  0.4110 -0.0413
 8427SOL    HW136743   2.618   0.118   7.377 -0.0608  0.4003 -0.5728
 8427SOL    HW236744   2.692   0.214   7.275 -2.6106  1.2751 -0.3289
 8428SOL     OW36745   1.231   0.293  12.734  0.1361  0.6842  0.2124
 8428SOL    HW136746   1.200   0.367  12.786 -3.1567 -0.2533 -0.4434
 8428SOL    HW236747   1.310   0.277  12.786  0.6427  0.0938 -0.7327
 8429SOL     OW36748   1.191   3.100   5.751  0.5829 -0.2313 -0.3488
 8429SOL    HW136749   1.192   3.150   5.669  3.7630  0.2285 -0.0452
 8429SOL    HW236750   1.248   3.025   5.732  1.0896  0.1700 -0.4233
 8430SOL     OW36751   1.740   1.569   5.800  0.3273  0.5005  0.2681
 8430SOL    HW136752   1.822   1.544   5.757  1.1955  2.5652  0.7290
 8430SOL    HW236753   1.730   1.664   5.793 -1.6168  0.2019 -1.0373
 8431SOL     OW36754   4.127   1.848  15.804  0.3547 -0.4333  0.3998
 8431SOL    HW136755   4.162   1.789  15.871 -1.4842  0.3720  2.0565
 8431SOL    HW236756   4.063   1.884  15.865  0.5153 -0.8565  0.8229
 8432SOL     OW36757   4.540   3.694  12.115 -0.5018 -0.0879  0.1904
 8432SOL    HW136758   4.599   3.706  12.040 -0.0239 -0.3258  0.5300
 8432SOL    HW236759   4.553   3.599  12.121  0.8536 -0.0761 -2.1948
 8433SOL     OW36760   3.035   4.050   3.208  0.1009 -0.0489 -0.4056
 8433SOL    HW136761   3.006   4.099   3.285  3.8057  1.0958  0.2645
 8433SOL    HW236762   2.964   4.076   3.151 -0.7923  0.5877  0.9909
 8434SOL     OW36763   0.661   2.444   5.511 -0.5296 -1.0459  0.0226
 8434SOL    HW136764   0.738   2.468   5.562 -0.6771 -0.4570 -0.0339
 8434SOL    HW236765   0.639   2.530   5.475  1.4110  0.3912  2.2959
 8435SOL     OW36766   3.265   1.481  12.392 -0.8979  0.0904 -0.0435
 8435SOL    HW136767   3.306   1.413  12.445 -2.0847  0.5047  1.4132
 8435SOL    HW236768   3.227   1.533  12.463  2.1530  1.3967  0.6071
 8436SOL     OW36769   3.340   0.027   7.950  0.4919 -0.0954  0.3720
 8436SOL    HW136770   3.413   4.691   7.966 -0.2949 -1.1408  0.0597
 8436SOL    HW236771   3.387   0.094   7.900 -1.7310  3.3766  2.9279
 8437SOL     OW36772   2.280   2.968   4.530 -0.3741  0.1647  0.2851
 8437SOL    HW136773   2.198   2.987   4.484 -1.2938 -2.4340  0.8370
 8437SOL    HW236774   2.337   2.943   4.456  1.0028 -1.0455  1.7414
 8438SOL     OW36775   1.064   2.251   9.267  0.4763  0.3854 -0.2433
 8438SOL    HW136776   1.058   2.185   9.199 -1.3685  1.0529 -0.7134
 8438SOL    HW236777   0.987   2.237   9.322  0.7949 -2.4798 -0.5196
 8439SOL     OW36778   3.415   2.236  13.000  0.3844 -0.0823 -0.4747
 8439SOL    HW136779   3.434   2.250  13.092  0.3229  0.3586 -0.5297
 8439SOL    HW236780   3.391   2.143  12.998 -2.3901  0.6140 -0.2686
 8440SOL     OW36781   0.320   1.272  12.447  0.1585  1.3162 -0.6155
 8440SOL    HW136782   0.325   1.259  12.542  0.9147  0.6317 -0.7531
 8440SOL    HW236783   0.281   1.190  12.417 -1.0386  1.9241 -0.7151
 8441SOL     OW36784   4.241   4.171   7.474 -0.3734 -0.0115 -0.1722
 8441SOL    HW136785   4.201   4.238   7.418  0.7773  0.2790 -0.6576
 8441SOL    HW236786   4.188   4.094   7.451 -0.3198  0.2556 -1.2129
 8442SOL     OW36787   1.919   0.849   1.808  0.4125  0.1067  0.4617
 8442SOL    HW136788   1.912   0.894   1.892 -1.2973 -0.3460  0.5672
 8442SOL    HW236789   1.830   0.861   1.776  0.2761  1.8206  1.4984
 8443SOL     OW36790   0.167   4.200  13.273 -0.0279  0.2528 -0.3701
 8443SOL    HW136791   0.253   4.235  13.251  0.3315 -0.9925 -0.9621
 8443SOL    HW236792   0.158   4.240  13.359 -2.4172 -1.3332  0.1309
 8444SOL     OW36793   0.761   0.538  15.521 -0.4289 -0.5354 -0.6283
 8444SOL    HW136794   0.737   0.452  15.487  0.1099  0.0142 -2.3712
 8444SOL    HW236795   0.852   0.511  15.531 -0.2324  0.2361 -0.3566
 8445SOL     OW36796   2.090   0.954   7.931  0.1948  0.6170 -0.6142
 8445SOL    HW136797   2.078   0.944   8.025  0.0257 -1.6392 -0.8814
 8445SOL    HW236798   2.013   1.003   7.903 -2.5567 -2.7189  1.2169
 8446SOL     OW36799   1.179   3.114   3.133  0.2970  0.1542 -0.2913
 8446SOL    HW136800   1.157   3.134   3.224  0.7791  0.7458 -0.3083
 8446SOL    HW236801   1.122   3.182   3.098  0.6825 -0.5823 -2.3299
 8447SOL     OW36802   2.744   2.934   6.151 -0.1638  0.2858  0.1368
 8447SOL    HW136803   2.664   2.960   6.106 -0.8390  1.1752  1.8281
 8447SOL    HW236804   2.808   2.969   6.090  1.2448  0.7046  1.8605
 8448SOL     OW36805   2.653   3.521   7.929 -0.6313 -0.8599  0.0412
 8448SOL    HW136806   2.561   3.501   7.916 -1.1199  1.5042 -0.0235
 8448SOL    HW236807   2.685   3.543   7.841  0.9113 -2.1087  0.2891
 8449SOL     OW36808   1.742   3.424   6.676 -0.5738 -0.3537  0.0018
 8449SOL    HW136809   1.835   3.441   6.661  0.5221 -3.5866  3.0372
 8449SOL    HW236810   1.706   3.440   6.589 -1.9067 -0.6914  0.4760
 8450SOL     OW36811   3.993   0.936  16.455  0.3283  0.3330  0.3412
 8450SOL    HW136812   3.953   0.860  16.413  0.0226  1.0637 -0.6913
 8450SOL    HW236813   3.912   0.978  16.482  0.2548  0.9069 -0.7419
 8451SOL     OW36814   1.215   2.416   2.319 -0.0815  0.3337 -0.6660
 8451SOL    HW136815   1.305   2.439   2.298  0.6708 -0.3398  1.8498
 8451SOL    HW236816   1.180   2.443   2.234  0.1735  2.6122 -0.0494
 8452SOL     OW36817   4.405   2.352   5.886  0.0904 -0.0919  0.5518
 8452SOL    HW136818   4.419   2.323   5.976 -1.3021 -0.6995  0.5846
 8452SOL    HW236819   4.365   2.439   5.888 -2.0394 -1.0227 -1.1286
 8453SOL     OW36820   4.486   3.537   7.650  0.2963  0.2616  0.5336
 8453SOL    HW136821   4.494   3.520   7.556 -1.5188  2.1383  0.0459
 8453SOL    HW236822   4.403   3.497   7.676 -0.2306 -0.4346 -2.1936
 8454SOL     OW36823   1.973   3.425  11.677 -0.1126 -0.3205  0.6688
 8454SOL    HW136824   1.947   3.517  11.668 -3.9426 -1.1488  3.1064
 8454SOL    HW236825   1.949   3.393  11.590 -2.0957  0.2883  0.9868
 8455SOL     OW36826   4.059   3.053  10.221 -0.3013  0.3257 -0.2751
 8455SOL    HW136827   4.014   3.036  10.138 -0.6509  1.2988 -0.2855
 8455SOL    HW236828   4.130   3.114  10.204 -0.7854  1.9298  3.6000
 8456SOL     OW36829   1.209   2.018   8.158 -0.1907 -0.0897  0.4960
 8456SOL    HW136830   1.233   2.106   8.130 -1.8272  0.5093  1.0241
 8456SOL    HW236831   1.117   2.012   8.133  0.0452 -0.5802 -0.2546
 8457SOL     OW36832   3.732   4.672  16.082 -0.0570  0.3703  0.3453
 8457SOL    HW136833   3.671   4.677  16.009  1.5152  0.0270 -0.9905
 8457SOL    HW236834   3.810   4.710  16.041 -0.9595  1.7269 -0.1006
 8458SOL     OW36835   1.875   3.896   5.505 -0.0082  0.4626 -0.3620
 8458SOL    HW136836   1.965   3.925   5.487 -0.2107  1.6948  0.6174
 8458SOL    HW236837   1.827   3.969   5.465  2.7465  1.4673 -1.8481
 8459SOL     OW36838   3.308   3.371   5.936  0.3356 -0.0012 -0.3315
 8459SOL    HW136839   3.357   3.447   5.968 -0.0095  0.1115 -0.0722
 8459SOL    HW236840   3.235   3.361   5.998  0.2449  0.8389 -0.3057
 8460SOL     OW36841   1.692   2.218  10.033  0.4269 -0.0517 -0.5455
 8460SOL    HW136842   1.638   2.295  10.016 -1.2779 -0.9242  1.0529
 8460SOL    HW236843   1.635   2.164  10.087  0.2504 -1.6079 -2.2876
 8461SOL     OW36844   0.309   2.890   5.488  0.3013  0.4367  0.1555
 8461SOL    HW136845   0.297   2.906   5.581 -0.7899  0.9858 -0.0784
 8461SOL    HW236846   0.230   2.837   5.483 -1.4988  3.2204 -1.1586
 8462SOL     OW36847   1.166   3.126   4.681 -0.5331  0.1818 -0.1626
 8462SOL    HW136848   1.095   3.122   4.745  0.0123 -2.3772  0.2792
 8462SOL    HW236849   1.114   3.131   4.602  0.0243 -3.2203 -0.7587
 8463SOL     OW36850   2.211   1.405   2.736  0.2685 -0.3518  0.9107
 8463SOL    HW136851   2.261   1.465   2.791  0.7948 -1.0282  1.1742
 8463SOL    HW236852   2.204   1.472   2.669  0.7402 -2.6176 -1.3827
 8464SOL     OW36853   3.234   1.350  10.978 -0.4785  0.1700  0.3503
 8464SOL    HW136854   3.150   1.318  11.010 -0.6639 -0.4505 -0.7626
 8464SOL    HW236855   3.283   1.268  10.978  0.7272  0.9031  2.6686
 8465SOL     OW36856   4.265   2.622   3.996 -0.0928 -0.5804  0.0588
 8465SOL    HW136857   4.216   2.704   4.003 -0.6520 -0.8427 -0.7385
 8465SOL    HW236858   4.333   2.644   3.932 -2.1253 -0.1027 -1.9704
 8466SOL     OW36859   3.210   4.035   8.495  0.1630  0.5160  0.4479
 8466SOL    HW136860   3.144   4.038   8.425  0.2984  1.8367  0.3705
 8466SOL    HW236861   3.282   4.057   8.436 -0.1192  0.2438  0.0036
 8467SOL     OW36862   0.544   2.939   8.513 -0.0114 -0.2414  0.3379
 8467SOL    HW136863   0.600   2.877   8.558 -0.5035  0.2687  1.6438
 8467SOL    HW236864   0.504   2.882   8.448  0.0425 -0.1242  0.2016
 8468SOL     OW36865   2.108   3.829   1.713  0.5980 -0.2616  0.1465
 8468SOL    HW136866   2.107   3.737   1.688 -0.5306 -0.1667 -0.1972
 8468SOL    HW236867   2.163   3.875   1.649 -0.5541 -1.7328 -1.9327
 8469SOL     OW36868   3.164   3.950  14.407  0.2018  0.0870 -0.1096
 8469SOL    HW136869   3.251   3.985  14.387  0.8176 -0.9877  0.6673
 8469SOL    HW236870   3.150   3.980  14.497 -1.3761 -1.6013  0.2021
 8470SOL     OW36871   1.969   3.321   7.175 -0.1009 -0.0391  0.1264
 8470SOL    HW136872   1.958   3.308   7.081 -0.7989 -0.5988  0.2886
 8470SOL    HW236873   2.007   3.234   7.189  2.1439  0.3980 -3.5037
 8471SOL     OW36874   2.973   0.087  14.411  0.2223 -0.9192  0.0576
 8471SOL    HW136875   2.938   0.176  14.405  1.7288 -0.2673  0.9503
 8471SOL    HW236876   3.022   0.090  14.493 -0.5409  2.6030  0.3937
 8472SOL     OW36877   3.013   0.501  13.613 -0.0599 -0.7361 -0.3137
 8472SOL    HW136878   3.098   0.524  13.650 -0.8017  1.3254  0.0962
 8472SOL    HW236879   2.966   0.458  13.684 -1.1831 -0.3101 -0.8019
 8473SOL     OW36880   1.749   0.196   5.627 -0.3948  0.0726 -0.0854
 8473SOL    HW136881   1.671   0.141   5.635 -0.9449  0.8727  0.1076
 8473SOL    HW236882   1.800   0.138   5.570 -0.4704 -0.1595  0.0865
 8474SOL     OW36883   1.190   3.320   7.372  0.4904  0.2599  0.0315
 8474SOL    HW136884   1.238   3.317   7.289  0.7075 -1.0794  0.2179
 8474SOL    HW236885   1.208   3.408   7.405 -1.1766 -0.3370  2.5651
 8475SOL     OW36886   0.885   0.551   8.615  0.2391 -0.0658  0.0005
 8475SOL    HW136887   0.865   0.644   8.620 -3.1934 -0.6424 -3.0867
 8475SOL    HW236888   0.807   0.504   8.646 -0.7522  2.1449  0.9068
 8476SOL     OW36889   0.045   1.291   2.956  0.3771 -0.2482  0.4438
 8476SOL    HW136890   0.118   1.253   2.907 -0.3637 -0.5987 -0.3849
 8476SOL    HW236891   0.048   1.231   3.031  0.5137 -0.2980  0.3988
 8477SOL     OW36892   3.319   4.449  10.043 -0.2915 -0.3374 -0.0778
 8477SOL    HW136893   3.268   4.368  10.041  1.8428 -1.6534 -1.8738
 8477SOL    HW236894   3.249   4.509  10.067 -1.3435 -1.3504 -0.6450
 8478SOL     OW36895   4.198   3.999   8.799  0.1536  0.0582  0.2986
 8478SOL    HW136896   4.156   4.066   8.745 -0.9757  1.2432  2.6306
 8478SOL    HW236897   4.142   3.992   8.876  0.0247  2.9238  0.4582
 8479SOL     OW36898   4.308   3.606  13.541 -0.3858 -0.2646 -0.0882
 8479SOL    HW136899   4.272   3.693  13.524  2.4449  1.1111  1.0986
 8479SOL    HW236900   4.344   3.574  13.459  0.0812 -1.1491  0.4534
 8480SOL     OW36901   3.900   2.026   2.385  0.0083  0.4264  0.0124
 8480SOL    HW136902   3.911   1.931   2.381  0.5885  0.5734 -1.9121
 8480SOL    HW236903   3.834   2.048   2.451  0.1651  0.6117  0.1092
 8481SOL     OW36904   3.279   4.663   5.978 -0.6974 -0.4371  0.1950
 8481SOL    HW136905   3.343   4.670   6.048 -0.4360 -0.1505 -0.0703
 8481SOL    HW236906   3.271   0.032   5.956 -0.4244 -0.4059  0.2246
 8482SOL     OW36907   4.104   0.739   7.699  0.6413  0.0071 -0.1481
 8482SOL    HW136908   4.134   0.784   7.621  2.0392 -0.4401  0.1187
 8482SOL    HW236909   4.188   0.736   7.746 -1.3327  1.5593  3.5481
 8483SOL     OW36910   4.691   3.358  12.017  0.3905 -0.0138  0.0235
 8483SOL    HW136911   0.019   3.279  12.005 -0.8933 -0.7425 -0.6948
 8483SOL    HW236912   0.014   3.423  11.964 -0.2129  0.3321 -0.0848
 8484SOL     OW36913   4.532   2.529   3.803  0.3616  0.1306  0.5252
 8484SOL    HW136914   4.593   2.509   3.732 -1.7713 -0.7027 -1.0532
 8484SOL    HW236915   4.586   2.563   3.875  1.3952 -0.6092  0.0971
 8485SOL     OW36916   1.894   2.264   8.281 -0.2491  0.0949 -0.0267
 8485SOL    HW136917   1.949   2.270   8.359 -1.6538 -0.5411  1.0136
 8485SOL    HW236918   1.835   2.337   8.298  1.2552  1.1799  0.4758
 8486SOL     OW36919   1.443   0.255   4.105  0.0908  0.5274  0.0096
 8486SOL    HW136920   1.482   0.301   4.178 -0.5978 -0.1248  0.7869
 8486SOL    HW236921   1.410   0.327   4.051 -0.9599  0.8280  1.0518
 8487SOL     OW36922   4.513   0.939   2.942 -0.2316  0.5596 -0.1040
 8487SOL    HW136923   4.560   0.991   2.877  0.3693 -1.8233 -1.5917
 8487SOL    HW236924   4.514   0.998   3.017  0.8804  0.0818  0.2596
 8488SOL     OW36925   2.722   3.192  12.046 -0.7201 -0.4477  0.4382
 8488SOL    HW136926   2.691   3.243  11.971 -0.3443 -0.3862  0.3216
 8488SOL    HW236927   2.696   3.101  12.028  1.6439 -1.0383  0.0129
 8489SOL     OW36928   4.693   3.963   7.162 -0.0248 -0.0565 -0.3934
 8489SOL    HW136929   4.623   4.013   7.204  0.9404  2.4566 -1.7756
 8489SOL    HW236930   4.698   4.012   7.080 -0.6021  0.5566 -0.0676
 8490SOL     OW36931   4.119   3.058  12.178 -0.2559  0.2382 -0.2826
 8490SOL    HW136932   4.026   3.038  12.176 -0.1779 -0.3166  2.4007
 8490SOL    HW236933   4.113   3.122  12.107  0.6024 -0.6147 -1.1411
 8491SOL     OW36934   1.899   2.700   9.262 -0.0315 -0.0866  0.1445
 8491SOL    HW136935   1.828   2.757   9.232  0.9075 -0.7695 -3.3348
 8491SOL    HW236936   1.963   2.764   9.294 -0.8299 -0.5086  2.6190
 8492SOL     OW36937   0.443   0.146   4.222  0.1826  0.4987  0.0342
 8492SOL    HW136938   0.504   0.196   4.276 -3.0927  4.1610  0.3000
 8492SOL    HW236939   0.454   0.197   4.142  0.1853  0.0984 -0.2188
 8493SOL     OW36940   3.799   1.466   5.266 -0.4296  0.5197 -0.5945
 8493SOL    HW136941   3.892   1.487   5.255 -0.1499  0.2649  1.2848
 8493SOL    HW236942   3.785   1.426   5.351 -0.1489 -0.8456 -1.1851
 8494SOL     OW36943   4.712   2.509  16.809  0.6218  0.2858 -0.2163
 8494SOL    HW136944   0.051   2.527  16.879 -0.7619  1.2251  0.7741
 8494SOL    HW236945   4.699   2.414  16.809  2.2339  0.0688 -1.6462
 8495SOL     OW36946   1.454   4.530   1.209  0.5314 -0.0590  0.3883
 8495SOL    HW136947   1.367   4.503   1.179  0.2956 -0.9827  1.9474
 8495SOL    HW236948   1.444   4.622   1.234  0.9548  0.7383 -2.2947
 8496SOL     OW36949   2.045   0.541   3.899 -0.4672 -0.2200  0.0910
 8496SOL    HW136950   1.967   0.591   3.923 -0.7065 -0.2976 -0.5247
 8496SOL    HW236951   2.045   0.545   3.803 -2.9693 -4.0955 -0.0535
 8497SOL     OW36952   3.108   0.780  15.135 -0.0458 -0.1003 -0.6171
 8497SOL    HW136953   3.078   0.823  15.056  2.6891 -0.0118 -1.6087
 8497SOL    HW236954   3.196   0.816  15.148 -0.5977  1.6431 -1.8586
 8498SOL     OW36955   3.940   0.824  16.737  0.3649  0.1354 -0.0423
 8498SOL    HW136956   3.847   0.808  16.721  0.6714 -3.1992  1.5655
 8498SOL    HW236957   3.944   0.861  16.825 -1.0042  1.8127 -0.6729
 8499SOL     OW36958   0.570   0.445   4.958 -0.0872  0.1958  0.2944
 8499SOL    HW136959   0.518   0.401   4.891 -1.6226  1.7501  0.4516
 8499SOL    HW236960   0.507   0.466   5.028 -0.0135 -0.2172  0.4809
 8500SOL     OW36961   0.172   3.156   5.612 -0.0185  0.6661 -0.2721
 8500SOL    HW136962   0.174   3.197   5.698 -1.9806 -0.8501  0.4992
 8500SOL    HW236963   0.080   3.128   5.617  0.4213 -0.6891  0.2544
 8501SOL     OW36964   0.352   4.241  16.684 -0.0519  0.0446 -0.0427
 8501SOL    HW136965   0.342   4.335  16.669  1.3363 -0.7116 -5.5050
 8501SOL    HW236966   0.430   4.224  16.632  1.6592  1.3533  2.1465
 8502SOL     OW36967   0.582   1.644   8.056 -0.0324  0.3118  0.1124
 8502SOL    HW136968   0.662   1.606   8.020  0.6915  0.1842  1.8503
 8502SOL    HW236969   0.586   1.731   8.016 -2.2890 -0.1619 -1.1662
 8503SOL     OW36970   0.067   0.747   6.940 -0.5060  0.3816  0.0157
 8503SOL    HW136971   0.040   0.769   7.029  0.8446  1.6908  0.1113
 8503SOL    HW236972   0.120   0.821   6.910 -1.6101  0.1839 -2.3963
 8504SOL     OW36973   4.656   3.511  15.746 -0.2219  0.4546 -0.2951
 8504SOL    HW136974   4.644   3.503  15.651 -1.6186  1.3422 -0.1914
 8504SOL    HW236975   4.622   3.425  15.773 -0.4868  0.3064 -1.0909
 8505SOL     OW36976   1.518   0.804   5.173  0.9398  0.0813 -0.1569
 8505SOL    HW136977   1.599   0.774   5.133  1.4967  1.0632  0.2236
 8505SOL    HW236978   1.464   0.769   5.102  1.9767  0.7494 -1.2674
 8506SOL     OW36979   4.256   4.049  14.361  0.0321 -0.5078  0.3601
 8506SOL    HW136980   4.340   4.040  14.316 -0.3134 -0.8610 -0.2106
 8506SOL    HW236981   4.221   3.961  14.371 -0.3733 -0.2911  0.8548
 8507SOL     OW36982   4.050   4.236  11.718  0.0129 -0.4089  0.4625
 8507SOL    HW136983   3.976   4.196  11.671 -1.5798  2.7305  0.2272
 8507SOL    HW236984   4.032   4.330  11.707 -1.0617 -0.7948 -1.0148
 8508SOL     OW36985   3.324   3.338   0.661 -0.0999 -0.6278 -0.2483
 8508SOL    HW136986   3.260   3.381   0.604 -0.0957 -1.2614 -0.7281
 8508SOL    HW236987   3.398   3.399   0.654 -0.7731  0.1404 -0.6958
 8509SOL     OW36988   1.388   4.358   7.180 -0.2158  0.0551  0.1611
 8509SOL    HW136989   1.404   4.349   7.274 -1.7959 -4.1222 -0.0055
 8509SOL    HW236990   1.429   4.442   7.158 -0.0610  0.8607  3.5212
 8510SOL     OW36991   1.821   4.291   0.215 -0.1552  0.3095 -0.2254
 8510SOL    HW136992   1.741   4.311   0.263 -2.2035 -2.7842 -2.4111
 8510SOL    HW236993   1.887   4.294   0.285 -0.9532 -1.9503  0.6350
 8511SOL     OW36994   1.322   4.333   4.495 -0.1029  0.0205 -0.7971
 8511SOL    HW136995   1.382   4.400   4.461  0.8560  0.1893  1.2744
 8511SOL    HW236996   1.365   4.309   4.576  0.7705  2.5102 -0.5204
 8512SOL     OW36997   3.869   3.079   3.972  0.1383  0.0040 -0.5881
 8512SOL    HW136998   3.913   3.129   3.902  1.3657  1.2192  1.0511
 8512SOL    HW236999   3.776   3.084   3.952 -0.1291  0.7036  0.8413
 8513SOL     OW37000   0.110   3.167  12.907 -0.1679 -0.0477 -0.6503
 8513SOL    HW137001   0.022   3.129  12.900  1.1516 -2.9520 -1.8441
 8513SOL    HW237002   0.143   3.125  12.828 -0.9435  0.4340 -1.2255
 8514SOL     OW37003   1.298   0.672   4.703  0.1494 -0.0220  0.3647
 8514SOL    HW137004   1.216   0.712   4.675 -0.4490 -0.9263  0.8522
 8514SOL    HW237005   1.343   0.751   4.734  0.3776  0.2422 -0.6471
 8515SOL     OW37006   3.626   0.802   6.965 -0.1380 -0.0881 -0.3018
 8515SOL    HW137007   3.697   0.825   6.906 -0.1603  1.4995  0.2960
 8515SOL    HW237008   3.683   0.763   7.032 -0.5373 -0.0954  0.0390
 8516SOL     OW37009   0.761   0.483   6.109 -0.0202 -0.1716 -0.1986
 8516SOL    HW137010   0.826   0.465   6.042 -0.1283  1.2811 -0.6913
 8516SOL    HW237011   0.703   0.410   6.089  1.0999 -1.2506  0.5760
 8517SOL     OW37012   3.297   4.721   7.001 -0.3112 -0.1130 -0.1954
 8517SOL    HW137013   3.221   4.711   6.943  0.8565  0.8583 -1.9042
 8517SOL    HW237014   3.289   4.639   7.050 -0.0817 -0.6792 -1.0975
 8518SOL     OW37015   1.639   0.413   5.847  0.2035  0.2612 -0.0649
 8518SOL    HW137016   1.648   0.328   5.890  0.8278  0.7930  0.8542
 8518SOL    HW237017   1.550   0.445   5.857  0.3461  1.4266 -2.4520
 8519SOL     OW37018   4.355   3.535   4.178  0.5182 -0.1116  0.2413
 8519SOL    HW137019   4.396   3.609   4.133  0.2414  0.5909  1.1397
 8519SOL    HW237020   4.425   3.472   4.194 -0.2126 -0.9559  0.0882
 8520SOL     OW37021   1.130   3.498   6.707  0.3617  0.4476  0.2506
 8520SOL    HW137022   1.079   3.555   6.649 -0.6399  1.6571  2.3109
 8520SOL    HW237023   1.090   3.529   6.788 -2.0364  0.4699 -0.9237
 8521SOL     OW37024   1.443   0.828   3.415  0.0408  0.1584 -0.2764
 8521SOL    HW137025   1.348   0.826   3.418  0.0260  0.9898 -0.1318
 8521SOL    HW237026   1.453   0.736   3.439  0.7753  0.2379 -0.2639
 8522SOL     OW37027   0.280   0.535   1.803  0.3053 -0.1997  0.8082
 8522SOL    HW137028   0.346   0.491   1.856 -0.8922 -0.7829  1.8306
 8522SOL    HW237029   0.273   0.614   1.857  1.4911  1.6950 -1.8055
 8523SOL     OW37030   3.454   4.123   4.125 -0.2897  0.2222  0.0615
 8523SOL    HW137031   3.406   4.200   4.095  0.9654  1.4431  1.1635
 8523SOL    HW237032   3.420   4.059   4.063 -0.8372 -0.2899  0.8886
 8524SOL     OW37033   2.458   3.917   9.592 -0.0576  0.5656 -0.0869
 8524SOL    HW137034   2.379   3.929   9.539 -0.3309 -3.7215 -0.6802
 8524SOL    HW237035   2.414   3.894   9.674  0.3639  1.2286  0.3237
 8525SOL     OW37036   4.200   4.241   5.750  0.2436  0.6322  0.6569
 8525SOL    HW137037   4.174   4.274   5.836  2.5200  1.9263  0.8394
 8525SOL    HW237038   4.162   4.312   5.698  1.0672  0.2340 -0.4769
 8526SOL     OW37039   3.361   3.974   3.914  0.2103  0.1117 -0.0135
 8526SOL    HW137040   3.315   3.891   3.915  0.8632 -0.2655 -0.8529
 8526SOL    HW237041   3.296   4.026   3.866 -2.3223 -1.3794  1.8123
 8527SOL     OW37042   3.690   2.287   2.515 -0.2849 -0.6290 -0.0744
 8527SOL    HW137043   3.656   2.354   2.574  1.6646 -1.1466  1.6638
 8527SOL    HW237044   3.754   2.341   2.468  0.9855  1.5822  4.2714
 8528SOL     OW37045   1.494   1.537   6.775 -0.6526 -0.2607 -0.2933
 8528SOL    HW137046   1.452   1.539   6.689  0.6057 -2.2683 -0.9515
 8528SOL    HW237047   1.410   1.543   6.822 -0.0857 -1.1680  0.8399
 8529SOL     OW37048   4.224   3.411  15.578 -0.4708 -0.5215 -0.7009
 8529SOL    HW137049   4.175   3.490  15.554  0.0540  0.6503  2.0579
 8529SOL    HW237050   4.254   3.375  15.495 -0.4075 -0.7586 -0.5739
 8530SOL     OW37051   0.992   0.987   2.668 -0.0826 -0.3719  0.0863
 8530SOL    HW137052   0.989   1.025   2.580 -0.4112 -1.0606 -0.1969
 8530SOL    HW237053   1.023   1.063   2.717  0.9871 -0.6577 -0.1372
 8531SOL     OW37054   0.905   1.592   8.646  0.3766  0.8103  0.0758
 8531SOL    HW137055   0.884   1.550   8.562  1.0970  0.0810  0.2599
 8531SOL    HW237056   0.861   1.549   8.719  0.0035  1.6640  0.3516
 8532SOL     OW37057   1.009   0.939   8.459  0.2094 -0.2281 -0.3100
 8532SOL    HW137058   0.949   1.005   8.424  0.6406  0.0468 -0.5232
 8532SOL    HW237059   0.948   0.883   8.507  3.0873 -1.9964  1.3019
 8533SOL     OW37060   3.941   4.177   5.959 -0.8429  0.3011 -0.1350
 8533SOL    HW137061   4.030   4.213   5.958 -1.4756  1.9545  1.8546
 8533SOL    HW237062   3.966   4.086   5.950  1.5458  0.8664  0.7700
 8534SOL     OW37063   4.455   2.696  14.928  0.5446  0.3044  0.2042
 8534SOL    HW137064   4.423   2.735  14.846 -0.2910 -0.4660  0.1620
 8534SOL    HW237065   4.378   2.707  14.984 -0.2707  1.1625 -1.0610
 8535SOL     OW37066   3.002   3.298   4.717  0.1070 -0.3595 -0.1347
 8535SOL    HW137067   3.096   3.304   4.699 -0.3042  0.1737 -2.0790
 8535SOL    HW237068   2.982   3.388   4.744  1.9306 -0.6894  2.3282
 8536SOL     OW37069   1.791   0.836  11.698 -0.2867  0.0703  0.2965
 8536SOL    HW137070   1.815   0.815  11.608 -0.6661 -2.7269  0.8363
 8536SOL    HW237071   1.876   0.810  11.733 -0.2617 -0.9064 -0.5114
 8537SOL     OW37072   2.604   2.816  16.624  0.5295  0.3016  0.7151
 8537SOL    HW137073   2.522   2.809  16.574  1.0395 -0.7125  0.0166
 8537SOL    HW237074   2.664   2.855  16.561 -1.6429  3.6314  0.7392
 8538SOL     OW37075   0.184   3.373   8.538  0.1257 -0.7254 -0.4512
 8538SOL    HW137076   0.265   3.348   8.494 -1.0472 -1.5798 -2.1430
 8538SOL    HW237077   0.116   3.363   8.471 -1.3674 -0.6387  1.0502
 8539SOL     OW37078   3.029   1.334   7.157  1.1740  0.6823  0.1955
 8539SOL    HW137079   2.936   1.311   7.158  0.5109  3.3925  0.0765
 8539SOL    HW237080   3.024   1.419   7.115 -3.0562 -0.7422 -2.1193
 8540SOL     OW37081   0.040   0.830  17.263  0.1343  0.0806  0.3666
 8540SOL    HW137082   0.075   0.877  17.187  0.9871 -2.8372 -1.0313
 8540SOL    HW237083   0.102   0.845  17.334  2.0431 -0.6897 -1.1133
 8541SOL     OW37084   2.707   3.543   3.077  0.2051  0.6126  0.1400
 8541SOL    HW137085   2.770   3.607   3.109  0.8941 -1.5448  3.0098
 8541SOL    HW237086   2.624   3.591   3.078 -0.1518 -0.0008  0.1926
 8542SOL     OW37087   4.365   2.368   5.144 -0.1345  0.2019 -0.4527
 8542SOL    HW137088   4.378   2.410   5.229 -3.1352 -1.3566  0.7630
 8542SOL    HW237089   4.457   2.360   5.116 -0.3794 -1.7535 -0.6411
 8543SOL     OW37090   3.298   0.534   6.032  0.3628  0.2754 -0.2220
 8543SOL    HW137091   3.332   0.472   6.097  0.4692 -0.0531 -0.5920
 8543SOL    HW237092   3.269   0.603   6.091  0.3883 -0.0374  0.1557
 8544SOL     OW37093   4.084   3.174  10.622 -0.2571  0.2073  0.2972
 8544SOL    HW137094   4.160   3.232  10.628  0.3555 -0.3016 -2.4643
 8544SOL    HW237095   4.061   3.169  10.714  0.1153 -1.5181  0.3025
 8545SOL     OW37096   0.664   1.993   7.652 -0.2366  0.3008 -0.0070
 8545SOL    HW137097   0.739   1.960   7.603  0.0296 -3.1793  2.6922
 8545SOL    HW237098   0.715   2.041   7.717 -2.1303 -1.0523  2.4781
 8546SOL     OW37099   1.345   0.418   6.774 -0.6497 -0.0509  0.6346
 8546SOL    HW137100   1.408   0.490   6.787 -1.0630  0.1555  1.4599
 8546SOL    HW237101   1.361   0.364   6.851  0.9276 -1.2815 -0.5685
 8547SOL     OW37102   0.167   1.443   5.696  0.4298 -0.5731  0.5973
 8547SOL    HW137103   0.229   1.435   5.769  2.7713  0.7243 -1.2300
 8547SOL    HW237104   0.195   1.383   5.627 -3.1593 -1.8681  0.2945
 8548SOL     OW37105   3.397   0.778  14.543  0.1842  0.0971  0.1096
 8548SOL    HW137106   3.418   0.709  14.605 -0.9020 -0.0407  0.3292
 8548SOL    HW237107   3.342   0.839  14.591 -0.5209 -0.3268 -0.1600
 8549SOL     OW37108   2.928   4.048   9.064 -0.0688  0.0044  0.4614
 8549SOL    HW137109   2.845   4.090   9.085 -1.8815 -2.3486 -1.9978
 8549SOL    HW237110   2.891   3.978   9.011  0.9944 -0.0141 -0.2438
 8550SOL     OW37111   0.546   1.873   7.895  0.2330 -0.3450 -0.2083
 8550SOL    HW137112   0.556   1.959   7.935 -1.7427 -1.4920  2.7353
 8550SOL    HW237113   0.576   1.886   7.805 -1.8895  0.9304 -0.7451
 8551SOL     OW37114   3.031   2.223   2.032 -0.0360 -0.2070 -0.1332
 8551SOL    HW137115   3.036   2.284   1.959 -1.5186 -0.1684 -0.2003
 8551SOL    HW237116   3.050   2.280   2.107  0.2091 -0.8565  0.2961
 8552SOL     OW37117   2.288   0.265   0.481  0.2930 -0.2880  0.7010
 8552SOL    HW137118   2.318   0.343   0.435 -1.7292 -0.0196 -0.1598
 8552SOL    HW237119   2.281   0.302   0.569 -2.3240  0.1574  0.3097
 8553SOL     OW37120   4.348   3.676   5.432 -0.6333  0.2430 -0.8056
 8553SOL    HW137121   4.436   3.652   5.401  0.1500  1.5555  0.3876
 8553SOL    HW237122   4.314   3.701   5.346 -0.0539  0.2106 -1.0463
 8554SOL     OW37123   3.632   4.478  12.197  0.3014 -0.0991  0.2208
 8554SOL    HW137124   3.681   4.535  12.258  2.1020 -0.6616 -0.7116
 8554SOL    HW237125   3.606   4.408  12.257 -0.1699  0.8019  1.0875
 8555SOL     OW37126   0.954   3.676   5.541 -0.4784 -0.0969  0.4173
 8555SOL    HW137127   0.984   3.611   5.605 -0.3352 -0.2573  0.1845
 8555SOL    HW237128   1.026   3.736   5.562  0.8896 -1.8360  0.6348
 8556SOL     OW37129   2.507   0.515  15.533  0.1467 -0.0993 -0.1482
 8556SOL    HW137130   2.431   0.538  15.586  0.2455 -0.9158  0.3431
 8556SOL    HW237131   2.507   0.420  15.526 -1.7637 -0.1518  0.7092
 8557SOL     OW37132   1.911   3.167   1.752 -1.0599 -0.3778  0.2205
 8557SOL    HW137133   1.930   3.188   1.661 -2.4784  0.3470  0.0940
 8557SOL    HW237134   1.913   3.071   1.750 -1.6566 -0.4138  1.3765
 8558SOL     OW37135   4.082   1.528   5.206  0.1368  0.0537 -0.2184
 8558SOL    HW137136   4.123   1.549   5.122 -0.5637  0.8621 -0.3637
 8558SOL    HW237137   4.140   1.459   5.237 -2.2566 -0.9282  1.9822
 8559SOL     OW37138   4.630   3.976   6.508  0.0434 -0.4953 -0.4477
 8559SOL    HW137139   4.692   4.041   6.542 -0.0649 -0.3304 -0.5624
 8559SOL    HW237140   4.684   3.899   6.525  3.4502  1.6309 -1.6100
 8560SOL     OW37141   4.295   2.965  10.715  0.1265 -0.3484 -0.1650
 8560SOL    HW137142   4.248   2.886  10.743  2.9158 -1.6788  0.7578
 8560SOL    HW237143   4.232   3.037  10.717  0.4475 -0.0918  0.5693
 8561SOL     OW37144   1.779   3.878   8.743  0.7172  0.0384  0.6235
 8561SOL    HW137145   1.724   3.889   8.821 -1.8888 -1.4014 -1.0141
 8561SOL    HW237146   1.726   3.926   8.679  0.6474  1.1913  1.5255
 8562SOL     OW37147   4.070   2.670   4.494 -0.3747  0.3592 -0.2089
 8562SOL    HW137148   4.141   2.730   4.471  0.7450 -0.8312  0.1408
 8562SOL    HW237149   4.066   2.610   4.420  1.0727  0.9247 -0.7486
 8563SOL     OW37150   3.837   3.192   2.978  0.2854  0.1420 -0.2029
 8563SOL    HW137151   3.871   3.224   3.062 -0.6041 -0.7488  0.4934
 8563SOL    HW237152   3.907   3.137   2.943  0.0646 -1.1054  1.3484
 8564SOL     OW37153   2.028   2.448  12.309  0.4108  0.6733  0.2796
 8564SOL    HW137154   2.108   2.395  12.302 -1.5548 -2.2395 -0.0839
 8564SOL    HW237155   1.998   2.428  12.397 -0.1783 -1.5688 -0.4267
 8565SOL     OW37156   2.081   3.669  16.977  0.1305 -0.3737 -0.4546
 8565SOL    HW137157   2.133   3.744  16.948  0.0046  0.7949  2.2468
 8565SOL    HW237158   2.143   3.597  16.964  1.0001  0.3218 -0.2041
 8566SOL     OW37159   2.033   2.560  12.831 -0.9135 -0.5338  0.0509
 8566SOL    HW137160   2.025   2.483  12.775  1.2205 -0.1162 -0.8045
 8566SOL    HW237161   2.015   2.523  12.917  1.6813  0.6199  1.0937
 8567SOL     OW37162   1.795   3.357   3.416 -0.2000 -0.1097 -0.1507
 8567SOL    HW137163   1.837   3.392   3.337  1.1048  2.8003  1.8596
 8567SOL    HW237164   1.756   3.279   3.376 -0.8480 -0.2596  0.8036
 8568SOL     OW37165   2.662   3.452   5.040  0.1752  0.0918 -0.5686
 8568SOL    HW137166   2.729   3.385   5.041 -1.0543 -1.1012  1.1803
 8568SOL    HW237167   2.648   3.463   4.946  1.0229  1.4354 -0.5472
 8569SOL     OW37168   0.271   2.343   6.959  0.1544 -0.1683  0.4989
 8569SOL    HW137169   0.189   2.367   7.002 -1.3159 -0.7221 -1.9668
 8569SOL    HW237170   0.300   2.276   7.021 -0.5132 -0.8084  0.1176
 8570SOL     OW37171   4.592   4.488   7.775  0.2800  0.9116  0.0401
 8570SOL    HW137172   4.497   4.473   7.773  0.5962 -1.3928  1.6737
 8570SOL    HW237173   4.608   4.411   7.831 -0.9110 -0.8538 -2.0648
 8571SOL     OW37174   2.876   4.707   7.664 -0.1387  0.0351 -0.1956
 8571SOL    HW137175   2.834   0.065   7.637  1.7735  1.5618  1.3738
 8571SOL    HW237176   2.949   0.017   7.717  0.6707 -0.6421 -0.8812
 8572SOL     OW37177   1.430   1.193   3.026 -0.3948  0.0596 -0.5339
 8572SOL    HW137178   1.352   1.244   3.051  0.9200  0.5756  2.4222
 8572SOL    HW237179   1.413   1.167   2.935  2.1602  0.2958 -1.0745
 8573SOL     OW37180   1.716   0.639   4.869 -0.1193  0.1477 -0.0844
 8573SOL    HW137181   1.625   0.611   4.858  0.5067 -2.2622  0.7611
 8573SOL    HW237182   1.762   0.555   4.865 -0.5811 -0.0678 -0.7693
 8574SOL     OW37183   3.048   4.332   9.709  0.0071  0.1324 -0.2512
 8574SOL    HW137184   3.087   4.416   9.732  0.0950 -0.2821  1.0955
 8574SOL    HW237185   2.992   4.309   9.783  0.2734  0.7445  0.1376
 8575SOL     OW37186   0.582   4.206   0.974 -0.2147 -0.0595 -0.5662
 8575SOL    HW137187   0.631   4.288   0.964 -1.6635  0.9153  0.3725
 8575SOL    HW237188   0.607   4.161   0.894 -3.4184 -0.4834 -1.3124
 8576SOL     OW37189   4.588   2.040   0.542 -0.2858  0.0732 -0.0739
 8576SOL    HW137190   4.636   1.957   0.535  0.5327  0.6493 -1.5247
 8576SOL    HW237191   4.515   2.011   0.488 -1.5412  1.2560  1.0187
 8577SOL     OW37192   4.422   1.572  12.834  0.2989  0.2360  0.7377
 8577SOL    HW137193   4.444   1.663  12.851  0.0356  0.5751 -0.7308
 8577SOL    HW237194   4.384   1.544  12.917  0.4899 -3.3376 -0.3655
 8578SOL     OW37195   1.389   0.441   7.258 -0.2583  0.4816  0.0016
 8578SOL    HW137196   1.300   0.469   7.238  0.2344  0.2861 -2.4661
 8578SOL    HW237197   1.384   0.472   7.348 -1.1009 -1.4602  0.6180
 8579SOL     OW37198   1.184   0.734   7.187 -0.3891 -0.4254  0.7740
 8579SOL    HW137199   1.194   0.775   7.273 -0.2387  0.5309  0.2967
 8579SOL    HW237200   1.155   0.644   7.200 -0.1175 -0.8203 -1.3680
 8580SOL     OW37201   2.459   1.057   4.614 -0.2426  0.5724 -0.3629
 8580SOL    HW137202   2.371   1.068   4.650  0.6900  0.4558  1.9746
 8580SOL    HW237203   2.517   1.046   4.690 -0.8353  1.8836  0.2823
 8581SOL     OW37204   0.755   2.242   6.909 -0.1458 -0.1292  0.1027
 8581SOL    HW137205   0.704   2.296   6.848  2.3268 -0.9359 -2.7104
 8581SOL    HW237206   0.739   2.284   6.993  1.1050  2.2266 -0.8148
 8582SOL     OW37207   3.936   0.258   2.091  0.0330  0.6612  0.0767
 8582SOL    HW137208   3.899   0.345   2.081  0.4348  0.4990 -2.8944
 8582SOL    HW237209   3.867   0.210   2.045  4.2191 -3.5812 -1.7665
 8583SOL     OW37210   4.106   1.012   8.214 -0.1382  0.5157 -0.4903
 8583SOL    HW137211   4.188   0.964   8.227 -1.0125 -0.1024  2.6636
 8583SOL    HW237212   4.039   0.946   8.196  0.0279  0.1142  0.3584
 8584SOL     OW37213   3.078   3.619  17.687 -0.1790  0.0224  0.0570
 8584SOL    HW137214   3.084   3.624  17.592 -1.9384  1.0113 -0.0130
 8584SOL    HW237215   3.163   3.652   0.019 -1.8560  2.6017  2.1817
 8585SOL     OW37216   4.241   1.748   9.152 -0.5639 -0.4180 -0.1571
 8585SOL    HW137217   4.243   1.677   9.217 -1.0516  1.8416  2.3143
 8585SOL    HW237218   4.332   1.757   9.125 -0.4468  0.9370  0.6845
 8586SOL     OW37219   2.921   2.607   5.456  0.0071  0.2057 -0.2196
 8586SOL    HW137220   2.960   2.674   5.400 -1.9142  1.4528 -0.0368
 8586SOL    HW237221   2.866   2.566   5.389 -0.6871  0.2401  0.3348
 8587SOL     OW37222   0.804   1.024  13.193  0.3399  0.3086 -0.3780
 8587SOL    HW137223   0.806   0.933  13.224 -1.7213  0.6307  0.7534
 8587SOL    HW237224   0.727   1.019  13.136 -0.4085  2.6734  0.4486
 8588SOL     OW37225   3.325   1.171   1.600  0.0196  0.0331 -0.4831
 8588SOL    HW137226   3.292   1.163   1.689 -1.0569  1.5988 -0.7444
 8588SOL    HW237227   3.297   1.260   1.580  2.1145  1.0066  0.9476
 8589SOL     OW37228   2.272   2.088   2.866 -0.5707  0.0397 -0.5953
 8589SOL    HW137229   2.314   2.171   2.845 -0.5443  0.2024  0.1132
 8589SOL    HW237230   2.204   2.123   2.923  0.8877 -0.5604  1.5127
 8590SOL     OW37231   0.554   4.696  10.010 -0.0934  0.1141 -0.5773
 8590SOL    HW137232   0.521   4.655   9.930  1.6973  1.4396 -1.9859
 8590SOL    HW237233   0.573   0.062   9.984 -0.0176  0.5274  0.8987
 8591SOL     OW37234   0.319   3.788   5.625  0.0621 -0.4413  0.4176
 8591SOL    HW137235   0.321   3.696   5.599  1.2182 -0.2786 -0.0612
 8591SOL    HW237236   0.231   3.798   5.661  0.5337  0.1759  1.3968
 8592SOL     OW37237   2.188   4.713   3.709  1.0461 -0.1890 -0.1745
 8592SOL    HW137238   2.126   4.669   3.651  1.0719  1.8365 -1.7443
 8592SOL    HW237239   2.208   0.075   3.670  3.2683 -0.2890  0.7258
 8593SOL     OW37240   1.162   1.600   0.436 -0.5073 -0.0842  0.2344
 8593SOL    HW137241   1.134   1.650   0.513 -0.9149 -1.7823  1.1903
 8593SOL    HW237242   1.081   1.552   0.418 -0.1010 -1.1085  1.1499
 8594SOL     OW37243   3.817   4.260   2.941 -0.8781  0.0779 -0.1574
 8594SOL    HW137244   3.822   4.272   2.846 -0.9696  1.9909  0.0810
 8594SOL    HW237245   3.765   4.337   2.966 -0.8254  0.3403 -0.8504
 8595SOL     OW37246   0.666   1.425   6.527 -0.3289  0.2871  0.5056
 8595SOL    HW137247   0.733   1.470   6.579  0.5078  2.2479 -2.3205
 8595SOL    HW237248   0.620   1.494   6.479 -0.1305 -1.2610 -1.9220
 8596SOL     OW37249   2.110   1.813   3.852 -0.6904  0.3668  0.0584
 8596SOL    HW137250   2.185   1.763   3.883  1.4386  2.7407 -1.3216
 8596SOL    HW237251   2.158   1.886   3.812 -1.4264 -0.1575 -1.7964
 8597SOL     OW37252   4.114   2.558   9.355 -0.5179  0.6015 -0.2796
 8597SOL    HW137253   4.130   2.612   9.433  0.6800  0.0032 -0.1035
 8597SOL    HW237254   4.113   2.469   9.390  0.4913  1.5955  2.2921
 8598SOL     OW37255   4.202   0.235   2.076  0.3317  0.4106 -0.5951
 8598SOL    HW137256   4.205   0.145   2.108 -1.1953  0.1381 -1.2101
 8598SOL    HW237257   4.110   0.256   2.090  0.4083  0.5862 -0.3614
 8599SOL     OW37258   2.495   3.295   7.148 -0.0535 -0.0594 -0.4535
 8599SOL    HW137259   2.450   3.276   7.230 -2.6132  0.5976 -1.7121
 8599SOL    HW237260   2.428   3.349   7.106  0.2389  1.3306  0.9030
 8600SOL     OW37261   3.350   2.509   2.006 -0.4476  0.2425  0.3243
 8600SOL    HW137262   3.397   2.439   2.050  0.1481  0.3348 -0.1786
 8600SOL    HW237263   3.273   2.518   2.062 -0.1425  1.8354  0.4888
 8601SOL     OW37264   2.202   0.189   6.665  0.0951 -0.3476 -0.3892
 8601SOL    HW137265   2.128   0.129   6.663  0.5744 -0.9923  1.0051
 8601SOL    HW237266   2.177   0.232   6.583 -0.7932  1.1625  0.6600
 8602SOL     OW37267   4.098   2.242   4.276 -0.5651  0.6583 -0.3038
 8602SOL    HW137268   4.048   2.297   4.336  0.4014  2.4026 -1.0951
 8602SOL    HW237269   4.158   2.304   4.234 -0.1968  0.9018  0.5676
 8603SOL     OW37270   4.307   0.770   2.870  0.3421 -0.5066  0.4574
 8603SOL    HW137271   4.365   0.833   2.913  2.5814 -1.4516 -1.1944
 8603SOL    HW237272   4.218   0.799   2.890  0.6002  1.4019 -1.2229
 8604SOL     OW37273   2.904   4.108   8.030  0.1545 -0.5045  0.1295
 8604SOL    HW137274   2.820   4.114   8.076 -0.8364 -0.4045 -1.6742
 8604SOL    HW237275   2.914   4.171   7.959 -0.1044 -2.1853 -1.3874
 8605SOL     OW37276   1.913   4.316   0.865  0.1699 -0.4006 -0.5240
 8605SOL    HW137277   1.849   4.307   0.794  1.0082 -1.1885 -1.1927
 8605SOL    HW237278   1.919   4.223   0.887 -0.7853 -0.5909 -1.0528
 8606SOL     OW37279   3.479   1.326   8.967  0.3636 -0.0187 -0.0006
 8606SOL    HW137280   3.438   1.283   9.042 -2.0787  1.1794 -0.6672
 8606SOL    HW237281   3.559   1.356   9.010 -0.6509  1.5378  0.7832
 8607SOL     OW37282   1.982   1.341   8.202  0.4417  0.0132  0.5822
 8607SOL    HW137283   1.942   1.381   8.125  0.7773  1.5543  1.2164
 8607SOL    HW237284   2.075   1.337   8.181  0.2823 -1.0224  0.0583
 8608SOL     OW37285   2.812   1.337   5.008  0.1874  0.2446  0.3398
 8608SOL    HW137286   2.756   1.411   4.985 -0.8444 -0.8841 -0.7974
 8608SOL    HW237287   2.841   1.366   5.094  0.9246 -0.8302  0.4553
 8609SOL     OW37288   0.235   3.422   6.156 -0.2480 -0.1184 -0.8931
 8609SOL    HW137289   0.264   3.395   6.243 -1.3350  0.1003 -0.4769
 8609SOL    HW237290   0.311   3.468   6.119  1.6157 -1.9634  0.6301
 8610SOL     OW37291   4.672   2.475   3.549  0.5405  0.1219 -0.3406
 8610SOL    HW137292   4.667   2.458   3.455 -0.3855  0.0432 -0.2747
 8610SOL    HW237293   4.668   2.386   3.582  1.8713 -0.2258 -1.0867
 8611SOL     OW37294   2.756   2.963  10.608 -0.1996  0.0773  0.0848
 8611SOL    HW137295   2.684   3.007  10.653  1.0316  2.3997 -0.2310
 8611SOL    HW237296   2.717   2.898  10.549  1.6034  0.2222 -1.2490
 8612SOL     OW37297   3.871   1.235   0.920 -0.1856  0.1181 -0.3725
 8612SOL    HW137298   3.895   1.294   0.849  2.1940 -0.8710 -0.3956
 8612SOL    HW237299   3.944   1.173   0.925 -0.8009 -0.4716  1.2081
 8613SOL     OW37300   1.902   2.062   6.810  0.3972 -0.2721 -0.1855
 8613SOL    HW137301   1.815   2.023   6.813  0.8509 -1.1843  1.1074
 8613SOL    HW237302   1.955   1.986   6.786 -0.9055 -0.6763 -1.8197
 8614SOL     OW37303   0.085   3.308   7.519  0.3788  0.1662  0.6087
 8614SOL    HW137304   0.073   3.359   7.599 -1.8199 -1.2918  1.2142
 8614SOL    HW237305   0.046   3.363   7.450 -0.0205  0.1550  0.8225
 8615SOL     OW37306   4.250   3.373   0.701 -0.4508 -0.6786  0.1127
 8615SOL    HW137307   4.215   3.314   0.634  0.5889  1.9588 -2.7672
 8615SOL    HW237308   4.173   3.394   0.753 -1.5232  0.3769 -1.8726
 8616SOL     OW37309   0.348   0.725  17.152  0.4251  0.1807 -0.3404
 8616SOL    HW137310   0.258   0.756  17.160  0.6339  1.1458 -1.7488
 8616SOL    HW237311   0.367   0.766  17.068  1.7297 -1.1254 -0.6940
 8617SOL     OW37312   1.191   1.016  13.120 -0.5706  0.0420 -0.2385
 8617SOL    HW137313   1.135   1.069  13.177  0.4715  0.4780  0.3792
 8617SOL    HW237314   1.128   0.952  13.087 -0.4102  0.3217 -1.0984
 8618SOL     OW37315   0.532   1.280   3.248 -0.3778 -0.0035 -0.0702
 8618SOL    HW137316   0.444   1.316   3.244 -0.7647 -0.9327  0.0162
 8618SOL    HW237317   0.552   1.299   3.340  2.7207  1.7524 -1.0998
 8619SOL     OW37318   0.706   1.726   6.417 -0.6179 -0.0192  0.3378
 8619SOL    HW137319   0.630   1.744   6.473 -0.3210 -0.4507  0.8803
 8619SOL    HW237320   0.706   1.808   6.367  0.8056  1.0586  2.0806
 8620SOL     OW37321   0.463   1.967   8.495  0.0409  0.6400  0.0382
 8620SOL    HW137322   0.449   2.060   8.476 -1.8811  0.6592  1.4977
 8620SOL    HW237323   0.380   1.933   8.461  1.1580 -1.6651 -0.3331
 8621SOL     OW37324   4.150   3.774  10.652  0.0266  0.6471 -0.6810
 8621SOL    HW137325   4.081   3.840  10.643 -0.6493  0.2598  1.6670
 8621SOL    HW237326   4.137   3.713  10.580  1.0387  0.7575 -0.9564
 8622SOL     OW37327   2.550   1.907   8.336  0.3398  0.1402  0.1075
 8622SOL    HW137328   2.529   1.944   8.422  1.9379 -1.1768  1.0641
 8622SOL    HW237329   2.509   1.821   8.346 -1.4211  0.9300 -0.1880
 8623SOL     OW37330   2.348   4.635   7.923 -0.0150  0.4689 -0.2504
 8623SOL    HW137331   2.415   4.645   7.991  2.0245  1.6418 -2.4395
 8623SOL    HW237332   2.374   4.569   7.860 -1.7855 -1.0575  0.6242
 8624SOL     OW37333   2.861   4.330   7.015  0.3344 -0.4576  0.4935
 8624SOL    HW137334   2.920   4.328   6.939  1.4558  3.4108  1.2298
 8624SOL    HW237335   2.923   4.346   7.087  0.5104  0.3045  0.1820
 8625SOL     OW37336   2.726   3.239   3.608  0.4813  0.4214  0.4161
 8625SOL    HW137337   2.807   3.208   3.568  0.4308 -0.7680  1.2299
 8625SOL    HW237338   2.680   3.282   3.535  0.3081 -0.7454 -0.1536
 8626SOL     OW37339   1.762   4.519  10.104 -0.3823  0.6961 -0.5387
 8626SOL    HW137340   1.752   4.434  10.145 -0.9703  0.7368 -0.5971
 8626SOL    HW237341   1.822   4.509  10.030  0.9977 -1.1990  0.8331
 8627SOL     OW37342   1.879   3.253  16.906  0.1705  0.0321  0.0776
 8627SOL    HW137343   1.873   3.341  16.869 -1.8334  1.0096  2.7685
 8627SOL    HW237344   1.912   3.278  16.992 -1.4700 -0.9996  1.0000
 8628SOL     OW37345   3.107   2.576   4.088  0.0880 -0.3832  0.0447
 8628SOL    HW137346   3.019   2.584   4.052  1.5843 -2.0031 -4.0276
 8628SOL    HW237347   3.136   2.667   4.086 -0.5889 -0.1823 -0.5432
 8629SOL     OW37348   1.689   1.101   6.171 -0.0360 -0.5883  0.2697
 8629SOL    HW137349   1.695   1.071   6.081  0.4839 -3.1237  1.1681
 8629SOL    HW237350   1.728   1.035   6.228  0.5501 -0.8097 -0.3908
 8630SOL     OW37351   0.537   0.007  12.335  0.2250  0.4649 -0.2504
 8630SOL    HW137352   0.578   0.028  12.419  0.2427  0.1938 -0.1918
 8630SOL    HW237353   0.445   4.722  12.361 -0.0687 -1.3751 -1.9124
 8631SOL     OW37354   0.747   0.198   0.645 -0.3749 -0.2084 -0.4975
 8631SOL    HW137355   0.693   0.126   0.615 -0.0964 -0.5373 -0.2101
 8631SOL    HW237356   0.741   0.262   0.574  1.9438 -1.2227 -1.6205
 8632SOL     OW37357   1.157   3.959  13.932 -0.4764  0.2573 -0.1617
 8632SOL    HW137358   1.109   3.963  13.849  0.2010  0.3320 -0.5538
 8632SOL    HW237359   1.099   3.908  13.988 -0.4772  1.7002  1.1411
 8633SOL     OW37360   3.759   2.000   2.626  0.1735  0.8196  0.0741
 8633SOL    HW137361   3.702   1.923   2.619 -0.0818  1.1891 -1.8873
 8633SOL    HW237362   3.692   2.066   2.611  0.5131  1.0720 -0.2950
 8634SOL     OW37363   1.509   3.790   4.325 -0.3237 -0.4180 -0.2608
 8634SOL    HW137364   1.484   3.698   4.328  0.7610 -0.6793  0.7873
 8634SOL    HW237365   1.569   3.789   4.250 -2.0024  0.0492 -1.5955
 8635SOL     OW37366   2.024   2.052  10.482  0.0851  0.2001  0.1929
 8635SOL    HW137367   2.036   2.134  10.434  0.7361 -0.2815 -0.4727
 8635SOL    HW237368   1.990   1.992  10.415 -0.1041  1.2473 -0.6497
 8636SOL     OW37369   4.320   2.446  16.118 -0.5435  0.4282  0.6960
 8636SOL    HW137370   4.307   2.506  16.191 -2.1884  0.3763  0.4417
 8636SOL    HW237371   4.390   2.391  16.153 -0.1207  0.8091  0.4490
 8637SOL     OW37372   0.359   4.585   7.464  0.0596  0.1366  0.4650
 8637SOL    HW137373   0.367   4.595   7.558  1.6442 -0.5939  0.4205
 8637SOL    HW237374   0.351   4.490   7.473 -1.3865  0.1533 -0.5904
 8638SOL     OW37375   0.032   3.676   3.079  0.3365  0.0461 -0.3944
 8638SOL    HW137376   0.078   3.753   3.045  2.2366 -0.5095  0.9595
 8638SOL    HW237377   0.104   3.641   3.131 -0.7823 -0.1299  1.0517
 8639SOL     OW37378   0.244   1.796  11.060 -0.6655 -0.2120  0.3190
 8639SOL    HW137379   0.159   1.764  11.088 -0.3685 -2.2739 -1.1130
 8639SOL    HW237380   0.214   1.856  10.992 -1.2258  0.1534  0.8922
 8640SOL     OW37381   4.360   3.194   0.329 -0.1324  0.4465 -0.0299
 8640SOL    HW137382   4.381   3.100   0.331 -0.2134  0.3691 -3.3018
 8640SOL    HW237383   4.434   3.230   0.379 -2.2756 -0.3026  3.6630
 8641SOL     OW37384   0.156   1.516   3.094 -0.1605  0.0631  0.0603
 8641SOL    HW137385   0.165   1.548   3.004 -0.8063 -0.7027 -0.2778
 8641SOL    HW237386   0.125   1.428   3.073  0.3244 -0.3146  0.9508
 8642SOL     OW37387   2.745   1.206   7.131 -0.3946  0.4414 -0.3365
 8642SOL    HW137388   2.798   1.169   7.061 -0.9008  0.2624 -0.6250
 8642SOL    HW237389   2.661   1.218   7.086 -1.5254 -0.3863  1.5689
 8643SOL     OW37390   3.883   1.863  13.400 -0.0725 -0.2771  0.5605
 8643SOL    HW137391   3.921   1.795  13.456  2.6126  1.0522  0.3296
 8643SOL    HW237392   3.921   1.835  13.317 -1.3184 -0.5522  0.0874
 8644SOL     OW37393   3.992   1.731   4.802  0.0031 -0.3210  0.0472
 8644SOL    HW137394   4.011   1.776   4.884 -3.0207  1.5495 -0.2935
 8644SOL    HW237395   4.082   1.717   4.771 -0.3967 -2.4887 -0.1963
 8645SOL     OW37396   1.045   2.675   3.623 -0.1731 -0.5529  0.3026
 8645SOL    HW137397   1.046   2.597   3.679 -2.3124  0.6201  1.9923
 8645SOL    HW237398   1.087   2.639   3.545 -0.6152 -0.1891 -0.1093
 8646SOL     OW37399   2.043   3.413  13.224  0.4693  0.3076  0.2236
 8646SOL    HW137400   2.051   3.451  13.312 -0.5377  0.2768  0.3292
 8646SOL    HW237401   1.990   3.470  13.169 -0.1166 -1.0377 -0.5994
 8647SOL     OW37402   3.932   1.549   9.609 -0.7288  0.1302 -0.3989
 8647SOL    HW137403   3.964   1.612   9.544 -1.9342  1.0726 -0.0761
 8647SOL    HW237404   3.893   1.607   9.674 -1.8114  0.6303 -1.5019
 8648SOL     OW37405   3.283   1.489  13.584 -0.0145 -0.2952  0.3165
 8648SOL    HW137406   3.317   1.556  13.524 -1.5778 -0.5345 -0.8219
 8648SOL    HW237407   3.361   1.435  13.596 -0.5019 -1.0414  0.0898
 8649SOL     OW37408   4.636   0.167   8.332 -0.2040  0.4293 -0.3512
 8649SOL    HW137409   4.563   0.225   8.312 -1.2160  0.3342  3.0460
 8649SOL    HW237410   4.667   0.148   8.243  0.0789  0.6857 -0.3107
 8650SOL     OW37411   1.478   2.796   4.842  0.5326 -0.2105  0.0453
 8650SOL    HW137412   1.390   2.759   4.856  0.9036 -0.1004  2.6309
 8650SOL    HW237413   1.495   2.750   4.759  2.2505 -2.6017  1.7309
 8651SOL     OW37414   2.936   3.578   4.794 -0.1026  0.2627 -0.0044
 8651SOL    HW137415   2.948   3.575   4.889  1.4002  2.6614 -0.1148
 8651SOL    HW237416   3.025   3.603   4.769 -0.1608 -1.3714 -1.8054
 8652SOL     OW37417   1.504   3.592   0.559  0.2714  0.0191 -0.2934
 8652SOL    HW137418   1.526   3.683   0.540  1.4304 -0.0064  0.9599
 8652SOL    HW237419   1.501   3.582   0.654 -1.0701 -0.8040 -0.4238
 8653SOL     OW37420   1.374   1.589   9.107 -0.4223 -0.0382 -0.3349
 8653SOL    HW137421   1.466   1.563   9.099  0.5574  2.9269  1.1232
 8653SOL    HW237422   1.337   1.590   9.019  0.5833  0.0389 -0.7546
 8654SOL     OW37423   3.340   2.502   6.241 -0.0554  0.0467  0.2623
 8654SOL    HW137424   3.390   2.452   6.176 -3.2663 -1.3346 -1.1045
 8654SOL    HW237425   3.258   2.454   6.245  0.3982 -0.6801  0.7310
 8655SOL     OW37426   2.401   1.047  17.006 -0.9391  0.0356 -0.2483
 8655SOL    HW137427   2.387   0.967  17.058 -0.8342  1.8062  2.5209
 8655SOL    HW237428   2.489   1.077  17.029 -0.7829 -2.0923  1.9788
 8656SOL     OW37429   2.478   1.714  11.241 -0.0012  1.0224  0.4655
 8656SOL    HW137430   2.555   1.754  11.200  1.7007 -1.4283  1.3012
 8656SOL    HW237431   2.451   1.644  11.182  1.6576 -0.4485  1.4513
 8657SOL     OW37432   2.511   0.464   4.034 -0.2077 -0.4973 -0.2199
 8657SOL    HW137433   2.509   0.390   3.973  2.1770 -1.0265  0.3326
 8657SOL    HW237434   2.588   0.518   4.017  0.1281 -1.0721 -0.5403
 8658SOL     OW37435   1.715   0.011   6.306  0.0805  0.0480 -0.9976
 8658SOL    HW137436   1.639   4.678   6.293  0.1251 -0.9597  3.1839
 8658SOL    HW237437   1.676   0.060   6.378  1.5269  1.1515 -0.9839
 8659SOL     OW37438   4.626   3.957   3.799  0.5960  0.1267 -0.0466
 8659SOL    HW137439   4.573   3.927   3.725  0.1394 -0.9775  0.7254
 8659SOL    HW237440   4.586   4.044   3.810  1.3049  0.3869  0.5062
 8660SOL     OW37441   0.406   0.334   2.332 -0.2354 -0.4118  0.3573
 8660SOL    HW137442   0.366   0.331   2.419 -0.8845  0.9017  0.1037
 8660SOL    HW237443   0.432   0.243   2.316 -2.0553 -1.2961  2.5061
 8661SOL     OW37444   3.839   3.562  15.518 -0.1509 -0.4186 -0.1120
 8661SOL    HW137445   3.860   3.469  15.530  1.6321 -0.0494 -0.3810
 8661SOL    HW237446   3.928   3.598  15.512  0.6153 -2.2460  0.1238
 8662SOL     OW37447   4.386   0.436   2.054  0.6333 -0.1239  0.1862
 8662SOL    HW137448   4.348   0.458   2.140 -1.4079  2.4724 -1.3701
 8662SOL    HW237449   4.315   0.384   2.015 -2.2838  1.8320  2.8339
 8663SOL     OW37450   4.434   2.128   8.699 -0.8209  0.4125  0.3000
 8663SOL    HW137451   4.441   2.222   8.712 -1.1747  0.3460  1.0163
 8663SOL    HW237452   4.361   2.098   8.755 -2.4555  0.7789 -1.6369
 8664SOL     OW37453   3.802   0.941   0.899  0.3250 -0.0761 -0.1874
 8664SOL    HW137454   3.795   0.993   0.979 -3.2427  1.7035 -1.6615
 8664SOL    HW237455   3.898   0.942   0.890  0.1714  0.3142 -1.7772
 8665SOL     OW37456   1.946   4.299   4.855  0.4598 -0.2032  0.3290
 8665SOL    HW137457   1.985   4.232   4.798 -0.9028  1.1827 -2.2193
 8665SOL    HW237458   1.948   4.364   4.786  1.8930 -1.1063 -0.4868
 8666SOL     OW37459   2.649   0.439  13.446 -0.4626  0.0217 -0.0647
 8666SOL    HW137460   2.571   0.474  13.490 -1.7050 -0.3563 -1.9770
 8666SOL    HW237461   2.631   0.345  13.452 -0.7301  0.0198 -0.9734
 8667SOL     OW37462   4.708   2.785   8.738  0.6443  0.1330 -0.0224
 8667SOL    HW137463   0.005   2.780   8.831  0.6126  0.4829  0.0035
 8667SOL    HW237464   4.614   2.806   8.739 -0.0716 -2.9787 -0.6552
 8668SOL     OW37465   2.151   4.377   5.040 -0.2254  0.1181 -1.1834
 8668SOL    HW137466   2.198   4.295   5.050  0.6628  0.8740  0.6851
 8668SOL    HW237467   2.073   4.351   4.990  0.2804 -1.4894 -1.1365
 8669SOL     OW37468   0.523   0.926   9.784 -0.2923 -0.8719 -0.5699
 8669SOL    HW137469   0.480   0.996   9.833 -1.6081 -1.5004 -0.8069
 8669SOL    HW237470   0.523   0.966   9.697 -1.0489  2.0774  0.7857
 8670SOL     OW37471   2.466   3.672   3.016 -0.2884 -0.0083  0.1721
 8670SOL    HW137472   2.406   3.629   3.076 -1.6693 -0.3628 -1.4483
 8670SOL    HW237473   2.415   3.751   2.995  1.4743  1.1139  0.1055
 8671SOL     OW37474   0.330   0.414   7.603  0.3729  0.1326  0.7223
 8671SOL    HW137475   0.282   0.352   7.657 -0.5845 -1.4032 -1.8752
 8671SOL    HW237476   0.385   0.348   7.559  1.7937  1.7022  0.1528
 8672SOL     OW37477   3.965   2.039   4.111  0.3918 -0.4210  0.8654
 8672SOL    HW137478   3.951   2.109   4.048  1.7705 -0.7763  0.1846
 8672SOL    HW237479   4.032   2.084   4.162 -0.2389  0.4910  0.8930
 8673SOL     OW37480   3.028   4.473   1.177  0.3351  0.3122  0.1257
 8673SOL    HW137481   2.980   4.495   1.097  0.9216  1.2097  0.0320
 8673SOL    HW237482   3.081   4.399   1.147 -0.1291 -0.3840  1.0326
 8674SOL     OW37483   3.205   0.798   0.521 -0.3659 -0.1969 -0.2733
 8674SOL    HW137484   3.235   0.739   0.451  2.2315  2.3499 -1.3194
 8674SOL    HW237485   3.118   0.761   0.531 -1.3983  2.1541 -0.7480
 8675SOL     OW37486   3.609   0.613   2.217  0.2714 -0.3383  0.2893
 8675SOL    HW137487   3.522   0.593   2.183 -1.0691  1.8883  2.3930
 8675SOL    HW237488   3.605   0.708   2.214 -0.2983 -0.4230 -1.7568
 8676SOL     OW37489   4.018   1.721  16.199 -0.3373  0.3656 -0.1565
 8676SOL    HW137490   4.097   1.775  16.210 -0.5641  0.4626  1.0228
 8676SOL    HW237491   3.950   1.788  16.212  0.9614  1.6821 -0.0989
 8677SOL     OW37492   2.251   2.092   1.115 -0.1693  0.6741 -0.0646
 8677SOL    HW137493   2.280   2.183   1.125 -1.4989  0.7254  3.3783
 8677SOL    HW237494   2.332   2.044   1.134 -1.6222 -1.4970  0.6725
 8678SOL     OW37495   2.055   3.258   2.502 -0.1414 -0.3588 -0.0414
 8678SOL    HW137496   2.108   3.245   2.423 -1.2611 -1.9767 -0.5148
 8678SOL    HW237497   2.122   3.250   2.570 -0.1267  2.5325  0.2939
 8679SOL     OW37498   1.399   4.172   9.306 -0.3464  0.3632 -0.0635
 8679SOL    HW137499   1.379   4.264   9.290 -0.7555  0.2796 -0.0259
 8679SOL    HW237500   1.393   4.182   9.401  1.7172 -0.3167  0.1426
 8680SOL     OW37501   3.778   4.631   4.425  0.3671  0.5989  0.0151
 8680SOL    HW137502   3.767   4.661   4.335 -2.9107 -2.5484 -0.5979
 8680SOL    HW237503   3.863   4.586   4.420 -0.8515 -1.7105  0.1999
 8681SOL     OW37504   1.147   2.990  14.816  0.6325 -0.0577  0.3927
 8681SOL    HW137505   1.224   2.933  14.807 -0.2896 -1.1691 -0.3921
 8681SOL    HW237506   1.129   3.007  14.724  0.1324  1.6228  0.8140
 8682SOL     OW37507   1.412   0.276  17.171 -0.0961 -0.3818 -1.0732
 8682SOL    HW137508   1.493   0.283  17.221 -0.9147 -1.2546  0.4143
 8682SOL    HW237509   1.444   0.238  17.090  0.9831 -1.0618 -0.3201
 8683SOL     OW37510   0.506   1.557   9.099  0.2069  0.1059 -0.7562
 8683SOL    HW137511   0.601   1.558   9.098  0.2279 -1.2149  0.2049
 8683SOL    HW237512   0.488   1.645   9.065  2.1037  0.2037 -1.4620
 8684SOL     OW37513   4.031   3.850  11.650 -0.1744 -0.5651  0.3491
 8684SOL    HW137514   4.038   3.850  11.746 -0.0580  0.1709  0.3370
 8684SOL    HW237515   3.938   3.846  11.626 -0.2800  0.2231  0.6399
 8685SOL     OW37516   1.143   3.800   9.001 -0.1092  0.1980 -0.0769
 8685SOL    HW137517   1.219   3.743   8.997  2.0455  2.9690  1.1169
 8685SOL    HW237518   1.134   3.807   8.906  0.2612 -2.0033 -0.2791
 8686SOL     OW37519   4.376   1.757  15.201 -0.2705  0.2950  0.0109
 8686SOL    HW137520   4.392   1.681  15.257  4.5968  1.4508  0.1536
 8686SOL    HW237521   4.373   1.834  15.257 -1.9940 -0.6796  1.2770
 8687SOL     OW37522   1.084   0.409   1.762 -0.6312 -0.4356  0.6009
 8687SOL    HW137523   1.170   0.426   1.724 -1.4672  0.5960 -0.8414
 8687SOL    HW237524   1.087   0.459   1.843 -0.8850 -0.0381  0.3677
 8688SOL     OW37525   2.538   0.380   7.526 -0.9954  0.7201 -0.2014
 8688SOL    HW137526   2.592   0.429   7.588  0.1495 -2.5638  1.4340
 8688SOL    HW237527   2.600   0.323   7.481 -1.4659  0.8371 -0.9849
 8689SOL     OW37528   1.683   3.887   9.474  0.2618 -0.6159  0.4426
 8689SOL    HW137529   1.639   3.867   9.557  0.8196 -1.6333  0.5002
 8689SOL    HW237530   1.752   3.947   9.504 -0.2862 -0.2911  1.0641
 8690SOL     OW37531   1.435   0.253  12.016 -0.1981  0.5008 -0.5668
 8690SOL    HW137532   1.427   0.272  11.923  0.4134  0.7423 -0.5666
 8690SOL    HW237533   1.523   0.285  12.036 -0.0470  1.6852 -3.1670
 8691SOL     OW37534   1.798   4.052   4.654  1.1764 -0.1298 -0.7891
 8691SOL    HW137535   1.787   4.003   4.573 -0.6564  1.6751 -1.6272
 8691SOL    HW237536   1.890   4.080   4.651  1.0022  0.6268  0.9161
 8692SOL     OW37537   2.820   0.714   7.791  0.4241  0.5016  0.0536
 8692SOL    HW137538   2.765   0.769   7.845  0.1437  1.0991 -0.8328
 8692SOL    HW237539   2.798   0.751   7.705  2.1526  0.7738 -0.2758
 8693SOL     OW37540   4.701   0.849   4.016  0.6658  0.2504 -0.2086
 8693SOL    HW137541   0.073   0.852   4.014  0.7656 -2.3873  0.5334
 8693SOL    HW237542   4.695   0.766   4.063 -0.2215 -0.9089 -2.3345
 8694SOL     OW37543   1.401   3.812   6.023 -0.0114  0.0822 -0.1391
 8694SOL    HW137544   1.467   3.758   5.979 -0.9533 -1.4831  0.3706
 8694SOL    HW237545   1.462   3.881   6.048  0.6557 -1.0455  1.3475
 8695SOL     OW37546   1.519   2.425  15.538  0.0824 -0.3160 -0.2317
 8695SOL    HW137547   1.582   2.453  15.605 -0.0169  0.0699 -0.2953
 8695SOL    HW237548   1.443   2.464  15.582  0.1320  1.1937 -1.4925
 8696SOL     OW37549   3.687   1.129   3.681 -0.5819  0.5820 -0.0467
 8696SOL    HW137550   3.641   1.140   3.597 -0.0871  0.4035 -0.3374
 8696SOL    HW237551   3.722   1.044   3.656  0.9962  0.7540  1.6174
 8697SOL     OW37552   3.454   0.303   3.145  0.4956  0.1090  0.5191
 8697SOL    HW137553   3.535   0.257   3.125  0.6615  1.1114 -1.0674
 8697SOL    HW237554   3.425   0.330   3.058 -0.5878 -2.4625  0.0756
 8698SOL     OW37555   2.337   2.453   4.281  0.6881  0.0226 -0.0002
 8698SOL    HW137556   2.425   2.419   4.299  0.6241  0.5645  1.3672
 8698SOL    HW237557   2.302   2.475   4.367 -1.0838 -0.8660 -0.5060
 8699SOL     OW37558   1.645   4.211  17.581 -0.3012  0.0493 -0.0822
 8699SOL    HW137559   1.603   4.127  17.563 -0.1628 -0.5121  2.2249
 8699SOL    HW237560   1.597   4.269  17.522  0.0863  0.9855  0.5165
 8700SOL     OW37561   4.585   3.277  10.895 -0.1385  0.0815  0.7146
 8700SOL    HW137562   4.581   3.200  10.839  2.3905  0.3860  0.1028
 8700SOL    HW237563   4.647   3.333  10.848  1.5121 -0.9597  1.6649
 8701SOL     OW37564   0.446   3.769   6.725  0.3155 -0.0538 -0.1733
 8701SOL    HW137565   0.397   3.701   6.679 -1.3057  0.0128  1.4711
 8701SOL    HW237566   0.474   3.709   6.795  0.6635 -2.3035 -2.2489
 8702SOL     OW37567   2.774   3.665   9.277  0.1281 -0.2683  0.1159
 8702SOL    HW137568   2.716   3.666   9.353  0.5202 -0.0941  0.4176
 8702SOL    HW237569   2.719   3.706   9.210 -0.9896  0.1622  1.3070
 8703SOL     OW37570   2.163   3.985   8.619  0.3883  0.1949 -0.0087
 8703SOL    HW137571   2.162   3.889   8.622 -1.8856  0.2143  0.0034
 8703SOL    HW237572   2.069   4.002   8.615  0.7624  2.5236  1.4526
 8704SOL     OW37573   1.282   4.498   1.757 -0.3795 -0.0362 -0.3059
 8704SOL    HW137574   1.264   4.501   1.851 -2.6065 -0.5757 -0.7217
 8704SOL    HW237575   1.257   4.411   1.725  2.4993  0.1008 -2.9307
 8705SOL     OW37576   0.867   2.457   9.160  0.9279  0.3084  0.0232
 8705SOL    HW137577   0.823   2.427   9.081 -0.6864  0.0799  1.0202
 8705SOL    HW237578   0.919   2.380   9.183  0.5798  0.9476  2.9628
 8706SOL     OW37579   1.228   3.506  10.585 -0.2928  0.1445  0.0733
 8706SOL    HW137580   1.321   3.489  10.568 -0.5924 -0.2913 -1.1649
 8706SOL    HW237581   1.223   3.598  10.612  1.0086 -0.1874  1.3901
 8707SOL     OW37582   3.834   1.219  15.732 -0.2726  0.7361  0.1551
 8707SOL    HW137583   3.897   1.156  15.696  0.3803  1.9821 -0.8482
 8707SOL    HW237584   3.886   1.289  15.771 -0.9820  1.4541 -0.2004
 8708SOL     OW37585   1.360   0.489  12.179 -0.3130 -0.4372  0.2911
 8708SOL    HW137586   1.387   0.579  12.162  2.7799 -1.3477  0.4853
 8708SOL    HW237587   1.428   0.437  12.136 -0.7106  0.0497 -0.9266
 8709SOL     OW37588   4.018   3.774   3.549  0.4064 -0.3208  0.0744
 8709SOL    HW137589   3.939   3.727   3.576 -0.2924  1.2282  0.7094
 8709SOL    HW237590   4.023   3.839   3.619 -0.1120 -0.9204  0.6698
 8710SOL     OW37591   4.096   1.795   9.773 -0.0174  0.7445 -0.2047
 8710SOL    HW137592   4.001   1.799   9.770 -0.2415 -2.7616  2.5790
 8710SOL    HW237593   4.111   1.868   9.834  0.9365  0.1886  0.2234
 8711SOL     OW37594   4.658   3.204   8.090 -0.6594  0.3988 -0.0641
 8711SOL    HW137595   4.581   3.248   8.055 -0.6254  0.9542  0.5746
 8711SOL    HW237596   4.677   3.141   8.019 -1.1141  0.6386 -0.4015
 8712SOL     OW37597   0.008   3.535   3.636 -0.1831 -0.4697 -0.6914
 8712SOL    HW137598   0.044   3.624   3.634  0.1996 -0.6168 -0.4588
 8712SOL    HW237599   0.083   3.476   3.625  0.6658  0.6252 -0.8531
 8713SOL     OW37600   3.144   2.100  15.563  0.5786  0.6016 -0.6204
 8713SOL    HW137601   3.144   2.007  15.587  1.8777  1.1294  1.4355
 8713SOL    HW237602   3.136   2.151  15.644 -0.5322 -0.3954 -0.1037
 8714SOL     OW37603   3.196   0.433   1.369 -0.0888 -0.1554  0.0254
 8714SOL    HW137604   3.210   0.527   1.370  0.6617 -0.2820  1.1400
 8714SOL    HW237605   3.274   0.394   1.329 -0.3765 -1.0692  0.3540
 8715SOL     OW37606   4.404   0.525   5.340  0.5855  0.0647 -0.4986
 8715SOL    HW137607   4.452   0.537   5.258 -0.6520  0.4278 -1.1704
 8715SOL    HW237608   4.328   0.477   5.306  1.5981 -2.5538  0.9801
 8716SOL     OW37609   4.088   2.547  15.336  0.6904  0.3171 -0.1183
 8716SOL    HW137610   4.059   2.596  15.413 -0.9697 -1.8329  0.6552
 8716SOL    HW237611   4.056   2.599  15.263  1.3969  0.9097  0.0009
 8717SOL     OW37612   0.912   4.625   0.029  0.2303 -0.3079 -0.2437
 8717SOL    HW137613   0.857   4.624  17.647  0.0768  1.8289 -0.1737
 8717SOL    HW237614   0.870   4.560   0.085 -0.3629 -0.3738 -0.7728
 8718SOL     OW37615   4.339   0.538   2.727  0.4128  0.5439 -0.4687
 8718SOL    HW137616   4.326   0.623   2.769  0.1705 -0.1079  0.7642
 8718SOL    HW237617   4.392   0.495   2.794 -1.1369  1.8706  1.6253
 8719SOL     OW37618   2.682   0.663   8.948 -0.0935  0.1931 -0.4836
 8719SOL    HW137619   2.728   0.746   8.962 -1.2864  1.0544 -1.7562
 8719SOL    HW237620   2.591   0.679   8.970 -0.3882  1.5331 -2.6833
 8720SOL     OW37621   1.566   2.856   7.563  0.1496  0.5803 -1.0611
 8720SOL    HW137622   1.541   2.930   7.619  3.0370 -0.0013  0.9767
 8720SOL    HW237623   1.476   2.830   7.545  0.1414  1.3822 -2.1733
 8721SOL     OW37624   2.965   0.129   6.540 -0.1644 -0.0628  0.8174
 8721SOL    HW137625   3.030   0.116   6.471 -1.9259 -1.2680 -0.6188
 8721SOL    HW237626   2.898   0.068   6.509  0.6428 -1.2943  1.5221
 8722SOL     OW37627   0.875   4.009   7.998  0.0765  0.1502 -0.8097
 8722SOL    HW137628   0.947   4.050   7.950 -0.6706 -0.2237 -2.2449
 8722SOL    HW237629   0.842   3.943   7.938  2.3982  1.0337 -3.0320
 8723SOL     OW37630   1.140   4.589   7.371 -0.0812  0.0329  0.4975
 8723SOL    HW137631   1.091   4.542   7.438 -0.7863 -0.9278 -0.6810
 8723SOL    HW237632   1.077   4.596   7.298  0.3754 -1.9259 -0.0821
 8724SOL     OW37633   3.960   1.286   6.586 -0.1174 -0.2615  0.7572
 8724SOL    HW137634   3.965   1.206   6.637  0.5355  0.3199  1.6081
 8724SOL    HW237635   3.954   1.252   6.497 -1.5904  0.3403  0.6228
 8725SOL     OW37636   1.387   1.679   7.462 -0.3301  0.3309 -0.5128
 8725SOL    HW137637   1.354   1.763   7.431 -0.0333 -0.1387 -2.1062
 8725SOL    HW237638   1.380   1.630   7.380 -0.2951 -0.6408  0.0699
 8726SOL     OW37639   3.218   2.219  16.093 -0.1201  0.6905  0.1243
 8726SOL    HW137640   3.240   2.161  16.166  2.3824  0.6637 -0.6746
 8726SOL    HW237641   3.202   2.305  16.133 -0.8961  0.2173  0.8392
 8727SOL     OW37642   3.345   1.915   9.175 -0.1846 -0.0538  0.0849
 8727SOL    HW137643   3.283   1.885   9.108 -0.5952 -0.3707  0.6087
 8727SOL    HW237644   3.321   2.007   9.181 -2.8376 -0.7990  0.8335
 8728SOL     OW37645   4.615   0.565   8.389  0.2533  0.3004 -0.7425
 8728SOL    HW137646   4.554   0.639   8.394 -0.3931 -0.2080 -0.9874
 8728SOL    HW237647   4.548   0.496   8.397  0.1049  0.5825  0.4125
 8729SOL     OW37648   4.101   3.101   2.984  0.0306  0.0157 -0.3007
 8729SOL    HW137649   4.169   3.158   2.945  0.9437 -1.4865 -0.8902
 8729SOL    HW237650   4.137   3.087   3.072  1.9258 -2.4789 -1.4858
 8730SOL     OW37651   0.605   1.523   5.114  0.0078 -0.0688 -0.3901
 8730SOL    HW137652   0.651   1.552   5.035  1.8490 -1.4834  0.1496
 8730SOL    HW237653   0.524   1.571   5.099 -0.4718 -0.1769  1.8914
 8731SOL     OW37654   3.593   0.242   8.953 -0.1655 -0.2251  0.2925
 8731SOL    HW137655   3.566   0.333   8.969 -0.5534 -1.0688  4.4967
 8731SOL    HW237656   3.688   0.246   8.941 -0.0377 -1.5085  0.8716
 8732SOL     OW37657   1.650   1.891   7.582  0.7520 -0.2667 -0.3203
 8732SOL    HW137658   1.574   1.834   7.571  0.7790 -0.0914 -1.4110
 8732SOL    HW237659   1.664   1.892   7.677 -0.6454 -1.1341 -0.0914
 8733SOL     OW37660   3.486   0.230   5.724  0.0671 -0.2070  0.2301
 8733SOL    HW137661   3.563   0.174   5.736  0.4515  0.2019 -0.2961
 8733SOL    HW237662   3.430   0.188   5.789  0.9998 -3.4585 -1.0954
 8734SOL     OW37663   2.686   0.772  15.586  0.0143  0.3874  0.1706
 8734SOL    HW137664   2.631   0.727  15.649  1.4133  0.4060  1.4016
 8734SOL    HW237665   2.633   0.744  15.511 -2.4070 -0.4480  2.2385
 8735SOL     OW37666   2.466   1.230   3.051 -0.4646  0.0550  0.1650
 8735SOL    HW137667   2.514   1.148   3.066 -0.9775 -0.4841 -1.2192
 8735SOL    HW237668   2.467   1.265   3.141 -1.6763  0.5852 -0.0270
 8736SOL     OW37669   2.432   0.989   5.700  0.3837 -0.4750 -0.1453
 8736SOL    HW137670   2.394   0.901   5.700 -1.6766  0.4238  3.0282
 8736SOL    HW237671   2.365   1.032   5.647 -1.5877  0.1224  2.8468
 8737SOL     OW37672   2.476   1.795  14.959  0.2384  0.0425 -0.3524
 8737SOL    HW137673   2.510   1.879  14.992  1.4536 -0.9217  0.8674
 8737SOL    HW237674   2.542   1.738  15.000  0.1070  0.3227  0.2559
 8738SOL     OW37675   0.153   0.941  12.635 -0.1152 -0.1153 -0.0070
 8738SOL    HW137676   0.066   0.951  12.597 -0.1308 -3.4698 -0.8558
 8738SOL    HW237677   0.142   0.995  12.714  1.9535  1.5299 -0.8382
 8739SOL     OW37678   2.830   2.204   4.080  0.1819 -0.4769  0.0951
 8739SOL    HW137679   2.780   2.168   4.007 -0.4604  0.1659  0.2181
 8739SOL    HW237680   2.846   2.295   4.055 -1.0512 -0.0257  0.9225
 8740SOL     OW37681   2.750   1.562  15.848 -0.1597  0.0493  0.7617
 8740SOL    HW137682   2.782   1.613  15.922 -0.3123 -0.8132  1.4273
 8740SOL    HW237683   2.677   1.615  15.817  0.1264 -0.3036 -0.5157
 8741SOL     OW37684   4.311   4.026   2.547 -0.0614 -0.4679 -0.4204
 8741SOL    HW137685   4.285   3.998   2.459 -2.1851 -1.4913  0.5620
 8741SOL    HW237686   4.324   3.934   2.568 -1.3956 -0.3690  0.7735
 8742SOL     OW37687   3.467   3.506   2.913 -0.2468  0.4018  0.0943
 8742SOL    HW137688   3.439   3.461   2.834  1.2125  1.0762 -0.8007
 8742SOL    HW237689   3.529   3.567   2.873 -1.3962  0.2758 -1.8413
 8743SOL     OW37690   2.070   3.907   8.073 -0.1989  0.3002  0.0829
 8743SOL    HW137691   2.104   3.926   7.986 -0.9655  1.2789 -0.0029
 8743SOL    HW237692   2.096   3.982   8.128  1.3809 -2.3528  2.9867
 8744SOL     OW37693   2.336   1.582   3.937  0.4805  0.0013  0.3181
 8744SOL    HW137694   2.406   1.532   3.894 -2.0403 -0.9192 -2.6719
 8744SOL    HW237695   2.304   1.505   3.984  0.5279  1.0274  2.0301
 8745SOL     OW37696   2.059   3.910   6.967 -0.0209 -0.1055  0.4513
 8745SOL    HW137697   2.026   3.945   6.884  0.8514  0.4441  0.3414
 8745SOL    HW237698   2.151   3.937   6.961 -0.2722  0.6746  0.1081
 8746SOL     OW37699   0.312   4.141   5.020  0.4896  0.2485 -0.2365
 8746SOL    HW137700   0.322   4.046   5.031 -0.1675  0.3884  1.5765
 8746SOL    HW237701   0.315   4.146   4.924  1.2062 -2.4276 -0.3609
 8747SOL     OW37702   1.023   1.202   4.315  0.5692 -0.7477  0.5934
 8747SOL    HW137703   1.082   1.201   4.390  0.3355 -1.9274  0.7720
 8747SOL    HW237704   1.078   1.248   4.251 -0.3674  2.1739  1.9038
 8748SOL     OW37705   4.314   1.856  12.761  0.0783 -0.3541  0.5140
 8748SOL    HW137706   4.238   1.803  12.737 -1.8586  1.9259  1.6239
 8748SOL    HW237707   4.271   1.930  12.803 -0.1093  0.0969 -0.4669
 8749SOL     OW37708   4.019   3.391   6.677 -0.0088  0.3350  0.1246
 8749SOL    HW137709   3.993   3.380   6.586 -2.0770  2.6107  0.4342
 8749SOL    HW237710   3.970   3.325   6.727  0.1759  0.5484  0.5840
 8750SOL     OW37711   2.741   0.463   6.405 -0.2159  0.1987  0.0487
 8750SOL    HW137712   2.816   0.522   6.400  0.5115 -0.7283 -0.1024
 8750SOL    HW237713   2.672   0.526   6.385 -0.7108 -0.3153  0.1435
 8751SOL     OW37714   2.577   3.246   9.673  0.5347  0.1634 -0.7872
 8751SOL    HW137715   2.617   3.333   9.661  1.8455 -0.2026  1.0198
 8751SOL    HW237716   2.489   3.268   9.703 -0.6651 -2.8562 -2.1876
 8752SOL     OW37717   0.602   2.981  10.753  0.0651 -0.7937  0.6668
 8752SOL    HW137718   0.608   2.889  10.729 -0.5362 -1.0975  1.6808
 8752SOL    HW237719   0.514   2.983  10.790  0.1658 -1.1742  0.9316
 8753SOL     OW37720   0.078   3.965   5.411  0.1901 -0.8171 -0.3048
 8753SOL    HW137721   0.139   4.021   5.460  0.0100 -1.9288  1.1650
 8753SOL    HW237722   0.119   3.879   5.414  0.1220 -0.8733 -1.1040
 8754SOL     OW37723   4.075   2.529   2.774  0.0201 -0.2806 -0.6656
 8754SOL    HW137724   4.049   2.489   2.691 -3.2914  0.4477  0.0244
 8754SOL    HW237725   4.171   2.526   2.765 -0.0652 -3.1589 -0.5047
 8755SOL     OW37726   2.439   2.458   3.461  0.1901  0.3681  0.5535
 8755SOL    HW137727   2.531   2.473   3.439  0.1548 -2.2649 -1.4071
 8755SOL    HW237728   2.393   2.507   3.393 -0.3803  1.1305  1.4879
 8756SOL     OW37729   4.691   0.464   4.702  0.5146  0.1610  0.0862
 8756SOL    HW137730   4.656   0.386   4.745 -0.0078  0.4245  0.1357
 8756SOL    HW237731   4.613   0.517   4.686 -0.6386 -1.4882  0.2209
 8757SOL     OW37732   0.610   4.006   6.095 -0.2518  0.2460 -0.5480
 8757SOL    HW137733   0.603   4.006   5.999  3.3890  0.7740 -0.7936
 8757SOL    HW237734   0.556   4.082   6.116 -0.3155 -0.4541  1.7724
 8758SOL     OW37735   1.511   4.518  16.390  0.1131 -0.4111  0.4091
 8758SOL    HW137736   1.567   4.461  16.336 -0.8356  0.0676 -1.0643
 8758SOL    HW237737   1.427   4.485  16.359  0.8976 -3.4282  1.4417
 8759SOL     OW37738   4.023   4.430   1.225 -0.5174  0.2494  0.5078
 8759SOL    HW137739   4.035   4.500   1.161  3.9077 -1.3263 -0.3481
 8759SOL    HW237740   3.929   4.414   1.216  0.0277 -1.6741 -1.8945
 8760SOL     OW37741   0.409   1.574   9.669 -0.1171  0.0082 -0.5775
 8760SOL    HW137742   0.361   1.495   9.642 -1.7249  0.5318  0.7631
 8760SOL    HW237743   0.499   1.540   9.664  0.0887  0.7751 -1.9681
 8761SOL     OW37744   4.164   2.912   3.429 -0.1102  0.4629 -0.1581
 8761SOL    HW137745   4.078   2.937   3.462 -0.1512  0.0688  0.0365
 8761SOL    HW237746   4.190   2.852   3.499  2.5545  0.2967 -1.3292
 8762SOL     OW37747   1.713   1.097   7.644 -0.3706  0.0183  0.0674
 8762SOL    HW137748   1.632   1.062   7.606 -0.5167  0.3131  0.1059
 8762SOL    HW237749   1.776   1.040   7.600  0.3254  1.2028 -0.4812
 8763SOL     OW37750   0.644   0.865   4.687 -0.1495 -0.1629  0.3389
 8763SOL    HW137751   0.571   0.804   4.700 -0.5023  0.5748  1.9012
 8763SOL    HW237752   0.614   0.915   4.611 -1.9478  1.5344  2.1672
 8764SOL     OW37753   0.931   2.649  12.326  0.0036 -0.6318 -0.0719
 8764SOL    HW137754   1.020   2.684  12.321  0.0807 -0.8162 -0.0180
 8764SOL    HW237755   0.893   2.715  12.268 -0.9223  0.6980  2.0844
 8765SOL     OW37756   3.292   3.190   6.369 -0.6235  1.0089  0.3517
 8765SOL    HW137757   3.344   3.264   6.338  1.4175  0.5413  2.6479
 8765SOL    HW237758   3.287   3.126   6.299 -3.3343 -1.3847  2.7469
 8766SOL     OW37759   4.222   4.552   0.532  0.1058 -0.0511 -0.2238
 8766SOL    HW137760   4.314   4.576   0.520  0.0359 -0.3031 -1.2737
 8766SOL    HW237761   4.208   4.510   0.447 -0.7976 -0.3438  0.0573
 8767SOL     OW37762   2.699   2.263  16.648  0.0071  0.1701 -0.0863
 8767SOL    HW137763   2.719   2.308  16.566  3.7591 -1.5732 -0.0929
 8767SOL    HW237764   2.785   2.235  16.677 -1.7555 -0.6628  4.2937
 8768SOL     OW37765   0.856   1.481   7.014  0.2623  0.6739 -0.0213
 8768SOL    HW137766   0.881   1.570   7.040  1.5432 -0.0569  1.2498
 8768SOL    HW237767   0.832   1.445   7.100  0.6493 -0.2152 -0.2856
 8769SOL     OW37768   1.099   1.356   7.592  0.2592  0.2113 -0.4063
 8769SOL    HW137769   1.069   1.347   7.682  1.2375  1.5685  0.0586
 8769SOL    HW237770   1.192   1.345   7.610 -0.0092 -0.6808  0.4050
 8770SOL     OW37771   3.205   3.228   2.321 -0.1827 -0.2294  0.6278
 8770SOL    HW137772   3.184   3.317   2.294  0.3418 -0.4750 -0.6429
 8770SOL    HW237773   3.195   3.244   2.414 -1.8409 -0.7344  0.5417
 8771SOL     OW37774   0.133   1.039   0.568 -0.1780  0.2402  0.5547
 8771SOL    HW137775   0.094   1.089   0.496  1.1719 -2.0363 -1.7630
 8771SOL    HW237776   0.222   1.013   0.545  0.1414  1.6240  0.2550
 8772SOL     OW37777   4.276   1.403  17.206 -0.0201  1.2854 -0.1281
 8772SOL    HW137778   4.306   1.491  17.231 -0.1241  1.4409 -0.5498
 8772SOL    HW237779   4.362   1.365  17.188  0.5049  0.9445  3.1187
 8773SOL     OW37780   4.553   1.883   5.031  0.4844  0.5949  0.0785
 8773SOL    HW137781   4.626   1.907   5.087  0.1333  0.5533  0.5562
 8773SOL    HW237782   4.540   1.790   5.049 -0.4450  0.4513 -1.3124
 8774SOL     OW37783   1.906   4.545  15.326 -0.0976 -0.4668  0.3053
 8774SOL    HW137784   1.898   4.517  15.417  1.5275  1.6023  1.1056
 8774SOL    HW237785   1.817   4.578  15.313 -0.2905 -2.3989 -3.0879
 8775SOL     OW37786   3.606   0.061  14.682  0.1687 -0.2065 -0.2294
 8775SOL    HW137787   3.675   0.047  14.616  1.3818  2.6869  0.4059
 8775SOL    HW237788   3.639   4.720  14.744  0.6568 -0.3816 -0.6649
 8776SOL     OW37789   4.282   4.380  16.622  0.7437  0.2612 -0.0766
 8776SOL    HW137790   4.192   4.357  16.599  0.5579  0.4810  0.4180
 8776SOL    HW237791   4.305   4.294  16.657  2.0349  0.4459 -0.4615
 8777SOL     OW37792   2.455   3.052  15.184 -0.2351  0.2428 -0.0572
 8777SOL    HW137793   2.489   3.118  15.123  1.6263  1.5776  2.4570
 8777SOL    HW237794   2.404   3.114  15.236 -0.1761 -2.3013  2.9829
 8778SOL     OW37795   1.536   3.684   6.275 -0.4189 -0.1982  0.5791
 8778SOL    HW137796   1.564   3.726   6.356  1.3245 -2.0446  0.9362
 8778SOL    HW237797   1.446   3.715   6.263 -0.4875 -0.2463  0.9781
 8779SOL     OW37798   3.493   1.023   8.894 -0.0845 -0.0026 -0.5409
 8779SOL    HW137799   3.515   1.017   8.801  0.4722 -1.2341 -0.3220
 8779SOL    HW237800   3.559   1.089   8.914  0.5572 -0.7055 -0.3679
 8780SOL     OW37801   3.858   3.084   8.674 -0.0340 -0.2276 -0.4335
 8780SOL    HW137802   3.794   3.128   8.618 -1.0254  1.8735  2.3163
 8780SOL    HW237803   3.943   3.089   8.629  1.4111 -0.0622  2.2866
 8781SOL     OW37804   2.864   1.120   1.191  0.0216 -0.0022 -0.2689
 8781SOL    HW137805   2.862   1.193   1.253 -2.6501 -1.0995  0.9407
 8781SOL    HW237806   2.948   1.082   1.214 -0.4015 -1.8837 -1.8142
 8782SOL     OW37807   2.944   2.849   3.283 -0.1990 -0.3293  0.2152
 8782SOL    HW137808   2.980   2.773   3.237 -2.2421 -1.8734  1.1351
 8782SOL    HW237809   3.022   2.898   3.308  0.7946 -1.5995 -0.3813
 8783SOL     OW37810   1.571   1.276   3.329  0.1101  0.2783 -0.5074
 8783SOL    HW137811   1.601   1.201   3.382 -1.2322 -0.5435 -0.9075
 8783SOL    HW237812   1.478   1.253   3.336  0.5509 -1.6157 -0.8917
 8784SOL     OW37813   1.723   1.620   8.560  0.0178 -0.4806 -0.5391
 8784SOL    HW137814   1.788   1.685   8.533  0.0412 -0.4304 -0.3574
 8784SOL    HW237815   1.650   1.656   8.509  0.1428 -0.2892 -0.5846
 8785SOL     OW37816   2.961   0.671   4.757 -0.4326  0.0555  0.9393
 8785SOL    HW137817   2.876   0.679   4.714  0.7800 -0.1001 -1.4783
 8785SOL    HW237818   3.014   0.740   4.717 -1.2122  0.0567 -0.0973
 8786SOL     OW37819   1.516   0.937   7.820 -0.5196  0.1280 -0.2370
 8786SOL    HW137820   1.583   0.982   7.870 -1.0239  1.3570 -0.6770
 8786SOL    HW237821   1.506   0.853   7.865  1.9260 -0.3616 -0.6024
 8787SOL     OW37822   4.298   1.906   4.154 -0.1280  0.0826  0.2950
 8787SOL    HW137823   4.336   1.840   4.096  1.7629  1.7465 -0.3683
 8787SOL    HW237824   4.244   1.959   4.095  0.1918  1.0641  0.8849
 8788SOL     OW37825   3.216   1.883  13.571  1.3494 -0.1757  0.0803
 8788SOL    HW137826   3.233   1.969  13.611 -1.9105  0.3284  0.4120
 8788SOL    HW237827   3.276   1.831  13.624  0.1604 -2.1098 -0.4586
 8789SOL     OW37828   3.457   1.533   2.976  0.6536 -0.2617  0.0474
 8789SOL    HW137829   3.543   1.570   2.955 -0.4228  3.3639  2.0915
 8789SOL    HW237830   3.411   1.555   2.895 -1.4200  0.9626  1.5740
 8790SOL     OW37831   1.913   1.680   6.899  0.7769 -0.0002 -0.2638
 8790SOL    HW137832   1.961   1.743   6.953  2.2039 -0.6165 -0.8117
 8790SOL    HW237833   1.890   1.618   6.968 -0.6497 -0.2854 -0.9942
 8791SOL     OW37834   1.576   4.565  16.647  0.7090 -0.0740 -0.0613
 8791SOL    HW137835   1.536   4.526  16.569 -0.7226  2.7235 -0.7529
 8791SOL    HW237836   1.568   4.486  16.700 -0.3925  0.7816  1.0588
 8792SOL     OW37837   2.708   0.952  15.810 -1.0588 -0.5216  0.4591
 8792SOL    HW137838   2.715   0.867  15.767 -0.4421 -0.3390  0.1927
 8792SOL    HW237839   2.705   0.915  15.898  1.0967 -0.3533  0.6154
 8793SOL     OW37840   0.852   0.855  12.178  0.6227  0.0455 -0.0464
 8793SOL    HW137841   0.767   0.828  12.214  0.4375 -1.1874 -1.4050
 8793SOL    HW237842   0.866   0.787  12.112  1.4933 -2.5694  2.8445
 8794SOL     OW37843   4.328   2.637   5.848  0.2746 -0.5063 -0.2250
 8794SOL    HW137844   4.297   2.692   5.776 -0.0576  1.0202  1.1048
 8794SOL    HW237845   4.407   2.688   5.867  1.1554 -0.6215 -3.4890
 8795SOL     OW37846   2.723   2.596  14.969  0.1537 -0.0908  0.4194
 8795SOL    HW137847   2.658   2.546  14.920  0.1264  2.1629 -1.8551
 8795SOL    HW237848   2.670   2.676  14.970  0.6429  0.2786 -1.5979
 8796SOL     OW37849   2.437   3.390  12.556  0.3059 -0.5515  0.1747
 8796SOL    HW137850   2.394   3.324  12.610 -1.5941  1.4103  1.0667
 8796SOL    HW237851   2.357   3.438  12.534  1.2062 -0.1651 -2.3074
 8797SOL     OW37852   2.905   1.563  15.108  0.4319 -0.1327 -0.2860
 8797SOL    HW137853   2.926   1.471  15.092  2.2257  0.0120  1.1924
 8797SOL    HW237854   2.879   1.560  15.200 -0.2774 -1.2620 -0.5242
 8798SOL     OW37855   2.904   3.046   4.596 -0.1502  0.0485  0.0439
 8798SOL    HW137856   2.962   2.978   4.561 -2.7793 -1.7297 -0.8459
 8798SOL    HW237857   2.962   3.118   4.622  0.8595 -0.6462 -0.2969
 8799SOL     OW37858   3.121   3.984   2.822 -0.2126  0.5571  0.6838
 8799SOL    HW137859   3.186   4.053   2.818  0.8831 -0.4273  1.4742
 8799SOL    HW237860   3.042   4.037   2.833  0.3045  1.3228  0.6821
 8800SOL     OW37861   3.651   4.077   9.443  0.4165 -0.4449 -0.2736
 8800SOL    HW137862   3.641   4.027   9.524 -1.9052  0.4032 -0.0328
 8800SOL    HW237863   3.565   4.107   9.413  1.4030  1.9031 -0.7513
 8801SOL     OW37864   0.924   4.307   1.825  0.1397 -0.3505  0.5292
 8801SOL    HW137865   0.894   4.365   1.895 -1.6776  0.2024 -0.6994
 8801SOL    HW237866   0.972   4.242   1.876  0.1519 -0.0517  0.8952
 8802SOL     OW37867   0.674   4.535   9.073  0.3001 -0.8792  0.0878
 8802SOL    HW137868   0.645   4.534   9.164  1.2087 -2.1101  0.3578
 8802SOL    HW237869   0.756   4.487   9.083  1.4171  0.2664 -3.3070
 8803SOL     OW37870   3.329   3.698   5.542  0.5850 -0.2705  0.7197
 8803SOL    HW137871   3.406   3.682   5.488 -0.0271 -1.5113  0.2004
 8803SOL    HW237872   3.355   3.760   5.609 -0.2469  2.5221 -1.5704
 8804SOL     OW37873   1.936   1.541  12.313  0.2900  0.4842  0.3994
 8804SOL    HW137874   1.970   1.466  12.264 -2.1946 -2.3773  3.0543
 8804SOL    HW237875   1.861   1.509  12.365 -0.1543  1.8257  0.5843
 8805SOL     OW37876   3.282   1.243   1.854  0.6221  0.0105 -0.0041
 8805SOL    HW137877   3.305   1.331   1.883  1.1170 -0.2903  0.5120
 8805SOL    HW237878   3.277   1.194   1.936  1.1069 -0.3865 -0.2144
 8806SOL     OW37879   3.803   0.304   1.784 -0.2303 -0.0084 -0.1132
 8806SOL    HW137880   3.899   0.297   1.784 -0.2480 -0.2620  0.5025
 8806SOL    HW237881   3.776   0.229   1.838 -1.7921  0.1108 -0.7314
 8807SOL     OW37882   3.562   1.611   1.994  0.2086  0.3709  0.4677
 8807SOL    HW137883   3.583   1.689   1.943 -1.2972  0.1818 -0.4454
 8807SOL    HW237884   3.636   1.551   1.982 -0.0547  0.2577 -0.5900
 8808SOL     OW37885   1.271   0.876  16.058 -0.0452  0.6747 -0.1509
 8808SOL    HW137886   1.201   0.942  16.054  1.5776  2.4539  0.9936
 8808SOL    HW237887   1.280   0.854  16.151  0.4205  3.3244  0.4344
 8809SOL     OW37888   4.047   4.654   1.028 -0.1148  0.3400 -0.5069
 8809SOL    HW137889   4.082   4.593   0.964 -0.9922 -1.8895  1.1202
 8809SOL    HW237890   4.119   4.716   1.036 -0.6022  0.8043  0.2375
 8810SOL     OW37891   0.471   1.849   7.382 -0.7885 -0.0453  0.2587
 8810SOL    HW137892   0.442   1.768   7.340 -1.3699  1.3260 -1.9931
 8810SOL    HW237893   0.402   1.846   7.449 -1.4255 -1.4319 -0.4483
 8811SOL     OW37894   2.180   2.099  13.207 -0.6823 -0.5310  0.0297
 8811SOL    HW137895   2.100   2.137  13.169  0.1337  1.4104  0.2222
 8811SOL    HW237896   2.245   2.167  13.189 -0.2043 -0.8161  0.7140
 8812SOL     OW37897   0.524   3.556   2.630  0.0396 -0.2828  0.1167
 8812SOL    HW137898   0.484   3.642   2.644  0.3745 -0.0966 -0.0819
 8812SOL    HW237899   0.479   3.542   2.547  1.5869  1.2996 -0.9764
 8813SOL     OW37900   0.343   0.853   8.881 -0.4493  0.2214 -0.0793
 8813SOL    HW137901   0.427   0.865   8.924 -0.2349  0.3184 -0.5246
 8813SOL    HW237902   0.368   0.873   8.790 -0.2226 -1.9727 -0.5096
 8814SOL     OW37903   0.455   1.851  10.536 -0.8908 -0.1015 -0.7762
 8814SOL    HW137904   0.539   1.806  10.533 -1.5779 -1.4241 -0.2831
 8814SOL    HW237905   0.475   1.941  10.510  0.4066  0.0793  0.8792
 8815SOL     OW37906   2.765   1.000  12.239  0.1248 -0.0618  0.5423
 8815SOL    HW137907   2.840   0.955  12.199  0.7435  1.4433  0.0137
 8815SOL    HW237908   2.736   0.956  12.319 -2.1358  0.3057 -0.0780
 8816SOL     OW37909   3.933   1.831  12.451 -0.2391 -0.0198  0.1578
 8816SOL    HW137910   3.913   1.913  12.405 -0.7773  0.7544  1.7782
 8816SOL    HW237911   3.850   1.793  12.478 -0.1418  2.0190  3.2632
 8817SOL     OW37912   3.717   2.008   3.822  0.1015 -0.2215 -0.2877
 8817SOL    HW137913   3.692   2.085   3.874  0.4056  0.2561 -0.8460
 8817SOL    HW237914   3.750   1.949   3.890  1.3865  0.3092 -0.4508
 8818SOL     OW37915   4.461   2.044   3.270 -0.1960  0.3099  0.1588
 8818SOL    HW137916   4.526   1.997   3.218 -0.4942 -0.2386  0.2889
 8818SOL    HW237917   4.391   1.980   3.262  0.3346 -0.2892  0.3373
 8819SOL     OW37918   4.283   3.207  12.342 -0.0512 -0.7325  0.3649
 8819SOL    HW137919   4.241   3.287  12.373 -0.0849 -1.0397  1.1111
 8819SOL    HW237920   4.208   3.165  12.301 -0.0892 -0.5861  0.2867
 8820SOL     OW37921   2.285   0.797  13.555 -0.1055  0.4078  0.1616
 8820SOL    HW137922   2.306   0.882  13.518  0.7425 -0.0162 -0.3295
 8820SOL    HW237923   2.362   0.745  13.534  0.5874  1.4748  0.0519
 8821SOL     OW37924   3.310   3.248   3.478  0.1587 -0.1035 -0.3064
 8821SOL    HW137925   3.315   3.325   3.535 -1.7714 -0.5705  0.5075
 8821SOL    HW237926   3.274   3.292   3.401  0.3509 -0.5493 -0.6513
 8822SOL     OW37927   3.475   1.387   8.693  0.2315 -0.9925 -0.1361
 8822SOL    HW137928   3.386   1.354   8.701 -0.2846 -0.0834 -2.1864
 8822SOL    HW237929   3.489   1.409   8.785  1.1551 -1.3668 -0.1795
 8823SOL     OW37930   0.590   4.317   6.815  0.1939 -0.4193  0.1332
 8823SOL    HW137931   0.525   4.289   6.879 -1.0469 -1.2665 -1.5039
 8823SOL    HW237932   0.575   4.261   6.739  1.2398 -0.0620 -0.3440
 8824SOL     OW37933   1.537   1.699   8.367  0.4641 -0.5912 -0.4162
 8824SOL    HW137934   1.443   1.709   8.352  0.2353  0.2180  1.5395
 8824SOL    HW237935   1.535   1.603   8.363  0.2087 -0.5682 -0.8088
 8825SOL     OW37936   0.896   3.712   0.020  0.0490  0.4820 -0.0453
 8825SOL    HW137937   0.851   3.744   0.099  0.9993  0.5517  0.4675
 8825SOL    HW237938   0.840   3.637   0.002 -0.0257  1.0260 -2.0671
 8826SOL     OW37939   4.650   4.503   8.983 -0.1107  0.1195  0.2196
 8826SOL    HW137940   4.559   4.477   8.995 -0.0882 -1.2276 -2.5059
 8826SOL    HW237941   4.699   4.422   9.000  0.4873  0.7298  1.4234
 8827SOL     OW37942   1.366   1.557  11.124 -0.1047 -0.1785  0.3605
 8827SOL    HW137943   1.379   1.496  11.197  3.6835  0.6797  0.3746
 8827SOL    HW237944   1.317   1.496  11.070 -0.5711  0.2888  0.2533
 8828SOL     OW37945   2.010   0.601  14.299 -0.1328  0.4602 -0.0991
 8828SOL    HW137946   2.088   0.620  14.350 -0.2605 -0.6959  0.5052
 8828SOL    HW237947   2.051   0.588  14.213  0.2451 -0.4232  0.2154
 8829SOL     OW37948   1.667   2.178  16.560  0.3373  0.5495  0.3749
 8829SOL    HW137949   1.661   2.145  16.470  1.2965  2.0964 -0.2686
 8829SOL    HW237950   1.652   2.272  16.551 -0.7965  0.4177  1.0039
 8830SOL     OW37951   1.362   1.767   4.445 -0.4067 -0.4515  0.6575
 8830SOL    HW137952   1.379   1.821   4.367  1.2854 -3.0193 -0.7481
 8830SOL    HW237953   1.453   1.764   4.476  0.3922 -1.0113 -1.7773
 8831SOL     OW37954   3.883   0.606   4.365 -0.5529  0.2581 -0.2432
 8831SOL    HW137955   3.888   0.696   4.332 -0.9257  0.3465 -0.0619
 8831SOL    HW237956   3.897   0.550   4.289  0.6614 -3.0368  2.4226
 8832SOL     OW37957   3.863   3.235  13.775 -0.2126 -1.0093 -0.1983
 8832SOL    HW137958   3.896   3.179  13.844  2.2057  0.3743 -0.2239
 8832SOL    HW237959   3.779   3.261  13.811 -0.1843 -2.0076  0.5829
 8833SOL     OW37960   3.421   4.561  10.336 -0.0457 -0.1254  0.1840
 8833SOL    HW137961   3.442   4.610  10.257  2.9796 -1.4312  0.1498
 8833SOL    HW237962   3.459   4.476  10.314  0.0992 -0.1939  0.6865
 8834SOL     OW37963   3.100   3.146   7.074 -0.0832  0.6151  0.7244
 8834SOL    HW137964   3.045   3.101   7.138  0.7901 -0.9267  0.3876
 8834SOL    HW237965   3.158   3.201   7.127 -1.0584  1.1217  1.2689
 8835SOL     OW37966   1.161   0.856   8.253 -0.0653 -0.3728 -0.4531
 8835SOL    HW137967   1.089   0.876   8.194 -0.2424  0.0726 -0.0922
 8835SOL    HW237968   1.126   0.902   8.330  0.8890 -1.9009  0.8869
 8836SOL     OW37969   2.114   1.203   3.320  0.2170  0.5724  0.0109
 8836SOL    HW137970   2.149   1.211   3.409 -1.8662  2.2317  0.6717
 8836SOL    HW237971   2.114   1.292   3.285 -2.9836  0.5221 -0.1431
 8837SOL     OW37972   4.325   0.479  14.515  0.0040 -0.6558 -0.1170
 8837SOL    HW137973   4.302   0.397  14.559 -2.1075 -1.0719 -2.0230
 8837SOL    HW237974   4.278   0.536  14.576 -1.7084 -1.6800 -0.5023
 8838SOL     OW37975   3.607   4.211   7.162 -0.4328 -0.4877  0.3952
 8838SOL    HW137976   3.578   4.269   7.092 -1.4279 -1.3423  0.1106
 8838SOL    HW237977   3.698   4.203   7.132 -0.8655  1.2387 -1.3275
 8839SOL     OW37978   0.682   4.128  11.856 -0.4305  0.1056  0.2135
 8839SOL    HW137979   0.690   4.044  11.811  0.0993  0.4709 -0.3668
 8839SOL    HW237980   0.587   4.136  11.863 -0.6064  0.5111 -2.7734
 8840SOL     OW37981   1.752   2.419   3.027 -0.0895 -0.1704  0.3035
 8840SOL    HW137982   1.750   2.513   3.046  1.9087 -0.0183 -0.2820
 8840SOL    HW237983   1.699   2.415   2.948 -0.3108 -0.1791  0.4528
 8841SOL     OW37984   3.257   1.271   5.740  0.0281 -0.8991 -0.0315
 8841SOL    HW137985   3.213   1.203   5.791  1.8240 -3.6300 -2.1064
 8841SOL    HW237986   3.351   1.260   5.758 -0.2193 -1.0632  1.2070
 8842SOL     OW37987   0.522   3.422   5.655 -0.3864 -0.5408  0.0210
 8842SOL    HW137988   0.613   3.441   5.676 -0.2839 -1.2563  0.2183
 8842SOL    HW237989   0.519   3.334   5.691 -2.1977 -0.4459  0.0932
 8843SOL     OW37990   3.654   1.146   6.820 -0.1303  0.1020 -0.4576
 8843SOL    HW137991   3.561   1.157   6.837  0.2631  1.4215  0.8228
 8843SOL    HW237992   3.688   1.225   6.862  0.8019 -0.7521  0.4141
 8844SOL     OW37993   1.134   1.564   8.895  0.1671  0.7826  0.2050
 8844SOL    HW137994   1.141   1.616   8.815  0.2721  1.6024  0.7466
 8844SOL    HW237995   1.099   1.620   8.965 -1.6642 -1.7276  1.2853
 8845SOL     OW37996   1.306   2.955   9.572  0.2119  0.2411 -0.0253
 8845SOL    HW137997   1.334   2.994   9.489  0.2106  0.6844  0.1851
 8845SOL    HW237998   1.238   2.900   9.534  0.6187  0.2419 -0.7648
 8846SOL     OW37999   3.951   4.320  11.400  0.1841 -0.0596  0.3513
 8846SOL    HW138000   3.913   4.268  11.470  1.7591 -0.6484  0.7767
 8846SOL    HW238001   3.983   4.393  11.453  0.2641  0.7763 -0.8411
 8847SOL     OW38002   3.149   1.166   8.997 -0.3188  0.8843  0.1944
 8847SOL    HW138003   3.191   1.174   9.082  0.3670  0.0981 -0.0732
 8847SOL    HW238004   3.214   1.204   8.938  0.0430 -1.7033 -1.1177
 8848SOL     OW38005   3.560   3.304   0.345  0.1268  0.0827  0.0699
 8848SOL    HW138006   3.562   3.360   0.423  2.0576 -0.4092  0.3794
 8848SOL    HW238007   3.653   3.318   0.326  0.0324 -1.7867 -1.7737
 8849SOL     OW38008   0.287   2.010  14.171  0.0554  0.2501  0.5422
 8849SOL    HW138009   0.247   2.065  14.103 -0.5752 -1.6159 -0.5951
 8849SOL    HW238010   0.371   1.988  14.130  0.0618  0.5091  0.4149
 8850SOL     OW38011   0.590   0.337   3.504 -0.5174  0.0548  0.2041
 8850SOL    HW138012   0.597   0.266   3.567  1.8577 -0.8455 -1.0790
 8850SOL    HW238013   0.654   0.399   3.538 -2.4391  3.0143 -1.4805
 8851SOL     OW38014   2.507   0.587  14.121 -0.2622 -0.1164 -0.1928
 8851SOL    HW138015   2.599   0.563  14.132  0.3400  2.4249  0.2673
 8851SOL    HW238016   2.509   0.678  14.091  0.7505 -0.6810 -1.8834
 8852SOL     OW38017   3.603   2.201   8.487  0.2379 -0.4244  0.1986
 8852SOL    HW138018   3.552   2.281   8.498 -0.2872 -0.7182 -0.1209
 8852SOL    HW238019   3.539   2.134   8.510 -1.4169  1.0339 -0.2279
 8853SOL     OW38020   2.839   0.926   2.458  0.2819  0.2367 -0.5611
 8853SOL    HW138021   2.756   0.974   2.457 -0.3382 -0.8170  0.4916
 8853SOL    HW238022   2.808   0.849   2.409 -1.1390  1.0723 -0.9880
 8854SOL     OW38023   2.740   3.032   2.581  0.4423  0.0953  0.4628
 8854SOL    HW138024   2.740   2.955   2.637 -3.4616 -0.5031 -0.3593
 8854SOL    HW238025   2.753   3.107   2.638  1.5900  0.2945 -0.0563
 8855SOL     OW38026   4.135   1.390  11.036  0.2845 -0.3034  0.0237
 8855SOL    HW138027   4.228   1.381  11.056  0.2626 -2.0155 -0.7041
 8855SOL    HW238028   4.125   1.360  10.946 -2.1532  0.0543  0.1610
 8856SOL     OW38029   1.980   2.760   7.901  0.3781  0.0293 -0.0931
 8856SOL    HW138030   1.948   2.790   7.816  0.2608  1.2400  0.3675
 8856SOL    HW238031   2.064   2.805   7.910  0.8547 -0.7880 -0.4643
 8857SOL     OW38032   4.227   1.334   0.844  0.5910  0.7076 -0.5089
 8857SOL    HW138033   4.198   1.336   0.935  0.2010 -1.6006 -0.5751
 8857SOL    HW238034   4.150   1.377   0.807  0.8062  1.6304  0.1150
 8858SOL     OW38035   2.522   2.149   6.934 -0.4342 -0.4674  0.4526
 8858SOL    HW138036   2.589   2.111   6.992  0.7041  0.3130 -0.3344
 8858SOL    HW238037   2.466   2.203   6.989 -1.2577 -2.0624  1.1789
 8859SOL     OW38038   4.257   0.965   5.223  0.2103 -0.0348  0.2097
 8859SOL    HW138039   4.345   0.968   5.186 -0.3187  1.9530 -0.9048
 8859SOL    HW238040   4.278   0.940   5.313  1.1891  1.8396  0.4919
 8860SOL     OW38041   3.829   0.560  14.624 -0.4203 -0.4072 -0.2988
 8860SOL    HW138042   3.796   0.573  14.713  0.6038 -0.3667  0.0780
 8860SOL    HW238043   3.921   0.542  14.646 -0.3368  1.1131  0.5916
 8861SOL     OW38044   0.445   3.788   1.596 -0.0840  0.3181 -0.0756
 8861SOL    HW138045   0.390   3.767   1.521  0.1321 -1.1203  0.1706
 8861SOL    HW238046   0.503   3.712   1.602  1.5839  1.4657 -1.6861
 8862SOL     OW38047   0.171   0.548   5.430 -0.1262 -0.0568 -0.5666
 8862SOL    HW138048   0.111   0.586   5.367 -4.3041 -2.2528  2.0855
 8862SOL    HW238049   0.242   0.613   5.431 -0.6116  0.4365  1.3476
 8863SOL     OW38050   2.832   3.949  15.972 -0.1405  0.3794  0.2249
 8863SOL    HW138051   2.763   3.935  16.036 -0.4445  0.5112 -0.0716
 8863SOL    HW238052   2.809   4.042  15.965 -0.6679  0.2069 -0.3990
 8864SOL     OW38053   2.237   3.104   6.183 -0.2265 -0.0647 -0.0111
 8864SOL    HW138054   2.198   3.020   6.158 -1.5876  0.4323  0.4098
 8864SOL    HW238055   2.227   3.089   6.277 -1.2546 -0.1725 -0.1339
 8865SOL     OW38056   4.703   2.786  14.774  1.0039 -0.5167 -0.0279
 8865SOL    HW138057   4.679   2.741  14.693 -2.8483  0.3011  0.6439
 8865SOL    HW238058   0.013   2.867  14.735 -0.9324  1.0283  1.5090
 8866SOL     OW38059   1.120   0.684   9.036 -0.2385 -0.4028 -0.3707
 8866SOL    HW138060   1.126   0.764   8.985  2.3730 -0.0700  0.4491
 8866SOL    HW238061   1.025   0.686   9.047 -0.4389 -0.6088 -2.0908
 8867SOL     OW38062   4.162   0.107   5.705  0.4936 -0.4749  0.6706
 8867SOL    HW138063   4.232   0.108   5.639 -0.2419  2.5115 -0.0870
 8867SOL    HW238064   4.105   0.154   5.644  1.0377  0.0438  0.5568
 8868SOL     OW38065   0.522   3.219   6.708  0.0354 -0.2003  0.3958
 8868SOL    HW138066   0.569   3.280   6.652  0.7288 -0.2524  0.9161
 8868SOL    HW238067   0.456   3.272   6.752  1.3474  2.8536 -1.3911
 8869SOL     OW38068   1.999   1.910   8.034 -0.0183  0.0157  0.0506
 8869SOL    HW138069   2.006   1.906   8.130 -2.0105 -4.5401  0.0289
 8869SOL    HW238070   1.910   1.878   8.016  0.5475 -2.1799  1.0885
 8870SOL     OW38071   1.989   3.729  11.354 -0.2535 -0.0034  0.1497
 8870SOL    HW138072   2.037   3.717  11.273 -1.0105 -2.0020 -0.0053
 8870SOL    HW238073   1.900   3.713  11.322 -0.4513 -0.1340  0.7578
 8871SOL     OW38074   3.538   0.799  11.770  0.0570  0.8366  0.2328
 8871SOL    HW138075   3.545   0.856  11.847  0.0313 -0.9880  1.5972
 8871SOL    HW238076   3.619   0.747  11.769  1.4045  2.9983 -1.7231
 8872SOL     OW38077   3.088   1.520   8.394 -0.0314  0.0740  0.5505
 8872SOL    HW138078   3.116   1.604   8.430 -3.0990  1.3026  0.0266
 8872SOL    HW238079   3.081   1.541   8.301  2.2901 -1.4798  0.0328
 8873SOL     OW38080   0.461   0.362   2.867  0.0203  0.0312 -0.4881
 8873SOL    HW138081   0.497   0.337   2.782  2.1727 -1.8221  0.9506
 8873SOL    HW238082   0.487   0.453   2.875 -0.6575  0.0864  1.1082
 8874SOL     OW38083   4.498   4.683  14.696  0.3297  0.2523 -0.5837
 8874SOL    HW138084   4.492   4.670  14.790  1.3494 -0.1331 -0.5739
 8874SOL    HW238085   4.521   0.053  14.692 -0.7903  0.5108 -0.7879
 8875SOL     OW38086   4.179   0.250   9.490  0.1666  0.2707  0.1418
 8875SOL    HW138087   4.240   0.319   9.516  0.9975 -0.3686 -0.0936
 8875SOL    HW238088   4.157   0.281   9.402  0.0573  1.7172  0.6803
 8876SOL     OW38089   4.040   2.282   2.592 -0.1239 -0.6272  0.8702
 8876SOL    HW138090   4.130   2.262   2.615  1.7116  2.5471 -3.4370
 8876SOL    HW238091   3.990   2.233   2.657 -2.6503  0.1661 -0.4404
 8877SOL     OW38092   1.219   3.733   2.864  0.5284  0.5963  0.1329
 8877SOL    HW138093   1.197   3.814   2.818  1.4361  0.6432 -0.2201
 8877SOL    HW238094   1.172   3.672   2.809 -1.5487  0.7050  1.7894
 8878SOL     OW38095   1.030   3.751   4.937 -0.3698  0.0651  0.2065
 8878SOL    HW138096   0.980   3.739   5.017 -1.2190  0.6147 -0.2362
 8878SOL    HW238097   0.993   3.833   4.906  0.1277  0.1785 -0.0906
 8879SOL     OW38098   3.385   2.130   7.928  0.1789 -0.0968  0.7047
 8879SOL    HW138099   3.424   2.212   7.959 -0.4942  0.0963  1.0484
 8879SOL    HW238100   3.422   2.118   7.840  2.5591 -1.0412  1.8459
 8880SOL     OW38101   0.605   0.383   4.299 -0.2097 -0.5121 -0.1113
 8880SOL    HW138102   0.648   0.420   4.375  0.1966 -0.1096 -0.5355
 8880SOL    HW238103   0.569   0.461   4.257 -0.6991 -0.3134  0.6862
 8881SOL     OW38104   0.686   0.728   5.198  0.1173  0.2307 -0.3886
 8881SOL    HW138105   0.590   0.726   5.204  0.1169  0.7910 -0.1842
 8881SOL    HW238106   0.705   0.767   5.283  1.0564 -0.3841 -0.3179
 8882SOL     OW38107   2.310   1.669   3.438 -0.4100  0.1014  0.2774
 8882SOL    HW138108   2.250   1.741   3.456  0.0406  0.4626  0.3378
 8882SOL    HW238109   2.392   1.706   3.471  0.0653  0.6218 -1.5041
 8883SOL     OW38110   4.249   2.744  13.316 -0.2037 -0.4939 -0.1371
 8883SOL    HW138111   4.183   2.674  13.308 -0.3763 -0.3921  0.4196
 8883SOL    HW238112   4.280   2.712  13.401  1.2252  0.1855 -0.4165
 8884SOL     OW38113   0.212   3.616  13.774 -0.1162  0.2512  0.1888
 8884SOL    HW138114   0.229   3.556  13.847  0.1755  2.1904  1.6970
 8884SOL    HW238115   0.177   3.551  13.713 -0.1784  1.4169 -0.9971
 8885SOL     OW38116   3.684   0.902   2.461 -0.7581  0.2791 -0.1953
 8885SOL    HW138117   3.670   0.864   2.374 -0.1080 -0.4406  0.0146
 8885SOL    HW238118   3.603   0.953   2.470 -0.7200  0.0463  1.4772
 8886SOL     OW38119   4.479   4.619   2.692  0.2781  0.3288  0.0776
 8886SOL    HW138120   4.534   4.667   2.630 -1.3127  1.4636 -0.4663
 8886SOL    HW238121   4.492   4.678   2.766  0.4926  0.9601 -0.4692
 8887SOL     OW38122   3.254   0.977   9.273 -0.4185 -0.6331  0.4696
 8887SOL    HW138123   3.226   0.947   9.187 -1.5444 -0.4643  0.7859
 8887SOL    HW238124   3.278   1.068   9.257 -1.4627 -0.5434 -0.5167
 8888SOL     OW38125   0.193   0.067  11.341  0.3807 -0.3114  0.1714
 8888SOL    HW138126   0.213   0.101  11.428 -0.1915 -0.9910  0.5704
 8888SOL    HW238127   0.269   0.101  11.294  0.2046  1.0021  0.8196
 8889SOL     OW38128   2.160   2.880   8.770 -0.0136 -0.4398  0.5083
 8889SOL    HW138129   2.247   2.913   8.751  0.4820 -0.8138  2.1560
 8889SOL    HW238130   2.136   2.939   8.841  0.1136  1.0264 -0.6811
 8890SOL     OW38131   2.381   4.035   6.875  0.2184 -0.1544 -0.4892
 8890SOL    HW138132   2.324   3.980   6.821  0.4671 -1.8697  0.9885
 8890SOL    HW238133   2.436   4.074   6.807  0.0317 -2.2011 -1.8217
 8891SOL     OW38134   2.234   1.927   7.335 -0.3466 -0.5380  0.2406
 8891SOL    HW138135   2.156   1.871   7.331 -0.0712 -1.0431  1.8014
 8891SOL    HW238136   2.204   2.013   7.363  2.2432  1.1263 -2.2124
 8892SOL     OW38137   3.542   1.847   7.587 -0.3622  0.3288  0.2239
 8892SOL    HW138138   3.621   1.883   7.547 -0.8605 -0.1400 -1.1926
 8892SOL    HW238139   3.526   1.774   7.527 -0.7572  1.8530 -1.5320
 8893SOL     OW38140   0.632   2.519   7.490  0.1019 -0.0500 -0.1939
 8893SOL    HW138141   0.626   2.423   7.490  3.2337 -0.2493 -2.3086
 8893SOL    HW238142   0.566   2.537   7.557 -1.3296  1.9253 -2.1428
 8894SOL     OW38143   0.823   3.255   6.411 -0.1611 -0.3691 -0.3695
 8894SOL    HW138144   0.760   3.313   6.369 -1.2150 -0.4618  1.0747
 8894SOL    HW238145   0.786   3.176   6.371  1.9541 -1.3845 -0.2997
 8895SOL     OW38146   2.336   1.291   5.655 -0.2826 -0.2105 -0.0187
 8895SOL    HW138147   2.315   1.312   5.564  0.4431 -1.4055 -0.4498
 8895SOL    HW238148   2.267   1.345   5.694  0.5119  0.2495  0.7470
 8896SOL     OW38149   1.737   0.336   6.952 -0.7341  0.2729  0.5349
 8896SOL    HW138150   1.667   0.317   6.888  0.3334 -0.0982 -0.5201
 8896SOL    HW238151   1.744   0.431   6.960 -0.8450  0.4638 -1.5163
 8897SOL     OW38152   3.587   2.717   5.961 -0.1490  0.0356 -0.2052
 8897SOL    HW138153   3.586   2.733   5.867  0.2865 -2.8314 -0.7129
 8897SOL    HW238154   3.680   2.735   5.973  0.0207 -1.7710  1.2552
 8898SOL     OW38155   2.798   2.332  15.717  0.2824  0.0341 -0.7981
 8898SOL    HW138156   2.740   2.408  15.711  1.0741  0.6455 -0.8810
 8898SOL    HW238157   2.863   2.343  15.647  0.5240 -1.5427 -0.8198
 8899SOL     OW38158   4.227   0.588   4.998  0.2453 -0.4421  0.0975
 8899SOL    HW138159   4.172   0.644   5.053  1.7591  0.2654  0.8868
 8899SOL    HW238160   4.182   0.582   4.914 -1.9130 -2.3472  1.3599
 8900SOL     OW38161   2.750   4.642   4.768 -0.3808 -0.2713  0.4402
 8900SOL    HW138162   2.804   4.617   4.844  0.5302 -1.0953 -0.4725
 8900SOL    HW238163   2.758   0.014   4.770 -0.8443 -0.2274  0.2511
 8901SOL     OW38164   2.527   2.093   6.668 -0.0343 -0.6013  0.3083
 8901SOL    HW138165   2.605   2.044   6.693  0.7550  0.7191  0.4431
 8901SOL    HW238166   2.492   2.126   6.751 -2.4034 -1.4040 -0.3607
 8902SOL     OW38167   1.423   0.862  14.478 -0.1178 -0.1991  0.6169
 8902SOL    HW138168   1.504   0.891  14.521 -1.9614  2.4278  2.2881
 8902SOL    HW238169   1.358   0.925  14.509  0.2176  1.6239 -2.2973
 8903SOL     OW38170   1.615   1.414  10.186  1.0252 -0.3375 -0.0664
 8903SOL    HW138171   1.673   1.348  10.147  1.2023 -0.9486  1.2218
 8903SOL    HW238172   1.545   1.402  10.121 -2.4290  0.5440  3.4606
 8904SOL     OW38173   2.113   4.112  15.953 -0.4524 -0.3606  0.2423
 8904SOL    HW138174   2.190   4.055  15.942 -1.1917 -0.9634 -1.8499
 8904SOL    HW238175   2.156   4.174  16.011 -0.5934 -1.2493  1.2990
 8905SOL     OW38176   3.799   3.820   0.387  0.3047  0.6581  0.1882
 8905SOL    HW138177   3.873   3.876   0.364  0.8374 -0.6035 -1.1853
 8905SOL    HW238178   3.771   3.800   0.298  0.3572  0.5135  0.2041
 8906SOL     OW38179   0.239   1.143   7.673 -0.2319 -0.1194 -0.5077
 8906SOL    HW138180   0.260   1.159   7.765 -0.0312 -1.1775 -0.3699
 8906SOL    HW238181   0.147   1.116   7.674 -0.3928  0.4240 -0.2751
 8907SOL     OW38182   0.939   2.042   4.545 -0.4855  0.0207  0.2733
 8907SOL    HW138183   0.917   2.117   4.489  0.4597 -0.8404 -1.2342
 8907SOL    HW238184   0.881   1.974   4.509 -2.8995  1.9386  0.5091
 8908SOL     OW38185   3.059   1.404   9.306  0.4527  0.6846 -0.6592
 8908SOL    HW138186   3.064   1.496   9.281 -0.3957  1.4199  1.9184
 8908SOL    HW238187   2.975   1.388   9.263  0.4702 -0.9096 -0.0798
 8909SOL     OW38188   2.208   1.414   6.833  0.4031 -0.4700 -0.6378
 8909SOL    HW138189   2.219   1.476   6.761  1.3938 -0.1403 -0.1986
 8909SOL    HW238190   2.127   1.371   6.806 -0.3825 -0.1466  1.2540
 8910SOL     OW38191   3.364   2.102   3.985  0.4143 -0.0654 -0.5276
 8910SOL    HW138192   3.398   2.064   4.066  2.2196 -0.8540 -1.6452
 8910SOL    HW238193   3.441   2.154   3.959  0.8664 -0.4189  0.1094
 8911SOL     OW38194   2.441   2.469   9.637 -0.1305  0.0841  0.4283
 8911SOL    HW138195   2.535   2.454   9.640 -0.0265  0.7484  0.5180
 8911SOL    HW238196   2.419   2.495   9.726 -3.6232 -1.4875  0.0548
 8912SOL     OW38197   1.372   3.291  13.412  0.1128 -0.5369  0.5255
 8912SOL    HW138198   1.399   3.307  13.322  3.5490  0.4628  1.7247
 8912SOL    HW238199   1.322   3.211  13.398 -1.5807  0.7333 -0.6618
 8913SOL     OW38200   1.439   4.169  10.251 -0.1767 -0.5492 -0.5236
 8913SOL    HW138201   1.426   4.257  10.214 -2.3817 -0.0650  1.3617
 8913SOL    HW238202   1.430   4.110  10.176 -0.8038 -0.3018 -0.6495
 8914SOL     OW38203   1.893   2.475   3.421  0.1773 -0.1471  0.3056
 8914SOL    HW138204   1.837   2.413   3.373  0.7207 -0.7332  0.4232
 8914SOL    HW238205   1.821   2.531   3.453 -0.1577 -1.1267  1.2911
 8915SOL     OW38206   0.673   4.504   4.442  0.8136  0.1675 -0.0140
 8915SOL    HW138207   0.730   4.581   4.440  2.7895 -1.2254  2.4354
 8915SOL    HW238208   0.602   4.530   4.384  0.2440 -2.0203 -0.2788
 8916SOL     OW38209   3.223   3.091   0.748 -0.1905  0.0717  0.8099
 8916SOL    HW138210   3.310   3.050   0.752  0.7346  2.1766  2.3106
 8916SOL    HW238211   3.251   3.181   0.734 -0.8036  0.7473  3.9627
 8917SOL     OW38212   0.439   4.401   8.711 -0.1261  0.3537 -0.1531
 8917SOL    HW138213   0.405   4.319   8.674  0.1786 -0.2620  0.9291
 8917SOL    HW238214   0.501   4.378   8.780  0.8043  0.3579 -0.9965
 8918SOL     OW38215   2.171   2.593   1.865  0.2701 -0.1644  0.2913
 8918SOL    HW138216   2.224   2.556   1.794  0.8580 -0.3156  0.8146
 8918SOL    HW238217   2.126   2.519   1.906 -2.6472 -1.3887 -5.0356
 8919SOL     OW38218   3.521   3.889   6.951 -0.1146  0.0053  0.5940
 8919SOL    HW138219   3.501   3.826   6.882 -3.3133  0.0352  1.4762
 8919SOL    HW238220   3.431   3.921   6.958  0.4941  1.8397 -0.1805
 8920SOL     OW38221   1.469   0.607   7.510  0.1571 -0.5429 -0.1732
 8920SOL    HW138222   1.418   0.682   7.540  1.4724 -0.3731  1.6596
 8920SOL    HW238223   1.542   0.642   7.459  1.4100 -1.8668  0.7263
 8921SOL     OW38224   3.028   0.439   4.383 -0.3481  0.2912  0.2335
 8921SOL    HW138225   2.966   0.366   4.389 -0.7098  0.4922 -1.1510
 8921SOL    HW238226   2.966   0.489   4.332  1.7350  4.3875  1.6953
 8922SOL     OW38227   1.478   4.597   0.464 -0.4317 -0.4635 -0.1938
 8922SOL    HW138228   1.411   4.665   0.454  0.1610  0.3348  1.2651
 8922SOL    HW238229   1.453   4.565   0.550  1.7287  0.2930  0.6955
 8923SOL     OW38230   1.687   3.742  16.746 -0.0369 -0.2230 -0.6250
 8923SOL    HW138231   1.629   3.798  16.797 -0.3677 -0.9278 -0.2322
 8923SOL    HW238232   1.721   3.811  16.688 -1.0155  1.1414  0.4419
 8924SOL     OW38233   0.834   2.236  12.953 -0.0495  0.0142  0.0652
 8924SOL    HW138234   0.797   2.284  12.878  1.8294 -2.2593 -2.3409
 8924SOL    HW238235   0.881   2.300  13.005  1.7564 -0.4882 -0.9508
 8925SOL     OW38236   3.029   1.022   3.531  0.4942  0.1251 -0.2783
 8925SOL    HW138237   2.998   1.102   3.489  1.9591  0.9083  0.1285
 8925SOL    HW238238   3.123   1.039   3.536  0.8326 -2.1560  1.1595
 8926SOL     OW38239   4.158   3.388   3.420 -0.1012 -0.0339 -0.9176
 8926SOL    HW138240   4.152   3.481   3.398 -0.4771  0.2695  0.4257
 8926SOL    HW238241   4.250   3.372   3.440  0.4303  0.3004 -3.1432
 8927SOL     OW38242   2.457   0.555  13.590 -0.3751 -0.1386  0.0871
 8927SOL    HW138243   2.475   0.596  13.675  2.3440  0.0166 -0.5796
 8927SOL    HW238244   2.368   0.523  13.601  0.0033 -1.0702  0.4219
 8928SOL     OW38245   2.457   0.098   5.750  0.0519 -0.1607  0.7649
 8928SOL    HW138246   2.474   0.163   5.819  1.1473  0.0054  0.3337
 8928SOL    HW238247   2.546   0.072   5.726  0.4921  0.3119  1.8665
 8929SOL     OW38248   1.892   0.781   5.510  0.3997 -0.8208 -0.5354
 8929SOL    HW138249   1.852   0.826   5.435  1.2509 -0.8611 -1.0087
 8929SOL    HW238250   1.948   0.848   5.550 -0.5978  0.4439 -1.2788
 8930SOL     OW38251   1.038   2.743   2.702 -0.2879  0.5171 -0.3835
 8930SOL    HW138252   0.947   2.733   2.674  0.1136 -0.3850 -1.3693
 8930SOL    HW238253   1.048   2.702   2.788  1.2287  0.8319 -0.4067
 8931SOL     OW38254   3.907   3.036   5.940 -0.5363  0.3536  0.4694
 8931SOL    HW138255   3.845   3.066   5.874  1.1738  1.5641 -0.5873
 8931SOL    HW238256   3.912   3.115   5.994 -0.3011  0.8499 -0.2890
 8932SOL     OW38257   4.082   0.175   4.696  0.0609  0.5381 -0.1022
 8932SOL    HW138258   4.159   0.217   4.657  0.3870 -1.1108 -1.2147
 8932SOL    HW238259   4.120   0.088   4.693 -1.0167 -0.0273  2.3771
 8933SOL     OW38260   1.705   4.651  17.152  0.2066  0.2964 -0.4918
 8933SOL    HW138261   1.687   4.673  17.243  0.1025 -0.2003 -0.3939
 8933SOL    HW238262   1.624   4.662  17.101  1.1988 -1.1314 -2.3849
 8934SOL     OW38263   2.918   2.242   7.839 -0.8821  0.1279  0.3418
 8934SOL    HW138264   2.837   2.254   7.888 -0.4724  0.6091  0.8955
 8934SOL    HW238265   2.877   2.246   7.752 -2.6694  1.4357  1.2249
 8935SOL     OW38266   0.952   1.031   6.140  0.4610 -0.1593 -0.2191
 8935SOL    HW138267   0.880   1.066   6.088 -0.4444  0.0673  1.1865
 8935SOL    HW238268   0.941   0.936   6.131  0.7636 -0.0502 -1.7890
 8936SOL     OW38269   1.878   2.612  13.264 -0.0655 -0.1066  0.1555
 8936SOL    HW138270   1.907   2.703  13.266 -2.0396  0.5160  0.3119
 8936SOL    HW238271   1.912   2.577  13.346 -0.2381  0.6953  0.5715
 8937SOL     OW38272   1.648   0.768   2.747  0.4100  0.5561  0.1553
 8937SOL    HW138273   1.626   0.755   2.655  0.1263  0.1966  0.2732
 8937SOL    HW238274   1.698   0.688   2.765  1.5653  1.4574  0.9513
 8938SOL     OW38275   3.135   3.753   3.009  0.4161  0.1854  0.8427
 8938SOL    HW138276   3.197   3.679   3.005  1.1422  0.8817 -1.0427
 8938SOL    HW238277   3.164   3.816   2.943 -0.0718 -2.8344 -2.2878
 8939SOL     OW38278   3.971   1.339   9.371  0.8954 -1.0687 -0.4765
 8939SOL    HW138279   4.065   1.324   9.364  0.8725 -0.4560 -2.1857
 8939SOL    HW238280   3.952   1.373   9.283 -0.7807  0.2905  0.4249
 8940SOL     OW38281   4.659   0.674   2.814  0.0162 -0.0598 -0.0894
 8940SOL    HW138282   4.602   0.750   2.828  1.3616  0.9205 -0.0061
 8940SOL    HW238283   4.648   0.619   2.892 -2.4566 -0.2879 -0.6074
 8941SOL     OW38284   0.230   3.529   4.299 -0.1461  0.1931  0.9089
 8941SOL    HW138285   0.302   3.550   4.240 -0.8380  1.1672  0.4066
 8941SOL    HW238286   0.209   3.620   4.322 -1.3445 -0.0149  0.5992
 8942SOL     OW38287   2.923   3.102   3.160  0.7893 -0.5772 -0.0763
 8942SOL    HW138288   2.905   3.028   3.102  0.6893 -1.3567  0.9706
 8942SOL    HW238289   2.977   3.148   3.096 -1.0443  0.4750 -0.9059
 8943SOL     OW38290   4.632   0.047   5.410  0.3342  0.8697  0.0485
 8943SOL    HW138291   4.654   0.121   5.466 -0.7608  1.1009  0.1692
 8943SOL    HW238292   4.710   0.035   5.355  1.6015 -1.5165  2.3861
 8944SOL     OW38293   2.520   1.430  13.815 -0.0742 -0.0565 -0.5962
 8944SOL    HW138294   2.554   1.519  13.815  0.3658 -0.2385  3.3425
 8944SOL    HW238295   2.581   1.382  13.871 -1.2404 -0.6896  0.1162
 8945SOL     OW38296   1.608   1.874  11.464 -0.1928  0.2674  0.1189
 8945SOL    HW138297   1.594   1.962  11.431  0.9093  1.1781  2.1054
 8945SOL    HW238298   1.583   1.822  11.387 -1.7511  0.7297  0.2989
 8946SOL     OW38299   3.379   3.868   7.747 -0.9176  0.0535 -0.0575
 8946SOL    HW138300   3.382   3.861   7.652 -1.0415  3.2538 -0.3149
 8946SOL    HW238301   3.355   3.776   7.759 -1.0135  0.0859 -0.0014
 8947SOL     OW38302   4.649   3.338   6.719 -0.6613 -0.5868 -0.0423
 8947SOL    HW138303   4.604   3.421   6.705 -1.4534 -1.4826 -2.7290
 8947SOL    HW238304   4.631   3.295   6.636  0.3263  1.5465 -1.3342
 8948SOL     OW38305   0.037   1.477   4.120 -0.6823  0.4865 -0.5078
 8948SOL    HW138306   0.061   1.466   4.212 -2.8329 -2.8303 -0.3458
 8948SOL    HW238307   0.105   1.541   4.097  0.8571 -1.6969 -2.0378
 8949SOL     OW38308   2.102   1.997   1.633  0.3032  0.3163  0.3621
 8949SOL    HW138309   2.066   2.002   1.545  0.8072 -1.7002  0.0378
 8949SOL    HW238310   2.148   1.913   1.633 -1.2392 -0.5265  0.7321
 8950SOL     OW38311   0.859   2.858   3.573 -0.0182  0.4970  0.4000
 8950SOL    HW138312   0.909   2.778   3.589 -1.3662 -0.6855 -1.2873
 8950SOL    HW238313   0.796   2.841   3.503  0.7049 -0.4128 -0.0269
 8951SOL     OW38314   0.158   3.065  15.452  0.2315 -0.0122 -0.5102
 8951SOL    HW138315   0.205   3.137  15.408  0.3112  0.9305  1.1064
 8951SOL    HW238316   0.123   3.029  15.371  2.0479  1.1513 -1.8229
 8952SOL     OW38317   1.141   2.311   5.834  0.7924 -0.3380  0.7824
 8952SOL    HW138318   1.105   2.309   5.923 -1.0577  0.4067  0.0500
 8952SOL    HW238319   1.063   2.269   5.799  0.8616  0.3287 -0.1658
 8953SOL     OW38320   3.204   2.430  16.845 -0.2443  0.4268 -0.1002
 8953SOL    HW138321   3.153   2.467  16.916 -2.2215 -0.9297 -0.7877
 8953SOL    HW238322   3.145   2.448  16.772  0.9491 -0.4271 -1.2722
 8954SOL     OW38323   1.797   2.008   4.228 -0.3029  0.2474 -0.1345
 8954SOL    HW138324   1.801   1.930   4.173 -0.3742 -0.1411  0.4094
 8954SOL    HW238325   1.823   1.979   4.316 -0.3480  1.4978  0.2857
 8955SOL     OW38326   4.609   3.093   5.592 -0.2848  0.6899  0.1101
 8955SOL    HW138327   4.627   3.125   5.504 -0.8900  0.1274 -0.2230
 8955SOL    HW238328   4.514   3.105   5.594 -0.5224 -1.0750 -0.6933
 8956SOL     OW38329   3.415   1.322   3.703  0.1656  0.5571 -0.2081
 8956SOL    HW138330   3.449   1.408   3.678  0.1884  0.4919 -0.4040
 8956SOL    HW238331   3.376   1.303   3.618  0.2587 -1.8681  0.2967
 8957SOL     OW38332   1.280   0.507   5.479 -0.5367 -0.5120 -0.3047
 8957SOL    HW138333   1.309   0.576   5.539  1.8060 -1.7052 -0.0877
 8957SOL    HW238334   1.207   0.478   5.533 -1.2741  0.2225 -0.9122
 8958SOL     OW38335   3.206   3.750   3.879 -0.1830  0.0977 -0.5352
 8958SOL    HW138336   3.152   3.672   3.893  2.4169 -1.1557  2.4237
 8958SOL    HW238337   3.210   3.750   3.784 -2.0620 -1.6403 -0.6215
 8959SOL     OW38338   3.026   3.160   6.350  0.0396  0.8090 -0.7260
 8959SOL    HW138339   3.066   3.094   6.293 -1.2576 -0.8345  0.2600
 8959SOL    HW238340   3.104   3.210   6.376  1.4412 -1.8098  0.2248
 8960SOL     OW38341   0.301   1.374   6.769  0.6077 -0.4433 -0.2154
 8960SOL    HW138342   0.383   1.399   6.811  0.6205  0.7209 -0.9293
 8960SOL    HW238343   0.274   1.466   6.761 -2.1224 -1.2229  0.1868
 8961SOL     OW38344   1.301   1.447   2.884  0.3335 -0.1934  0.0958
 8961SOL    HW138345   1.313   1.379   2.818 -0.1467 -2.0266  1.8990
 8961SOL    HW238346   1.258   1.509   2.825  0.2591 -1.7384 -1.5004
 8962SOL     OW38347   0.046   4.221  10.217 -0.2697 -0.1751  0.2266
 8962SOL    HW138348   0.026   4.145  10.271 -2.6929 -1.4049 -2.3740
 8962SOL    HW238349   0.120   4.262  10.262 -1.1132  1.9383 -0.2758
 8963SOL     OW38350   2.402   2.103   3.950 -0.2651 -0.4526 -0.0882
 8963SOL    HW138351   2.373   2.060   4.031 -0.4390  1.3201  0.7897
 8963SOL    HW238352   2.495   2.123   3.961 -0.2928 -0.3796  0.0170
 8964SOL     OW38353   3.129   2.741  16.227 -0.6168  0.2606  0.4178
 8964SOL    HW138354   3.196   2.793  16.272 -0.9413  1.4280 -0.4281
 8964SOL    HW238355   3.085   2.804  16.170 -0.8305 -0.0178  0.2748
 8965SOL     OW38356   3.115   3.689  17.415 -0.0362 -0.4696  0.8157
 8965SOL    HW138357   3.159   3.608  17.389 -1.0931 -0.8132  0.1122
 8965SOL    HW238358   3.164   3.752  17.362  0.6228 -1.3431  0.3752
 8966SOL     OW38359   3.417   4.106  12.245 -0.1698 -0.1633 -0.6102
 8966SOL    HW138360   3.344   4.134  12.300  1.6884 -0.0449  1.8233
 8966SOL    HW238361   3.402   4.162  12.169 -0.6188 -2.6155 -2.3119
 8967SOL     OW38362   0.796   3.572   3.372 -0.7515 -0.3242  0.2385
 8967SOL    HW138363   0.722   3.534   3.421 -2.1435  1.3662 -0.5407
 8967SOL    HW238364   0.839   3.624   3.439 -1.0243  2.0779 -1.4704
 8968SOL     OW38365   3.237   1.063   4.604  0.3727  0.4028 -0.0135
 8968SOL    HW138366   3.332   1.075   4.607  0.6894 -2.0871 -0.6230
 8968SOL    HW238367   3.218   1.142   4.553 -0.5183  1.5552  2.1059
 8969SOL     OW38368   0.715   2.184  15.527 -0.0816  0.3629  0.5712
 8969SOL    HW138369   0.675   2.251  15.583  0.4071 -0.1025  1.4747
 8969SOL    HW238370   0.798   2.227  15.505  1.0836 -1.8905  0.6254
 8970SOL     OW38371   4.618   0.684   3.311  0.0290  0.3880  0.6553
 8970SOL    HW138372   4.647   0.770   3.342  0.0649 -0.0252  1.7646
 8970SOL    HW238373   4.698   0.633   3.305 -0.2885 -0.0227 -0.1497
 8971SOL     OW38374   2.228   0.785  11.269  0.1452  0.1755  0.4316
 8971SOL    HW138375   2.221   0.877  11.242 -1.5523  0.1642  0.8615
 8971SOL    HW238376   2.320   0.798  11.293  0.7950 -1.9086 -0.9037
 8972SOL     OW38377   0.024   1.163   7.330 -0.1894 -0.1018 -0.5660
 8972SOL    HW138378   4.708   1.078   7.347  0.5685 -0.3581 -0.0886
 8972SOL    HW238379   4.695   1.197   7.257  1.0219  1.8314 -0.5288
 8973SOL     OW38380   0.116   3.826   5.788  0.1512 -0.2256  0.7795
 8973SOL    HW138381   0.137   3.794   5.876 -1.1687 -0.9920  0.8044
 8973SOL    HW238382   0.030   3.789   5.770  0.4955 -0.3855 -0.5118
 8974SOL     OW38383   0.468   3.199   7.997  0.6155 -0.4285 -0.1199
 8974SOL    HW138384   0.392   3.247   7.963 -1.0983 -3.0451  0.0274
 8974SOL    HW238385   0.505   3.264   8.056  0.6733  1.3323 -2.0855
 8975SOL     OW38386   1.674   0.479   3.251  0.5106  0.2908 -0.0156
 8975SOL    HW138387   1.766   0.504   3.241  0.2142 -0.0826 -3.5761
 8975SOL    HW238388   1.666   0.386   3.230  0.5797  0.4880 -0.9059
 8976SOL     OW38389   1.725   0.802   4.092 -0.0258 -0.3889  0.4391
 8976SOL    HW138390   1.814   0.793   4.124  0.4649  1.5348 -0.3336
 8976SOL    HW238391   1.723   0.898   4.087  0.3571 -0.4690 -1.2316
 8977SOL     OW38392   0.546   1.232   5.677 -0.1764  0.4611 -0.3739
 8977SOL    HW138393   0.504   1.219   5.592 -0.2160  1.8591 -0.5604
 8977SOL    HW238394   0.523   1.322   5.701  0.1497  0.2866  0.6170
 8978SOL     OW38395   3.536   0.849   3.356  0.1734 -0.0409  0.1806
 8978SOL    HW138396   3.593   0.812   3.289 -1.4893 -2.3736  0.0713
 8978SOL    HW238397   3.455   0.805   3.332  1.0304 -1.9658  0.8700
 8979SOL     OW38398   1.720   1.512   3.466 -0.4414  0.0893  0.2149
 8979SOL    HW138399   1.710   1.420   3.440 -1.4803 -0.0159  1.0352
 8979SOL    HW238400   1.701   1.561   3.386 -1.2971  0.2147  0.5026
 8980SOL     OW38401   4.194   1.419   9.576  0.6999 -0.0874 -0.0952
 8980SOL    HW138402   4.200   1.338   9.626  0.8990 -0.5203 -0.8054
 8980SOL    HW238403   4.101   1.438   9.570  0.3240 -2.3410 -1.4290
 8981SOL     OW38404   3.204   1.155   9.668 -0.4151  0.3503 -0.0096
 8981SOL    HW138405   3.260   1.078   9.677  0.0942  0.4170 -2.5225
 8981SOL    HW238406   3.257   1.218   9.620  1.5614 -1.3146  0.0356
 8982SOL     OW38407   1.659   2.597   6.746 -0.2509 -0.0959  0.6253
 8982SOL    HW138408   1.679   2.548   6.666 -1.6987 -2.2600  1.5943
 8982SOL    HW238409   1.744   2.596   6.789  1.5143  1.7739 -2.8539
 8983SOL     OW38410   4.564   1.586   3.931 -0.9374 -0.2466  0.6900
 8983SOL    HW138411   4.614   1.518   3.974 -2.8216 -1.6169  0.6954
 8983SOL    HW238412   4.619   1.664   3.943  1.6875 -2.2868  1.8332
 8984SOL     OW38413   1.563   1.259  11.164  0.3985  0.5051 -0.0657
 8984SOL    HW138414   1.613   1.194  11.214 -1.8634 -0.5690  0.7733
 8984SOL    HW238415   1.515   1.297  11.238 -1.6075 -1.3011 -0.4296
 8985SOL     OW38416   1.046   2.434   3.756 -0.4217  0.3789  0.6056
 8985SOL    HW138417   1.117   2.378   3.789  0.0281  1.3893  1.3663
 8985SOL    HW238418   1.015   2.383   3.682  1.5669 -0.4104  0.3244
 8986SOL     OW38419   1.637   0.296  16.531 -0.6050  0.1125  0.0522
 8986SOL    HW138420   1.573   0.304  16.461 -0.3699 -1.4777 -0.3256
 8986SOL    HW238421   1.646   0.392  16.533  1.2998 -0.0905  2.1599
 8987SOL     OW38422   3.732   3.388   6.684 -0.1887 -0.2949 -0.6103
 8987SOL    HW138423   3.694   3.409   6.769  0.5315 -0.8420 -0.1550
 8987SOL    HW238424   3.688   3.306   6.661 -1.9240  1.1580 -2.4406
 8988SOL     OW38425   2.823   0.313   1.635 -0.6615  0.4479 -0.4909
 8988SOL    HW138426   2.917   0.297   1.629 -0.8495 -1.4140  1.2849
 8988SOL    HW238427   2.801   0.244   1.698 -2.0203 -0.1120 -1.5723
 8989SOL     OW38428   4.363   0.553   6.124  0.2550 -0.2240 -0.4998
 8989SOL    HW138429   4.431   0.581   6.063  0.7148 -0.9737 -0.3268
 8989SOL    HW238430   4.307   0.628   6.144 -0.2655 -0.9032  0.5869
 8990SOL     OW38431   3.407   2.055   1.208  0.1136  0.0472  0.3767
 8990SOL    HW138432   3.325   2.078   1.163  0.2596  0.5593  0.3792
 8990SOL    HW238433   3.467   2.079   1.137 -0.5052  1.8349  0.4568
 8991SOL     OW38434   4.680   2.247   6.094 -0.6600  0.3536  0.1364
 8991SOL    HW138435   0.003   2.322   6.132  0.5297  0.0881 -0.8154
 8991SOL    HW238436   4.706   2.174   6.151 -1.6558  0.6187  0.9352
 8992SOL     OW38437   2.980   4.026   5.478  0.3978 -0.1583 -0.0340
 8992SOL    HW138438   3.068   4.031   5.514 -0.5842  2.1769  2.0507
 8992SOL    HW238439   2.929   4.048   5.556  0.9437 -2.0922  0.8609
 8993SOL     OW38440   1.615   0.236  14.596 -0.1637 -0.1999 -0.0055
 8993SOL    HW138441   1.613   0.316  14.648 -1.3817 -1.0479  1.2524
 8993SOL    HW238442   1.703   0.234  14.558  0.5739 -0.5350  1.7182
 8994SOL     OW38443   4.438   4.448   0.039 -0.8127 -0.5024 -1.4371
 8994SOL    HW138444   4.519   4.449   0.091 -0.8635  2.3517 -1.3815
 8994SOL    HW238445   4.451   4.530  17.686 -1.7051  0.3273 -0.2983
 8995SOL     OW38446   2.908   3.967  16.280 -0.3643 -0.1575  0.2276
 8995SOL    HW138447   2.911   3.874  16.255  2.0525 -0.5899  2.1239
 8995SOL    HW238448   2.822   3.992  16.248  0.9150  1.1984 -2.1791
 8996SOL     OW38449   1.308   0.099  17.441 -0.1435  0.0692 -0.2994
 8996SOL    HW138450   1.226   0.148  17.441  0.8023  1.6606  0.4603
 8996SOL    HW238451   1.360   0.179  17.440 -0.8529  0.5224 -1.8057
 8997SOL     OW38452   4.089   0.920   4.981 -0.0787 -0.3956  0.2884
 8997SOL    HW138453   4.159   0.940   5.043 -0.6875  0.8155  0.5751
 8997SOL    HW238454   4.043   0.846   5.022  1.0637 -0.4895  1.3718
 8998SOL     OW38455   3.552   3.628  14.905 -0.8331  0.4079 -0.0518
 8998SOL    HW138456   3.627   3.681  14.876 -0.3443 -1.1803 -1.6755
 8998SOL    HW238457   3.482   3.693  14.897 -1.1021 -0.0352 -1.3905
 8999SOL     OW38458   2.042   4.009   9.002 -0.2047 -0.4261 -0.4680
 8999SOL    HW138459   1.952   4.017   8.970  0.1092 -1.4561 -1.5823
 8999SOL    HW238460   2.034   3.939   9.068 -2.9958 -2.9565 -3.5323
 9000SOL     OW38461   1.839   4.252   8.893 -0.2214 -0.2815 -0.1563
 9000SOL    HW138462   1.793   4.182   8.940 -0.8658  0.0229 -0.3337
 9000SOL    HW238463   1.770   4.288   8.837  1.9604  0.9470 -2.0695
 9001SOL     OW38464   0.785   0.684   8.023  0.1575  0.1399 -0.1477
 9001SOL    HW138465   0.750   0.599   7.995  4.1005 -2.1850  1.9160
 9001SOL    HW238466   0.761   0.745   7.953 -2.5044  0.2596  0.9039
 9002SOL     OW38467   3.115   3.565   9.646  0.3532 -0.6918  0.1693
 9002SOL    HW138468   3.159   3.516   9.577 -1.8976  0.6640 -2.2110
 9002SOL    HW238469   3.079   3.493   9.698 -0.8779 -0.2674 -0.0879
 9003SOL     OW38470   4.554   0.124   7.646  0.5988 -0.4585  0.4246
 9003SOL    HW138471   4.618   0.056   7.624  0.6288  0.4174 -2.2272
 9003SOL    HW238472   4.608   0.201   7.626  0.2273 -0.6364 -1.2702
 9004SOL     OW38473   2.749   2.737   9.166  0.6088  0.0799  0.0109
 9004SOL    HW138474   2.693   2.811   9.190  1.5184  0.7414  0.0825
 9004SOL    HW238475   2.836   2.767   9.191  0.4809  0.8360 -0.4375
 9005SOL     OW38476   4.586   2.960  12.437  0.2233  0.4588 -0.8537
 9005SOL    HW138477   4.580   2.882  12.382 -1.7887  0.5375 -0.7654
 9005SOL    HW238478   4.506   2.948  12.488  0.5656 -1.4802 -0.7513
 9006SOL     OW38479   2.386   1.332   8.700  0.6320  0.2290 -0.1049
 9006SOL    HW138480   2.460   1.273   8.683  0.8332  1.0908 -2.3080
 9006SOL    HW238481   2.419   1.416   8.669  1.6720 -1.0448 -2.4682
 9007SOL     OW38482   1.958   2.833  14.132  0.2366 -0.3013 -0.2536
 9007SOL    HW138483   2.049   2.807  14.117  0.1568 -1.2217  0.9485
 9007SOL    HW238484   1.949   2.828  14.227 -0.2559 -1.0016 -0.3422
 9008SOL     OW38485   2.754   4.074   0.749 -0.3493 -0.5345  0.4511
 9008SOL    HW138486   2.676   4.019   0.758 -0.1109 -1.2621 -1.8022
 9008SOL    HW238487   2.783   4.056   0.659  1.3470  0.8553  0.7100
 9009SOL     OW38488   2.439   1.750   5.854 -0.0418 -0.2238  0.1275
 9009SOL    HW138489   2.487   1.747   5.937 -1.0619  2.0726  0.8091
 9009SOL    HW238490   2.508   1.717   5.797 -1.0415 -0.5751 -0.8881
 9010SOL     OW38491   3.540   3.932   6.543  0.3081  0.3190  0.3497
 9010SOL    HW138492   3.624   3.941   6.498 -0.6655  1.4062 -1.2588
 9010SOL    HW238493   3.484   3.961   6.471  1.7258  0.4282 -0.6979
 9011SOL     OW38494   0.130   0.860   7.463 -0.0444 -0.0092 -0.0539
 9011SOL    HW138495   0.127   0.933   7.525 -1.5002 -0.5221  0.4997
 9011SOL    HW238496   0.188   0.798   7.508 -0.4488  1.4990  2.5713
 9012SOL     OW38497   2.642   3.109   3.815  0.0531 -0.1681 -0.1161
 9012SOL    HW138498   2.675   3.179   3.871 -0.8151 -1.6600  2.2247
 9012SOL    HW238499   2.661   3.159   3.735 -0.5079 -0.1886 -0.2576
 9013SOL     OW38500   1.536   0.204   1.857 -0.5274 -0.0653 -0.0250
 9013SOL    HW138501   1.539   0.246   1.943  1.0157 -1.2207  0.4883
 9013SOL    HW238502   1.604   0.138   1.874 -1.3908 -0.5193  1.6337
 9014SOL     OW38503   1.635   0.405  13.426  0.3520 -0.3456 -0.3639
 9014SOL    HW138504   1.647   0.355  13.344 -2.1878 -3.6355  1.2783
 9014SOL    HW238505   1.663   0.491  13.396 -0.1303 -0.3204 -0.7329
 9015SOL     OW38506   2.622   1.088   2.697 -0.0396 -0.1438  0.2588
 9015SOL    HW138507   2.577   1.170   2.716  0.1310  0.2654 -1.0937
 9015SOL    HW238508   2.554   1.021   2.696  2.1034 -2.3165 -0.9418
 9016SOL     OW38509   3.894   3.460   5.339  0.4696 -0.3656 -0.2321
 9016SOL    HW138510   3.859   3.381   5.380  1.4937 -1.1904 -0.9476
 9016SOL    HW238511   3.835   3.525   5.378  1.5551 -1.2712  2.8991
 9017SOL     OW38512   0.869   2.138   2.946  0.1452 -0.0956 -0.1160
 9017SOL    HW138513   0.914   2.222   2.938  2.6849 -1.2118  2.9453
 9017SOL    HW238514   0.928   2.073   2.983  0.3587  0.8160  1.1384
 9018SOL     OW38515   3.511   1.945  11.833  0.8824 -0.1264 -0.0150
 9018SOL    HW138516   3.557   2.023  11.863 -0.6204  1.0308 -0.6965
 9018SOL    HW238517   3.444   1.984  11.776  1.0757  1.7634  1.0460
 9019SOL     OW38518   1.279   4.095   8.896 -0.6496 -1.0523 -0.1670
 9019SOL    HW138519   1.244   4.024   8.843  0.4611 -0.9221 -1.0832
 9019SOL    HW238520   1.348   4.130   8.839 -0.0934 -0.7158  0.7046
 9020SOL     OW38521   3.882   1.580   7.706  0.2027 -0.3648 -0.4487
 9020SOL    HW138522   3.818   1.529   7.755 -1.0232  1.4471 -0.1760
 9020SOL    HW238523   3.860   1.673   7.701  2.3883  0.2294  0.7844
 9021SOL     OW38524   2.220   0.530  15.608  0.2720 -0.0707 -0.4712
 9021SOL    HW138525   2.133   0.491  15.614  0.2273  0.2829  1.2583
 9021SOL    HW238526   2.254   0.498  15.692 -0.3330 -1.3614 -0.7113
 9022SOL     OW38527   3.957   2.089  12.321 -0.3391  0.6634 -0.1732
 9022SOL    HW138528   3.888   2.152  12.344 -1.9505 -1.0366 -0.2978
 9022SOL    HW238529   3.968   2.111  12.228  1.2267 -0.4274 -0.2339
 9023SOL     OW38530   0.777   1.108   3.626  0.3500 -0.8713 -0.2035
 9023SOL    HW138531   0.870   1.099   3.605  0.4387 -0.2097 -0.1186
 9023SOL    HW238532   0.776   1.112   3.722 -0.2765 -1.6823 -0.1824
 9024SOL     OW38533   2.472   1.319   8.083 -0.1797  0.1852 -0.1636
 9024SOL    HW138534   2.508   1.401   8.050  0.8727  0.1979  1.0308
 9024SOL    HW238535   2.384   1.316   8.044 -0.3496 -0.2141  0.2566
 9025SOL     OW38536   0.846   1.788   1.797 -0.3494  0.3228 -0.1365
 9025SOL    HW138537   0.846   1.714   1.857 -2.0080 -0.8362 -1.5415
 9025SOL    HW238538   0.760   1.832   1.800 -0.9804 -0.9870  1.3402
 9026SOL     OW38539   3.048   1.862   7.051  0.5775  0.2092  0.0053
 9026SOL    HW138540   3.032   1.939   6.997  1.1825  2.0672  2.4722
 9026SOL    HW238541   3.030   1.894   7.140 -2.9588 -1.5469 -0.0480
 9027SOL     OW38542   2.774   2.629  16.733 -0.2703 -0.2353  0.0174
 9027SOL    HW138543   2.741   2.694  16.670 -0.4840  0.3203  0.7081
 9027SOL    HW238544   2.697   2.576  16.751 -0.1229 -0.3113  0.4210
 9028SOL     OW38545   2.294   4.011   3.502 -0.1087 -0.6937 -0.0175
 9028SOL    HW138546   2.388   3.999   3.488  0.1048  2.2662 -0.9649
 9028SOL    HW238547   2.247   3.987   3.422  1.9187 -0.0806 -1.3797
 9029SOL     OW38548   1.034   4.630   8.117  0.0688 -0.2407 -0.0483
 9029SOL    HW138549   0.996   4.548   8.146  0.8499 -0.3954  0.5252
 9029SOL    HW238550   1.079   4.667   8.193  0.5811 -1.9530  0.4831
 9030SOL     OW38551   0.015   4.585   1.834  0.3370  0.0951  0.4179
 9030SOL    HW138552   0.027   4.490   1.832  0.1277  0.0715  0.3601
 9030SOL    HW238553   0.088   4.618   1.887  0.4853  0.7185 -0.1770
 9031SOL     OW38554   3.048   0.818   3.735 -0.2319  0.0230 -0.3331
 9031SOL    HW138555   3.017   0.895   3.686 -0.7940  0.9939  1.5574
 9031SOL    HW238556   3.087   0.870   3.805 -0.4683 -1.5229  0.9268
 9032SOL     OW38557   2.122   3.067   8.534 -0.0302  0.4481  0.1623
 9032SOL    HW138558   2.044   3.112   8.565 -0.4837  0.5284 -1.0940
 9032SOL    HW238559   2.132   2.985   8.583 -0.0311  0.4126  0.1037
 9033SOL     OW38560   3.704   2.016  13.269 -0.1658 -0.3428  0.5843
 9033SOL    HW138561   3.760   1.965  13.327  2.5642  2.3683  0.3301
 9033SOL    HW238562   3.622   2.019  13.318 -0.4468  0.1353  0.0892
 9034SOL     OW38563   3.132   1.461   4.816 -0.1767  0.2357 -0.1094
 9034SOL    HW138564   3.146   1.366   4.820  1.8306  0.5459  0.3868
 9034SOL    HW238565   3.158   1.492   4.903  2.8728 -0.7398 -0.6777
 9035SOL     OW38566   3.803   3.440   4.644  0.2738 -0.3987  0.0196
 9035SOL    HW138567   3.859   3.441   4.566  0.6473 -1.3724  0.2659
 9035SOL    HW238568   3.839   3.518   4.686 -0.5214  0.0946 -0.2212
 9036SOL     OW38569   4.044   3.372   9.773  0.4034  0.5093  0.1639
 9036SOL    HW138570   4.017   3.386   9.864 -1.0217  0.5447 -0.2754
 9036SOL    HW238571   3.969   3.404   9.723  0.6902  2.0503  0.7163
 9037SOL     OW38572   3.159   2.564   2.225 -0.3282  0.2500 -0.0123
 9037SOL    HW138573   3.215   2.633   2.261  2.6474 -0.7589 -2.7132
 9037SOL    HW238574   3.082   2.619   2.210 -0.3128  0.4375  0.6229
 9038SOL     OW38575   3.018   2.083   8.704  0.3415 -0.0650  1.1054
 9038SOL    HW138576   2.956   2.157   8.701 -1.3093 -1.3998  2.2072
 9038SOL    HW238577   3.066   2.121   8.777 -1.5221  0.8076  1.8715
 9039SOL     OW38578   4.536   0.137   7.347 -0.0481 -0.3528  0.4079
 9039SOL    HW138579   4.524   0.232   7.359 -2.2131 -0.4795 -0.6977
 9039SOL    HW238580   4.555   0.113   7.438 -1.1267  3.8690  1.7931
 9040SOL     OW38581   2.328   1.753   4.775  0.2386  0.4474  0.6665
 9040SOL    HW138582   2.393   1.749   4.705 -0.9395  4.7349 -0.6402
 9040SOL    HW238583   2.278   1.677   4.745  2.5912 -1.0771  0.5579
 9041SOL     OW38584   2.750   2.382   1.815  0.5800  0.2093 -0.4991
 9041SOL    HW138585   2.716   2.418   1.733 -0.3046 -1.5864 -0.9180
 9041SOL    HW238586   2.678   2.323   1.841  0.1869 -0.4121 -2.9650
 9042SOL     OW38587   1.392   2.228   2.870  0.1033 -0.3687  0.3392
 9042SOL    HW138588   1.340   2.221   2.790 -0.3219  0.9737  0.4885
 9042SOL    HW238589   1.449   2.302   2.849 -2.4080  0.6360 -2.8547
 9043SOL     OW38590   3.040   3.293  17.371 -0.0353 -0.0534 -0.3579
 9043SOL    HW138591   3.029   3.256  17.459 -0.4222 -0.6448 -0.6575
 9043SOL    HW238592   3.120   3.345  17.383  0.8084 -1.5550  0.4786
 9044SOL     OW38593   0.156   3.304   8.239 -0.2802  0.6026  0.0130
 9044SOL    HW138594   0.094   3.250   8.190 -0.4766  0.8382  0.0003
 9044SOL    HW238595   0.217   3.238   8.273  0.4685  0.7843 -0.9890
 9045SOL     OW38596   0.183   0.045   6.134 -0.4678 -0.1046 -0.5184
 9045SOL    HW138597   0.155   0.039   6.043 -2.1551 -0.1304  0.0036
 9045SOL    HW238598   0.163   4.681   6.165 -1.4724  0.3585  0.1458
 9046SOL     OW38599   2.569   1.926   8.780 -0.2175 -0.0047 -0.6545
 9046SOL    HW138600   2.510   1.941   8.705  0.9772  0.8240 -1.4342
 9046SOL    HW238601   2.623   1.852   8.752  1.4345  1.2807 -0.8882
 9047SOL     OW38602   2.347   1.638   3.168 -0.3656  0.0584 -0.4667
 9047SOL    HW138603   2.429   1.593   3.190 -0.6313  0.4607  1.3070
 9047SOL    HW238604   2.347   1.684   3.252 -3.4386 -1.4195  0.3252
 9048SOL     OW38605   0.690   1.693  10.540  0.2799 -0.1662 -0.1219
 9048SOL    HW138606   0.773   1.660  10.573  0.8380  1.2163 -0.1502
 9048SOL    HW238607   0.681   1.628  10.471  1.3899  0.2245 -0.6254
 9049SOL     OW38608   1.424   2.052   3.684 -0.5355 -0.3154  0.2157
 9049SOL    HW138609   1.465   2.119   3.630  1.6476 -0.2644  1.9455
 9049SOL    HW238610   1.500   2.025   3.736 -1.3587 -1.2616  0.9376
 9050SOL     OW38611   3.481   4.461   1.105  0.2622  0.1345  0.1827
 9050SOL    HW138612   3.433   4.418   1.176  0.1673 -1.1042 -0.6371
 9050SOL    HW238613   3.419   4.436   1.036  1.3020 -3.0401  0.4209
 9051SOL     OW38614   0.818   3.959   5.182  0.9584 -0.1840 -0.1635
 9051SOL    HW138615   0.753   4.015   5.227  0.0440 -1.7629  0.4706
 9051SOL    HW238616   0.903   3.999   5.200  0.6919  0.3107  0.0378
 9052SOL     OW38617   1.999   0.203   6.457  0.1260  0.0873  0.3548
 9052SOL    HW138618   1.982   0.130   6.397 -1.1226 -0.4002  1.2965
 9052SOL    HW238619   1.966   0.278   6.406 -0.3659 -1.2361 -1.2989
 9053SOL     OW38620   2.710   1.895   6.767 -0.1662  0.2523  0.1087
 9053SOL    HW138621   2.686   1.887   6.859 -0.1898  0.8352  0.1517
 9053SOL    HW238622   2.706   1.806   6.733 -0.3849  0.8070 -1.3341
 9054SOL     OW38623   3.617   1.226   8.155 -0.2274  0.2146  0.1482
 9054SOL    HW138624   3.664   1.251   8.234 -0.1580 -1.2059  0.5555
 9054SOL    HW238625   3.680   1.213   8.085 -0.1805  2.0695 -0.1403
 9055SOL     OW38626   4.127   1.919  13.772 -0.2949 -0.6063  0.0947
 9055SOL    HW138627   4.165   1.999  13.809  1.7147 -1.8689  0.7360
 9055SOL    HW238628   4.037   1.924  13.804  0.2708  0.9793  1.4653
 9056SOL     OW38629   0.878   1.919  10.395  0.2208  0.0301 -0.2792
 9056SOL    HW138630   0.937   1.959  10.459  0.0474 -0.9590  0.4944
 9056SOL    HW238631   0.795   1.931  10.440  0.7579  0.0518  0.7020
 9057SOL     OW38632   0.623   2.904   9.995  0.0681 -0.3916 -0.1988
 9057SOL    HW138633   0.535   2.925  10.027 -0.0799 -0.4965 -0.5286
 9057SOL    HW238634   0.640   2.830  10.052  2.6695 -1.4277 -2.3422
 9058SOL     OW38635   2.819   1.449   0.847 -0.1419  0.0992 -0.6009
 9058SOL    HW138636   2.910   1.450   0.815 -0.0139  0.3905 -0.2259
 9058SOL    HW238637   2.817   1.355   0.861  0.2530  0.0835 -0.6271
 9059SOL     OW38638   0.013   0.290   5.594 -0.5232 -0.5894 -0.2293
 9059SOL    HW138639   4.659   0.343   5.612 -0.6264 -0.7712 -0.1369
 9059SOL    HW238640   0.070   0.364   5.572  1.1308 -0.7686  3.3511
 9060SOL     OW38641   2.035   2.931   4.419  0.1677 -0.3832 -0.1412
 9060SOL    HW138642   1.993   2.918   4.334 -2.1511  1.1899  0.7388
 9060SOL    HW238643   1.979   3.003   4.448  1.0769 -0.2043  1.1787
 9061SOL     OW38644   1.019   3.350   2.022 -0.2418 -0.0313  0.6032
 9061SOL    HW138645   1.096   3.295   2.009 -1.6669 -1.5657 -1.2999
 9061SOL    HW238646   1.041   3.429   1.973 -1.1059  0.3518  0.8358
 9062SOL     OW38647   1.539   4.535   5.470  0.7130  0.3466  0.5357
 9062SOL    HW138648   1.456   4.496   5.441  0.9865  0.1410  0.0419
 9062SOL    HW238649   1.593   4.540   5.392  0.2950  3.2353  0.4267
 9063SOL     OW38650   0.114   0.598  16.233  0.4070  0.1788 -0.7340
 9063SOL    HW138651   0.145   0.688  16.226 -0.3493  0.2275 -3.4898
 9063SOL    HW238652   0.024   0.618  16.259  0.1503 -1.9242 -0.0107
 9064SOL     OW38653   1.547   0.032   5.631 -0.6883 -0.0289  0.5106
 9064SOL    HW138654   1.530   4.673   5.586 -0.3634  1.1101 -1.7077
 9064SOL    HW238655   1.493   0.014   5.708  1.0149 -2.3762  1.1772
 9065SOL     OW38656   0.035   2.224   5.235  0.2443 -0.4976 -0.0961
 9065SOL    HW138657   0.090   2.257   5.306 -0.4261 -1.4818  0.8873
 9065SOL    HW238658   0.065   2.134   5.216 -1.6389 -1.1260 -0.0866
 9066SOL     OW38659   1.485   4.458   3.670 -0.1489  0.3014  0.1162
 9066SOL    HW138660   1.438   4.516   3.730  2.2284 -0.1273  2.3802
 9066SOL    HW238661   1.407   4.420   3.628 -0.6406 -0.1312  1.4151
 9067SOL     OW38662   2.834   2.400   5.280  0.6127 -0.8498  0.7648
 9067SOL    HW138663   2.868   2.380   5.193 -1.4628 -2.1939  0.2510
 9067SOL    HW238664   2.909   2.377   5.335  0.5771 -2.5057  0.1460
 9068SOL     OW38665   1.965   2.833   4.749  0.8124 -0.2136 -0.3101
 9068SOL    HW138666   1.870   2.840   4.757  0.8865 -0.6225  0.9389
 9068SOL    HW238667   1.996   2.920   4.724  0.3338  0.1225  0.2381
 9069SOL     OW38668   4.169   1.122   3.930 -0.0780  0.0814 -0.2528
 9069SOL    HW138669   4.155   1.114   3.836 -1.7785 -0.4727  0.0390
 9069SOL    HW238670   4.218   1.204   3.928  0.3401 -0.1375  0.7213
 9070SOL     OW38671   3.244   1.161   6.336  0.0256  0.4057 -0.2151
 9070SOL    HW138672   3.230   1.243   6.384  1.4285 -0.4654  1.6835
 9070SOL    HW238673   3.329   1.127   6.364  0.2102  0.4107 -0.7671
 9071SOL     OW38674   1.075   0.834   6.831  0.4865  0.0367 -0.4456
 9071SOL    HW138675   1.136   0.842   6.758  0.0182  0.7556 -0.7602
 9071SOL    HW238676   0.996   0.807   6.784  1.7500 -0.9503 -1.9860
 9072SOL     OW38677   0.818   3.610   2.509  0.0169  0.3220 -0.1642
 9072SOL    HW138678   0.765   3.587   2.434 -1.1698  0.3313  0.6706
 9072SOL    HW238679   0.760   3.590   2.583  0.4986  1.1345  0.4357
 9073SOL     OW38680   0.143   4.466   6.206 -0.0365  0.2026  0.1574
 9073SOL    HW138681   0.171   4.448   6.117  0.6554  0.5795  0.2952
 9073SOL    HW238682   0.050   4.448   6.189  0.4317 -2.6059  0.6242
 9074SOL     OW38683   1.483   4.308  15.970  0.0316 -0.3915  0.4038
 9074SOL    HW138684   1.497   4.316  16.064 -3.6232 -0.5636  0.9682
 9074SOL    HW238685   1.544   4.236  15.953  0.3578 -0.1369  0.5132
 9075SOL     OW38686   3.944   2.732  12.608  0.3201  0.6345  0.0034
 9075SOL    HW138687   3.998   2.761  12.682 -0.3622 -1.1858  1.1933
 9075SOL    HW238688   3.938   2.819  12.568 -2.3033  0.1678 -0.6316
 9076SOL     OW38689   2.775   0.228   5.374 -0.4182  0.4948 -0.2830
 9076SOL    HW138690   2.865   0.223   5.340 -0.7507 -1.3451 -0.8740
 9076SOL    HW238691   2.741   0.139   5.370 -0.3178  0.3522  2.3756
 9077SOL     OW38692   4.250   0.480   2.288  0.3711 -0.6710 -0.2320
 9077SOL    HW138693   4.295   0.565   2.291  0.4258 -0.7714  1.7812
 9077SOL    HW238694   4.177   0.504   2.230 -0.1401 -0.1928  0.6091
 9078SOL     OW38695   4.083   4.556   7.791 -0.0599  0.2981 -0.0208
 9078SOL    HW138696   4.088   4.647   7.761  1.4471 -0.5203 -2.2593
 9078SOL    HW238697   3.995   4.558   7.829  0.4745  1.4997  1.1549
 9079SOL     OW38698   1.807   2.462   5.344  0.1868 -0.7588 -0.0865
 9079SOL    HW138699   1.796   2.541   5.291 -3.9289 -2.2397 -1.4892
 9079SOL    HW238700   1.827   2.394   5.279 -0.9633 -0.1092 -1.1142
 9080SOL     OW38701   1.916   0.027   9.232  0.9627  0.0672  0.3703
 9080SOL    HW138702   1.884   0.042   9.143  0.0077  0.4587  0.7744
 9080SOL    HW238703   1.941   0.118   9.246 -0.5229  0.2503  1.7457
 9081SOL     OW38704   0.725   3.506   7.935 -0.1449 -0.6011 -0.7736
 9081SOL    HW138705   0.770   3.525   8.017  0.9654  0.2563 -1.5699
 9081SOL    HW238706   0.749   3.413   7.932  0.9237 -0.2937 -1.5955
 9082SOL     OW38707   2.124   3.020   9.014  0.1593  0.0109  0.3340
 9082SOL    HW138708   2.168   3.002   9.096 -1.2842  0.6499  1.2448
 9082SOL    HW238709   2.041   3.058   9.043 -1.2689 -3.6769  1.1252
 9083SOL     OW38710   3.750   1.074   7.186  0.2661  0.3854  0.8117
 9083SOL    HW138711   3.756   1.170   7.192 -0.9812  0.5390 -0.4530
 9083SOL    HW238712   3.781   1.062   7.097 -1.8318  1.0185 -0.0073
 9084SOL     OW38713   1.919   0.664  12.847  0.3789  0.4773 -0.1082
 9084SOL    HW138714   1.941   0.571  12.842  1.3851  0.8197 -1.6432
 9084SOL    HW238715   1.831   0.664  12.886  0.4561  0.9821  0.0606
 9085SOL     OW38716   2.710   2.510   3.422 -0.7336  0.5699 -0.3309
 9085SOL    HW138717   2.765   2.477   3.351 -3.1653 -0.1573 -1.8516
 9085SOL    HW238718   2.780   2.526   3.486 -2.5007 -0.4933  1.8759
 9086SOL     OW38719   2.702   2.140   5.890  0.1064  0.2961 -0.1048
 9086SOL    HW138720   2.721   2.150   5.796  0.5746 -2.8655 -0.3428
 9086SOL    HW238721   2.737   2.053   5.906 -0.6522 -0.0774 -0.4881
 9087SOL     OW38722   3.157   0.184  17.409  0.4076  0.1889  0.0910
 9087SOL    HW138723   3.080   0.142  17.371  0.7470  0.1955 -0.6054
 9087SOL    HW238724   3.113   0.268  17.423  1.8799  1.1015 -0.7204
 9088SOL     OW38725   0.564   3.563   5.284 -0.1401  0.3423 -0.2665
 9088SOL    HW138726   0.480   3.593   5.250 -0.5278 -0.5139 -0.0705
 9088SOL    HW238727   0.620   3.570   5.207  0.9399 -2.4666  0.2402
 9089SOL     OW38728   4.608   2.324  10.513 -0.7433  0.3352  0.5471
 9089SOL    HW138729   4.670   2.354  10.580 -0.5970 -1.9772  1.4472
 9089SOL    HW238730   4.670   2.339  10.441 -1.9234  1.1712 -0.2892
 9090SOL     OW38731   3.859   2.294   8.464  0.3287  0.0562  0.6897
 9090SOL    HW138732   3.806   2.374   8.462  1.6458  0.9197 -0.0170
 9090SOL    HW238733   3.792   2.226   8.466  2.1284 -1.7358  0.7335
 9091SOL     OW38734   3.466   4.564  10.598 -0.2670 -0.2791 -0.3817
 9091SOL    HW138735   3.547   4.611  10.618 -0.0287 -0.7807 -0.1753
 9091SOL    HW238736   3.476   4.568  10.503 -0.3278 -0.1955 -0.3844
 9092SOL     OW38737   2.340   3.226   3.617  0.0201 -0.2615 -0.4089
 9092SOL    HW138738   2.314   3.158   3.679 -1.0472  0.4147 -0.1051
 9092SOL    HW238739   2.406   3.180   3.565 -1.8591 -2.2486 -1.0654
 9093SOL     OW38740   4.021   0.061   3.203  0.4188  0.5755  0.6774
 9093SOL    HW138741   3.965   0.088   3.130  1.1206  2.6539  0.9217
 9093SOL    HW238742   4.061   4.703   3.171 -1.2361  0.1780 -0.3811
 9094SOL     OW38743   4.029   1.171   4.993  0.0248  0.4901 -0.4013
 9094SOL    HW138744   4.045   1.187   5.086  0.0796 -1.6460 -0.0484
 9094SOL    HW238745   4.060   1.082   4.978 -2.5167 -0.7825  1.7612
 9095SOL     OW38746   0.765   0.813   8.684 -0.4346  0.6742  0.6442
 9095SOL    HW138747   0.703   0.742   8.698 -0.4387  0.4777 -0.3840
 9095SOL    HW238748   0.726   0.866   8.753 -0.0327  1.6961  0.0906
 9096SOL     OW38749   1.278   1.532  11.608  0.2612 -0.3097 -0.3091
 9096SOL    HW138750   1.194   1.576  11.592 -0.1043 -0.8174  0.2382
 9096SOL    HW238751   1.243   1.444  11.619 -1.8790  0.9513  2.9662
 9097SOL     OW38752   1.617   0.165   2.330  0.6600  0.4998  0.3117
 9097SOL    HW138753   1.546   0.180   2.394  0.2811 -0.7053  0.1674
 9097SOL    HW238754   1.597   0.081   2.288  0.2845 -1.2827  4.0107
 9098SOL     OW38755   2.184   2.460  13.695  0.2186 -0.0569  0.2427
 9098SOL    HW138756   2.188   2.378  13.743  2.1366 -0.7299 -1.0721
 9098SOL    HW238757   2.236   2.442  13.617 -0.8972  2.1323 -1.0324
 9099SOL     OW38758   4.102   3.414   2.906 -0.2874  0.0835 -0.4727
 9099SOL    HW138759   4.126   3.488   2.962  0.5819 -2.0247  1.9264
 9099SOL    HW238760   4.188   3.373   2.893  0.0253  0.3987  0.6134
 9100SOL     OW38761   3.057   3.386  11.301 -0.5405  0.1925 -0.2798
 9100SOL    HW138762   3.135   3.370  11.247  0.0185  1.8820  0.0352
 9100SOL    HW238763   3.104   3.433  11.370 -1.0217  1.7200 -0.9890
 9101SOL     OW38764   3.771   1.465   8.495 -0.0205  0.2721  0.3836
 9101SOL    HW138765   3.678   1.444   8.505  0.8125 -2.8836  1.5064
 9101SOL    HW238766   3.790   1.537   8.555  1.0630  1.2830 -1.1600
 9102SOL     OW38767   1.160   2.098   8.487  0.1743 -0.2063  0.6190
 9102SOL    HW138768   1.131   2.013   8.454  0.4273  0.0144 -0.1641
 9102SOL    HW238769   1.103   2.113   8.562 -0.0896  3.0215 -0.2187
 9103SOL     OW38770   1.098   3.828   7.850 -0.1342  0.3673  0.2495
 9103SOL    HW138771   1.080   3.834   7.756 -0.4134 -1.3610  0.1776
 9103SOL    HW238772   1.111   3.921   7.867  1.2762  0.2392 -0.1201
 9104SOL     OW38773   4.000   2.312   1.235  0.1425  0.0699  0.3489
 9104SOL    HW138774   3.992   2.371   1.310 -0.4519  0.3929  0.0265
 9104SOL    HW238775   4.045   2.244   1.286  1.6274  0.5623 -0.3292
 9105SOL     OW38776   2.814   1.758   2.469  0.1872  0.4706  0.4847
 9105SOL    HW138777   2.744   1.725   2.526 -2.9008  1.8104 -2.4943
 9105SOL    HW238778   2.815   1.853   2.481  1.9541  0.6383 -1.0828
 9106SOL     OW38779   1.389   3.990   6.641  0.0803  0.2774 -0.1220
 9106SOL    HW138780   1.351   3.952   6.720 -1.2367 -2.8740 -2.2455
 9106SOL    HW238781   1.369   4.083   6.653 -4.0670 -0.6874  0.2775
 9107SOL     OW38782   3.183   4.398   5.941  0.1516 -0.3547  0.2522
 9107SOL    HW138783   3.244   4.471   5.925  0.2293 -0.7712 -1.3857
 9107SOL    HW238784   3.102   4.447   5.953  1.2705  1.1378  1.7602
 9108SOL     OW38785   4.095   3.100   9.765 -0.1365 -0.2849 -0.3758
 9108SOL    HW138786   4.101   3.194   9.782  0.0041  0.0595 -2.3605
 9108SOL    HW238787   4.042   3.068   9.839  1.0254 -1.0170  0.1338
 9109SOL     OW38788   3.815   0.977   9.198  0.0890  0.3160 -0.4549
 9109SOL    HW138789   3.896   0.961   9.246 -0.6120 -0.5928  0.4328
 9109SOL    HW238790   3.794   1.046   9.262 -0.7582  0.8687 -1.3222
 9110SOL     OW38791   1.195   0.309  14.807  0.2437  0.6721 -0.0388
 9110SOL    HW138792   1.214   0.235  14.864  1.0979  0.8345 -0.1160
 9110SOL    HW238793   1.202   0.270  14.720  0.0079  1.4473 -0.4063
 9111SOL     OW38794   1.328   0.485   3.999 -0.6976  0.2611  0.3131
 9111SOL    HW138795   1.261   0.503   4.066 -0.4521  0.9692  0.3707
 9111SOL    HW238796   1.369   0.571   3.995  3.2958 -1.6719 -0.8435
 9112SOL     OW38797   2.405   4.631   4.319 -0.5236 -0.6659 -0.4557
 9112SOL    HW138798   2.478   4.628   4.380 -1.9213  0.1908  1.2674
 9112SOL    HW238799   2.346   4.577   4.371 -1.9397 -0.9865 -2.4056
 9113SOL     OW38800   2.579   3.259  13.446  0.1565  0.3033 -0.1816
 9113SOL    HW138801   2.605   3.317  13.374  0.0597 -0.1348 -0.5634
 9113SOL    HW238802   2.490   3.285  13.471  0.6935 -0.5377  2.6703
 9114SOL     OW38803   2.281   2.142   8.394 -0.2599  0.0513  0.1386
 9114SOL    HW138804   2.261   2.153   8.301  0.1829 -2.1116 -0.2112
 9114SOL    HW238805   2.250   2.229   8.417 -2.9475 -0.1491 -2.7062
 9115SOL     OW38806   4.171   1.229  17.024 -0.0849 -0.1852  0.1402
 9115SOL    HW138807   4.209   1.298  17.078 -1.6893  0.7981 -0.0053
 9115SOL    HW238808   4.191   1.268  16.939 -0.2487  0.6896  0.5035
 9116SOL     OW38809   3.437   2.397  16.695 -0.0935 -0.4344  0.3299
 9116SOL    HW138810   3.498   2.465  16.668  1.4647 -2.0243 -0.1314
 9116SOL    HW238811   3.392   2.444  16.766 -0.3318  0.0557 -0.1489
 9117SOL     OW38812   1.141   3.952   1.282 -0.2980 -0.2122  0.0193
 9117SOL    HW138813   1.080   3.879   1.277 -2.0397  1.3049 -0.8364
 9117SOL    HW238814   1.149   3.969   1.188 -2.3364  1.1754  0.0999
 9118SOL     OW38815   0.293   0.971   4.209  0.1819  0.8116 -0.7061
 9118SOL    HW138816   0.231   1.038   4.237  1.2826  1.7452 -0.4979
 9118SOL    HW238817   0.377   1.017   4.215  0.6890 -0.3090  0.8090
 9119SOL     OW38818   2.157   4.258   3.463  0.2188 -0.5439  0.3577
 9119SOL    HW138819   2.097   4.300   3.524 -1.6558  0.2341 -2.0361
 9119SOL    HW238820   2.153   4.165   3.486 -2.3299  0.4115  3.8022
 9120SOL     OW38821   3.132   1.229   5.191 -0.5174 -0.1380 -0.3454
 9120SOL    HW138822   3.072   1.233   5.266  1.0804  3.5281  0.7662
 9120SOL    HW238823   3.183   1.152   5.216 -0.9259 -0.1845  0.3553
 9121SOL     OW38824   2.262   2.743  13.244 -0.1945  0.3907 -0.2259
 9121SOL    HW138825   2.218   2.753  13.159 -1.0676 -0.2825  0.1562
 9121SOL    HW238826   2.218   2.801  13.306  0.8256 -0.3559  1.2080
 9122SOL     OW38827   1.001   3.425   5.670 -0.4582 -0.2918 -0.2758
 9122SOL    HW138828   0.914   3.410   5.707 -0.5368 -1.7208 -1.0203
 9122SOL    HW238829   1.051   3.437   5.751 -3.7526  1.3908  1.5073
 9123SOL     OW38830   2.302   2.487   3.109 -0.5329 -0.4507  0.0894
 9123SOL    HW138831   2.212   2.519   3.100  0.1960  1.5310 -0.1980
 9123SOL    HW238832   2.289   2.421   3.177 -0.3457 -0.0476  0.5182
 9124SOL     OW38833   2.418   3.032   3.983  0.6649  0.0292  0.4125
 9124SOL    HW138834   2.496   3.065   3.938 -0.4999  0.8221 -1.0394
 9124SOL    HW238835   2.444   2.960   4.040 -0.0520  1.3511  2.4070
 9125SOL     OW38836   2.203   1.465  10.905 -0.7111 -0.1572 -0.1802
 9125SOL    HW138837   2.199   1.530  10.835 -2.0493 -0.0841 -0.0447
 9125SOL    HW238838   2.116   1.477  10.943 -1.3162 -0.8065 -1.3593
 9126SOL     OW38839   0.271   1.892   6.960 -0.0930 -0.9558  0.6019
 9126SOL    HW138840   0.180   1.909   6.935 -0.9670 -2.4931  2.7550
 9126SOL    HW238841   0.313   1.969   6.920  1.2062 -1.0897  1.7027
 9127SOL     OW38842   1.791   1.148   6.499 -0.1777 -0.4674 -0.5907
 9127SOL    HW138843   1.781   1.066   6.451  0.5891 -1.5564  1.1084
 9127SOL    HW238844   1.851   1.125   6.570 -0.7000 -1.2411 -0.4000
 9128SOL     OW38845   4.318   4.067   5.574  0.1797 -0.6219  0.1684
 9128SOL    HW138846   4.284   4.117   5.648 -2.5392 -4.0529  1.2412
 9128SOL    HW238847   4.412   4.057   5.591  0.2643  3.2520  1.9145
 9129SOL     OW38848   1.779   2.515   5.797 -0.3747 -0.1309 -0.2332
 9129SOL    HW138849   1.830   2.451   5.747  0.5308  0.0808  0.4175
 9129SOL    HW238850   1.738   2.564   5.725  0.7279 -0.1138 -0.8430
 9130SOL     OW38851   4.478   2.517   2.450 -0.5678 -0.3251  0.1553
 9130SOL    HW138852   4.537   2.592   2.453 -0.3106 -0.5818  1.6941
 9130SOL    HW238853   4.544   2.447   2.459 -0.0380  0.3850  1.7459
 9131SOL     OW38854   4.164   0.325   6.095 -0.4438 -0.0520  0.1785
 9131SOL    HW138855   4.096   0.347   6.159  0.6001  0.4349  1.1098
 9131SOL    HW238856   4.244   0.344   6.143 -0.2058 -0.1002 -0.2031
 9132SOL     OW38857   2.209   3.028   5.508 -0.0300 -0.0465 -0.0192
 9132SOL    HW138858   2.246   2.994   5.589 -0.8001 -0.7688  0.0336
 9132SOL    HW238859   2.200   2.947   5.457  0.7581 -0.0164 -0.2020
 9133SOL     OW38860   4.192   3.890   6.237 -0.7080 -0.1099 -0.1015
 9133SOL    HW138861   4.285   3.902   6.257 -0.6623  1.4092 -1.2516
 9133SOL    HW238862   4.163   3.818   6.293  1.6526 -0.4138  0.7143
 9134SOL     OW38863   2.032   3.291   6.157 -0.3742  0.0414 -0.1161
 9134SOL    HW138864   2.109   3.235   6.171 -1.8909 -1.5407  1.7897
 9134SOL    HW238865   1.965   3.262   6.219 -1.6833 -0.5806 -1.8158
 9135SOL     OW38866   1.186   4.110   5.585  0.6559  0.3896  0.6865
 9135SOL    HW138867   1.226   4.071   5.663  0.0116 -0.0472  0.7921
 9135SOL    HW238868   1.115   4.163   5.620 -0.2913  1.8047 -3.2977
 9136SOL     OW38869   0.060   2.323   3.325 -0.3693  0.4593 -0.4952
 9136SOL    HW138870   0.105   2.249   3.284  0.2043  2.1544 -2.9151
 9136SOL    HW238871   0.025   2.378   3.255 -1.6449  0.7176  0.3489
 9137SOL     OW38872   3.719   4.362  11.919  0.2317  0.3556  0.2654
 9137SOL    HW138873   3.657   4.290  11.929  0.2859  0.3949  0.9420
 9137SOL    HW238874   3.739   4.392  12.008  1.8934 -1.5984  0.5670
 9138SOL     OW38875   1.342   3.456   4.999  0.3999 -0.3052 -0.3067
 9138SOL    HW138876   1.340   3.425   4.909  0.6015 -0.9910 -0.0720
 9138SOL    HW238877   1.318   3.376   5.045 -0.9904 -0.2444 -0.9035
 9139SOL     OW38878   0.935   3.780   3.512 -0.5492  0.0718 -0.1452
 9139SOL    HW138879   1.012   3.779   3.568 -0.0187 -1.5135 -0.9095
 9139SOL    HW238880   0.966   3.839   3.444 -0.4989  0.9569  0.6529
 9140SOL     OW38881   3.437   3.813   0.738 -0.3570  0.7918 -0.0422
 9140SOL    HW138882   3.473   3.796   0.651  2.2319  0.9117  1.0131
 9140SOL    HW238883   3.432   3.909   0.734 -2.1915  0.6295 -2.1662
 9141SOL     OW38884   0.322   4.191   4.053 -0.4096 -0.3945  0.0590
 9141SOL    HW138885   0.250   4.196   3.990 -0.1044  0.5434 -0.2057
 9141SOL    HW238886   0.282   4.165   4.137  0.0472  0.3493  0.5058
 9142SOL     OW38887   2.748   0.139   1.836 -0.6427  0.1179 -0.1277
 9142SOL    HW138888   2.748   0.045   1.857  2.7126  0.0020 -0.6686
 9142SOL    HW238889   2.793   0.162   1.917 -1.5747 -0.4664  0.5541
 9143SOL     OW38890   3.623   3.223   2.389 -0.2500 -0.1099  0.0002
 9143SOL    HW138891   3.689   3.195   2.452 -1.1901  1.2735  1.6315
 9143SOL    HW238892   3.678   3.260   2.320 -2.5338  0.7163 -1.3875
 9144SOL     OW38893   1.211   4.573  16.787  0.0911  0.0636  0.0357
 9144SOL    HW138894   1.254   4.659  16.788  0.1628  0.0452 -1.6000
 9144SOL    HW238895   1.281   4.515  16.816  0.1437  0.6256  1.0569
 9145SOL     OW38896   3.160   0.696   4.358  0.5051  0.1219 -0.2317
 9145SOL    HW138897   3.136   0.607   4.386  0.7948  0.0453 -0.2259
 9145SOL    HW238898   3.238   0.673   4.307  0.1137 -1.4984 -0.0924
 9146SOL     OW38899   4.235   1.677  10.078  0.2239  0.3913 -0.0258
 9146SOL    HW138900   4.249   1.767  10.048  2.0397 -0.0094 -0.3637
 9146SOL    HW238901   4.147   1.677  10.115  0.9546 -2.8768  1.6669
 9147SOL     OW38902   2.239   2.054   6.740  0.4396 -0.0158  1.3895
 9147SOL    HW138903   2.251   2.063   6.645  0.5992 -1.8319  1.2329
 9147SOL    HW238904   2.302   1.985   6.759  0.7831  0.6847  2.7998
 9148SOL     OW38905   4.503   0.233  14.675  0.1060 -0.1557  0.2619
 9148SOL    HW138906   4.497   0.262  14.766 -1.0139 -0.3942  0.2746
 9148SOL    HW238907   4.408   0.240  14.660 -0.0262 -0.5802  0.9514
 9149SOL     OW38908   2.228   4.671   5.468  0.7226  0.2115  0.1989
 9149SOL    HW138909   2.258   4.680   5.377  1.6029  0.4314  0.5157
 9149SOL    HW238910   2.251   4.580   5.487 -1.4011 -0.0095  1.6222
 9150SOL     OW38911   1.879   3.723   1.397  0.0006  0.1163 -0.2379
 9150SOL    HW138912   1.838   3.638   1.387 -1.1669  0.2531  3.2476
 9150SOL    HW238913   1.872   3.730   1.493  1.6332 -0.5391 -0.0852
 9151SOL     OW38914   2.873   2.773   0.356  0.0933  0.3288  0.6377
 9151SOL    HW138915   2.790   2.759   0.401  0.7042 -0.7955  1.4212
 9151SOL    HW238916   2.841   2.748   0.269 -0.3147 -1.2520  1.2542
 9152SOL     OW38917   2.657   0.352   8.880  0.7288  0.1916  0.8138
 9152SOL    HW138918   2.591   0.286   8.900 -0.8778  1.6903  0.4757
 9152SOL    HW238919   2.620   0.427   8.927 -0.8571 -0.2893  0.3637
 9153SOL     OW38920   2.995   1.266   0.530  0.0699 -0.0709  0.6925
 9153SOL    HW138921   3.007   1.181   0.488  4.8677  0.9289 -0.0164
 9153SOL    HW238922   3.020   1.238   0.618 -0.4339  1.0265  1.1835
 9154SOL     OW38923   0.067   0.143  16.447  0.3375  0.0353 -0.1950
 9154SOL    HW138924   0.076   0.073  16.511  1.1821  0.7870  0.5225
 9154SOL    HW238925   0.158   0.175  16.456 -0.5218  1.8334  2.1587
 9155SOL     OW38926   2.469   0.149   6.187  0.3073 -0.6532  0.5197
 9155SOL    HW138927   2.551   0.182   6.151  0.1807 -1.1056 -0.1863
 9155SOL    HW238928   2.404   0.212   6.157 -0.1541 -2.6180 -2.6637
 9156SOL     OW38929   1.915   0.142  14.525  0.0584 -0.1429  0.4172
 9156SOL    HW138930   1.982   0.209  14.521  0.4021 -0.4536  0.9891
 9156SOL    HW238931   1.885   0.157  14.435  2.1212 -0.5882 -0.3331
 9157SOL     OW38932   2.466   2.304   3.673 -0.1664 -0.5313 -0.2013
 9157SOL    HW138933   2.446   2.375   3.613 -1.5266 -2.0300 -1.5302
 9157SOL    HW238934   2.414   2.234   3.633  1.3200 -2.0544  0.5357
 9158SOL     OW38935   1.720   2.104   4.945  0.0081  0.5793  0.1018
 9158SOL    HW138936   1.731   2.082   4.852  0.8457  0.2703  0.2731
 9158SOL    HW238937   1.810   2.106   4.977 -0.9282 -0.7853  2.7667
 9159SOL     OW38938   4.119   3.609   0.074  0.1269  0.5112 -0.1498
 9159SOL    HW138939   4.029   3.590   0.050 -0.0164 -0.7921  1.4476
 9159SOL    HW238940   4.133   3.551   0.149 -0.3711  1.1601  0.4393
 9160SOL     OW38941   3.634   0.604  11.467  0.1414 -0.1250 -0.7793
 9160SOL    HW138942   3.697   0.534  11.449 -0.2117 -1.1394  2.0074
 9160SOL    HW238943   3.559   0.547  11.483  0.2932  0.0250  0.4141
 9161SOL     OW38944   2.954   4.030  10.772  0.2162  0.0785  0.5760
 9161SOL    HW138945   2.871   4.041  10.819 -1.1290 -0.6252 -1.6722
 9161SOL    HW238946   2.999   4.113  10.789 -2.6096  1.0435  3.3278
 9162SOL     OW38947   4.507   3.209   8.366 -0.1827  0.0735 -0.1540
 9162SOL    HW138948   4.480   3.299   8.382 -0.0424  0.0580  0.1657
 9162SOL    HW238949   4.557   3.217   8.285  0.3133 -2.4086 -0.1088
 9163SOL     OW38950   2.712   0.978   3.810  0.2225 -0.0701  0.1446
 9163SOL    HW138951   2.750   0.936   3.733 -0.6194  1.3072 -1.0116
 9163SOL    HW238952   2.794   1.006   3.851  0.5434 -0.9372  0.0908
 9164SOL     OW38953   2.343   4.159  10.708  0.0507  0.6369  0.5028
 9164SOL    HW138954   2.282   4.112  10.764 -0.5376 -2.4949 -2.7535
 9164SOL    HW238955   2.408   4.090  10.697 -1.5062 -0.4738 -1.7471
 9165SOL     OW38956   4.019   0.300   3.523 -0.1356  0.5538 -0.1703
 9165SOL    HW138957   3.975   0.385   3.518 -0.8550  0.2650  1.4752
 9165SOL    HW238958   4.034   0.296   3.617  1.3645 -2.2780 -0.5340
 9166SOL     OW38959   1.776   3.308   4.457  0.4193  0.4608  0.5537
 9166SOL    HW138960   1.775   3.278   4.366  1.5162  0.0872  0.6645
 9166SOL    HW238961   1.807   3.398   4.449  2.4063 -0.0531  2.4551
 9167SOL     OW38962   2.774   0.569   2.297  0.3161  0.2216  0.3726
 9167SOL    HW138963   2.706   0.508   2.269  0.7967 -0.3565  0.4701
 9167SOL    HW238964   2.730   0.654   2.286 -0.7769 -0.5570 -1.2842
 9168SOL     OW38965   0.552   2.111   8.849 -0.4600 -0.0628 -0.1837
 9168SOL    HW138966   0.557   2.164   8.929 -2.0609  0.2553 -0.2909
 9168SOL    HW238967   0.628   2.146   8.804 -0.2705 -0.4556 -0.1738
 9169SOL     OW38968   3.398   0.283   7.264  0.1159 -0.0006  0.3936
 9169SOL    HW138969   3.457   0.290   7.340 -2.7838 -3.3447  2.9532
 9169SOL    HW238970   3.327   0.313   7.320 -1.0053  0.1105 -1.0826
 9170SOL     OW38971   0.167   0.474   6.850  0.6011 -0.4390  0.1790
 9170SOL    HW138972   0.261   0.486   6.835  0.8973 -1.7062  0.9929
 9170SOL    HW238973   0.137   0.563   6.868 -3.0356 -1.4169 -1.0229
 9171SOL     OW38974   2.337   1.033  12.107  0.5455 -0.2982 -0.2934
 9171SOL    HW138975   2.250   1.070  12.097  0.7374 -0.0380 -1.0239
 9171SOL    HW238976   2.359   1.013  12.016 -3.4789 -0.7488 -1.1561
 9172SOL     OW38977   0.954   2.397  15.621  0.7653 -0.5473  0.3158
 9172SOL    HW138978   0.973   2.344  15.543  0.1946  0.3960 -0.4611
 9172SOL    HW238979   0.982   2.485  15.596  0.3365 -0.2673  0.8232
 9173SOL     OW38980   0.194   1.884  17.404  0.5622  0.5601 -0.0632
 9173SOL    HW138981   0.282   1.850  17.420 -1.1599 -3.2953  1.3011
 9173SOL    HW238982   0.223   1.971  17.377 -1.4364  0.8358 -1.3270
 9174SOL     OW38983   3.432   0.433   6.275 -0.3109  0.1067 -0.3968
 9174SOL    HW138984   3.485   0.364   6.317  0.8780  1.3742  0.1920
 9174SOL    HW238985   3.369   0.419   6.346  0.5429  2.7385  0.8833
 9175SOL     OW38986   3.501   0.484  12.352  0.3097 -0.3244  0.7936
 9175SOL    HW138987   3.421   0.433  12.363  1.1310 -1.5305  1.1522
 9175SOL    HW238988   3.549   0.428  12.291 -1.8841 -1.2067 -0.1346
 9176SOL     OW38989   4.664   3.816   8.505 -1.0093  0.5011  0.5009
 9176SOL    HW138990   4.626   3.886   8.453  0.8029  0.3013 -1.1060
 9176SOL    HW238991   0.009   3.791   8.443  0.1864  2.5021  1.0466
 9177SOL     OW38992   0.553   2.585   7.070  0.0289  0.0749 -0.2118
 9177SOL    HW138993   0.503   2.504   7.082 -0.0458 -0.1381 -2.0185
 9177SOL    HW238994   0.605   2.598   7.149  0.8093  0.7855 -0.8438
 9178SOL     OW38995   0.235   0.325   3.671 -0.3980  0.0778 -0.5386
 9178SOL    HW138996   0.178   0.384   3.621 -0.1145  0.8146  0.0153
 9178SOL    HW238997   0.234   0.254   3.607  1.6519  0.2975 -0.7866
 9179SOL     OW38998   3.559   1.496   7.060  0.7479 -0.3169  0.1227
 9179SOL    HW138999   3.514   1.570   7.018  0.7705  0.7048  1.8927
 9179SOL    HW239000   3.484   1.455   7.104  0.2156  0.7070  0.1785
 9180SOL     OW39001   0.275   4.545   7.978 -0.3121  0.8264  0.0068
 9180SOL    HW139002   0.270   4.628   8.025  1.4386  0.3785  1.0099
 9180SOL    HW239003   0.368   4.529   7.997 -0.2282  0.2439 -0.8817
 9181SOL     OW39004   0.324   3.098  10.768 -0.2172 -0.2694 -0.4758
 9181SOL    HW139005   0.238   3.090  10.809  0.0599  0.3940  0.2331
 9181SOL    HW239006   0.312   3.188  10.738  2.2138  0.0931 -0.3594
 9182SOL     OW39007   0.419   2.204  13.299  0.1248 -0.6703 -0.1653
 9182SOL    HW139008   0.417   2.140  13.228  0.4591  0.3607 -1.1137
 9182SOL    HW239009   0.345   2.258  13.272 -0.4560 -1.8135 -0.8664
 9183SOL     OW39010   3.313   0.241  15.808 -0.3380 -0.3361  0.1857
 9183SOL    HW139011   3.352   0.211  15.725 -0.2692  0.9156 -0.2296
 9183SOL    HW239012   3.237   0.286  15.772 -1.9088 -1.2121  2.4215
 9184SOL     OW39013   3.884   0.970   3.090 -0.6826  0.4002 -0.3535
 9184SOL    HW139014   3.953   1.004   3.147  2.3473 -3.2947 -1.8484
 9184SOL    HW239015   3.899   1.027   3.015  1.6679 -1.1738 -1.0712
 9185SOL     OW39016   2.285   1.136  16.342 -0.4314 -0.4295 -0.5616
 9185SOL    HW139017   2.344   1.208  16.368  0.7592 -1.3640 -0.6709
 9185SOL    HW239018   2.295   1.084  16.422 -1.6897 -1.8864 -1.3634
 9186SOL     OW39019   2.792   4.278  10.989 -0.1616  0.2433  0.2881
 9186SOL    HW139020   2.760   4.201  10.943  0.1398 -0.2812  0.9545
 9186SOL    HW239021   2.761   4.348  10.931 -0.5330  0.7591  1.1077
 9187SOL     OW39022   3.919   0.527  12.243 -0.4396 -0.1051  0.0990
 9187SOL    HW139023   3.956   0.440  12.259 -0.0083 -0.4624 -2.9337
 9187SOL    HW239024   3.997   0.578  12.264  0.4943 -1.3700 -0.3186
 9188SOL     OW39025   0.598   2.379   3.877 -0.3553 -0.3901 -0.4131
 9188SOL    HW139026   0.665   2.445   3.859 -1.0298  0.5490  0.5679
 9188SOL    HW239027   0.540   2.377   3.801 -1.5510  0.1560  0.4972
 9189SOL     OW39028   4.134   4.189   5.182  0.2375  0.3439  0.7798
 9189SOL    HW139029   4.111   4.234   5.263  1.9122  1.5072  0.6023
 9189SOL    HW239030   4.203   4.128   5.208 -1.3018 -1.4449  0.7429
 9190SOL     OW39031   4.710   0.318   7.087  0.3018 -0.3024 -0.8524
 9190SOL    HW139032   0.042   0.368   7.028 -0.4064  1.5689  0.0812
 9190SOL    HW239033   0.016   0.360   7.168  2.4812  2.2190 -2.9883
 9191SOL     OW39034   0.723   0.995   8.323  0.0929 -0.1757  0.4757
 9191SOL    HW139035   0.686   0.912   8.354  0.5176 -0.5142  0.0634
 9191SOL    HW239036   0.661   1.021   8.255 -0.6432 -1.3217  0.7099
 9192SOL     OW39037   2.373   4.597   1.795 -0.1446  0.2733 -0.4017
 9192SOL    HW139038   2.348   4.559   1.711 -0.1976  0.2199 -0.3616
 9192SOL    HW239039   2.410   4.522   1.840  0.9781  1.4619  0.6626
 9193SOL     OW39040   0.324   3.510   3.485 -0.4510 -0.2113  0.4204
 9193SOL    HW139041   0.416   3.489   3.499  0.0650  1.4521 -0.4463
 9193SOL    HW239042   0.280   3.426   3.473  1.5959 -1.1948 -0.1460
 9194SOL     OW39043   0.196   3.111   7.212  0.0487 -0.5303  0.1005
 9194SOL    HW139044   0.269   3.070   7.257 -1.6981 -3.0389  0.6503
 9194SOL    HW239045   0.262   3.151   7.154 -0.5810  3.4609  2.1172
 9195SOL     OW39046   3.081   0.277   1.569 -0.5403 -0.2317  0.4334
 9195SOL    HW139047   3.118   0.197   1.531 -1.1846 -1.5796  2.6424
 9195SOL    HW239048   3.103   0.339   1.500 -0.4603 -0.3334  0.3665
 9196SOL     OW39049   0.139   4.221   5.637 -0.0476  0.3500  0.0789
 9196SOL    HW139050   0.136   4.312   5.609  3.0714  0.4863  0.1342
 9196SOL    HW239051   0.208   4.185   5.581 -1.5836 -1.3673 -0.7072
 9197SOL     OW39052   1.624   2.187  14.318 -0.3532  0.1383 -0.0882
 9197SOL    HW139053   1.559   2.257  14.324 -2.1942 -1.5390 -0.6930
 9197SOL    HW239054   1.580   2.125  14.260 -0.7756 -1.7767  2.2949
 9198SOL     OW39055   4.516   1.317  12.759  0.4509 -0.0602 -0.2931
 9198SOL    HW139056   4.605   1.346  12.736 -0.4193  2.4150 -0.5315
 9198SOL    HW239057   4.480   1.401  12.786  1.3089  0.3817 -0.5353
 9199SOL     OW39058   0.199   4.340   4.495  0.0829  0.3484 -0.3083
 9199SOL    HW139059   0.287   4.365   4.522  0.4284  0.8346 -1.8962
 9199SOL    HW239060   0.152   4.422   4.480 -0.9256 -0.1421  0.1503
 9200SOL     OW39061   0.060   1.037   7.997  0.4404  0.3199  0.2332
 9200SOL    HW139062   0.075   1.066   8.086 -1.6096  0.7256  0.4472
 9200SOL    HW239063   0.126   0.968   7.988 -0.1780 -0.2157 -0.1934
 9201SOL     OW39064   3.196   4.225  16.728  0.3099 -0.1065  0.4672
 9201SOL    HW139065   3.107   4.195  16.709  0.9278 -1.9828  0.4968
 9201SOL    HW239066   3.239   4.219  16.643  1.4229 -0.8425  1.0753
 9202SOL     OW39067   2.972   1.295  12.685  0.3251 -0.2576 -0.6345
 9202SOL    HW139068   3.024   1.348  12.745 -1.5436  0.6737  0.1232
 9202SOL    HW239069   2.946   1.359  12.618 -0.1968 -0.1976 -0.3703
 9203SOL     OW39070   0.176   3.007   1.387  0.2828 -0.4743 -0.1993
 9203SOL    HW139071   0.267   2.995   1.414 -0.4104 -0.2405  2.2253
 9203SOL    HW239072   0.151   2.922   1.350 -0.0774  0.3539 -1.8480
 9204SOL     OW39073   2.419   3.806   7.719  0.3044 -0.3180  0.2692
 9204SOL    HW139074   2.447   3.727   7.767  2.8510 -0.4992 -1.4716
 9204SOL    HW239075   2.488   3.809   7.652 -1.0433  0.2296 -1.0689
 9205SOL     OW39076   2.584   1.489   6.394 -0.1902  0.0220 -0.5254
 9205SOL    HW139077   2.619   1.558   6.338  0.9311  1.3944  1.8890
 9205SOL    HW239078   2.543   1.435   6.326  1.3587  0.0671 -1.4833
 9206SOL     OW39079   4.565   0.242   6.006  0.5369  0.1549 -0.1561
 9206SOL    HW139080   4.612   0.185   5.945 -0.0073 -1.5707  1.0415
 9206SOL    HW239081   4.479   0.251   5.964  0.4856  1.4511  0.2483
 9207SOL     OW39082   4.329   0.220   6.316 -0.0927  0.0685 -0.4080
 9207SOL    HW139083   4.424   0.228   6.325 -0.2002 -0.0121  0.8781
 9207SOL    HW239084   4.324   0.143   6.260  1.6908 -0.7423  0.5477
 9208SOL     OW39085   1.781   0.028   8.687  0.2966  0.2350  0.1751
 9208SOL    HW139086   1.834   4.690   8.636  1.4392  0.1793  1.4446
 9208SOL    HW239087   1.844   0.084   8.731 -3.2832  2.2794  2.7468
 9209SOL     OW39088   0.194   2.321   6.417  0.1907 -0.4851 -0.6344
 9209SOL    HW139089   0.154   2.304   6.502  0.5801  0.1015 -0.3305
 9209SOL    HW239090   0.276   2.354   6.454 -2.4480  4.1540  0.9580
 9210SOL     OW39091   3.109   4.371   1.640  0.1584  0.1662 -0.4302
 9210SOL    HW139092   3.115   4.418   1.557  1.0826  3.2337  1.3687
 9210SOL    HW239093   3.145   4.288   1.609  1.0860 -0.1281  1.4398
 9211SOL     OW39094   2.626   2.580  12.547 -0.4508 -0.3133 -0.0387
 9211SOL    HW139095   2.682   2.628  12.608 -0.6488 -0.8463  0.5637
 9211SOL    HW239096   2.691   2.577  12.477  2.8758 -1.1850  3.1316
 9212SOL     OW39097   1.214   3.715  12.012  0.5637  0.2057  0.2415
 9212SOL    HW139098   1.189   3.632  11.970  1.9778 -0.4637  0.7180
 9212SOL    HW239099   1.189   3.781  11.948 -0.8661 -1.6137 -1.0721
 9213SOL     OW39100   3.170   2.808   6.762  0.0687  0.4224  0.2174
 9213SOL    HW139101   3.108   2.801   6.690 -0.2243 -2.8240  0.7915
 9213SOL    HW239102   3.232   2.864   6.716  1.1936 -1.9894 -1.2070
 9214SOL     OW39103   3.158   1.821   4.586  0.1463  0.5182  0.4800
 9214SOL    HW139104   3.149   1.743   4.532 -1.1385 -0.1590  1.6760
 9214SOL    HW239105   3.250   1.842   4.570  0.9696 -1.1716  3.0379
 9215SOL     OW39106   1.193   1.286   2.273 -0.2675 -0.6093 -1.0576
 9215SOL    HW139107   1.171   1.378   2.257 -0.3354 -0.6546 -1.2340
 9215SOL    HW239108   1.124   1.241   2.223 -1.0561 -1.3757  0.7026
 9216SOL     OW39109   0.984   1.288   1.216 -0.6177  0.5172 -0.4272
 9216SOL    HW139110   0.904   1.340   1.205  0.1865  1.9399  0.5696
 9216SOL    HW239111   1.024   1.301   1.131 -0.8487  1.4432 -0.3903
 9217SOL     OW39112   3.010   1.685   9.362  0.5739  0.0330 -0.2778
 9217SOL    HW139113   2.951   1.741   9.311  1.2925  1.2484  0.2258
 9217SOL    HW239114   3.026   1.738   9.440  1.1715 -0.7076  0.0976
 9218SOL     OW39115   2.515   2.333   8.474  0.3455 -0.0064 -0.0082
 9218SOL    HW139116   2.517   2.427   8.488 -1.1058  0.2048 -1.2916
 9218SOL    HW239117   2.436   2.318   8.423 -0.9768  1.0429  1.7386
 9219SOL     OW39118   2.901   1.256   7.513 -0.7531 -0.0871  0.4324
 9219SOL    HW139119   2.817   1.214   7.498 -1.2876  1.4739 -0.8705
 9219SOL    HW239120   2.953   1.187   7.470 -1.7884 -2.2999  2.7400
 9220SOL     OW39121   0.188   3.927   0.392 -0.6058  0.2927 -0.5881
 9220SOL    HW139122   0.245   4.003   0.400 -1.3710  0.8006  0.0222
 9220SOL    HW239123   0.227   3.872   0.325 -1.6696 -1.4839  0.2500
 9221SOL     OW39124   0.014   3.325   5.004  0.0906  0.0349  0.1417
 9221SOL    HW139125   4.685   3.246   5.008  0.2904 -0.1096 -0.1063
 9221SOL    HW239126   0.062   3.305   5.084  1.6375  1.2452 -0.4678
 9222SOL     OW39127   3.028   4.563  10.024 -0.4891  0.0415  0.0216
 9222SOL    HW139128   3.046   4.650  10.060 -0.1928  0.0636 -0.1839
 9222SOL    HW239129   3.043   4.577   9.931 -1.6025 -0.1010 -0.1812
 9223SOL     OW39130   4.272   0.461   6.797  0.1843  0.0631  0.1239
 9223SOL    HW139131   4.190   0.414   6.803 -0.4922  1.1949 -0.2247
 9223SOL    HW239132   4.310   0.427   6.716 -0.8763  0.9070 -0.7157
 9224SOL     OW39133   2.097   3.732  14.707 -0.3094  0.4318 -0.0587
 9224SOL    HW139134   2.125   3.793  14.640 -0.5810  0.2258 -0.3587
 9224SOL    HW239135   2.021   3.780  14.739  0.6189  1.3659  0.7514
 9225SOL     OW39136   2.530   1.984   7.323 -0.1823 -0.2676 -0.0789
 9225SOL    HW139137   2.439   1.957   7.309 -0.8235  1.8039  0.0413
 9225SOL    HW239138   2.537   1.970   7.417  0.9225 -1.2131 -0.3009
 9226SOL     OW39139   1.089   4.254   4.680  0.3249 -0.2878  0.1501
 9226SOL    HW139140   1.161   4.214   4.729 -0.4548  1.0923  2.4190
 9226SOL    HW239141   1.139   4.257   4.598  1.3877  2.1993  0.8817
 9227SOL     OW39142   1.229   0.692   5.680  0.2836 -0.3622  0.5047
 9227SOL    HW139143   1.225   0.786   5.663  0.5051 -0.6437 -1.0999
 9227SOL    HW239144   1.143   0.682   5.721  0.7253 -2.0780  0.9799
 9228SOL     OW39145   2.991   1.780   6.714 -0.0160 -0.2797  0.2465
 9228SOL    HW139146   2.922   1.735   6.665  0.9993 -0.1185 -1.3337
 9228SOL    HW239147   2.950   1.850   6.766  1.2622  1.0274 -0.5018
 9229SOL     OW39148   3.880   4.137   4.207 -0.1291 -0.6107 -0.4537
 9229SOL    HW139149   3.865   4.231   4.206  0.2167 -0.5566 -0.7678
 9229SOL    HW239150   3.966   4.130   4.248 -0.2328  1.4870  0.1060
 9230SOL     OW39151   0.166   0.171  11.069  0.2408  0.2495  0.2665
 9230SOL    HW139152   0.075   0.187  11.044  0.2674 -0.1452 -0.0903
 9230SOL    HW239153   0.158   0.080  11.097  1.5641 -0.3250 -1.2205
 9231SOL     OW39154   1.056   0.399   5.614  0.3122 -0.4096 -0.0281
 9231SOL    HW139155   0.988   0.446   5.566  0.4357  0.1384  0.3321
 9231SOL    HW239156   1.031   0.414   5.705  1.4283 -1.8605  0.5236
 9232SOL     OW39157   1.077   3.703  16.701 -0.0059  0.0731  0.3560
 9232SOL    HW139158   1.158   3.670  16.663  1.1503  1.9333  1.2001
 9232SOL    HW239159   1.011   3.644  16.664 -0.3234  0.0495  0.9561
 9233SOL     OW39160   4.568   4.356   1.584  0.3023  0.6813  0.8324
 9233SOL    HW139161   4.550   4.428   1.645 -1.5643 -1.4759  2.8114
 9233SOL    HW239162   4.570   4.284   1.647  1.1209 -1.7854 -2.0033
 9234SOL     OW39163   0.938   4.121   6.488  0.3348  0.0045  0.2551
 9234SOL    HW139164   0.958   4.040   6.536  0.8571 -0.1602 -0.2435
 9234SOL    HW239165   0.905   4.177   6.559  1.1134  1.0131 -0.1947
 9235SOL     OW39166   1.542   2.141  16.314  0.2651 -0.7135  0.0073
 9235SOL    HW139167   1.574   2.090  16.239 -0.6153 -0.7205 -0.3613
 9235SOL    HW239168   1.472   2.084  16.345 -0.5303 -0.8358 -1.9800
 9236SOL     OW39169   3.845   2.884   4.354 -0.0374  0.2719  0.0715
 9236SOL    HW139170   3.879   2.806   4.312 -0.6186  0.6491 -1.0977
 9236SOL    HW239171   3.825   2.943   4.281  2.3053 -0.5397 -1.2469
 9237SOL     OW39172   2.454   0.105  14.658 -0.1099 -0.2357 -0.3213
 9237SOL    HW139173   2.387   0.044  14.628 -2.1224  2.0148 -0.4062
 9237SOL    HW239174   2.402   0.182  14.678 -0.5927 -0.4948 -0.6016
 9238SOL     OW39175   4.292   1.850   3.379 -0.0734  0.1954 -0.2191
 9238SOL    HW139176   4.369   1.893   3.417  0.1572 -0.0213 -0.4432
 9238SOL    HW239177   4.237   1.837   3.456 -0.3259 -1.5074 -0.6844
 9239SOL     OW39178   4.697   0.922   5.972  0.2930  0.4986  0.5230
 9239SOL    HW139179   4.679   0.916   5.878 -3.4375  3.2586  1.0201
 9239SOL    HW239180   4.629   0.988   5.991  1.5151  1.3992  1.7177
 9240SOL     OW39181   4.688   4.018   4.435  0.5982  0.7793  0.0358
 9240SOL    HW139182   0.000   4.074   4.504 -1.9544 -0.1384  2.1132
 9240SOL    HW239183   0.027   4.035   4.365  0.8795  0.4741  0.2065
 9241SOL     OW39184   3.244   2.705   5.686 -0.2326 -0.3359 -0.4783
 9241SOL    HW139185   3.242   2.624   5.736  2.0153  0.4628  0.9244
 9241SOL    HW239186   3.311   2.687   5.620 -2.2695  1.0424 -2.9092
 9242SOL     OW39187   3.738   3.255  12.747 -0.3901  0.1349  0.1733
 9242SOL    HW139188   3.826   3.285  12.770 -0.3850 -1.0549  1.6811
 9242SOL    HW239189   3.709   3.311  12.675  1.2837  2.2926  1.1747
 9243SOL     OW39190   4.486   3.990   7.646  0.2302  0.5568 -0.0775
 9243SOL    HW139191   4.561   4.048   7.661  1.4585 -0.1277 -3.5343
 9243SOL    HW239192   4.507   3.944   7.565  1.1483 -0.4852  0.7548
 9244SOL     OW39193   2.416   3.995   8.128 -0.0528  0.0828 -0.5364
 9244SOL    HW139194   2.351   4.018   8.195  0.6504  0.3656  0.0500
 9244SOL    HW239195   2.369   4.021   8.048 -1.7330 -0.8179  0.1539
 9245SOL     OW39196   1.526   2.825   4.379 -0.6520 -0.0263  0.0805
 9245SOL    HW139197   1.469   2.834   4.455 -2.4177  0.7466 -1.3509
 9245SOL    HW239198   1.511   2.901   4.322  1.3623 -1.9371 -3.0100
 9246SOL     OW39199   3.224   0.883   6.830  0.0404  0.6441 -1.0162
 9246SOL    HW139200   3.220   0.954   6.766  0.6367  0.2919 -1.4398
 9246SOL    HW239201   3.216   0.941   6.906 -0.3031 -0.2287 -0.3894
 9247SOL     OW39202   1.954   2.722   8.816  0.4892 -0.0483  0.4626
 9247SOL    HW139203   1.984   2.675   8.894  3.3646  1.8698  0.5283
 9247SOL    HW239204   2.027   2.782   8.800  0.4305 -0.6108 -1.9257
 9248SOL     OW39205   3.274   4.023   2.271 -0.0861  0.0730 -0.0859
 9248SOL    HW139206   3.293   4.020   2.365  0.8388  0.6191 -0.2510
 9248SOL    HW239207   3.275   4.118   2.257 -2.4332  0.2086  0.6449
 9249SOL     OW39208   2.816   3.122   5.344  0.2709  0.3420  0.0591
 9249SOL    HW139209   2.893   3.162   5.303 -0.6042 -0.3979 -2.2849
 9249SOL    HW239210   2.739   3.157   5.301  0.2056  1.6710  1.2598
 9250SOL     OW39211   1.175   0.237  12.192 -0.5296  0.2856 -0.2154
 9250SOL    HW139212   1.258   0.284  12.196 -0.9456  0.9408  0.6029
 9250SOL    HW239213   1.175   0.181  12.270 -0.2834 -0.7829 -0.9706
 9251SOL     OW39214   2.653   0.787   8.605 -0.3195  0.4050  0.2272
 9251SOL    HW139215   2.643   0.723   8.534  0.3408 -0.5649  1.0038
 9251SOL    HW239216   2.563   0.798   8.637  0.7080 -1.2577  3.6752
 9252SOL     OW39217   2.373   4.262   3.311 -0.5113  0.6827 -0.1358
 9252SOL    HW139218   2.301   4.257   3.374  0.4696 -0.2758  0.9069
 9252SOL    HW239219   2.327   4.280   3.229 -0.5825  0.2962 -0.1809
 9253SOL     OW39220   0.356   4.019   8.486  0.2642 -0.2206 -0.5109
 9253SOL    HW139221   0.297   4.069   8.543  0.7973 -0.8809  0.6165
 9253SOL    HW239222   0.422   4.084   8.464  0.8723 -1.2630 -1.8259
 9254SOL     OW39223   1.061   1.043   9.861 -0.0003 -0.5874  0.1453
 9254SOL    HW139224   0.975   1.042   9.904  0.3664  1.3689  0.9490
 9254SOL    HW239225   1.101   1.122   9.898 -1.7099  0.5807 -0.4882
 9255SOL     OW39226   0.868   0.567   1.252  0.3700  0.6311  0.1205
 9255SOL    HW139227   0.936   0.581   1.318 -1.5041  0.1439  2.1649
 9255SOL    HW239228   0.854   0.472   1.255  1.2880  0.5505  1.7030
 9256SOL     OW39229   1.269   2.685   0.486 -0.0297 -0.5180  0.4587
 9256SOL    HW139230   1.340   2.746   0.466  1.2720 -1.5482  1.9118
 9256SOL    HW239231   1.244   2.723   0.570  1.3074  0.4325  0.4307
 9257SOL     OW39232   3.812   3.838   4.483  0.0972  0.1067  0.6250
 9257SOL    HW139233   3.790   3.751   4.450  1.0639  0.3069 -0.5589
 9257SOL    HW239234   3.769   3.893   4.417  1.1525 -0.9961 -0.9765
 9258SOL     OW39235   2.877   0.665   2.838  0.2179 -0.1590 -0.2805
 9258SOL    HW139236   2.858   0.581   2.796 -1.4434 -0.2478  0.6287
 9258SOL    HW239237   2.796   0.709   2.863 -0.4313 -0.2649 -2.1615
 9259SOL     OW39238   2.473   3.831   4.739  0.1803  0.3250 -0.2325
 9259SOL    HW139239   2.532   3.760   4.713 -1.0623 -0.6935 -0.2977
 9259SOL    HW239240   2.460   3.889   4.664 -0.2190 -1.5680 -1.6230
 9260SOL     OW39241   1.678   3.260   8.069  0.0258 -0.5072 -0.2394
 9260SOL    HW139242   1.685   3.241   8.162  0.8078  0.6615 -0.0618
 9260SOL    HW239243   1.748   3.202   8.037  0.3128 -1.0121  1.3345
 9261SOL     OW39244   0.055   3.585   4.940  0.0598  0.7739 -0.1274
 9261SOL    HW139245   0.017   3.500   4.961 -0.0835  1.0001  0.5257
 9261SOL    HW239246   0.053   3.628   5.026  1.1317 -0.1622  0.3666
 9262SOL     OW39247   1.686   2.454   8.842 -0.6110 -0.1357 -0.4028
 9262SOL    HW139248   1.771   2.461   8.885 -1.1244  0.0762  0.5694
 9262SOL    HW239249   1.673   2.360   8.854 -0.2317 -0.1982 -0.4738
 9263SOL     OW39250   2.707   4.594   1.845  0.0868 -0.0442 -0.0952
 9263SOL    HW139251   2.753   4.589   1.761 -1.0944 -0.9359 -0.6865
 9263SOL    HW239252   2.642   4.529   1.821  1.1875 -0.4754 -1.9240
 9264SOL     OW39253   0.460   4.079  17.074  0.3981  0.0390 -0.1656
 9264SOL    HW139254   0.398   4.146  17.047 -0.8934 -1.3037 -0.5154
 9264SOL    HW239255   0.509   4.105  17.152 -0.1372 -2.1967  0.9379
 9265SOL     OW39256   3.847   3.013  12.194 -0.2092  0.2002  0.0881
 9265SOL    HW139257   3.786   3.044  12.128  0.9828  0.0881 -1.0650
 9265SOL    HW239258   3.795   3.046  12.267  1.3551  1.1888  0.7690
 9266SOL     OW39259   2.702   2.697  14.475 -0.6409 -0.5387  0.7260
 9266SOL    HW139260   2.740   2.780  14.445 -0.6513  0.0914  2.4547
 9266SOL    HW239261   2.623   2.715  14.526 -0.7724  0.6435  0.1345
 9267SOL     OW39262   3.098   2.534   2.575  0.1637 -0.4128 -0.1377
 9267SOL    HW139263   3.150   2.507   2.651  0.2313 -0.6445 -0.2633
 9267SOL    HW239264   3.008   2.518   2.603 -0.0326 -3.1172 -2.2964
 9268SOL     OW39265   1.128   3.684   8.268 -0.8012  0.4472 -0.2810
 9268SOL    HW139266   1.087   3.663   8.185 -0.4036 -2.2474  0.2242
 9268SOL    HW239267   1.145   3.600   8.311  1.0514 -0.8495 -3.5486
 9269SOL     OW39268   1.895   3.236  12.673  0.2763 -0.0618  0.4487
 9269SOL    HW139269   1.957   3.164  12.677 -0.6973 -0.8688  0.8088
 9269SOL    HW239270   1.817   3.183  12.657  0.4598 -0.3695  0.5954
 9270SOL     OW39271   0.297   1.587  16.037  0.5137 -0.1368 -0.2268
 9270SOL    HW139272   0.392   1.598  16.036  0.5151  0.1690  2.0127
 9270SOL    HW239273   0.275   1.625  15.953 -2.0359  1.2177  1.0431
 9271SOL     OW39274   1.564   0.014   2.918  0.1626 -0.3412 -0.0567
 9271SOL    HW139275   1.619   4.704   2.847 -0.9729 -2.1631 -0.0535
 9271SOL    HW239276   1.494   0.048   2.862  0.1999 -3.8392 -2.1817
 9272SOL     OW39277   2.108   4.635   2.817  0.0966 -0.0408 -0.1005
 9272SOL    HW139278   2.164   4.593   2.752 -1.0054 -2.3778  0.4663
 9272SOL    HW239279   2.024   4.602   2.786 -0.4731  0.1867  1.2093
 9273SOL     OW39280   2.206   2.050   3.752 -0.5680 -0.5637  0.2148
 9273SOL    HW139281   2.291   2.082   3.780 -1.3454  1.3998  0.3350
 9273SOL    HW239282   2.147   2.121   3.777  0.7308  0.9221 -0.9780
 9274SOL     OW39283   3.725   3.052  17.420 -0.2186 -0.5831  0.0665
 9274SOL    HW139284   3.654   3.106  17.452  0.3373 -0.7773  1.6117
 9274SOL    HW239285   3.734   2.987  17.489 -2.0051  1.2682  2.0157
 9275SOL     OW39286   2.587   1.517   2.827  0.9021  0.4083 -0.6322
 9275SOL    HW139287   2.607   1.426   2.802 -0.9443 -0.2002  0.0906
 9275SOL    HW239288   2.492   1.521   2.818  0.6857  0.2755  1.5036
 9276SOL     OW39289   1.126   3.348  14.614  0.3415 -0.0985  0.4044
 9276SOL    HW139290   1.036   3.377  14.626 -0.6431 -3.0589  0.2616
 9276SOL    HW239291   1.173   3.390  14.686 -1.5438  1.5150  0.6847
 9277SOL     OW39292   0.295   2.402   6.705 -0.3942  0.3044  0.1747
 9277SOL    HW139293   0.209   2.443   6.704 -0.5864 -0.1494 -1.6650
 9277SOL    HW239294   0.299   2.377   6.798  1.3852 -0.8332 -0.1999
 9278SOL     OW39295   3.980   2.054   8.379  1.1944 -0.1082 -0.2400
 9278SOL    HW139296   4.005   2.137   8.420  0.4076  0.4125 -0.8130
 9278SOL    HW239297   3.978   2.004   8.461  1.7176  2.0961  1.1537
 9279SOL     OW39298   3.165   3.776   6.496  0.5884  0.2795  0.2652
 9279SOL    HW139299   3.085   3.752   6.449  1.7721 -0.2360 -1.4601
 9279SOL    HW239300   3.162   3.729   6.579  1.0825 -0.4878 -0.1583
 9280SOL     OW39301   3.313   3.798   5.833 -0.4709  0.8310  0.6213
 9280SOL    HW139302   3.323   3.876   5.887  0.5708  0.8406  0.4113
 9280SOL    HW239303   3.316   3.733   5.903  2.3590 -0.6003 -0.8489
 9281SOL     OW39304   4.220   0.569   7.049 -0.8261  1.0846 -0.1281
 9281SOL    HW139305   4.315   0.569   7.038 -0.5607  0.3044  2.1250
 9281SOL    HW239306   4.192   0.513   6.976 -1.5793 -1.7646  2.3427
 9282SOL     OW39307   3.317   2.016   7.213  0.2661  0.0089 -0.5292
 9282SOL    HW139308   3.297   1.956   7.285  0.8314  0.1899 -0.2204
 9282SOL    HW239309   3.407   1.987   7.194  0.4327  1.5181 -2.0251
 9283SOL     OW39310   2.517   0.687  12.418  0.2343  0.4141 -0.0619
 9283SOL    HW139311   2.557   0.772  12.438  0.6060  0.6215 -1.7107
 9283SOL    HW239312   2.482   0.657  12.502  1.4267  2.7101  1.2520
 9284SOL     OW39313   1.979   0.154  11.235  0.6184  0.2200  0.0274
 9284SOL    HW139314   1.968   0.106  11.154 -2.7091  0.2812  0.4652
 9284SOL    HW239315   2.075   0.156  11.243  0.5535 -0.8172  1.0595
 9285SOL     OW39316   1.804   0.954  16.360 -0.4700 -0.5827  0.0027
 9285SOL    HW139317   1.737   1.002  16.313 -0.6340 -0.7873  0.0251
 9285SOL    HW239318   1.878   1.015  16.360 -1.4050  0.5467 -1.1014
 9286SOL     OW39319   2.019   0.334   1.265  0.4008  0.7755  0.1754
 9286SOL    HW139320   2.058   0.266   1.211  0.5293 -1.9065  3.6235
 9286SOL    HW239321   1.935   0.341   1.220 -0.0173 -0.1806  0.8191
 9287SOL     OW39322   1.563   3.555   3.334 -0.7439 -0.0875 -0.3303
 9287SOL    HW139323   1.644   3.544   3.284  0.4112  4.5401  0.5033
 9287SOL    HW239324   1.524   3.470   3.312  1.1788 -1.0436 -0.0335
 9288SOL     OW39325   1.721   0.927  13.832  0.5473 -0.1993  0.2767
 9288SOL    HW139326   1.685   0.996  13.887  2.7759  1.8366 -0.8045
 9288SOL    HW239327   1.682   0.850  13.875 -0.7373  1.1333  1.4812
 9289SOL     OW39328   1.455   4.211   4.731  1.2968  0.5336  0.4075
 9289SOL    HW139329   1.521   4.177   4.791  0.5446 -0.3646  0.7232
 9289SOL    HW239330   1.384   4.150   4.751 -1.1428  2.4703 -2.3322
 9290SOL     OW39331   2.243   2.963   9.257  0.1654 -0.0101 -0.6647
 9290SOL    HW139332   2.327   2.924   9.236  0.8261  0.3105  1.3532
 9290SOL    HW239333   2.229   2.927   9.345  1.0145 -0.9797 -0.9257
 9291SOL     OW39334   1.084   3.016   6.223  0.3298  0.1268 -0.3942
 9291SOL    HW139335   1.053   3.053   6.140 -2.0057 -2.2692 -0.5711
 9291SOL    HW239336   1.031   2.938   6.239  0.9761 -0.1803  0.2231
 9292SOL     OW39337   1.327   3.590   4.320 -0.3249  0.1766  0.1927
 9292SOL    HW139338   1.329   3.612   4.413  3.5095  1.9747 -0.3299
 9292SOL    HW239339   1.237   3.603   4.289  0.1690  0.8205 -0.9776
 9293SOL     OW39340   2.970   2.613  15.162 -0.1969  0.0075 -0.1330
 9293SOL    HW139341   2.948   2.548  15.228 -0.5166  2.2902  2.0120
 9293SOL    HW239342   2.901   2.592  15.099 -0.5855 -0.1946  0.3557
 9294SOL     OW39343   4.660   0.245   4.176  0.2142 -0.1345 -0.1013
 9294SOL    HW139344   0.013   0.203   4.216  0.2793  0.0234 -0.0617
 9294SOL    HW239345   4.707   0.288   4.105 -0.3914  2.2973  0.9942
 9295SOL     OW39346   0.313   2.812   3.786  0.4936 -0.9799  0.0059
 9295SOL    HW139347   0.358   2.768   3.858  0.0933  0.6140  1.2391
 9295SOL    HW239348   0.389   2.830   3.731  1.4160  0.6476  1.8072
 9296SOL     OW39349   4.202   1.755   9.497 -0.1481 -0.1631 -0.1163
 9296SOL    HW139350   4.193   1.838   9.543 -0.1698 -0.1418 -0.1592
 9296SOL    HW239351   4.261   1.782   9.427  1.1877 -3.4901 -0.2749
 9297SOL     OW39352   2.255   0.585   3.023 -0.4814  0.3627 -0.1684
 9297SOL    HW139353   2.244   0.679   3.010 -0.5828  0.2999 -0.5434
 9297SOL    HW239354   2.254   0.560   2.930  0.5152  0.7675 -0.2871
 9298SOL     OW39355   1.013   0.637   6.080 -0.1716 -0.2007 -0.0838
 9298SOL    HW139356   1.030   0.577   6.152 -0.2553 -1.6642 -1.2790
 9298SOL    HW239357   0.929   0.675   6.108  1.0726  1.4550  1.4239
 9299SOL     OW39358   2.654   3.263   1.684 -1.1293 -0.3322  0.2129
 9299SOL    HW139359   2.694   3.299   1.763  0.3483 -0.6288 -0.4048
 9299SOL    HW239360   2.715   3.310   1.627 -0.3017 -2.1380 -0.3998
 9300SOL     OW39361   3.009   3.376   3.629  0.2163  0.3523 -0.2608
 9300SOL    HW139362   2.982   3.468   3.631 -1.4195 -0.1895  3.4325
 9300SOL    HW239363   2.976   3.352   3.542 -1.6232 -0.1801  0.5772
 9301SOL     OW39364   0.363   2.937  10.558 -0.4309  0.1557 -0.2107
 9301SOL    HW139365   0.371   2.976  10.645 -2.1836  0.7532 -0.3198
 9301SOL    HW239366   0.282   2.977  10.526 -1.9775 -0.6053  2.8145
 9302SOL     OW39367   3.813   2.500  16.139 -0.1788  0.1088 -0.3000
 9302SOL    HW139368   3.890   2.497  16.081  0.2948  0.7584  0.2985
 9302SOL    HW239369   3.776   2.583  16.108  0.0937  0.2327 -0.2921
 9303SOL     OW39370   1.404   4.006   4.454 -0.1380 -0.1713 -0.3987
 9303SOL    HW139371   1.437   3.978   4.540 -3.6258  0.7344  1.2197
 9303SOL    HW239372   1.451   3.936   4.409  0.6203 -1.6491  2.7096
 9304SOL     OW39373   3.301   2.986   6.583  0.3207 -0.2443 -0.6239
 9304SOL    HW139374   3.308   3.046   6.508  0.6736 -1.2210 -1.3630
 9304SOL    HW239375   3.237   2.926   6.545 -0.1716  0.1608 -0.4363
 9305SOL     OW39376   1.012   3.914   9.680 -0.3943  0.5900 -0.0850
 9305SOL    HW139377   1.039   3.827   9.650  1.3905  0.8019  0.9108
 9305SOL    HW239378   0.927   3.909   9.636 -1.1944  1.4793  1.3959
 9306SOL     OW39379   1.270   4.382  14.774 -0.3747  0.0968  0.1909
 9306SOL    HW139380   1.223   4.417  14.698  1.9255  1.3970 -0.6582
 9306SOL    HW239381   1.298   4.465  14.813  1.1478 -0.3614  0.0693
 9307SOL     OW39382   4.389   0.244   3.131 -0.4698  0.1528  0.1535
 9307SOL    HW139383   4.416   0.153   3.115 -0.1329  0.3343 -0.3167
 9307SOL    HW239384   4.319   0.239   3.196 -0.4383 -0.8614  0.1094
 9308SOL     OW39385   0.247   4.573   6.997 -0.4862 -0.3826  0.2838
 9308SOL    HW139386   0.182   4.510   7.029  0.1235 -0.2466  1.8039
 9308SOL    HW239387   0.236   4.557   6.904 -0.8119  1.0758  0.0820
 9309SOL     OW39388   2.221   0.142   4.114  0.0553  0.4277 -0.1280
 9309SOL    HW139389   2.285   0.185   4.170  1.9967 -1.0863 -1.2080
 9309SOL    HW239390   2.163   0.097   4.176  0.5066 -0.9432 -0.6974
 9310SOL     OW39391   3.262   3.609   2.540 -0.2810  0.8825 -0.7447
 9310SOL    HW139392   3.278   3.678   2.476 -0.1464  1.9646  0.4576
 9310SOL    HW239393   3.192   3.657   2.585  1.2774  0.6316  1.9526
 9311SOL     OW39394   0.933   3.837  14.052  0.1373 -0.5536 -0.7429
 9311SOL    HW139395   0.886   3.857  14.133  3.2848  1.5913  0.5892
 9311SOL    HW239396   0.885   3.761  14.020 -0.5000 -0.1150 -0.8330
 9312SOL     OW39397   3.957   1.517   7.435  0.2470  0.3504  0.0368
 9312SOL    HW139398   3.862   1.517   7.433  0.2558  0.8773 -0.4228
 9312SOL    HW239399   3.968   1.526   7.530  1.4978  0.0486 -0.0730
 9313SOL     OW39400   3.940   3.620   1.138  0.1214 -0.2142  0.1386
 9313SOL    HW139401   3.932   3.698   1.083 -0.4241  0.6812  1.4906
 9313SOL    HW239402   3.983   3.657   1.216 -0.3805  0.2481  0.2002
 9314SOL     OW39403   3.910   1.061   7.475  0.4904  0.1725  0.0279
 9314SOL    HW139404   3.975   1.024   7.416  1.7504  0.5968  1.1455
 9314SOL    HW239405   3.844   1.068   7.406 -0.6259  1.7219  1.2480
 9315SOL     OW39406   0.739   4.256   6.289  0.3267  0.0987 -0.4689
 9315SOL    HW139407   0.823   4.218   6.263  0.7461  0.3858  0.4516
 9315SOL    HW239408   0.756   4.277   6.381  1.5544 -2.9741 -0.0196
 9316SOL     OW39409   3.606   4.663   9.178 -0.2997  0.6209 -0.4761
 9316SOL    HW139410   3.681   4.624   9.223 -2.5157 -0.1971  2.5274
 9316SOL    HW239411   3.643   4.685   9.093  0.6352  1.6170  0.2056
 9317SOL     OW39412   1.349   4.700  14.585 -0.4547 -0.3673  0.1881
 9317SOL    HW139413   1.385   4.621  14.544 -3.3395 -1.7156  0.2208
 9317SOL    HW239414   1.254   4.695  14.600 -0.3625  0.9735  1.2095
 9318SOL     OW39415   4.714   1.920   6.980 -0.0772 -0.0369  0.1513
 9318SOL    HW139416   4.701   1.849   6.917  1.9556 -2.2280  2.2057
 9318SOL    HW239417   4.720   1.872   7.063  0.3125  0.5895  0.4872
 9319SOL     OW39418   1.550   2.503   6.288 -0.3375 -0.1302 -0.2625
 9319SOL    HW139419   1.581   2.527   6.201 -1.1689 -1.4633 -0.9327
 9319SOL    HW239420   1.618   2.444   6.321  0.0836 -0.8678 -2.4315
 9320SOL     OW39421   0.073   1.722   1.034  0.3147  0.3396  0.3345
 9320SOL    HW139422   0.131   1.727   0.958  1.8457  0.9058  1.5361
 9320SOL    HW239423   0.131   1.716   1.109 -1.1089 -0.4523  1.3719
 9321SOL     OW39424   2.226   1.969  16.312 -0.2001  0.3250  0.1203
 9321SOL    HW139425   2.159   2.033  16.337  0.9385  1.0486  1.3314
 9321SOL    HW239426   2.224   1.983  16.218 -1.1652  0.0676  0.1003
 9322SOL     OW39427   3.931   0.785   8.180  0.1896 -0.6859  0.0777
 9322SOL    HW139428   3.930   0.780   8.085 -0.0456 -1.9507  0.1356
 9322SOL    HW239429   3.845   0.825   8.183  0.2750 -0.5244  0.4080
 9323SOL     OW39430   3.970   1.772  13.154 -0.8091 -0.2825 -0.3045
 9323SOL    HW139431   4.035   1.726  13.102 -2.2877 -0.5840 -1.8704
 9323SOL    HW239432   3.927   1.831  13.092  1.4601  2.0070  0.2743
 9324SOL     OW39433   2.764   3.915  10.036 -0.4958  0.0141  0.3808
 9324SOL    HW139434   2.754   3.991  10.093 -0.2265 -0.3056  0.8490
 9324SOL    HW239435   2.701   3.854  10.074  0.1329 -1.7853 -1.4464
 9325SOL     OW39436   1.224   1.218   2.692 -0.2747  0.1826  0.3888
 9325SOL    HW139437   1.271   1.288   2.646 -3.1380  0.0830 -2.7407
 9325SOL    HW239438   1.265   1.136   2.666  1.4002  1.5226 -1.1412
 9326SOL     OW39439   2.855   0.210   4.712  0.5587 -0.3370  0.0920
 9326SOL    HW139440   2.870   0.210   4.617 -0.7956 -0.6640 -0.1228
 9326SOL    HW239441   2.943   0.217   4.749  0.1610 -0.9239  1.1388
 9327SOL     OW39442   3.168   1.658  14.990 -0.0608 -0.4401 -0.3309
 9327SOL    HW139443   3.130   1.657  14.902  1.0622 -2.3266 -0.7914
 9327SOL    HW239444   3.086   1.625  15.027 -0.4332 -0.5147 -1.2147
 9328SOL     OW39445   2.567   2.719  11.749  0.5985  0.1058 -0.0202
 9328SOL    HW139446   2.622   2.774  11.693 -1.2051  1.2495 -0.6643
 9328SOL    HW239447   2.579   2.633  11.708 -1.0591  0.2622 -0.8488
 9329SOL     OW39448   2.241   2.949  13.959 -0.6682 -0.3557 -0.4461
 9329SOL    HW139449   2.245   2.895  14.038 -0.2606 -1.7026 -1.3843
 9329SOL    HW239450   2.196   2.892  13.896 -1.7457  0.6241 -0.5698
 9330SOL     OW39451   2.715   1.777  11.142 -0.1601 -0.0526  0.2806
 9330SOL    HW139452   2.735   1.857  11.189  1.2006 -0.0388 -0.3238
 9330SOL    HW239453   2.799   1.749  11.106 -0.1137  0.2131  0.1843
 9331SOL     OW39454   1.977   3.830   1.170  0.1792 -0.5037 -0.2933
 9331SOL    HW139455   1.949   3.814   1.260 -4.5576 -1.3152 -1.9167
 9331SOL    HW239456   1.968   3.925   1.164  0.5523 -0.2950  2.5570
 9332SOL     OW39457   2.370   4.371   8.307  0.4172  0.4853 -0.6311
 9332SOL    HW139458   2.362   4.347   8.215 -2.1130  0.1770 -0.3247
 9332SOL    HW239459   2.451   4.323   8.324 -1.9461 -3.0862  0.8060
 9333SOL     OW39460   3.762   1.288   5.486 -0.3004 -0.1011 -0.5842
 9333SOL    HW139461   3.751   1.262   5.578 -0.0084 -2.6433 -1.2630
 9333SOL    HW239462   3.671   1.294   5.458 -0.1688 -1.1920 -1.2507
 9334SOL     OW39463   4.604   4.030  11.206 -0.0795 -0.0735  0.3283
 9334SOL    HW139464   4.684   3.999  11.249  0.6084  0.8642 -0.2878
 9334SOL    HW239465   4.623   4.015  11.114 -1.3266 -2.0523  0.3786
 9335SOL     OW39466   1.006   3.956  10.652 -0.2711 -0.1673  0.4785
 9335SOL    HW139467   1.050   3.956  10.737  0.6780 -0.8222 -0.0102
 9335SOL    HW239468   1.046   3.889  10.597  0.6933 -0.1814  1.1905
 9336SOL     OW39469   4.259   0.437  13.985 -0.2563  0.0883  0.0937
 9336SOL    HW139470   4.256   0.413  14.077 -0.4167 -2.5314 -0.5939
 9336SOL    HW239471   4.243   0.531  13.996  0.1961 -0.0580  1.8924
 9337SOL     OW39472   2.947   1.360   2.483 -0.1979  0.2508 -0.0994
 9337SOL    HW139473   2.933   1.319   2.568 -3.2239  0.6123 -0.4240
 9337SOL    HW239474   2.933   1.289   2.420  1.1775  0.8455 -1.0856
 9338SOL     OW39475   0.603   3.307   6.196  0.0800 -0.0274 -0.6302
 9338SOL    HW139476   0.635   3.218   6.179 -1.2579 -0.3047 -1.7048
 9338SOL    HW239477   0.517   3.294   6.235 -0.4442  0.1541 -1.7142
 9339SOL     OW39478   3.303   1.603  16.203 -0.1789 -0.0844 -0.8216
 9339SOL    HW139479   3.289   1.529  16.144 -1.3069 -1.6583  1.4495
 9339SOL    HW239480   3.230   1.579  16.259  2.1249 -0.5679  1.9633
 9340SOL     OW39481   3.355   0.423  11.417  0.0314 -0.1987  0.2311
 9340SOL    HW139482   3.362   0.406  11.323 -0.2809 -1.2493  0.3962
 9340SOL    HW239483   3.267   0.387  11.429 -0.2626  0.1796 -0.7503
 9341SOL     OW39484   2.864   2.745   4.317 -0.1510  0.7406 -0.0008
 9341SOL    HW139485   2.884   2.766   4.226  0.9413 -0.0057  0.0719
 9341SOL    HW239486   2.807   2.816   4.349  0.3942  1.7844 -1.3505
 9342SOL     OW39487   0.602   2.094   4.335  0.3199 -0.2775 -0.1461
 9342SOL    HW139488   0.615   2.186   4.358  1.6256 -0.3962 -0.3878
 9342SOL    HW239489   0.528   2.112   4.277  0.3130  0.1879  0.0098
 9343SOL     OW39490   3.292   1.729   1.199 -0.3129  0.1106 -0.3266
 9343SOL    HW139491   3.207   1.720   1.156 -0.9025 -0.6749  0.9912
 9343SOL    HW239492   3.352   1.730   1.124  1.2513 -0.6781  0.9203
 9344SOL     OW39493   1.337   0.924   2.669 -0.3232  0.1038  0.2243
 9344SOL    HW139494   1.331   0.838   2.711 -0.7214 -0.2495 -0.5664
 9344SOL    HW239495   1.430   0.940   2.688 -0.5835  3.1487 -1.1294
 9345SOL     OW39496   1.697   0.298  12.122 -0.5267 -0.6364 -0.4738
 9345SOL    HW139497   1.729   0.388  12.117  0.3755 -1.0615 -2.2276
 9345SOL    HW239498   1.761   0.235  12.088  1.7103 -0.1086  2.7229
 9346SOL     OW39499   4.269   2.796   7.657 -0.0290 -0.2925  0.3075
 9346SOL    HW139500   4.247   2.774   7.567  1.6161  1.0652 -0.4248
 9346SOL    HW239501   4.313   2.715   7.682 -3.3774 -1.3423  2.8189
 9347SOL     OW39502   2.601   3.210   5.179  0.4622 -0.3525  0.0512
 9347SOL    HW139503   2.532   3.202   5.245 -0.2742  1.0077 -0.5527
 9347SOL    HW239504   2.574   3.294   5.142  1.6202  0.4003  0.9478
 9348SOL     OW39505   1.494   2.850  12.781 -0.5041 -0.2603  0.2830
 9348SOL    HW139506   1.413   2.803  12.758 -0.6241 -0.6313  1.4623
 9348SOL    HW239507   1.547   2.777  12.748 -2.1739 -0.9714 -0.8131
 9349SOL     OW39508   3.155   2.284   4.004 -0.2972 -0.4506  0.3785
 9349SOL    HW139509   3.232   2.230   4.021  1.3667  1.8328  0.2360
 9349SOL    HW239510   3.125   2.309   4.092 -0.1238 -1.4212  0.7063
 9350SOL     OW39511   1.041   1.320   7.862 -0.3067 -0.1819 -0.4362
 9350SOL    HW139512   1.075   1.314   7.951 -0.7002 -1.8766 -0.4004
 9350SOL    HW239513   1.007   1.231   7.847 -2.9385  0.7640 -0.1327
 9351SOL     OW39514   4.007   3.646   5.767 -0.5774 -0.2074  0.0883
 9351SOL    HW139515   4.039   3.624   5.854  0.3189 -3.4389 -1.0456
 9351SOL    HW239516   4.069   3.594   5.716 -2.2708 -1.9203 -0.2428
 9352SOL     OW39517   3.276   1.798  16.688  0.0105  0.8014 -0.3929
 9352SOL    HW139518   3.309   1.728  16.632 -1.6853 -1.7283  1.7721
 9352SOL    HW239519   3.187   1.762  16.692  1.3454 -2.2551  1.4310
 9353SOL     OW39520   1.116   0.322   2.177  0.3702 -0.3004  0.2223
 9353SOL    HW139521   1.070   0.312   2.260 -0.4782  3.6810  0.2198
 9353SOL    HW239522   1.054   0.302   2.107  1.2890  1.1720 -1.0044
 9354SOL     OW39523   2.506   3.947   1.482 -0.1766  0.1173  0.4433
 9354SOL    HW139524   2.572   3.885   1.450  1.5218  1.1351  1.9650
 9354SOL    HW239525   2.455   3.963   1.403  1.8188  2.2796 -0.3875
 9355SOL     OW39526   3.549   0.293  16.213 -0.3748 -0.1159  0.3252
 9355SOL    HW139527   3.478   0.331  16.264 -0.9655  0.0999 -0.6655
 9355SOL    HW239528   3.524   0.305  16.121  0.2701  0.8199  0.2683
 9356SOL     OW39529   0.960   2.618   6.704 -0.0394  0.3843  0.3355
 9356SOL    HW139530   0.877   2.632   6.750 -0.3060  1.6973 -0.5658
 9356SOL    HW239531   0.923   2.585   6.622  0.6516  2.6677 -0.8802
 9357SOL     OW39532   2.595   1.725  15.707  0.0456 -0.5622 -0.2182
 9357SOL    HW139533   2.527   1.787  15.680  2.3809  1.4204 -1.5803
 9357SOL    HW239534   2.597   1.679  15.622  0.7651  0.6158 -0.8380
 9358SOL     OW39535   3.990   3.178  10.877  0.4454 -0.4089 -0.0130
 9358SOL    HW139536   3.945   3.111  10.929  1.4582  0.3350  1.8335
 9358SOL    HW239537   3.996   3.247  10.944 -1.3665 -1.7930  1.5767
 9359SOL     OW39538   3.825   3.205  16.612  0.2312 -0.6846  0.4825
 9359SOL    HW139539   3.752   3.154  16.646 -2.5512  1.0658 -2.7926
 9359SOL    HW239540   3.807   3.207  16.518  0.1936  1.7186  0.5336
 9360SOL     OW39541   0.585   4.410   9.325 -0.3415 -0.4175  0.1918
 9360SOL    HW139542   0.523   4.480   9.348  1.5010  0.8964  1.1132
 9360SOL    HW239543   0.530   4.333   9.341  2.4381 -2.2069  1.0433
 9361SOL     OW39544   4.219   3.229  15.819  0.3735  1.3131 -0.1273
 9361SOL    HW139545   4.222   3.268  15.732  0.1523 -1.3323 -1.3022
 9361SOL    HW239546   4.273   3.292  15.867 -0.1807  1.5653  0.1581
 9362SOL     OW39547   0.932   0.135   5.621 -0.2859 -0.0959  0.0582
 9362SOL    HW139548   0.997   0.204   5.631 -0.8898  0.6639 -1.3877
 9362SOL    HW239549   0.893   0.167   5.540  0.8128  1.9889  0.3582
 9363SOL     OW39550   0.720   4.530   6.716 -0.9867 -0.4481 -0.4098
 9363SOL    HW139551   0.647   4.592   6.723  0.3272  1.1319 -0.8780
 9363SOL    HW239552   0.683   4.450   6.754  1.2157 -0.9864  0.6217
 9364SOL     OW39553   1.744   0.558   3.921 -0.1868 -0.4663 -0.0217
 9364SOL    HW139554   1.693   0.616   3.977 -1.3467  0.5791 -2.1580
 9364SOL    HW239555   1.688   0.559   3.843 -1.2258 -0.2805  0.7295
 9365SOL     OW39556   0.697   0.426   7.927  0.7785 -0.3710  0.2346
 9365SOL    HW139557   0.721   0.351   7.982  2.3581  1.0405  1.5053
 9365SOL    HW239558   0.756   0.418   7.852  0.8635 -0.0867  0.2722
 9366SOL     OW39559   3.296   1.813   5.942 -0.2319 -0.2828 -0.3665
 9366SOL    HW139560   3.288   1.819   6.037  2.2029  0.5665 -0.2150
 9366SOL    HW239561   3.352   1.736   5.928  1.4791  0.8676  0.1417
 9367SOL     OW39562   4.564   3.523  15.462 -0.2995  0.0413  0.6271
 9367SOL    HW139563   4.524   3.439  15.441 -0.6805  0.5313 -0.5972
 9367SOL    HW239564   4.578   3.559  15.375  1.2270 -1.1728  0.3756
 9368SOL     OW39565   2.340   3.792   5.035  0.0547 -0.7953  0.4032
 9368SOL    HW139566   2.309   3.728   5.099  1.6219  0.0529  1.9940
 9368SOL    HW239567   2.326   3.881   5.069 -0.2935 -0.4384 -0.6906
 9369SOL     OW39568   1.231   0.783  10.339 -0.4177 -0.0298 -0.2592
 9369SOL    HW139569   1.196   0.828  10.262  1.0415  0.3839 -0.6897
 9369SOL    HW239570   1.227   0.855  10.402  0.0294 -0.8023  0.6521
 9370SOL     OW39571   0.555   4.106   3.899  0.3997  0.3705  0.5978
 9370SOL    HW139572   0.530   4.066   3.815  1.0696  0.7686  0.2061
 9370SOL    HW239573   0.478   4.121   3.954  0.1011 -1.7754  0.7749
 9371SOL     OW39574   2.762   0.739  10.730  0.1257  0.6305  0.3534
 9371SOL    HW139575   2.728   0.684  10.659  2.0858 -1.5089  1.0562
 9371SOL    HW239576   2.745   0.828  10.699 -0.3802  0.7059  0.8458
 9372SOL     OW39577   1.540   0.563   3.486 -0.5177 -0.5520  0.4919
 9372SOL    HW139578   1.589   0.539   3.407 -1.2067 -0.9203  0.1722
 9372SOL    HW239579   1.475   0.492   3.478 -0.7617  0.3114 -5.1373
 9373SOL     OW39580   2.791   0.130   5.070 -0.1225  0.5792 -0.6083
 9373SOL    HW139581   2.867   0.177   5.034  1.3512 -1.9959 -0.8743
 9373SOL    HW239582   2.829   0.046   5.044 -0.4162  0.8923 -2.0685
 9374SOL     OW39583   1.755   0.910   6.366  0.8125 -0.4709 -0.4326
 9374SOL    HW139584   1.776   0.817   6.357  1.8930  0.0615 -3.2813
 9374SOL    HW239585   1.694   0.901   6.439  0.1715 -0.2674 -0.9481
 9375SOL     OW39586   3.051   1.239   0.133  0.4164 -0.7967  0.3918
 9375SOL    HW139587   3.074   1.178   0.203  0.2297  0.4110  1.5046
 9375SOL    HW239588   2.992   1.300   0.176 -0.1127 -0.1604 -1.2352
 9376SOL     OW39589   1.050   0.206  13.129  0.0194 -0.8806 -0.2914
 9376SOL    HW139590   0.976   0.161  13.170 -0.2672  0.9389  1.1850
 9376SOL    HW239591   1.060   0.166  13.043 -3.4316  2.2010 -2.1022
 9377SOL     OW39592   3.521   0.006  16.267  0.2582  0.1314  0.0431
 9377SOL    HW139593   3.549   4.681  16.189 -0.1183 -1.3004  0.8035
 9377SOL    HW239594   3.573   0.086  16.260  2.0252 -1.2204 -2.3186
 9378SOL     OW39595   3.237   2.782   1.311  0.2603  0.2385  0.1610
 9378SOL    HW139596   3.301   2.711   1.314 -0.8300 -0.7719 -0.6502
 9378SOL    HW239597   3.309   2.845   1.299  1.0784 -0.6886  0.2322
 9379SOL     OW39598   2.400   4.190   5.571 -0.1953 -0.2083 -0.1281
 9379SOL    HW139599   2.392   4.188   5.666  0.0289  0.4086 -0.1011
 9379SOL    HW239600   2.388   4.099   5.544 -0.4734 -0.1104 -0.3373
 9380SOL     OW39601   4.004   1.069   1.668  0.0323  0.2260  0.3321
 9380SOL    HW139602   4.097   1.090   1.678  0.3692 -0.8040 -0.7410
 9380SOL    HW239603   3.985   1.153   1.626 -0.8368 -0.2379 -0.2097
 9381SOL     OW39604   1.715   2.693  14.155 -0.3082  0.1635 -0.2267
 9381SOL    HW139605   1.735   2.653  14.240  1.0532 -1.0365 -1.1110
 9381SOL    HW239606   1.786   2.756  14.146 -0.8230  0.5029 -1.9028
 9382SOL     OW39607   3.016   0.705   8.143 -0.2130  0.2206  0.2936
 9382SOL    HW139608   3.102   0.746   8.148  0.4601 -1.4574  2.5069
 9382SOL    HW239609   2.993   0.687   8.234 -1.0830  0.6370  0.1541
 9383SOL     OW39610   2.761   4.208   4.899  0.7735 -0.1198 -0.6233
 9383SOL    HW139611   2.825   4.250   4.841  2.7166  0.9762  2.3645
 9383SOL    HW239612   2.692   4.197   4.833 -0.3538  1.4278  0.2833
 9384SOL     OW39613   1.543   1.225  14.447 -0.1382 -0.7664  0.1124
 9384SOL    HW139614   1.528   1.215  14.541  0.8649  3.8315  0.7803
 9384SOL    HW239615   1.459   1.270  14.435  0.2344 -0.2668 -0.6073
 9385SOL     OW39616   2.370   0.535   4.854  0.3139  0.0703 -1.1605
 9385SOL    HW139617   2.388   0.463   4.793 -1.4779 -0.2118 -1.3632
 9385SOL    HW239618   2.346   0.602   4.790  3.5384  0.7550 -1.6463
 9386SOL     OW39619   3.107   1.258  11.677 -0.0017 -0.0155  0.4028
 9386SOL    HW139620   3.025   1.260  11.628  0.5652  1.4893 -0.4895
 9386SOL    HW239621   3.122   1.344  11.717  0.9006 -0.5992  1.3125
 9387SOL     OW39622   4.674   0.012  11.206  0.3402 -0.0274  0.6917
 9387SOL    HW139623   0.014   0.036  11.273  2.1642 -0.6917 -0.8059
 9387SOL    HW239624   0.006   4.674  11.158  2.2516  0.8682  1.7772
 9388SOL     OW39625   2.649   0.187   8.115  0.1122 -0.3547  0.1236
 9388SOL    HW139626   2.647   0.281   8.136  1.7859 -0.3172  0.1094
 9388SOL    HW239627   2.651   0.156   8.205 -1.0523  1.3278  0.7389
 9389SOL     OW39628   1.410   3.078  14.765 -0.5595 -0.1621 -0.1140
 9389SOL    HW139629   1.446   3.109  14.682  1.0694 -0.4109  0.5020
 9389SOL    HW239630   1.418   2.983  14.758  0.3092  0.1082 -2.9678
 9390SOL     OW39631   0.838   2.795   7.239  0.6341 -1.1902 -0.4212
 9390SOL    HW139632   0.829   2.808   7.144  0.2665  1.2972 -0.0422
 9390SOL    HW239633   0.852   2.701   7.252 -3.1710 -1.4220  1.9470
 9391SOL     OW39634   4.543   1.096  16.595  0.1885 -0.6318 -0.0362
 9391SOL    HW139635   4.535   1.185  16.629  0.1916 -0.2931 -0.9406
 9391SOL    HW239636   4.606   1.065  16.661  0.4556 -0.6776 -0.3119
 9392SOL     OW39637   3.647   0.170   1.182 -0.1235 -0.3853  0.3704
 9392SOL    HW139638   3.601   0.121   1.114  0.0046 -0.3129  0.2307
 9392SOL    HW239639   3.586   0.242   1.193  0.0073 -0.7485  3.4830
 9393SOL     OW39640   4.535   1.844   9.330  0.0368 -0.1750 -0.6717
 9393SOL    HW139641   4.595   1.789   9.278  4.2883  2.3343  1.5949
 9393SOL    HW239642   4.585   1.860   9.410  0.1521 -0.2454 -0.7284
 9394SOL     OW39643   3.764   1.971  12.693  0.0742 -0.0536 -0.6398
 9394SOL    HW139644   3.801   2.059  12.688  0.5527 -0.2301 -0.1110
 9394SOL    HW239645   3.840   1.921  12.723 -0.6048 -0.3429  0.5771
 9395SOL     OW39646   4.159   1.459  12.786 -0.4315 -0.5315 -0.4101
 9395SOL    HW139647   4.150   1.425  12.697  0.0485 -0.2050 -0.5819
 9395SOL    HW239648   4.238   1.512  12.776 -0.6164 -0.3073 -0.6553
 9396SOL     OW39649   1.289   0.662   8.412  0.6352  0.2077  0.7238
 9396SOL    HW139650   1.247   0.721   8.349 -0.5878 -1.6081 -0.1598
 9396SOL    HW239651   1.315   0.595   8.349  1.6349  0.2839  1.0708
 9397SOL     OW39652   3.863   1.014   1.168  0.2300  0.4143 -0.7360
 9397SOL    HW139653   3.946   0.972   1.191 -0.2597  0.6604  1.4660
 9397SOL    HW239654   3.798   0.950   1.197 -1.3130  1.3241 -2.1639
 9398SOL     OW39655   1.459   0.357  10.306  0.9144 -0.4196  0.2303
 9398SOL    HW139656   1.521   0.338  10.236 -1.8213 -0.6485 -2.1402
 9398SOL    HW239657   1.499   0.350  10.392 -0.2239 -0.6203  0.7519
 9399SOL     OW39658   3.942   3.891   6.167  0.5094  0.0100 -0.0167
 9399SOL    HW139659   4.034   3.910   6.148  0.7603  0.8841  2.0997
 9399SOL    HW239660   3.944   3.797   6.180  3.4014  0.2192  1.0234
 9400SOL     OW39661   2.457   3.684  11.069  0.2757  0.2324 -0.3102
 9400SOL    HW139662   2.548   3.687  11.100 -0.1653  0.8282  0.9645
 9400SOL    HW239663   2.459   3.766  11.020  0.2151 -0.2956 -1.1964
 9401SOL     OW39664   0.825   4.445   6.486 -0.0242 -0.4246  0.1862
 9401SOL    HW139665   0.908   4.488   6.506 -0.3017 -0.7912  2.1098
 9401SOL    HW239666   0.779   4.466   6.567 -2.1576  0.4805 -1.2788
 9402SOL     OW39667   2.462   0.709   7.628 -0.0620 -0.6472  0.2213
 9402SOL    HW139668   2.557   0.722   7.629 -0.1577 -0.0071  0.8582
 9402SOL    HW239669   2.420   0.769   7.688 -0.2256 -0.9393  0.4003
 9403SOL     OW39670   1.766   0.653   6.735  0.3321  0.0945 -0.1801
 9403SOL    HW139671   1.834   0.613   6.681  0.4817 -0.0421  0.1061
 9403SOL    HW239672   1.706   0.700   6.678 -2.5753 -2.9993  0.3322
 9404SOL     OW39673   4.618   1.081   3.161 -0.2342  0.2609 -0.0643
 9404SOL    HW139674   4.712   1.094   3.173 -0.2166  0.2572 -0.1980
 9404SOL    HW239675   4.580   1.145   3.221  0.9366  0.7028  0.1981
 9405SOL     OW39676   2.402   0.401   2.556 -0.1521  0.0290  0.0896
 9405SOL    HW139677   2.315   0.378   2.590 -0.2988 -1.7719 -1.5498
 9405SOL    HW239678   2.374   0.479   2.507 -0.1511  0.5657  0.9468
 9406SOL     OW39679   1.776   1.501   7.793 -0.5143  0.0401 -0.1393
 9406SOL    HW139680   1.754   1.458   7.710 -0.8737 -0.3295  0.1426
 9406SOL    HW239681   1.712   1.572   7.788  0.2370  0.5910 -1.9702
 9407SOL     OW39682   3.867   3.005   6.384  0.1057  0.2937 -0.4546
 9407SOL    HW139683   3.773   3.017   6.373  0.3271  0.3998 -2.2209
 9407SOL    HW239684   3.870   2.925   6.437  0.8803  0.0112 -0.9245
 9408SOL     OW39685   0.664   2.790   7.688 -0.1847 -0.3269 -0.6088
 9408SOL    HW139686   0.730   2.792   7.757 -0.3629  0.9870 -0.4870
 9408SOL    HW239687   0.627   2.878   7.700  0.2988 -0.3012  0.6786
 9409SOL     OW39688   1.882   1.887   4.452  0.0254  0.4666  0.0160
 9409SOL    HW139689   1.871   1.795   4.428  1.4856  0.6583 -1.3656
 9409SOL    HW239690   1.977   1.884   4.452 -0.0496 -2.1368  0.3894
 9410SOL     OW39691   3.622   1.185   1.610 -0.8576  0.3332 -0.4751
 9410SOL    HW139692   3.529   1.198   1.591 -0.9531  0.5470  0.1445
 9410SOL    HW239693   3.615   1.104   1.660  0.7528  0.4504 -0.0517
 9411SOL     OW39694   4.472   3.985   0.258  0.1365 -0.1234  0.4524
 9411SOL    HW139695   4.549   3.970   0.313  2.8587 -0.3112 -3.4262
 9411SOL    HW239696   4.494   4.066   0.213 -1.1847 -0.4534 -0.8110
 9412SOL     OW39697   0.839   3.502   8.195  0.5825 -0.2362 -0.4027
 9412SOL    HW139698   0.885   3.441   8.253 -1.6776  0.5194  2.1537
 9412SOL    HW239699   0.908   3.544   8.144 -0.2671 -0.9530 -2.1507
 9413SOL     OW39700   3.778   3.353  16.195  0.3182 -0.4478 -0.1512
 9413SOL    HW139701   3.769   3.276  16.251 -0.3059 -0.8775 -0.8409
 9413SOL    HW239702   3.784   3.302  16.114  1.6924 -0.4591 -0.0488
 9414SOL     OW39703   4.452   0.993   4.354 -0.0860 -0.6573  0.2519
 9414SOL    HW139704   4.497   1.010   4.272 -0.8317  0.4431  0.0714
 9414SOL    HW239705   4.412   1.076   4.381 -0.2055 -0.6639  0.0944
 9415SOL     OW39706   4.628   0.179   4.548 -0.0606 -0.4477 -0.2905
 9415SOL    HW139707   4.551   0.156   4.497  0.6742 -0.9702 -1.1710
 9415SOL    HW239708   4.598   0.170   4.638  0.2054 -0.4601 -0.2038
 9416SOL     OW39709   1.604   4.206   7.655  0.1204 -0.0782 -0.8678
 9416SOL    HW139710   1.679   4.182   7.710 -0.5667  0.0806  0.1294
 9416SOL    HW239711   1.542   4.235   7.721  0.6802 -1.1606  0.1317
 9417SOL     OW39712   2.593   2.680   3.226  0.4284  0.3111  0.5546
 9417SOL    HW139713   2.579   2.774   3.237  1.7073  0.3580  1.8131
 9417SOL    HW239714   2.629   2.654   3.311  1.2306 -0.0760  0.0943
 9418SOL     OW39715   3.024   4.286   0.639 -0.5198  0.2085  0.0081
 9418SOL    HW139716   2.956   4.289   0.573 -1.3883 -0.3317  0.8802
 9418SOL    HW239717   3.107   4.280   0.591 -0.1109 -0.3177  0.7707
 9419SOL     OW39718   1.968   0.859  17.675  0.3673 -0.0436  0.2456
 9419SOL    HW139719   1.985   0.778   0.027 -0.1910 -1.8102 -2.4771
 9419SOL    HW239720   1.914   0.833  17.600  0.5384 -2.5521  0.9990
 9420SOL     OW39721   1.841   2.311   7.178 -0.1718 -0.6545  0.4286
 9420SOL    HW139722   1.854   2.373   7.249 -0.8806 -2.3622  2.0519
 9420SOL    HW239723   1.786   2.363   7.119  0.0727 -0.8131  0.0639
 9421SOL     OW39724   3.685   3.799   1.203  0.7143 -0.1427  0.2791
 9421SOL    HW139725   3.612   3.855   1.178 -0.6504 -2.6340 -1.2861
 9421SOL    HW239726   3.737   3.793   1.122 -0.2131 -0.8669 -0.2503
 9422SOL     OW39727   3.634   4.701   7.182 -0.0430  0.0086  0.3580
 9422SOL    HW139728   3.717   0.017   7.156  0.8745 -1.5433  0.8768
 9422SOL    HW239729   3.586   4.720   7.102  0.6178 -1.3756 -0.3788
 9423SOL     OW39730   0.961   3.520  10.455  0.6749  0.6867 -0.2021
 9423SOL    HW139731   0.926   3.431  10.454 -1.5893  1.5757  0.4455
 9423SOL    HW239732   1.050   3.515  10.490  0.7758 -0.2330 -0.5954
 9424SOL     OW39733   2.572   3.047  13.627 -0.4467  0.0085  0.0232
 9424SOL    HW139734   2.587   3.104  13.703 -0.4365  0.6676 -0.4818
 9424SOL    HW239735   2.605   3.103  13.557  2.4312  0.0901  1.4273
 9425SOL     OW39736   3.980   4.303   0.405  0.3766  0.8127 -0.0430
 9425SOL    HW139737   4.050   4.238   0.412  2.4210  2.7318 -2.8853
 9425SOL    HW239738   3.961   4.298   0.312  0.7836 -0.8850 -0.0317
 9426SOL     OW39739   3.468   0.260   2.668  0.7098 -0.4883 -0.1787
 9426SOL    HW139740   3.473   0.340   2.615  0.5763 -0.1015  0.3904
 9426SOL    HW239741   3.489   0.297   2.754 -0.8005 -0.5533  0.2321
 9427SOL     OW39742   1.714   0.883  12.792  0.1545  0.4477 -0.1273
 9427SOL    HW139743   1.713   0.879  12.887  1.7252  1.0622 -0.0784
 9427SOL    HW239744   1.658   0.811  12.764  0.6746 -1.0950  2.8826
 9428SOL     OW39745   0.311   0.771   3.923  0.0406  0.0395  0.8492
 9428SOL    HW139746   0.331   0.697   3.865  0.0026  0.1434  0.7051
 9428SOL    HW239747   0.305   0.728   4.009 -0.8446  1.1732  1.3492
 9429SOL     OW39748   2.349   3.080   2.534  0.1131  0.4509  0.3319
 9429SOL    HW139749   2.276   3.083   2.472 -0.2253 -2.4075  0.5735
 9429SOL    HW239750   2.392   3.166   2.531  4.3316 -1.7204 -1.4500
 9430SOL     OW39751   0.614   4.643   3.811 -0.0621  0.0779 -1.1121
 9430SOL    HW139752   0.620   4.647   3.906  0.0659  0.1958 -1.1247
 9430SOL    HW239753   0.580   4.555   3.798 -2.0947  0.8331 -0.9055
 9431SOL     OW39754   0.381   4.320   6.990 -0.1075  0.5803 -0.1808
 9431SOL    HW139755   0.302   4.269   7.009  2.3203 -2.8284  0.8771
 9431SOL    HW239756   0.345   4.400   7.029 -1.1253  0.4807 -0.9230
 9432SOL     OW39757   3.703   3.079   4.964 -0.0165  0.2620  0.1334
 9432SOL    HW139758   3.781   3.024   4.974 -0.4162 -0.2153  0.6422
 9432SOL    HW239759   3.670   3.045   4.881  1.2462  0.3244 -0.3897
 9433SOL     OW39760   2.775   3.031   0.607 -0.1758 -0.3030 -0.1885
 9433SOL    HW139761   2.831   3.023   0.684 -0.0546  0.6958 -0.1794
 9433SOL    HW239762   2.779   3.127   0.607  0.2298 -0.3099  1.8832
 9434SOL     OW39763   3.867   2.553   6.673  0.3184  0.5503 -0.1122
 9434SOL    HW139764   3.818   2.553   6.756 -0.2664 -0.5126 -0.4686
 9434SOL    HW239765   3.922   2.475   6.676 -1.9577 -0.9348  3.0399
 9435SOL     OW39766   4.357   1.699   5.314 -0.2284 -0.2718 -0.5443
 9435SOL    HW139767   4.332   1.610   5.338  1.2610 -1.0157 -1.7850
 9435SOL    HW239768   4.382   1.688   5.222 -0.2626 -0.9560 -0.4708
 9436SOL     OW39769   4.184   3.107   3.244 -0.7095  0.4693 -0.4638
 9436SOL    HW139770   4.186   3.039   3.311 -2.8238 -0.2336 -1.1038
 9436SOL    HW239771   4.276   3.130   3.261 -0.7677  0.2051  0.1925
 9437SOL     OW39772   4.678   4.619   3.906  0.1154  0.6945 -0.3292
 9437SOL    HW139773   4.607   4.629   3.970  1.1178 -0.9225  1.0410
 9437SOL    HW239774   4.673   4.706   3.866 -2.2871  1.7501  2.2882
 9438SOL     OW39775   2.951   4.311   9.971  0.5839  0.4336 -0.1258
 9438SOL    HW139776   3.036   4.291  10.010 -0.2638 -1.5432  0.7249
 9438SOL    HW239777   2.946   4.404   9.989  0.7037  0.4355 -0.1066
 9439SOL     OW39778   2.557   1.538  11.657  0.5287 -0.1781 -0.0041
 9439SOL    HW139779   2.635   1.558  11.606  0.0455 -2.4581 -1.6204
 9439SOL    HW239780   2.498   1.601  11.615 -0.8347 -0.3558  1.6220
 9440SOL     OW39781   4.265   0.085   8.497 -0.4845  0.0679  0.0006
 9440SOL    HW139782   4.352   0.052   8.519 -0.5118  0.2133  0.3289
 9440SOL    HW239783   4.278   0.179   8.484 -0.6934 -0.6152 -4.9138
 9441SOL     OW39784   1.054   0.096   7.907  0.4097  0.3850  0.5189
 9441SOL    HW139785   1.033   0.039   7.981  0.9803  1.6289  1.6478
 9441SOL    HW239786   1.093   0.034   7.845 -0.7999  0.2206 -0.0857
 9442SOL     OW39787   0.437   0.247   4.528  0.3288 -0.2765 -0.4355
 9442SOL    HW139788   0.444   0.282   4.439 -0.1280  1.2446  0.1237
 9442SOL    HW239789   0.347   0.223   4.505  1.1089  0.5748 -4.3715
 9443SOL     OW39790   4.095   2.358  11.151 -0.0112 -0.3356  0.3998
 9443SOL    HW139791   4.074   2.267  11.170 -0.1768 -0.6749 -1.3649
 9443SOL    HW239792   4.143   2.356  11.068 -0.2288  1.3035  0.2258
 9444SOL     OW39793   1.389   0.762   2.281 -0.3523  0.7132 -0.3779
 9444SOL    HW139794   1.354   0.846   2.312 -2.4269  0.3668 -1.7702
 9444SOL    HW239795   1.442   0.785   2.205 -0.0319 -1.5639 -0.8512
 9445SOL     OW39796   1.552   4.033  11.089  0.0418 -0.5395 -0.6140
 9445SOL    HW139797   1.479   4.092  11.072 -1.4598 -1.7474  1.5728
 9445SOL    HW239798   1.611   4.098  11.128  0.1201 -1.2207  0.4298
 9446SOL     OW39799   2.688   2.723   9.559 -0.1597  0.0057 -0.4009
 9446SOL    HW139800   2.709   2.639   9.600  1.0164  0.2710 -0.4828
 9446SOL    HW239801   2.775   2.737   9.522 -1.2522  3.6701 -1.6161
 9447SOL     OW39802   4.021   0.702  16.030  0.9448  0.3607  0.1037
 9447SOL    HW139803   4.059   0.774  16.080 -1.4075  1.8558 -0.2910
 9447SOL    HW239804   3.994   0.752  15.953 -1.8268 -0.9365  0.2528
 9448SOL     OW39805   1.497   4.587   4.441  0.1022 -0.3992 -0.3835
 9448SOL    HW139806   1.591   4.585   4.425 -0.1282 -2.3922 -1.4180
 9448SOL    HW239807   1.488   4.642   4.519  1.2967 -2.7162  1.3706
 9449SOL     OW39808   3.421   1.008   9.752 -0.0923  0.5463 -0.3929
 9449SOL    HW139809   3.431   0.914   9.767 -1.0952  0.5556  0.2864
 9449SOL    HW239810   3.471   1.011   9.671  2.0940  1.9954  0.9990
 9450SOL     OW39811   2.154   2.847   2.005 -0.5317 -0.2722 -0.1663
 9450SOL    HW139812   2.172   2.754   1.989 -1.1687 -1.3729  5.5426
 9450SOL    HW239813   2.196   2.888   1.929 -1.1297 -1.8765 -1.3804
 9451SOL     OW39814   3.934   2.572   5.759  0.0722  0.0969  0.2445
 9451SOL    HW139815   3.917   2.497   5.815  0.0920 -1.2158 -1.5056
 9451SOL    HW239816   3.981   2.617   5.829  0.0751  0.7784 -0.1922
 9452SOL     OW39817   0.045   1.950  12.385 -0.4125  0.2305  0.0893
 9452SOL    HW139818   0.023   2.016  12.319 -0.3252 -1.7981 -1.9799
 9452SOL    HW239819   0.115   1.903  12.340 -0.2774  0.4647  0.0576
 9453SOL     OW39820   2.718   1.427   5.595  0.1613  0.2778  0.6673
 9453SOL    HW139821   2.665   1.457   5.521 -2.1362 -0.1587  2.1426
 9453SOL    HW239822   2.679   1.342   5.614  0.1169  0.1978  0.2224
 9454SOL     OW39823   2.233   0.846   3.148  0.3965  0.4153 -0.4852
 9454SOL    HW139824   2.302   0.874   3.089 -0.0877 -1.4712 -1.9800
 9454SOL    HW239825   2.259   0.877   3.234  1.8904  1.6306 -1.3793
 9455SOL     OW39826   4.638   0.327   8.915 -0.3115  0.0516 -0.7190
 9455SOL    HW139827   4.596   0.388   8.855 -3.5323 -0.7173  0.7082
 9455SOL    HW239828   0.003   0.361   8.906 -0.1793 -0.4961 -1.4697
 9456SOL     OW39829   4.670   1.798   7.551  0.0201 -0.3508  0.3824
 9456SOL    HW139830   4.669   1.722   7.493 -0.8856  1.1843 -1.6140
 9456SOL    HW239831   4.600   1.779   7.613  0.0511  3.4537  1.6413
 9457SOL     OW39832   1.207   4.644   3.558 -0.7709 -0.6160 -0.4546
 9457SOL    HW139833   1.136   4.708   3.553  0.7530  0.9410 -1.9987
 9457SOL    HW239834   1.156   4.586   3.501  0.6981 -1.4009 -0.9720
 9458SOL     OW39835   1.140   1.901   4.826 -0.6192 -0.1776  0.2417
 9458SOL    HW139836   1.205   1.966   4.799 -1.8853  0.5352 -1.0902
 9458SOL    HW239837   1.107   1.863   4.744 -1.0828  0.0197  0.3393
 9459SOL     OW39838   4.574   0.512   8.733  0.1896  0.2061 -0.3646
 9459SOL    HW139839   4.560   0.606   8.720 -1.4864 -0.0824 -0.6657
 9459SOL    HW239840   4.517   0.470   8.669  1.2728 -1.2156 -0.3808
 9460SOL     OW39841   3.800   4.328   9.402  0.1346 -0.5774  0.2839
 9460SOL    HW139842   3.762   4.393   9.461 -0.1123  0.7762 -1.3778
 9460SOL    HW239843   3.749   4.249   9.419 -1.8185  0.8740  1.1205
 9461SOL     OW39844   2.682   2.841   3.549  0.0248  0.2241  0.2635
 9461SOL    HW139845   2.739   2.811   3.478  0.2896  0.3494  0.4237
 9461SOL    HW239846   2.598   2.803   3.524  0.4339 -0.7100  0.2933
 9462SOL     OW39847   0.647   1.904   9.927 -0.1475 -0.0591  0.8301
 9462SOL    HW139848   0.679   1.938  10.010 -0.7895 -2.2603  2.0005
 9462SOL    HW239849   0.662   1.971   9.861 -1.0200  0.0652  0.7502
 9463SOL     OW39850   1.636   1.584   2.838  0.4922 -0.0541 -0.4245
 9463SOL    HW139851   1.540   1.576   2.833  0.5163 -0.6766  0.1471
 9463SOL    HW239852   1.660   1.658   2.894  0.1969 -1.0291  0.9733
 9464SOL     OW39853   1.934   4.443   1.516  0.3589  0.3333 -0.0380
 9464SOL    HW139854   1.997   4.515   1.523  0.0701  0.5169  0.6239
 9464SOL    HW239855   1.846   4.476   1.503  0.4151  0.3113 -0.4954
 9465SOL     OW39856   1.231   3.563   7.442 -0.3364 -0.6693 -0.2744
 9465SOL    HW139857   1.291   3.582   7.370 -0.6410  1.0499 -0.0888
 9465SOL    HW239858   1.280   3.614   7.507 -0.4108 -0.6987 -0.1955
 9466SOL     OW39859   0.692   0.831   4.054 -0.1180 -0.2099  0.1281
 9466SOL    HW139860   0.754   0.884   4.104  1.0473 -0.8411 -0.6457
 9466SOL    HW239861   0.740   0.820   3.972 -0.6757 -0.6870 -0.1305
 9467SOL     OW39862   0.924   2.654  17.303  0.1113 -0.1131 -0.2734
 9467SOL    HW139863   0.925   2.732  17.247 -2.2797 -1.4407 -2.1839
 9467SOL    HW239864   0.835   2.661  17.337 -0.3344 -0.9957 -1.2330
 9468SOL     OW39865   3.566   1.147   2.529  0.3759 -0.0321  0.2288
 9468SOL    HW139866   3.491   1.181   2.480  0.8203  1.9557  0.9386
 9468SOL    HW239867   3.558   1.194   2.612 -2.5150  1.5608 -0.9506
 9469SOL     OW39868   3.820   4.385  10.355 -0.6111  0.0705  0.5781
 9469SOL    HW139869   3.725   4.376  10.351 -0.5312 -0.8833  0.8726
 9469SOL    HW239870   3.845   4.417  10.268 -2.4584 -0.2668 -0.0616
 9470SOL     OW39871   2.392   1.062   7.272  0.2750  0.1255  0.0230
 9470SOL    HW139872   2.432   0.981   7.242 -0.3101 -1.2550  2.9847
 9470SOL    HW239873   2.362   1.100   7.189 -0.5466 -0.1662  0.1877
 9471SOL     OW39874   1.058   3.860   4.343 -0.5146  0.2740 -0.3627
 9471SOL    HW139875   0.995   3.851   4.270  1.6182 -0.0815 -2.1508
 9471SOL    HW239876   1.104   3.942   4.323 -0.4969  0.1142 -0.9855
 9472SOL     OW39877   3.930   2.914  16.765  0.3009 -0.7946  0.2987
 9472SOL    HW139878   3.931   2.837  16.821  2.8500 -0.6509  0.4600
 9472SOL    HW239879   3.845   2.954  16.781 -0.3088 -2.2671  0.7284
 9473SOL     OW39880   3.428   3.366   8.328  0.5109 -0.1724 -0.7071
 9473SOL    HW139881   3.370   3.382   8.253 -0.0293 -0.9328 -0.4379
 9473SOL    HW239882   3.509   3.404   8.293  0.8987 -2.2362 -2.0408
 9474SOL     OW39883   1.447   3.502   1.097  0.2858  0.0638 -0.6172
 9474SOL    HW139884   1.400   3.584   1.079 -3.6605 -1.6569  1.8888
 9474SOL    HW239885   1.404   3.480   1.180 -0.8104 -1.7039 -1.6534
 9475SOL     OW39886   1.987   3.309   4.892  0.2119 -0.2432 -0.1129
 9475SOL    HW139887   1.954   3.285   4.980 -0.4033 -1.1915 -0.5922
 9475SOL    HW239888   2.060   3.248   4.891  1.5659  1.4456 -2.1170
 9476SOL     OW39889   4.226   1.387   3.837  0.2164  0.3946  0.1486
 9476SOL    HW139890   4.196   1.470   3.874  0.3304  0.4047  0.2194
 9476SOL    HW239891   4.178   1.384   3.755  1.5277 -1.2057 -0.5487
 9477SOL     OW39892   0.218   1.020  13.988 -0.1898 -0.4960  0.1172
 9477SOL    HW139893   0.305   1.060  13.989  0.1426 -1.2045 -0.6784
 9477SOL    HW239894   0.239   0.928  14.003 -3.1550 -1.4064 -1.3176
 9478SOL     OW39895   3.167   4.389   3.311 -0.2989  0.2088 -1.1063
 9478SOL    HW139896   3.243   4.436   3.276 -0.2742 -0.2800 -1.7010
 9478SOL    HW239897   3.103   4.402   3.242  0.3065 -0.8799 -1.8707
 9479SOL     OW39898   2.433   2.167   5.980  0.1091 -0.3606  0.2892
 9479SOL    HW139899   2.436   2.225   6.055  0.9745  0.0727 -0.0832
 9479SOL    HW239900   2.519   2.140   5.948  0.4399 -0.3989  1.2100
 9480SOL     OW39901   2.803   3.746  10.979  0.8767  0.0515 -1.1418
 9480SOL    HW139902   2.790   3.804  11.054  0.4677 -0.0243 -1.1507
 9480SOL    HW239903   2.881   3.697  11.004  0.1211 -1.3985 -1.6683
 9481SOL     OW39904   1.409   3.204   9.619 -0.8397  0.2379  0.5936
 9481SOL    HW139905   1.445   3.201   9.707 -0.6728  0.7912  0.5403
 9481SOL    HW239906   1.352   3.127   9.617  1.9490 -1.8434  0.4524
 9482SOL     OW39907   0.412   2.742   0.791 -0.1372 -0.4218  0.0487
 9482SOL    HW139908   0.405   2.696   0.707 -3.4377 -2.0495  1.2175
 9482SOL    HW239909   0.330   2.791   0.798  0.7556  1.1529 -0.5206
 9483SOL     OW39910   1.666   3.812   7.128  0.1344 -0.8377 -0.2629
 9483SOL    HW139911   1.599   3.874   7.153  0.4248 -1.3216  1.7043
 9483SOL    HW239912   1.750   3.852   7.151 -1.7460  3.1602 -0.4157
 9484SOL     OW39913   2.120   3.821  15.752  0.7024  0.8546 -0.1290
 9484SOL    HW139914   2.207   3.818  15.712  1.3419 -1.6532  1.4311
 9484SOL    HW239915   2.145   3.854  15.838 -1.1170 -1.5970  1.3295
 9485SOL     OW39916   3.128   4.688  13.533  0.3694  0.0486 -0.0848
 9485SOL    HW139917   3.198   0.029  13.550 -0.0422 -0.3293  3.1305
 9485SOL    HW239918   3.177   4.615  13.496  2.4202  1.9517 -1.1473
 9486SOL     OW39919   2.305   0.405   1.111  0.8465 -0.0920  0.3319
 9486SOL    HW139920   2.358   0.430   1.187  0.7048  2.2218 -0.3132
 9486SOL    HW239921   2.289   0.313   1.130  3.2894 -0.5789  0.0766
 9487SOL     OW39922   4.036   3.158   7.439 -0.1263  0.1816  1.0036
 9487SOL    HW139923   4.025   3.086   7.501  1.9344 -0.2735  0.8566
 9487SOL    HW239924   3.950   3.193   7.461  0.1162  1.6937 -0.4938
 9488SOL     OW39925   3.542   0.303  15.928 -0.1223 -0.1828  0.0924
 9488SOL    HW139926   3.604   0.361  15.883 -1.0158  0.8524  0.1747
 9488SOL    HW239927   3.466   0.305  15.869  0.4994 -2.6373 -0.7828
 9489SOL     OW39928   3.738   0.099   6.626 -0.2389 -0.7688  0.3573
 9489SOL    HW139929   3.722   0.192   6.644  2.4660 -0.9090  3.5333
 9489SOL    HW239930   3.667   0.056   6.672  0.3451  0.3297  2.2546
 9490SOL     OW39931   2.778   2.848  16.383  0.2438  0.0657  1.1270
 9490SOL    HW139932   2.853   2.883  16.335 -1.3923  0.6729 -0.9834
 9490SOL    HW239933   2.798   2.757  16.404  1.3292 -0.6345 -2.9656
 9491SOL     OW39934   4.284   1.147   1.660 -0.2424  0.3937  0.1249
 9491SOL    HW139935   4.379   1.137   1.652 -0.2354 -0.5578  1.4516
 9491SOL    HW239936   4.290   1.238   1.690 -1.6132 -0.1900  2.1142
 9492SOL     OW39937   0.234   4.187   2.824  0.5393 -0.0084 -0.6201
 9492SOL    HW139938   0.244   4.219   2.913 -1.6179  0.7726 -0.6625
 9492SOL    HW239939   0.187   4.107   2.846  0.8615  0.0928  0.4270
 9493SOL     OW39940   4.451   0.282   3.741  0.2609 -0.6417 -0.1693
 9493SOL    HW139941   4.463   0.327   3.657 -0.3762  0.4330  0.3212
 9493SOL    HW239942   4.469   0.351   3.804 -0.0853 -0.2818 -0.4683
 9494SOL     OW39943   3.050   4.330   5.353 -0.4246 -0.1293  0.0869
 9494SOL    HW139944   3.102   4.259   5.390  0.4140  0.6532  0.4195
 9494SOL    HW239945   2.968   4.281   5.347  1.0481 -2.6120  0.1185
 9495SOL     OW39946   2.309   4.198   5.853 -0.1661 -0.1665  0.3074
 9495SOL    HW139947   2.258   4.230   5.928 -1.1928  1.3402 -1.0378
 9495SOL    HW239948   2.369   4.270   5.833 -0.6683  0.1497 -0.0606
 9496SOL     OW39949   3.419   0.783  11.158  0.2958  0.3252 -0.3003
 9496SOL    HW139950   3.327   0.792  11.134  0.6851  2.6214 -0.9733
 9496SOL    HW239951   3.418   0.808  11.251 -0.7631  0.0974 -0.2516
 9497SOL     OW39952   1.656   0.173   0.623 -0.4274  0.6891 -0.3892
 9497SOL    HW139953   1.716   0.113   0.578  0.0893 -1.1948  2.8344
 9497SOL    HW239954   1.697   0.187   0.708 -0.5505  1.6743 -0.5001
 9498SOL     OW39955   2.857   3.648  15.979 -0.5568 -0.0808  0.5108
 9498SOL    HW139956   2.951   3.662  15.967 -0.3355 -1.7164  0.2989
 9498SOL    HW239957   2.830   3.739  15.986  1.2732  0.4500  0.7417
 9499SOL     OW39958   2.191   0.613   2.734  0.0629 -0.0343 -0.4091
 9499SOL    HW139959   2.279   0.627   2.697 -1.0609 -1.1277 -3.4700
 9499SOL    HW239960   2.137   0.659   2.670  0.5968  1.6930  0.3753
 9500SOL     OW39961   1.685   2.522   2.526  0.4034  0.1719 -0.1938
 9500SOL    HW139962   1.702   2.429   2.511 -2.5712 -0.3828 -0.1478
 9500SOL    HW239963   1.622   2.541   2.456  0.5905  1.2655 -0.0684
 9501SOL     OW39964   1.465   0.166   7.824 -0.2471 -0.2252 -0.6525
 9501SOL    HW139965   1.411   0.089   7.804  0.2453 -0.5549 -0.6981
 9501SOL    HW239966   1.552   0.155   7.786  0.3844  2.0498  0.1509
 9502SOL     OW39967   4.317   4.696   3.024 -0.1645 -0.2613  0.2084
 9502SOL    HW139968   4.389   4.722   2.967 -0.0101  2.2711  1.5732
 9502SOL    HW239969   4.293   4.614   2.980  0.0519 -0.8936  1.2519
 9503SOL     OW39970   3.792   4.008   8.485  0.4053 -0.0230 -0.2920
 9503SOL    HW139971   3.849   4.084   8.472 -0.2221  0.8426  2.1528
 9503SOL    HW239972   3.851   3.952   8.537 -1.1167 -0.6289  0.7627
 9504SOL     OW39973   4.527   4.489   4.538 -0.4411 -0.1183 -0.0802
 9504SOL    HW139974   4.503   4.500   4.630  0.5466  2.6055 -0.1447
 9504SOL    HW239975   4.443   4.488   4.492 -0.9819  0.1047  0.9067
 9505SOL     OW39976   3.060   1.238   5.554 -0.2286 -0.0827  0.2545
 9505SOL    HW139977   3.151   1.217   5.571  0.1840  1.1799 -0.3731
 9505SOL    HW239978   3.049   1.325   5.593  1.2535 -0.5817  1.7813
 9506SOL     OW39979   0.183   3.644   9.071 -0.8070  0.2019  0.3937
 9506SOL    HW139980   0.235   3.696   9.010  0.3937  0.0398  1.2741
 9506SOL    HW239981   0.212   3.668   9.159 -0.8979  2.6953 -0.2472
 9507SOL     OW39982   2.164   0.504   6.725 -0.1738  0.6486  0.5118
 9507SOL    HW139983   2.165   0.574   6.790  0.7315  1.7411 -0.6597
 9507SOL    HW239984   2.125   0.430   6.771 -1.4715  0.3139 -1.0996
 9508SOL     OW39985   2.125   3.025   7.555  0.2696 -0.2240 -0.5213
 9508SOL    HW139986   2.123   3.081   7.632 -4.3093  1.3857 -1.8313
 9508SOL    HW239987   2.212   2.985   7.561  0.1422 -0.4469 -0.1777
 9509SOL     OW39988   1.896   2.395   8.029  0.1191 -0.2017 -0.2354
 9509SOL    HW139989   1.815   2.366   7.988 -0.2200  0.6879 -0.1802
 9509SOL    HW239990   1.903   2.335   8.104  1.4236  0.1952 -0.0389
 9510SOL     OW39991   4.511   3.410   3.756 -0.5329  0.8179  0.1756
 9510SOL    HW139992   4.539   3.407   3.848  1.6183 -0.2200 -0.5212
 9510SOL    HW239993   4.585   3.453   3.713 -0.3207 -0.5152 -0.8037
 9511SOL     OW39994   2.022   1.562   7.860 -0.3097 -0.1478  0.0522
 9511SOL    HW139995   1.927   1.550   7.861 -0.0400 -2.2962  1.0600
 9511SOL    HW239996   2.030   1.589   7.951  1.6815 -0.9560  0.1151
 9512SOL     OW39997   2.041   2.676   4.052 -0.1108  0.2757  0.4697
 9512SOL    HW139998   1.975   2.686   4.121  1.2207 -1.6840  2.0311
 9512SOL    HW239999   2.119   2.709   4.096 -0.1427  0.4669  0.3841
 9513SOL     OW40000   1.219   2.713   4.753  0.0988 -0.5167  0.1693
 9513SOL    HW140001   1.131   2.690   4.724  0.3538 -1.6259  0.2603
 9513SOL    HW240002   1.262   2.636   4.715  1.9985 -0.0645  1.4263
 9514SOL     OW40003   2.767   4.717   4.337  0.1022  0.3594 -0.0800
 9514SOL    HW140004   2.688   4.707   4.283 -0.4292  0.1746  0.7320
 9514SOL    HW240005   2.729   4.697   4.422  0.2371 -3.4168 -0.8759
 9515SOL     OW40006   0.305   4.046  10.615 -0.4382 -0.4022 -0.1284
 9515SOL    HW140007   0.300   3.966  10.668  0.6744  0.2740  0.9695
 9515SOL    HW240008   0.374   4.092  10.661 -0.8298 -0.4304  0.4933
 9516SOL     OW40009   3.762   0.094   5.884 -0.2097 -0.0114  0.6153
 9516SOL    HW140010   3.850   0.081   5.919  0.7452 -0.9860 -2.1629
 9516SOL    HW240011   3.759   0.029   5.813 -0.6851  2.1685 -1.3642
 9517SOL     OW40012   3.850   2.194  16.507  0.3148 -0.0552 -0.0758
 9517SOL    HW140013   3.860   2.282  16.470  1.5467 -0.0493  0.2553
 9517SOL    HW240014   3.824   2.201  16.598 -0.3937 -1.2039 -0.2020
 9518SOL     OW40015   2.282   0.979  13.884  0.2945  0.6569  0.3850
 9518SOL    HW140016   2.196   0.936  13.885  1.2076 -1.1124  1.6693
 9518SOL    HW240017   2.261   1.071  13.898  1.1484  1.0217 -0.7770
 9519SOL     OW40018   0.976   3.354  10.695  0.0211  0.1482 -0.3245
 9519SOL    HW140019   0.930   3.327  10.774  0.8327  1.2808  0.5288
 9519SOL    HW240020   0.916   3.424  10.668  1.9166  1.8142 -0.2038
 9520SOL     OW40021   2.794   1.675   3.065  0.1431 -0.3120  0.3726
 9520SOL    HW140022   2.770   1.723   2.985  0.2236 -1.5256 -0.3840
 9520SOL    HW240023   2.882   1.650   3.035 -1.3934 -1.5046 -3.1592
 9521SOL     OW40024   0.597   1.353   1.348  0.5170 -0.3963  0.1450
 9521SOL    HW140025   0.538   1.427   1.361  0.5312 -0.4484  0.5023
 9521SOL    HW240026   0.677   1.391   1.312 -0.4048 -1.2874 -2.8860
 9522SOL     OW40027   0.834   0.250   5.391  0.0329  0.3154 -0.1258
 9522SOL    HW140028   0.920   0.289   5.374  0.3896  0.1469  1.3607
 9522SOL    HW240029   0.795   0.286   5.311  0.3000 -0.6069 -0.6668
 9523SOL     OW40030   4.209   0.860   7.463  0.2330 -0.3334  0.7725
 9523SOL    HW140031   4.233   0.786   7.407  0.5021 -1.2046  2.0244
 9523SOL    HW240032   4.164   0.913   7.398  2.1703  1.2232  0.7148
 9524SOL     OW40033   1.895   2.172   7.634 -0.3780 -0.1231 -0.4529
 9524SOL    HW140034   1.956   2.124   7.690  0.9841  1.3582 -0.6452
 9524SOL    HW240035   1.825   2.191   7.697  1.1418  3.0533  0.3127
 9525SOL     OW40036   3.213   0.504  12.292  0.0355  0.0892  0.0698
 9525SOL    HW140037   3.263   0.515  12.211  3.0955  2.3943  2.2742
 9525SOL    HW240038   3.129   0.519  12.249  0.3634 -2.3358 -1.4508
 9526SOL     OW40039   4.238   4.091   9.629  0.2046  0.0300  0.3254
 9526SOL    HW140040   4.181   4.168   9.622  0.2753  0.0494 -0.0241
 9526SOL    HW240041   4.176   4.021   9.606  1.6105 -1.2228  0.3726
 9527SOL     OW40042   0.738   3.113   0.510  0.2498  0.6625  0.1914
 9527SOL    HW140043   0.749   3.169   0.587  1.5545  2.0988 -1.0296
 9527SOL    HW240044   0.824   3.124   0.469  0.0122  1.7761 -0.0132
 9528SOL     OW40045   0.697   3.640   9.400 -0.2507  0.3224 -0.0220
 9528SOL    HW140046   0.691   3.630   9.305 -1.9544  1.1276  0.0078
 9528SOL    HW240047   0.690   3.549   9.428  1.4037 -0.2149 -1.3453
 9529SOL     OW40048   4.339   4.466   8.968  0.5599 -0.2501 -0.1133
 9529SOL    HW140049   4.312   4.381   8.934  2.1250 -0.6813 -0.2971
 9529SOL    HW240050   4.307   4.467   9.058  2.4577  3.4141  0.5243
 9530SOL     OW40051   4.665   0.779   4.809  0.4123  0.0560 -0.1239
 9530SOL    HW140052   4.673   0.798   4.716 -0.2272  1.1398  0.0444
 9530SOL    HW240053   4.597   0.711   4.806  1.6747 -1.2512  1.3243
 9531SOL     OW40054   4.411   4.499   6.040  0.3510 -0.2816  0.3216
 9531SOL    HW140055   4.420   4.489   5.945 -0.4976 -1.4072  0.3605
 9531SOL    HW240056   4.502   4.486   6.065  0.1018 -0.2853  1.2162
 9532SOL     OW40057   0.098   1.809   7.201 -0.0861 -0.1557  0.0194
 9532SOL    HW140058   0.081   1.898   7.234 -0.6245  0.2504 -1.3784
 9532SOL    HW240059   0.192   1.804   7.185  0.1534 -0.4903  1.4448
 9533SOL     OW40060   2.492   4.640   9.370 -0.3622 -0.2231  0.0893
 9533SOL    HW140061   2.405   4.599   9.371 -0.1236 -0.7432 -0.4993
 9533SOL    HW240062   2.472   0.008   9.388 -1.6320 -0.3529 -0.6295
 9534SOL     OW40063   3.045   0.689   8.772  0.2261  0.2369 -0.5587
 9534SOL    HW140064   2.990   0.619   8.808 -0.6828  1.4862  0.4702
 9534SOL    HW240065   3.083   0.644   8.696 -0.5361  0.6941 -1.1977
 9535SOL     OW40066   4.226   0.767   5.729 -0.2613  0.8845  0.6726
 9535SOL    HW140067   4.301   0.748   5.672 -0.1006 -0.5840  1.3695
 9535SOL    HW240068   4.209   0.688   5.779 -0.0808 -0.5255 -1.4980
 9536SOL     OW40069   4.015   0.822   3.382 -0.4772  0.1127  0.3499
 9536SOL    HW140070   4.044   0.851   3.296 -3.2221  0.1101 -0.5843
 9536SOL    HW240071   4.096   0.824   3.433 -1.4380  0.5998  1.8672
 9537SOL     OW40072   4.096   1.083   3.211 -0.4224  0.2750 -0.2255
 9537SOL    HW140073   4.144   1.140   3.271  1.8329  1.0936 -2.8024
 9537SOL    HW240074   4.147   1.106   3.133 -1.2617 -0.3015 -0.9410
 9538SOL     OW40075   1.718   2.864   7.335 -0.2149  0.5011 -0.2090
 9538SOL    HW140076   1.673   2.851   7.419 -0.9230 -0.5424 -0.7445
 9538SOL    HW240077   1.801   2.836   7.374  0.7087  0.4781 -2.2114
 9539SOL     OW40078   0.295   2.508   4.480 -0.8658 -0.0776 -0.3807
 9539SOL    HW140079   0.322   2.420   4.508 -1.3177  0.0959  0.5892
 9539SOL    HW240080   0.259   2.542   4.562  3.1223  3.1719  0.0026
 9540SOL     OW40081   3.757   3.198  10.048 -0.5119 -0.1866  0.0726
 9540SOL    HW140082   3.731   3.214   9.958  1.2830  0.0296 -0.4034
 9540SOL    HW240083   3.685   3.248  10.088 -0.0620  1.1116 -0.7244
 9541SOL     OW40084   0.782   0.508   4.800 -0.3436  0.2009 -0.2643
 9541SOL    HW140085   0.695   0.513   4.839 -0.4416  0.1680 -0.4809
 9541SOL    HW240086   0.820   0.436   4.852  1.2845  0.9774 -0.3672
 9542SOL     OW40087   2.424   3.630  10.687  0.0054  0.2104  0.1048
 9542SOL    HW140088   2.407   3.659  10.777  0.1359 -1.5043  0.6773
 9542SOL    HW240089   2.519   3.616  10.686 -0.0869 -0.3607 -0.5040
 9543SOL     OW40090   3.845   0.092  16.896  0.5981  0.4324 -0.4611
 9543SOL    HW140091   3.931   0.124  16.923  1.2281  1.1461 -3.3794
 9543SOL    HW240092   3.867   0.038  16.821 -0.1139  0.4452 -0.6818
 9544SOL     OW40093   3.642   1.475   2.573  0.1556  0.3524  0.2056
 9544SOL    HW140094   3.673   1.560   2.604 -1.8472  0.7795  1.0429
 9544SOL    HW240095   3.707   1.454   2.505 -0.4727  1.0076 -0.5945
 9545SOL     OW40096   0.518   4.197  10.723 -0.4241 -0.4344 -0.3053
 9545SOL    HW140097   0.608   4.167  10.711 -0.9741 -1.6903 -1.3872
 9545SOL    HW240098   0.520   4.275  10.668  1.6831 -0.7089 -0.6198
 9546SOL     OW40099   4.567   0.103   2.482 -0.0497 -0.5737  0.3842
 9546SOL    HW140100   4.502   0.142   2.424  1.0556  0.4662 -0.1426
 9546SOL    HW240101   4.614   0.180   2.513 -0.6052 -0.6274  1.3709
 9547SOL     OW40102   2.679   2.554  15.235  0.7290  0.6914  0.2426
 9547SOL    HW140103   2.671   2.585  15.145 -1.0638 -1.1058 -0.2122
 9547SOL    HW240104   2.671   2.458  15.230  1.7059  0.7104 -1.7534
 9548SOL     OW40105   1.889   4.375   5.552  0.3554  0.0144 -0.1057
 9548SOL    HW140106   1.946   4.402   5.624 -1.8500 -1.0062  2.0101
 9548SOL    HW240107   1.945   4.378   5.474 -0.9654 -1.3519 -1.1087
 9549SOL     OW40108   3.728   3.474   2.664 -0.0330 -0.3482 -0.4408
 9549SOL    HW140109   3.670   3.515   2.600 -0.5581 -0.4733 -0.0493
 9549SOL    HW240110   3.669   3.404   2.694 -0.2462  0.4165  0.9029
 9550SOL     OW40111   3.909   2.154   2.813 -0.5536 -0.2091 -0.0230
 9550SOL    HW140112   3.876   2.069   2.783  1.4964 -0.5741 -1.1756
 9550SOL    HW240113   3.835   2.179   2.869  0.5843  1.4196  0.7470
 9551SOL     OW40114   1.452   2.113  16.913 -0.5019 -0.1233 -0.0485
 9551SOL    HW140115   1.534   2.130  16.959 -0.7007  1.9389 -0.4634
 9551SOL    HW240116   1.468   2.021  16.889  2.1439  0.3190  0.0520
 9552SOL     OW40117   1.648   1.650   9.005 -0.6106  0.3492  0.0943
 9552SOL    HW140118   1.623   1.713   8.937  0.0629  1.1420  0.5902
 9552SOL    HW240119   1.641   1.709   9.079  0.6111 -0.0177  0.5060
 9553SOL     OW40120   2.522   2.429   2.679 -0.3960 -0.3354 -0.3013
 9553SOL    HW140121   2.462   2.386   2.740  0.0529  1.5756  1.5018
 9553SOL    HW240122   2.592   2.367   2.663  0.1323  0.2943 -0.4085
 9554SOL     OW40123   2.177   2.941   8.011 -0.4338 -0.1270  0.4234
 9554SOL    HW140124   2.253   2.991   7.983 -0.1241 -0.3953  0.7768
 9554SOL    HW240125   2.211   2.855   8.035  0.7600  0.7392  1.8820
 9555SOL     OW40126   2.883   1.843   1.783  0.4670 -0.4035 -0.1570
 9555SOL    HW140127   2.955   1.890   1.824  0.5140 -0.8482  0.2725
 9555SOL    HW240128   2.867   1.768   1.841 -2.4871 -0.6146 -1.2366
 9556SOL     OW40129   0.728   4.568  14.048 -0.2423 -0.3666 -0.7293
 9556SOL    HW140130   0.744   4.662  14.052  0.0906 -0.5168  1.3719
 9556SOL    HW240131   0.817   4.542  14.021  0.2220  0.8573 -0.3718
 9557SOL     OW40132   3.157   0.149  14.653 -0.4999 -0.9184 -0.7692
 9557SOL    HW140133   3.242   0.189  14.672 -0.8013 -0.5484 -0.2012
 9557SOL    HW240134   3.106   0.156  14.733  0.4605  0.8760 -0.3008
 9558SOL     OW40135   4.464   4.338   7.517 -0.7817  0.1067 -1.0894
 9558SOL    HW140136   4.443   4.354   7.609  2.1259 -0.0069 -0.4080
 9558SOL    HW240137   4.393   4.279   7.494  1.1108 -1.4456 -2.9434
 9559SOL     OW40138   1.574   2.902   9.953 -0.2136  0.3961 -0.0265
 9559SOL    HW140139   1.543   2.922  10.041 -0.5241  0.0941 -0.0654
 9559SOL    HW240140   1.668   2.917   9.958 -0.5191  2.1552  0.2691
 9560SOL     OW40141   0.839   3.961   6.235  0.2609  0.0420  0.2881
 9560SOL    HW140142   0.826   4.013   6.314 -0.0126 -0.4670  0.5805
 9560SOL    HW240143   0.761   3.972   6.181  0.7350  0.6637 -0.2743
 9561SOL     OW40144   1.692   4.337   4.599 -0.3575  0.0635  0.1293
 9561SOL    HW140145   1.661   4.326   4.509  0.8282  1.2342 -0.4271
 9561SOL    HW240146   1.617   4.299   4.645  0.1243  0.3596  1.1512
 9562SOL     OW40147   1.106   0.194   6.837 -0.1022 -0.3343  0.5221
 9562SOL    HW140148   1.129   0.208   6.929  1.4974  1.1254 -0.1017
 9562SOL    HW240149   1.056   0.274   6.820 -0.8726 -0.4191  2.3141
 9563SOL     OW40150   0.028   4.567  15.552 -0.0416 -0.3500 -0.3149
 9563SOL    HW140151   4.675   4.585  15.497 -2.1176 -2.9223  1.7571
 9563SOL    HW240152   0.074   4.495  15.508 -0.4947 -0.3759 -0.7418
 9564SOL     OW40153   3.061   3.054   2.552  0.9946 -0.4988 -0.4433
 9564SOL    HW140154   3.011   3.006   2.487  0.8440 -0.1223 -0.6063
 9564SOL    HW240155   3.018   3.140   2.556 -1.4208 -1.7624  0.6576
 9565SOL     OW40156   0.646   3.152   4.329 -0.0688 -0.4096  0.0485
 9565SOL    HW140157   0.638   3.237   4.372 -1.0281 -0.9146  0.8609
 9565SOL    HW240158   0.740   3.134   4.339 -0.3267 -1.3718  0.6955
 9566SOL     OW40159   4.655   4.431   5.670 -0.0944  0.2514 -0.2268
 9566SOL    HW140160   4.654   4.360   5.735 -0.8641  0.1079 -0.3977
 9566SOL    HW240161   0.021   4.460   5.684 -0.8194  2.0600  0.7113
 9567SOL     OW40162   2.561   2.585   9.344 -0.0757  0.0928  0.2149
 9567SOL    HW140163   2.593   2.648   9.279 -0.2298 -0.6580 -0.5966
 9567SOL    HW240164   2.579   2.631   9.426  0.5126  1.7865 -0.8411
 9568SOL     OW40165   4.621   1.598  11.730  0.2634 -0.1066 -0.5533
 9568SOL    HW140166   4.622   1.662  11.800  0.0079 -1.5642  0.7860
 9568SOL    HW240167   4.639   1.515  11.774 -2.1467 -0.3143  0.0696
   4.72362   4.72362  17.69622
