Membrane in water
40167
    1TCq1    O1    1   3.635   4.426  11.075  0.2441 -0.1255 -0.0372
    1TCq1    C1    2   3.534   4.389  11.160  0.1610 -0.4021 -0.4195
    1TCq1    O2    3   3.538   4.416  11.279  0.3416 -0.2109 -0.0069
    1TCq1    C2    4   3.468   4.286  11.087 -0.6490 -0.3623 -0.4806
    1TCq1    C3    5   3.454   4.299  10.948 -0.7899  0.3893 -1.0086
    1TCq1    C4    6   3.399   4.187  10.893 -0.0506 -0.4584 -0.3325
    1TCq1    C5    7   3.331   4.091  10.959  0.2154  0.2531  0.1438
    1TCq1    C6    8   3.332   4.096  11.097  0.0532  0.5621  0.3826
    1TCq1    C7    9   3.420   4.183  11.161  0.0424 -0.6907  0.2512
    1TCq1    C8   10   3.294   3.977  11.167 -0.7262  0.1639 -0.2277
    1TCq1    O4   11   3.299   3.875  11.097  0.4450  0.1863 -0.1218
    1TCq1    C9   12   3.384   4.187  10.748  0.2214 -0.5767 -0.1707
    1TCq1    O5   13   3.352   4.083  10.685  0.7344 -0.0071 -0.4000
    1TCq1    O6   14   3.429   4.290  10.691 -0.9330 -0.1206  0.4788
    1TCq1    H1   15   3.639   4.382  10.987 -1.4596  0.0729 -0.2162
    1TCq1    H2   16   3.487   4.380  10.884 -0.5708  1.0374 -0.0676
    1TCq1    H3   17   3.270   4.015  10.910  0.6891  1.6013 -2.5617
    1TCq1    H4   18   3.426   4.172  11.269  0.7173  0.7549  0.3518
    2MPD2     C   19   3.158   3.677  11.575  0.4407  0.0864  0.4085
    2MPD2    C1   20   3.135   3.811  11.609 -0.2671  0.0494  0.7326
    2MPD2    C2   21   3.174   3.903  11.519 -0.0977 -0.0882  0.1721
    2MPD2    C3   22   3.223   3.876  11.391  0.4856  0.5046  0.2357
    2MPD2    C4   23   3.234   3.749  11.349 -0.0685 -0.0562  0.4883
    2MPD2    C5   24   3.198   3.653  11.441  0.7559  0.5322  0.1417
    2MPD2     H   25   3.170   4.008  11.546  0.9291 -0.3626  1.4147
    2MPD2    H1   26   3.271   3.721  11.251 -2.7061 -1.7106 -0.0426
    2MPD2    H2   27   3.136   3.589  11.634  0.4414 -1.7848 -2.3673
    2MPD2    H3   28   3.215   3.547  11.423 -1.7346 -0.1486  1.8267
    2MPD2     N   29   3.251   3.992  11.303  0.2537 -0.6467  0.5550
    2MPD2    H5   30   3.230   4.085  11.337  0.4007 -0.1249 -0.8052
    2MPD2    N1   31   3.084   3.856  11.734 -0.2412  0.0775  0.2343
    2MPD2    H7   32   3.066   3.955  11.747  0.4991  0.1895  0.3923
    3TCq1    O1   33   2.984   0.386  10.423  0.4897  0.2930  0.4797
    3TCq1    C1   34   3.015   0.455  10.539 -0.4059 -0.3930  0.0054
    3TCq1    O2   35   3.120   0.507  10.566  0.2286 -0.1135  0.2224
    3TCq1    C2   36   2.893   0.478  10.612 -0.5448  0.4745 -0.0797
    3TCq1    C3   37   2.837   0.370  10.679  0.2895 -0.0753 -0.6177
    3TCq1    C4   38   2.750   0.388  10.780 -0.2495  0.2408  0.0434
    3TCq1    C5   39   2.732   0.509  10.824  0.2512 -0.3626 -0.0113
    3TCq1    C6   40   2.788   0.622  10.759  0.4161 -0.1596 -0.1193
    3TCq1    C7   41   2.883   0.603  10.663 -1.1524  0.3157 -0.1019
    3TCq1    C8   42   2.792   0.749  10.821 -0.1759 -0.6138 -0.6593
    3TCq1    O4   43   2.901   0.800  10.832  0.3694 -0.6459  0.6158
    3TCq1    C9   44   2.669   0.273  10.831  0.5063 -0.1127  1.1846
    3TCq1    O5   45   2.663   0.173  10.762 -0.5037  0.4987  0.1369
    3TCq1    O6   46   2.614   0.290  10.944  0.5038 -0.0157 -0.4570
    3TCq1    H1   47   2.888   0.365  10.418  0.6484 -0.3941  0.3582
    3TCq1    H2   48   2.867   0.268  10.657 -0.7664 -0.2373 -1.3106
    3TCq1    H3   49   2.654   0.519  10.899 -0.3495 -1.6095 -0.4629
    3TCq1    H4   50   2.940   0.685  10.621 -1.5223  0.6615  0.0765
    4MPD2     C   51   2.604   1.073  11.166 -0.0311  0.4889  0.0961
    4MPD2    C1   52   2.516   0.961  11.158 -0.8714  0.1365 -0.2517
    4MPD2    C2   53   2.536   0.870  11.059  0.3566  0.4518 -0.5318
    4MPD2    C3   54   2.646   0.880  10.969 -0.4188 -0.3460 -0.3238
    4MPD2    C4   55   2.728   0.996  10.974 -0.0457 -0.1876  0.2658
    4MPD2    C5   56   2.707   1.087  11.070  0.4465 -0.2069  0.1302
    4MPD2     H   57   2.485   0.774  11.053  2.3661 -0.5906 -0.9716
    4MPD2    H1   58   2.807   1.017  10.904  0.5559 -1.7610  0.4765
    4MPD2    H2   59   2.605   1.144  11.247  0.9748 -0.9589  1.3542
    4MPD2    H3   60   2.786   1.162  11.079  1.1668 -1.0287  0.6212
    4MPD2     N   61   2.669   0.778  10.878 -0.0818  0.0302  0.0632
    4MPD2    H5   62   2.596   0.707  10.871 -0.6936  0.5735  0.9516
    4MPD2    N1   63   2.421   0.927  11.257 -0.0424  0.2667 -0.0707
    4MPD2    H7   64   2.370   0.840  11.258 -0.4215  0.5002  2.2851
    5TCq1    O1   65   4.205   1.809  11.271 -0.0948  0.5636 -0.0039
    5TCq1    C1   66   4.100   1.767  11.346  0.0920 -0.0542 -0.4519
    5TCq1    O2   67   4.107   1.761  11.469 -0.5360  0.1614 -0.0678
    5TCq1    C2   68   3.996   1.855  11.296 -0.0045 -0.0914 -0.7770
    5TCq1    C3   69   3.966   1.966  11.364 -0.2182 -0.2402 -0.0855
    5TCq1    C4   70   3.868   2.046  11.309 -0.2885  0.0684 -0.4329
    5TCq1    C5   71   3.815   2.015  11.189  0.0674 -0.8043 -0.1422
    5TCq1    C6   72   3.876   1.923  11.104  0.3285  0.3490 -0.7179
    5TCq1    C7   73   3.965   1.839  11.162  0.4556 -0.3482  0.2864
    5TCq1    C8   74   3.825   1.898  10.974  0.1180  0.5137  0.2309
    5TCq1    O4   75   3.864   1.793  10.929 -0.3694 -0.1712 -0.0430
    5TCq1    C9   76   3.807   2.146  11.398  0.5091 -0.7094  0.2230
    5TCq1    O5   77   3.703   2.198  11.355  0.2378 -0.5285  0.0142
    5TCq1    O6   78   3.833   2.149  11.517 -0.4845 -0.2668  0.0399
    5TCq1    H1   79   4.178   1.830  11.179  0.2740 -0.9137 -0.4459
    5TCq1    H2   80   4.010   1.961  11.463  0.0327  0.9569 -0.1359
    5TCq1    H3   81   3.716   2.055  11.172  0.0072 -0.8588  0.0796
    5TCq1    H4   82   4.014   1.763  11.102  0.8827 -0.4189  0.7169
    6MPD2     C   83   3.545   2.063  10.793  0.1874 -0.2552  0.3178
    6MPD2    C1   84   3.628   1.965  10.841  0.2945  0.6631 -0.8036
    6MPD2    C2   85   3.612   1.843  10.782 -0.2713  0.5374  0.0162
    6MPD2    C3   86   3.529   1.824  10.676 -0.0593 -0.1985 -0.2197
    6MPD2    C4   87   3.448   1.925  10.625 -0.3586 -0.3505  0.9077
    6MPD2    C5   88   3.458   2.046  10.684 -0.2994 -0.5322  0.8305
    6MPD2     H   89   3.665   1.761  10.828  2.0960  0.2207 -3.2459
    6MPD2    H1   90   3.381   1.913  10.541  0.9766  1.8989 -0.4691
    6MPD2    H2   91   3.551   2.163  10.832  2.5570 -0.4599  0.4647
    6MPD2    H3   92   3.394   2.130  10.663 -0.1173 -0.5039  0.3943
    6MPD2     N   93   3.519   1.686  10.643 -0.0752 -0.4525 -0.4611
    6MPD2    H5   94   3.588   1.625  10.685  0.3302  0.4903  0.2492
    6MPD2    N1   95   3.719   1.983  10.939  0.1590 -0.0054  0.4734
    6MPD2    H7   96   3.713   2.074  10.984 -0.5322  0.4534 -0.5537
    7TCq1    O1   97   1.393   1.444  13.232 -0.1206  0.9088 -0.6499
    7TCq1    C1   98   1.347   1.524  13.131 -0.3111 -0.0672 -0.1778
    7TCq1    O2   99   1.363   1.644  13.129 -0.1292  0.6626  0.2235
    7TCq1    C2  100   1.247   1.459  13.045  0.3285 -0.1854 -0.6095
    7TCq1    C3  101   1.142   1.536  13.020  0.2094 -0.2266  0.7157
    7TCq1    C4  102   1.027   1.476  12.981 -0.4764 -0.7257 -0.1793
    7TCq1    C5  103   1.010   1.338  12.992 -0.5088 -0.0176 -0.2324
    7TCq1    C6  104   1.124   1.265  13.009 -0.0031  0.3103 -0.1752
    7TCq1    C7  105   1.243   1.321  13.037 -0.3711  0.1751  1.0242
    7TCq1    C8  106   1.108   1.121  13.023  0.5448  0.2092  0.2871
    7TCq1    O4  107   0.992   1.077  13.002 -0.3149 -0.1469  0.1235
    7TCq1    C9  108   0.915   1.558  12.957 -0.5195  0.0385 -0.5845
    7TCq1    O5  109   0.929   1.682  12.981 -0.5038  0.2100 -0.1206
    7TCq1    O6  110   0.810   1.502  12.919 -0.2182  0.0209 -0.3217
    7TCq1    H1  111   1.372   1.348  13.233  0.9147  0.6993  1.0941
    7TCq1    H2  112   1.142   1.643  13.035  0.0067 -0.0648 -0.5070
    7TCq1    H3  113   0.912   1.299  12.968 -1.0856 -0.4024  2.7517
    7TCq1    H4  114   1.332   1.262  13.056  0.4182  0.6918 -1.1189
    8MPD2     C  115   1.228   0.650  13.195 -0.2316 -0.2154  0.1678
    8MPD2    C1  116   1.105   0.708  13.172  0.3792  0.0716  0.6985
    8MPD2    C2  117   1.100   0.842  13.129  0.1276  0.1562 -0.0953
    8MPD2    C3  118   1.215   0.912  13.098  0.8763  0.1232  0.1779
    8MPD2    C4  119   1.339   0.851  13.113  0.4255  0.2207 -0.0501
    8MPD2    C5  120   1.339   0.721  13.162 -0.3998  0.1824 -1.0027
    8MPD2     H  121   1.000   0.882  13.120  0.3416  1.1117  1.8011
    8MPD2    H1  122   1.425   0.913  13.088 -0.3087  0.7496 -1.2874
    8MPD2    H2  123   1.233   0.549  13.233  1.1818 -0.2974 -0.2088
    8MPD2    H3  124   1.439   0.681  13.175 -0.4592  0.4218  0.1780
    8MPD2     N  125   1.220   1.045  13.050 -0.5916  0.0269 -0.3366
    8MPD2    H5  126   1.311   1.087  13.036 -1.0795  1.8793  2.2049
    8MPD2    N1  127   0.989   0.629  13.220 -0.0388  0.2772  0.1629
    8MPD2    H7  128   1.007   0.544  13.273  0.0886 -0.0225 -0.3578
    9TCq1    O1  129   3.278   4.391  10.497 -0.3511 -0.4405 -0.3050
    9TCq1    C1  130   3.172   4.458  10.543  0.3551  0.3063 -0.1839
    9TCq1    O2  131   3.082   4.497  10.470  0.0846 -0.7023  0.6313
    9TCq1    C2  132   3.227   4.549  10.652 -0.8243 -0.2864  0.3671
    9TCq1    C3  133   3.364   4.580  10.654 -0.1344  0.3234 -0.4642
    9TCq1    C4  134   3.428   4.614  10.772 -0.1999 -0.7033  0.3081
    9TCq1    C5  135   3.348   4.628  10.884 -0.2882 -0.1416  0.2769
    9TCq1    C6  136   3.215   4.602  10.877  0.0898  0.5801 -0.3064
    9TCq1    C7  137   3.150   4.555  10.765  0.2422 -0.3606 -0.5916
    9TCq1    C8  138   3.148   4.542  10.989 -0.2211 -0.5837  0.1526
    9TCq1    O4  139   3.049   4.473  10.967  0.1571 -0.6835  0.2572
    9TCq1    C9  140   3.572   4.627  10.766 -0.0209 -0.1120 -0.1039
    9TCq1    O5  141   3.642   4.569  10.676  0.6205 -0.1550 -0.5006
    9TCq1    O6  142   3.627   4.677  10.867 -0.4822  0.0098  0.2576
    9TCq1    H1  143   3.348   4.377  10.563  0.3359  1.3491 -0.6642
    9TCq1    H2  144   3.424   4.567  10.565  0.8339 -2.4734  0.6118
    9TCq1    H3  145   3.390   4.650  10.981 -0.7828 -0.5028  0.5724
    9TCq1    H4  146   3.043   4.541  10.751  0.3438 -1.0921 -0.6286
   10MPD2     C  147   3.051   4.466  11.272 -0.0080  0.0888  0.4894
   10MPD2    C1  148   3.137   4.567  11.238 -0.5221 -0.0245  0.1793
   10MPD2    C2  149   3.179   4.649  11.349 -0.8598  0.5975  0.2917
   10MPD2    C3  150   3.121   4.638  11.476  0.0489 -0.3340  0.6429
   10MPD2    C4  151   3.026   4.538  11.494 -0.1205  0.6803 -1.0271
   10MPD2    C5  152   2.997   4.453  11.393  0.4079 -0.0169 -0.2563
   10MPD2     H  153   3.243   0.006  11.320  0.5881 -0.1858  1.2515
   10MPD2    H1  154   2.971   4.525  11.587  2.9098  0.6440  0.7638
   10MPD2    H2  155   3.018   4.395  11.197  1.2204  0.6143 -0.5350
   10MPD2    H3  156   2.921   4.376  11.401  0.9145 -0.6580 -1.5816
   10MPD2     N  157   3.153   0.004  11.583 -0.1301  0.3643 -0.7075
   10MPD2    H5  158   3.108   4.699  11.668  0.2411 -0.5741 -0.8468
   10MPD2    N1  159   3.189   4.596  11.106 -0.1096 -0.0016  0.0725
   10MPD2    H7  160   3.239   4.685  11.105 -0.1697  0.0124 -1.4090
   11TCq1    O1  161   4.062   0.390  14.660  0.1565 -0.0405  0.5233
   11TCq1    C1  162   4.111   0.265  14.681 -0.1574 -0.3149 -0.5978
   11TCq1    O2  163   4.053   0.182  14.751  0.8334  0.3089  0.0696
   11TCq1    C2  164   4.226   0.240  14.591  0.2496 -0.5177 -0.3608
   11TCq1    C3  165   4.292   0.344  14.527  0.2172 -0.6526  0.3542
   11TCq1    C4  166   4.415   0.308  14.469  0.0846  0.6644  0.5591
   11TCq1    C5  167   4.453   0.177  14.465 -0.5023  0.3522 -0.2795
   11TCq1    C6  168   4.381   0.080  14.531  0.6367  0.1269  0.2455
   11TCq1    C7  169   4.265   0.110  14.588  0.4300 -0.5110 -0.2331
   11TCq1    C8  170   4.405   4.665  14.518  0.1131 -0.1368  0.1848
   11TCq1    O4  171   4.516   4.624  14.556  0.2513  0.4296  0.1575
   11TCq1    C9  172   4.516   0.407  14.429 -0.4042 -0.6096 -0.3103
   11TCq1    O5  173   4.490   0.528  14.422 -0.3357  0.1876  0.4135
   11TCq1    O6  174   4.618   0.362  14.377  0.0575 -0.0510 -0.7086
   11TCq1    H1  175   4.083   0.427  14.572 -2.2163  1.6353  0.6475
   11TCq1    H2  176   4.269   0.450  14.537  1.1177 -0.6483  2.3041
   11TCq1    H3  177   4.550   0.144  14.427  0.3855  1.9327  0.6023
   11TCq1    H4  178   4.219   0.041  14.658  0.0001 -0.3625 -0.3648
   12MPD2     C  179   4.391   4.379  14.448  0.2592 -0.0377 -1.0050
   12MPD2    C1  180   4.296   4.473  14.404 -0.1058 -0.0055 -0.0508
   12MPD2    C2  181   4.188   4.428  14.334 -0.7808 -0.6678 -0.8457
   12MPD2    C3  182   4.181   4.298  14.290  0.7860 -0.3079 -0.3239
   12MPD2    C4  183   4.279   4.207  14.327  0.0782 -0.1779 -0.4205
   12MPD2    C5  184   4.377   4.251  14.414 -0.5362 -0.7036  0.2008
   12MPD2     H  185   4.117   4.504  14.303  2.8681  3.1210 -0.0023
   12MPD2    H1  186   4.265   4.101  14.313  1.4973 -0.3805 -0.2857
   12MPD2    H2  187   4.469   4.407  14.518 -1.1880 -1.7387  1.2965
   12MPD2    H3  188   4.447   4.181  14.458 -0.7048 -0.4619  0.8576
   12MPD2     N  189   4.067   4.262  14.213  0.5589 -0.1791 -0.0955
   12MPD2    H5  190   4.013   4.339  14.176 -1.2839 -0.9877  0.8926
   12MPD2    N1  191   4.301   4.607  14.442 -0.0579 -0.2754 -0.1887
   12MPD2    H7  192   4.232   4.670  14.403 -0.2970  0.4536  1.4222
   13TCq1    O1  193   2.424   0.338   9.978  0.3556 -0.7649  0.1164
   13TCq1    C1  194   2.507   0.237   9.972  0.0123  0.6667  0.7743
   13TCq1    O2  195   2.626   0.264   9.962 -0.1577 -0.0707  0.3014
   13TCq1    C2  196   2.453   0.129  10.041 -0.0297  0.0059 -0.1117
   13TCq1    C3  197   2.331   0.079  10.005  0.1277 -0.2593  0.1869
   13TCq1    C4  198   2.307   4.678  10.051  0.0743 -0.2577 -0.4312
   13TCq1    C5  199   2.383   4.605  10.143  0.5383 -0.7651 -0.3157
   13TCq1    C6  200   2.504   4.657  10.177 -0.1247 -0.2490  0.0689
   13TCq1    C7  201   2.537   0.053  10.126  0.0686 -0.5313 -0.1134
   13TCq1    C8  202   2.573   4.605  10.296 -0.1200  0.1138  0.0187
   13TCq1    O4  203   2.642   4.673  10.365 -0.1388 -0.5783 -0.1811
   13TCq1    C9  204   2.172   4.635  10.017 -0.3199 -0.0722 -0.3713
   13TCq1    O5  205   2.114   4.700   9.927 -0.3121 -0.2238 -0.2264
   13TCq1    O6  206   2.121   4.540  10.083  0.3266 -0.0984  0.2017
   13TCq1    H1  207   2.337   0.303  10.005 -0.4146  0.4316 -0.8104
   13TCq1    H2  208   2.267   0.133   9.935 -1.2198 -0.0741  1.5808
   13TCq1    H3  209   2.335   4.519  10.189  0.2758 -1.2700 -1.5484
   13TCq1    H4  210   2.636   0.090  10.153  0.7619 -0.6162 -2.5703
   14MPD2     C  211   2.515   4.255  10.429  0.5147  0.3450  0.1607
   14MPD2    C1  212   2.562   4.390  10.430  0.5882  0.5284  0.4438
   14MPD2    C2  213   2.625   4.430  10.543 -0.3244  0.2035  0.3604
   14MPD2    C3  214   2.641   4.349  10.650  0.1007 -0.3676 -0.0143
   14MPD2    C4  215   2.602   4.209  10.645 -0.2792  0.6533 -0.7524
   14MPD2    C5  216   2.541   4.167  10.531 -0.5386  0.5778 -0.0281
   14MPD2     H  217   2.666   4.530  10.551  0.1541  0.2003 -2.2198
   14MPD2    H1  218   2.627   4.132  10.717 -0.2580  2.3138  1.0213
   14MPD2    H2  219   2.455   4.226  10.344  1.4958  0.4696 -0.5765
   14MPD2    H3  220   2.507   4.064  10.525  0.5086  0.1752  0.8263
   14MPD2     N  221   2.688   4.405  10.771 -0.2899  0.8142  0.2139
   14MPD2    H5  222   2.696   4.506  10.782  0.3282  0.9085 -1.1176
   14MPD2    N1  223   2.537   4.474  10.319  0.3712  0.2098  0.2393
   14MPD2    H7  224   2.491   4.437  10.236 -1.2486  0.7811  0.8842
   15TCq1    O1  225   0.839   4.086   2.390  0.0508  0.4228  0.1937
   15TCq1    C1  226   0.849   4.019   2.268  0.1296 -0.0730  0.4024
   15TCq1    O2  227   0.953   4.019   2.202 -0.0156  0.0543 -0.3566
   15TCq1    C2  228   0.729   3.940   2.232  0.2773  0.3014  0.3395
   15TCq1    C3  229   0.630   3.922   2.326  0.3324 -0.1456 -0.1893
   15TCq1    C4  230   0.526   3.836   2.297  0.4557 -0.2407  0.3208
   15TCq1    C5  231   0.527   3.763   2.174 -0.4207  0.5108 -0.1557
   15TCq1    C6  232   0.636   3.783   2.095  0.3632  0.0303 -0.1077
   15TCq1    C7  233   0.740   3.872   2.112  0.0569  0.8082  0.0345
   15TCq1    C8  234   0.645   3.692   1.973 -0.7307  0.0223 -0.4951
   15TCq1    O4  235   0.755   3.682   1.918  0.0514  0.0323 -0.2999
   15TCq1    C9  236   0.414   3.817   2.389 -0.0966  0.7650 -0.0943
   15TCq1    O5  237   0.428   3.868   2.505 -0.7985  0.0905  0.8781
   15TCq1    O6  238   0.307   3.770   2.340 -0.3106 -0.1835 -0.5281
   15TCq1    H1  239   0.765   4.073   2.452  0.3702  0.2873  0.5470
   15TCq1    H2  240   0.637   3.956   2.429 -0.7095  1.1973 -0.5563
   15TCq1    H3  241   0.454   3.684   2.163  0.2655 -0.2954  1.0395
   15TCq1    H4  242   0.828   3.875   2.048 -1.2077  0.1461 -1.7495
   16MPD2     C  243   0.380   3.547   1.770 -0.9803 -1.2934  0.1767
   16MPD2    C1  244   0.505   3.552   1.821 -0.5625  0.5203 -0.3073
   16MPD2    C2  245   0.608   3.478   1.761  1.0629 -0.6142 -0.1402
   16MPD2    C3  246   0.578   3.378   1.675  0.4910  0.1583 -0.0728
   16MPD2    C4  247   0.448   3.380   1.631  1.0790 -0.1064  0.7113
   16MPD2    C5  248   0.350   3.457   1.679 -0.2798 -0.4211  0.0531
   16MPD2     H  249   0.711   3.483   1.794  0.6884  0.4524  0.8677
   16MPD2    H1  250   0.412   3.299   1.569 -1.1139 -0.3138  2.2518
   16MPD2    H2  251   0.297   3.605   1.808 -0.7922  0.4096 -2.0309
   16MPD2    H3  252   0.247   3.461   1.646 -0.9249 -4.3798  1.5484
   16MPD2     N  253   0.677   3.290   1.625  0.0327  0.2858 -0.1550
   16MPD2    H5  254   0.773   3.299   1.655  0.0783 -0.6555 -0.0379
   16MPD2    N1  255   0.524   3.643   1.929 -0.2263 -0.0850  0.2712
   16MPD2    H7  256   0.445   3.696   1.964  0.4789  1.9095 -1.1913
   17TCq1    O1  257   4.505   3.486   9.709 -0.0790 -0.4195 -0.4508
   17TCq1    C1  258   4.534   3.611   9.684  0.0300  0.2256 -1.3509
   17TCq1    O2  259   4.632   3.654   9.625 -0.3690  0.7471 -0.0052
   17TCq1    C2  260   4.439   3.705   9.736  0.0401  0.1697  0.1521
   17TCq1    C3  261   4.444   3.829   9.680 -0.2212 -0.5642 -0.3830
   17TCq1    C4  262   4.359   3.925   9.708 -0.0594 -0.2346 -0.8955
   17TCq1    C5  263   4.257   3.894   9.799  0.3690  0.8778 -0.3002
   17TCq1    C6  264   4.246   3.769   9.854  1.1648  0.8154 -0.0994
   17TCq1    C7  265   4.331   3.665   9.821 -0.3370  0.4004  0.2389
   17TCq1    C8  266   4.171   3.758   9.977 -0.0174  0.6864 -0.3324
   17TCq1    O4  267   4.163   3.649  10.027  0.1100  0.0138  0.1982
   17TCq1    C9  268   4.383   4.060   9.663  0.7709 -0.3537 -1.0555
   17TCq1    O5  269   4.290   4.136   9.703  0.3882 -0.2150 -0.4863
   17TCq1    O6  270   4.484   4.088   9.589 -0.2276 -0.3517  1.2363
   17TCq1    H1  271   4.415   3.475   9.747 -0.0106  0.4401 -0.0493
   17TCq1    H2  272   4.510   3.845   9.596 -0.4977 -0.8701 -0.6579
   17TCq1    H3  273   4.178   3.967   9.812  1.2670  1.6009  1.0692
   17TCq1    H4  274   4.345   3.581   9.888 -0.6362 -0.8695 -1.2909
   18MPD2     C  275   4.096   3.796  10.270  0.4976 -0.4565 -0.5338
   18MPD2    C1  276   4.181   3.877  10.194 -0.2821  0.3492  0.5865
   18MPD2    C2  277   4.250   3.977  10.266  0.3004  0.1514  0.1890
   18MPD2    C3  278   4.244   3.990  10.402 -0.2128  0.1775  0.4016
   18MPD2    C4  279   4.146   3.918  10.465 -0.3209  0.7560  0.1241
   18MPD2    C5  280   4.076   3.822  10.401  0.2427 -0.1656 -0.3898
   18MPD2     H  281   4.320   4.031  10.203 -1.5110  0.5721 -1.4326
   18MPD2    H1  282   4.141   3.913  10.573 -1.4066 -2.2223 -0.0627
   18MPD2    H2  283   4.034   3.723  10.219 -1.1303 -1.0847  2.3660
   18MPD2    H3  284   3.997   3.772  10.456 -0.8526 -0.4208 -2.1688
   18MPD2     N  285   4.325   4.080  10.475  0.5437 -0.3249 -0.3778
   18MPD2    H5  286   4.313   4.070  10.575  0.1198 -0.1943 -0.4179
   18MPD2    N1  287   4.201   3.861  10.055 -0.0569 -0.1057 -1.2573
   18MPD2    H7  288   4.230   3.946  10.007  2.8190 -0.2084  0.2620
   19TMC2    C1  289   0.282   4.143  13.990 -0.2484  0.1544 -0.8105
   19TMC2    C2  290   0.173   4.228  13.951  0.0289 -0.1734 -0.2129
   19TMC2    C3  291   0.052   4.161  13.930  1.2682  0.2475 -0.3156
   19TMC2    C4  292   0.273   4.016  14.019  0.0885  0.0695 -0.0109
   19TMC2    C5  293   0.144   3.962  14.002 -0.5682 -1.1183 -0.2735
   19TMC2    C6  294   0.034   4.031  13.954 -0.2375 -0.8964 -0.4105
   19TMC2     C  295   0.410   4.203  13.983  0.3825 -0.1212 -0.3036
   19TMC2     O  296   0.427   4.302  13.917  0.1615  0.2539  0.4364
   19TMC2     H  297   0.194   4.330  13.919  1.1920 -0.8506 -1.6010
   19TMC2    H1  298   0.364   3.958  14.032  0.6671  1.1143  0.6383
   19TMC2    H2  299   4.656   3.998  13.959 -0.9680  1.5356  0.8879
   19TMC2    C7  300   0.130   3.820  14.030  1.0819  0.1057  0.2349
   19TMC2    C8  301   4.659   4.226  13.878  0.8748 -0.3954  0.4717
   19TMC2    O1  302   0.032   3.762  13.977  0.9168  0.3362 -0.1413
   19TMC2    O2  303   4.559   4.174  13.829 -0.7608 -0.3107 -0.1229
   19TMC2    O5  304   4.679   4.359  13.885  0.2654  0.1431  0.4799
   19TMC2    H5  305   0.014   4.384  13.959  0.0549  0.0049  0.6992
   20MPD2     C  306   0.670   4.336  14.048 -0.0150 -0.0713 -0.2607
   20MPD2    C1  307   0.624   4.217  14.102  0.2415  1.6288  0.0243
   20MPD2    C2  308   0.720   4.151  14.177 -0.2150 -0.1707 -0.4658
   20MPD2    C3  309   0.847   4.204  14.202  0.2322 -0.4107  1.0294
   20MPD2    C4  310   0.889   4.316  14.131 -0.4951 -0.1792  0.5513
   20MPD2    C5  311   0.795   4.393  14.064 -0.0423  0.0960 -0.3621
   20MPD2     H  312   0.689   4.054  14.214 -0.5111  0.2486  0.3873
   20MPD2    H1  313   0.985   4.362  14.154  1.1941 -3.8181  0.8518
   20MPD2    H2  314   0.610   4.391  13.975 -0.2127 -0.0170 -0.0583
   20MPD2    H3  315   0.827   4.490  14.028  0.7005 -0.9671 -2.5806
   20MPD2     N  316   0.931   4.142  14.288 -0.1282 -0.3640  0.0214
   20MPD2    H5  317   1.026   4.176  14.296  0.5817 -3.0403  2.8290
   20MPD2    N1  318   0.502   4.151  14.067 -0.3328  0.0425 -0.2939
   20MPD2    H7  319   0.488   4.067  14.123  2.1720  0.6969  1.3442
   21MPD2     C  320   3.777   0.026  14.574  0.0572  0.0833  0.6163
   21MPD2    C1  321   3.670   4.663  14.545 -0.5524  0.8638  0.3182
   21MPD2    C2  322   3.541   4.709  14.565 -0.3162  0.1614 -0.3179
   21MPD2    C3  323   3.518   0.113  14.599 -0.0401  0.3920  0.2813
   21MPD2    C4  324   3.625   0.202  14.609  0.4491  0.2391 -0.9782
   21MPD2    C5  325   3.750   0.155  14.601  0.1904  0.0825 -0.1899
   21MPD2     H  326   3.470   4.629  14.553  0.4198 -0.3237 -1.4170
   21MPD2    H1  327   3.609   0.306  14.638 -0.6261 -1.0901  3.1655
   21MPD2    H2  328   3.882   0.010  14.554 -0.0749 -1.3338  1.0509
   21MPD2    H3  329   3.835   0.222  14.610 -0.5533  0.9081  0.9012
   21MPD2     N  330   3.387   0.165  14.630 -0.4828 -0.2576 -0.1503
   21MPD2    H5  331   3.382   0.262  14.661  0.5771 -0.7037  1.4051
   21MPD2    N1  332   3.687   4.526  14.506 -0.3771  0.1858 -0.7020
   21MPD2    H7  333   3.611   4.459  14.519 -0.1156  0.0472  0.1198
   22TCq2    C1  334   3.280   0.085  14.656  0.9447 -0.3899 -0.2869
   22TCq2    O2  335   3.266   4.687  14.640 -0.3787 -0.7650 -0.2267
   22TCq2    C2  336   3.163   0.158  14.681  0.0166 -0.0116  0.0016
   22TCq2    C3  337   3.074   0.098  14.767  0.0163 -0.3857 -0.0574
   22TCq2    C4  338   2.945   0.140  14.765  0.2792 -0.6301  0.5433
   22TCq2    C5  339   2.907   0.243  14.683  0.4743 -0.2304 -0.3139
   22TCq2    C6  340   3.001   0.309  14.612  0.5288 -0.1931 -0.3598
   22TCq2    C7  341   3.129   0.266  14.604 -0.2925  0.7126  0.3714
   22TCq2    C8  342   2.959   0.397  14.506  0.2044 -0.1602  0.3152
   22TCq2    O4  343   3.052   0.419  14.429 -0.2861  0.6428 -0.1659
   22TCq2    C9  344   2.852   0.071  14.852  0.0880  0.4236  0.0776
   22TCq2    O5  345   2.728   0.079  14.838 -0.1086  0.3316  0.1029
   22TCq2    O6  346   2.900   4.717  14.935 -0.4439 -0.2817  0.3879
   22TCq2    H2  347   3.115   0.018  14.827 -0.2856 -0.4115  0.1120
   22TCq2    H3  348   2.799   0.259  14.682  0.0732 -3.0093 -0.6248
   22TCq2    H4  349   3.204   0.313  14.542 -0.9280 -0.9847 -1.6814
   23MPD2     C  350   4.572   1.019  14.787 -0.0032 -0.3828 -0.1616
   23MPD2    C1  351   4.483   1.036  14.888  0.4628  0.2552 -0.0327
   23MPD2    C2  352   4.375   1.121  14.869 -0.4320 -0.4543  0.0583
   23MPD2    C3  353   4.348   1.193  14.750  0.0924  0.0886 -0.1624
   23MPD2    C4  354   4.444   1.175  14.654  0.4505 -0.0407  0.1504
   23MPD2    C5  355   4.554   1.091  14.674 -0.8601  0.2094 -0.5464
   23MPD2     H  356   4.300   1.144  14.945 -1.0090  0.4107 -0.7603
   23MPD2    H1  357   4.451   1.229  14.561  2.8188  1.5131  1.2250
   23MPD2    H2  358   4.651   0.944  14.783 -0.4499 -0.6721 -3.6404
   23MPD2    H3  359   4.629   1.066  14.600 -1.6678  0.5698 -1.4783
   23MPD2     N  360   4.237   1.273  14.714  0.0418 -0.4233 -0.5986
   23MPD2    H5  361   4.242   1.311  14.620  2.4751  0.3509 -0.1530
   23MPD2    N1  362   4.485   0.977  15.014  0.1246  0.1643 -0.1973
   23MPD2    H7  363   4.419   1.010  15.083  1.5358 -0.4849  1.4763
   24TCq2    C1  364   4.120   1.277  14.781  0.0597  0.3849 -0.1356
   24TCq2    O2  365   4.093   1.221  14.884  0.4072 -0.3470 -0.3753
   24TCq2    C2  366   4.015   1.342  14.695  0.3482 -0.6673 -0.2710
   24TCq2    C3  367   4.056   1.426  14.592 -0.3172  0.4244  0.0361
   24TCq2    C4  368   3.967   1.428  14.487  0.0528 -0.5455  0.7084
   24TCq2    C5  369   3.844   1.362  14.491  0.2887 -0.0908 -0.4626
   24TCq2    C6  370   3.806   1.288  14.602  0.2292 -0.1104 -1.2759
   24TCq2    C7  371   3.899   1.269  14.700 -0.3166  0.9596 -0.0504
   24TCq2    C8  372   3.714   1.174  14.583  0.4142 -0.9983 -0.0638
   24TCq2    O4  373   3.739   1.075  14.654 -0.4902 -0.5894 -0.4661
   24TCq2    C9  374   4.008   1.514  14.369  0.5137 -0.0188 -0.4634
   24TCq2    O5  375   4.115   1.573  14.383 -0.7412  0.4606  0.0449
   24TCq2    O6  376   3.921   1.550  14.288 -0.1090  0.2820  0.1125
   24TCq2    H2  377   4.143   1.490  14.595 -0.1605  0.3307 -2.9193
   24TCq2    H3  378   3.765   1.367  14.417  0.1908 -3.0248 -0.5558
   24TCq2    H4  379   3.884   1.201  14.783 -1.6829 -1.5290 -2.3359
   25TMC2    C1  380   2.808   3.736  11.405 -0.1372 -0.0901 -0.2033
   25TMC2    C2  381   2.845   3.859  11.356 -0.2792  0.3222 -0.2697
   25TMC2    C3  382   2.836   3.968  11.442 -0.1692  0.7814  0.1761
   25TMC2    C4  383   2.744   3.718  11.528 -0.2373  0.1267 -0.3038
   25TMC2    C5  384   2.745   3.831  11.605 -0.1803  0.4487 -0.5724
   25TMC2    C6  385   2.792   3.947  11.567  0.1898  0.1844 -0.0006
   25TMC2     C  386   2.855   3.622  11.330  0.0109 -0.4446  0.1361
   25TMC2     O  387   2.952   3.649  11.264 -0.4750 -1.2581 -0.1666
   25TMC2     H  388   2.900   3.865  11.263 -1.3777  2.1439 -0.7787
   25TMC2    H1  389   2.716   3.621  11.568 -2.2577  0.3214 -1.2256
   25TMC2    H2  390   2.807   4.028  11.637 -1.6861 -0.1277  0.7515
   25TMC2    C7  391   2.686   3.834  11.735  1.2273 -0.5073  0.0019
   25TMC2    C8  392   2.904   4.092  11.421  0.5368  0.1874  0.3975
   25TMC2    O1  393   2.709   3.739  11.810 -0.0976 -0.3084  0.3019
   25TMC2    O2  394   2.952   4.146  11.523 -0.4294  0.1883  0.6879
   25TMC2    O5  395   2.935   4.115  11.290  0.2823  0.0423 -0.0558
   25TMC2    H5  396   2.896   4.059  11.220 -0.5848 -0.0068  0.4579
   26MPD2     C  397   2.806   3.200  11.042  0.2032 -0.2185  0.2581
   26MPD2    C1  398   2.693   3.216  11.115 -0.2149  0.4941  0.4026
   26MPD2    C2  399   2.682   3.318  11.207  0.1793 -0.4272  0.1047
   26MPD2    C3  400   2.787   3.409  11.233  0.1988 -0.1753 -0.1368
   26MPD2    C4  401   2.904   3.386  11.159  0.1712 -0.1374  0.4760
   26MPD2    C5  402   2.913   3.284  11.070 -0.2254  0.3147  0.1962
   26MPD2     H  403   2.583   3.328  11.252  0.4653  0.5332  0.5147
   26MPD2    H1  404   2.991   3.450  11.170 -0.0291  0.4661 -1.4238
   26MPD2    H2  405   2.814   3.128  10.961 -0.7307 -0.0589  0.0223
   26MPD2    H3  406   3.007   3.264  11.020  0.3922 -1.8325  2.2043
   26MPD2     N  407   2.770   3.514  11.326 -0.4609  0.1791 -0.0548
   26MPD2    H5  408   2.680   3.527  11.371 -1.4733  2.7619 -2.7830
   26MPD2    N1  409   2.575   3.143  11.085  0.4145 -0.0346  0.5242
   26MPD2    H7  410   2.494   3.167  11.140 -0.7683 -0.1849 -1.1604
   27TMC2    C1  411   2.071   0.792  12.174 -0.2992  0.6203  0.2663
   27TMC2    C2  412   2.203   0.785  12.130  0.5316 -0.0296  0.8434
   27TMC2    C3  413   2.276   0.897  12.161 -0.4134 -0.0135 -0.7047
   27TMC2    C4  414   2.016   0.896  12.244  0.0351  0.0990 -0.5247
   27TMC2    C5  415   2.103   1.002  12.273  0.6668  0.1645  0.3746
   27TMC2    C6  416   2.234   0.998  12.233  0.4172 -0.2901  0.3418
   27TMC2     C  417   1.995   0.671  12.188  0.5034  0.0868  0.1442
   27TMC2     O  418   2.028   0.580  12.113 -0.5256  0.0339  0.1851
   27TMC2     H  419   2.232   0.692  12.081  0.5072  0.9109 -0.9678
   27TMC2    H1  420   1.909   0.914  12.243  0.1068  0.5124 -0.5040
   27TMC2    H2  421   2.312   1.066  12.264  1.2668 -1.9048  1.7614
   27TMC2    C7  422   2.071   1.039  12.405  0.9301  0.0968 -0.4890
   27TMC2    C8  423   2.420   0.880  12.184 -0.0211 -0.3476  0.2314
   27TMC2    O1  424   1.980   0.975  12.458 -0.4489 -0.0355 -0.1436
   27TMC2    O2  425   2.470   0.902  12.292 -0.1269  0.2252  0.1611
   27TMC2    O5  426   2.477   0.886  12.064 -0.0938 -0.3173  0.3176
   27TMC2    H5  427   2.424   0.848  11.991 -0.1818  0.2111  0.1102
   28MPD2     C  428   1.671   0.379  12.451 -0.1456 -0.3481  0.3358
   28MPD2    C1  429   1.681   0.494  12.517  0.7293  0.1727  0.5388
   28MPD2    C2  430   1.772   0.591  12.463  0.3156  0.2581 -0.1577
   28MPD2    C3  431   1.845   0.558  12.351 -0.3548 -0.5605 -0.4044
   28MPD2    C4  432   1.831   0.437  12.288  0.5729  0.2036  0.2864
   28MPD2    C5  433   1.738   0.351  12.340 -0.4142 -0.5414 -0.1882
   28MPD2     H  434   1.772   0.691  12.504 -0.9383  1.0493 -2.0771
   28MPD2    H1  435   1.879   0.400  12.198  0.7017 -1.6999  1.1529
   28MPD2    H2  436   1.602   0.303  12.485 -0.6768  0.5407  1.2514
   28MPD2    H3  437   1.716   0.259  12.286  1.5027 -0.6723 -0.7522
   28MPD2     N  438   1.925   0.667  12.306 -0.1578  0.0319  0.0278
   28MPD2    H5  439   1.928   0.750  12.364 -4.0928  0.9558 -1.1057
   28MPD2    N1  440   1.602   0.514  12.635 -0.1346 -0.0961  0.2839
   28MPD2    H7  441   1.522   0.453  12.652  0.2041 -0.8744 -0.9571
   29MPD2     C  442   1.247   2.652  14.059 -0.0955 -0.2953 -0.0649
   29MPD2    C1  443   1.351   2.578  14.114 -0.5601  0.3362 -0.3209
   29MPD2    C2  444   1.432   2.631  14.212 -0.5427  0.2131 -0.6070
   29MPD2    C3  445   1.412   2.760  14.255  0.1560  0.7150 -0.2245
   29MPD2    C4  446   1.311   2.834  14.205  0.0194 -0.0430  0.2947
   29MPD2    C5  447   1.233   2.782  14.103  0.6018  0.0106  0.4182
   29MPD2     H  448   1.523   2.583  14.246 -0.2852 -0.3379 -2.0749
   29MPD2    H1  449   1.296   2.935  14.241 -0.1336 -0.0909  0.3650
   29MPD2    H2  450   1.176   2.622  13.983 -1.3066  2.2241  0.0827
   29MPD2    H3  451   1.149   2.836  14.061  0.1295 -1.7825 -0.9404
   29MPD2     N  452   1.489   2.826  14.349 -0.4534  0.1459 -0.7934
   29MPD2    H5  453   1.465   2.924  14.358 -1.8786 -0.3592  1.0031
   29MPD2    N1  454   1.374   2.451  14.073  0.1523  0.8437 -0.0548
   29MPD2    H7  455   1.460   2.410  14.108  0.4574  1.4544 -0.0964
   30TCq2    C1  456   1.599   2.777  14.415 -0.5282 -0.3474 -0.8844
   30TCq2    O2  457   1.627   2.659  14.426 -0.1535 -0.3898  0.0299
   30TCq2    C2  458   1.677   2.869  14.492  0.3746  0.2890  0.3159
   30TCq2    C3  459   1.793   2.812  14.541  0.8113  0.6765  0.2932
   30TCq2    C4  460   1.871   2.890  14.620 -0.1542 -0.3064 -0.6356
   30TCq2    C5  461   1.831   3.019  14.655 -0.7365  0.2166 -0.5235
   30TCq2    C6  462   1.722   3.075  14.600  0.3135 -0.2510  0.2693
   30TCq2    C7  463   1.643   3.000  14.513 -0.4601 -0.3964 -0.7974
   30TCq2    C8  464   1.672   3.200  14.651  0.6149 -0.2599 -0.2404
   30TCq2    O4  465   1.552   3.205  14.654  0.4812  0.1468 -0.1621
   30TCq2    C9  466   1.989   2.840  14.685  0.0971 -0.3603 -0.4756
   30TCq2    O5  467   2.079   2.931  14.704 -0.2410  0.2069  0.0717
   30TCq2    O6  468   1.997   2.718  14.710 -0.1094  0.1568  0.4944
   30TCq2    H2  469   1.838   2.717  14.516  0.1243 -0.2971  2.7710
   30TCq2    H3  470   1.901   3.077  14.714  0.0211  1.1223 -2.3044
   30TCq2    H4  471   1.555   3.039  14.463 -0.6154  0.6664  0.2895
   31MPD2     C  472   4.150   2.129  14.755  0.3805  0.6219 -1.0048
   31MPD2    C1  473   4.036   2.101  14.683  0.3112 -0.2352 -0.5864
   31MPD2    C2  474   3.979   1.979  14.712  1.3199 -0.2359 -0.2335
   31MPD2    C3  475   4.029   1.888  14.800 -0.4204  0.3231  0.4636
   31MPD2    C4  476   4.145   1.923  14.861  0.4071 -0.0624  0.3093
   31MPD2    C5  477   4.202   2.045  14.838 -0.0598  0.0657 -0.8829
   31MPD2     H  478   3.883   1.960  14.664 -0.2888  1.8637  2.1936
   31MPD2    H1  479   4.196   1.860  14.934 -0.9081  1.2358  2.3565
   31MPD2    H2  480   4.193   2.228  14.755  0.9424  0.3740  0.9382
   31MPD2    H3  481   4.291   2.073  14.893 -1.4247  0.4103  1.1376
   31MPD2     N  482   3.976   1.762  14.831 -0.0846 -0.6196 -0.4608
   31MPD2    H5  483   4.020   1.704  14.901 -2.9941 -0.2685  1.6639
   31MPD2    N1  484   3.970   2.197  14.600 -0.4033  0.0770  0.0318
   31MPD2    H7  485   4.013   2.288  14.584  0.1488 -0.5503 -2.0027
   32TCq2    C1  486   3.866   1.715  14.769  0.0752 -0.2774 -0.5482
   32TCq2    O2  487   3.802   1.754  14.669 -0.1632 -0.1220 -0.8397
   32TCq2    C2  488   3.818   1.591  14.827  0.3608 -0.7059 -0.2213
   32TCq2    C3  489   3.689   1.555  14.784  0.3691 -0.1940  0.0916
   32TCq2    C4  490   3.606   1.477  14.866 -0.1676  0.1786  0.1469
   32TCq2    C5  491   3.645   1.448  14.990 -0.0113 -0.1174  0.7464
   32TCq2    C6  492   3.776   1.478  15.024 -0.3213  0.1465  0.4956
   32TCq2    C7  493   3.864   1.545  14.952  0.3300 -0.1256 -0.3033
   32TCq2    C8  494   3.790   1.470  15.167  0.1967  0.2716 -0.2908
   32TCq2    O4  495   3.888   1.427  15.223 -0.2984 -0.1806 -0.0059
   32TCq2    C9  496   3.472   1.442  14.819  0.1824  0.4166 -1.0677
   32TCq2    O5  497   3.436   1.495  14.708 -0.5720  0.0834 -0.6490
   32TCq2    O6  498   3.384   1.420  14.905 -0.2913 -0.4760 -0.5920
   32TCq2    H2  499   3.659   1.587  14.685 -1.6276  3.5186  1.9274
   32TCq2    H3  500   3.574   1.398  15.054 -1.6077  1.5978  0.3176
   32TCq2    H4  501   3.960   1.578  14.991  0.0981 -0.8137  0.8524
   33MPD2     C  502   4.579   4.495  11.167 -0.9107 -0.3273  0.7579
   33MPD2    C1  503   4.481   4.440  11.092  0.4306 -0.2680 -0.4141
   33MPD2    C2  504   4.348   4.449  11.130  1.5869 -1.1447  0.1303
   33MPD2    C3  505   4.307   4.521  11.243  0.4212  0.3411 -0.0345
   33MPD2    C4  506   4.411   4.576  11.318 -0.0365  0.3191  0.1315
   33MPD2    C5  507   4.540   4.572  11.277 -0.8577 -0.7362  0.4751
   33MPD2     H  508   4.277   4.408  11.059  2.2144 -0.3902 -0.9356
   33MPD2    H1  509   4.381   4.639  11.400  0.4905  0.2154  0.4033
   33MPD2    H2  510   4.681   4.493  11.127 -1.2959 -1.8276 -0.1758
   33MPD2    H3  511   4.610   4.636  11.329 -0.6579  0.3865 -1.1518
   33MPD2     N  512   4.173   4.529  11.291 -0.3746 -0.3888 -0.2324
   33MPD2    H5  513   4.162   4.577  11.380 -0.0061  0.8767 -0.8727
   33MPD2    N1  514   4.524   4.376  10.969 -0.2472 -0.0812  0.4630
   33MPD2    H7  515   4.620   4.390  10.939 -1.2754  3.3487 -1.2350
   34TCq2    C1  516   4.048   4.506  11.229 -0.2912 -0.6663  0.0971
   34TCq2    O2  517   3.951   4.479  11.295 -0.4851 -0.3559  0.3724
   34TCq2    C2  518   4.041   4.503  11.077  0.0923  0.4269 -0.0661
   34TCq2    C3  519   3.940   4.431  11.021 -0.0877  0.1917  0.2190
   34TCq2    C4  520   3.937   4.412  10.888 -0.0547 -0.0975 -0.1609
   34TCq2    C5  521   4.028   4.472  10.804  0.3614 -0.0709  0.3637
   34TCq2    C6  522   4.117   4.559  10.858  0.1914 -0.0128 -0.3977
   34TCq2    C7  523   4.122   4.585  11.001 -0.4541 -0.5140  0.0638
   34TCq2    C8  524   4.213   4.617  10.772  0.7807  0.4487  0.0909
   34TCq2    O4  525   4.194   4.618  10.649  0.4261 -0.3445 -0.3095
   34TCq2    C9  526   3.825   4.347  10.821  0.4542  0.6301  0.0212
   34TCq2    O5  527   3.847   4.327  10.698 -0.0271  0.0939  0.2248
   34TCq2    O6  528   3.733   4.303  10.892  0.0587 -0.4705  0.7098
   34TCq2    H2  529   3.863   4.386  11.083  1.3520 -1.7759  0.5788
   34TCq2    H3  530   4.012   4.463  10.698  1.4890 -0.6828  0.2450
   34TCq2    H4  531   4.184   4.665  11.039 -0.8747  0.0002 -0.3325
   35MPD2     C  532   0.669   1.651  12.012 -0.5347  0.0740 -0.4498
   35MPD2    C1  533   0.678   1.516  11.990 -0.8278 -0.1810  0.0548
   35MPD2    C2  534   0.656   1.465  11.861  0.4628  0.5835 -0.5042
   35MPD2    C3  535   0.615   1.549  11.756  0.3389  0.5022 -0.2690
   35MPD2    C4  536   0.603   1.685  11.781 -0.2221 -0.0958  0.2130
   35MPD2    C5  537   0.630   1.728  11.907 -0.4359  0.3050  0.1194
   35MPD2     H  538   0.650   1.358  11.845  1.3379 -0.0032  3.1787
   35MPD2    H1  539   0.556   1.756  11.714  2.0303  2.7319  1.6117
   35MPD2    H2  540   0.684   1.702  12.106 -0.2992  0.6508 -0.8029
   35MPD2    H3  541   0.606   1.833  11.922 -0.3003  0.3437  0.0684
   35MPD2     N  542   0.578   1.482  11.639  0.3956 -0.0247  0.5747
   35MPD2    H5  543   0.604   1.384  11.640 -0.1662 -0.1628  1.3435
   35MPD2    N1  544   0.700   1.432  12.106 -0.3234  0.1473 -0.3885
   35MPD2    H7  545   0.700   1.470  12.200  2.0523 -0.1449 -0.2555
   36TCq2    C1  546   0.530   1.541  11.522 -0.4343  0.5999  0.0280
   36TCq2    O2  547   0.507   1.656  11.495 -0.0061 -0.5970  0.2625
   36TCq2    C2  548   0.511   1.449  11.412 -0.4605 -0.2275 -0.0738
   36TCq2    C3  549   0.507   1.510  11.293 -0.2600  0.4360 -0.3103
   36TCq2    C4  550   0.456   1.444  11.189 -0.4801  0.2753 -0.1926
   36TCq2    C5  551   0.410   1.320  11.203  0.2429 -0.1069  0.8704
   36TCq2    C6  552   0.411   1.259  11.326 -0.3203  0.5103  0.1887
   36TCq2    C7  553   0.465   1.324  11.439  0.0947  0.4697 -0.2194
   36TCq2    C8  554   0.351   1.125  11.343  0.1312 -0.1752 -1.0624
   36TCq2    O4  555   0.292   1.076  11.247  0.3329  0.5113 -0.4318
   36TCq2    C9  556   0.466   1.509  11.058 -0.0761 -0.5499  0.2718
   36TCq2    O5  557   0.505   1.627  11.054 -0.7233  0.1295  0.2688
   36TCq2    O6  558   0.407   1.455  10.963  0.8181  0.3287  0.5183
   36TCq2    H2  559   0.546   1.608  11.269 -1.7360  1.4771  1.4975
   36TCq2    H3  560   0.367   1.270  11.117  0.9243 -0.0579  0.5029
   36TCq2    H4  561   0.444   1.288  11.539  1.0127 -1.5793 -0.7533
   37TMC2    C1  562   2.765   0.748  12.179 -0.4820  0.0246  0.0728
   37TMC2    C2  563   2.685   0.634  12.192  0.4396  0.2037  0.0233
   37TMC2    C3  564   2.630   0.584  12.080 -0.1226 -0.2630 -0.5161
   37TMC2    C4  565   2.802   0.793  12.057 -0.7317 -0.0480  0.1803
   37TMC2    C5  566   2.747   0.741  11.946  0.5027  0.1661 -0.4442
   37TMC2    C6  567   2.671   0.627  11.960 -0.1670 -0.0882  0.8596
   37TMC2     C  568   2.801   0.813  12.302 -0.1852 -0.2536 -0.5918
   37TMC2     O  569   2.733   0.780  12.396 -0.1355 -0.0680  0.3492
   37TMC2     H  570   2.636   0.605  12.284  0.3612  0.0392 -0.0715
   37TMC2    H1  571   2.866   0.879  12.045  0.5891 -1.0245  0.1519
   37TMC2    H2  572   2.660   0.563  11.874 -2.7507  0.8345  0.4981
   37TMC2    C7  573   2.805   0.773  11.819 -0.7777  0.6633 -0.1567
   37TMC2    C8  574   2.541   0.476  12.077 -0.6732 -0.2678 -0.0664
   37TMC2    O1  575   2.897   0.858  11.817 -0.0926  0.1254  0.1816
   37TMC2    O2  576   2.534   0.410  12.178  0.4409  0.4528  0.0786
   37TMC2    O5  577   2.431   0.538  12.027 -0.3233  0.2021  0.3695
   37TMC2    H5  578   2.440   0.599  11.950  0.3358 -1.3430 -0.7915
   38MPD2     C  579   3.125   1.076  12.601 -0.3165  0.2816 -0.7485
   38MPD2    C1  580   3.188   1.057  12.487  0.3192  0.3700  0.3517
   38MPD2    C2  581   3.126   0.986  12.383  0.1717 -0.1197  0.0362
   38MPD2    C3  582   2.995   0.932  12.402 -0.4087 -0.2431  0.6768
   38MPD2    C4  583   2.935   0.948  12.523 -0.4729  0.1254  0.2027
   38MPD2    C5  584   2.999   1.021  12.622  0.4858 -0.3929  0.4354
   38MPD2     H  585   3.174   0.984  12.286 -1.4580 -0.2090 -0.7721
   38MPD2    H1  586   2.842   0.898  12.547 -0.0779 -1.1547 -0.9663
   38MPD2    H2  587   3.166   1.132  12.685 -0.9051  0.7205 -0.7544
   38MPD2    H3  588   2.956   1.039  12.720  0.8059 -0.0338  0.5143
   38MPD2     N  589   2.924   0.880  12.290  0.0380 -0.1080 -0.3625
   38MPD2    H5  590   2.962   0.887  12.196  1.1586  1.6089  0.2066
   38MPD2    N1  591   3.308   1.104  12.446  0.0550 -0.0454 -0.2756
   38MPD2    H7  592   3.342   1.055  12.364  1.0932  0.7388 -0.3127
   39MPD2     C  593   0.934   2.723   1.799 -0.3468  0.5242 -0.7066
   39MPD2    C1  594   0.804   2.764   1.804 -0.8858  0.8692 -0.2750
   39MPD2    C2  595   0.704   2.690   1.737 -0.3061 -0.1194 -0.0265
   39MPD2    C3  596   0.731   2.576   1.661  0.3733  0.3964  0.4008
   39MPD2    C4  597   0.865   2.539   1.645 -0.2990 -0.1143 -0.1547
   39MPD2    C5  598   0.963   2.615   1.720  0.0999  0.3413 -0.2927
   39MPD2     H  599   0.599   2.715   1.736 -0.2000  0.3635  0.9453
   39MPD2    H1  600   0.892   2.445   1.599 -0.7681  0.0428 -0.7561
   39MPD2    H2  601   1.020   2.776   1.840 -0.5110  0.3395 -0.1244
   39MPD2    H3  602   1.069   2.593   1.715  0.5101  1.9563  1.2866
   39MPD2     N  603   0.632   2.489   1.595  0.2532  0.1234 -0.2199
   39MPD2    H5  604   0.681   2.414   1.548 -0.5012 -0.0607 -0.7073
   39MPD2    N1  605   0.782   2.883   1.879  0.4496  0.6068  0.6124
   39MPD2    H7  606   0.864   2.922   1.923  0.0055  2.4164 -0.1645
   40TCq2    C1  607   0.660   2.949   1.888 -0.1061 -0.3669  0.1649
   40TCq2    O2  608   0.557   2.927   1.825 -0.3843  0.4039 -0.7829
   40TCq2    C2  609   0.654   3.071   1.973  0.6792 -0.8642  1.2006
   40TCq2    C3  610   0.533   3.132   1.983  0.2702 -0.0516  0.2793
   40TCq2    C4  611   0.522   3.254   2.049  0.0761 -0.2232  0.2189
   40TCq2    C5  612   0.646   3.319   2.085  0.0383  0.5796 -0.0366
   40TCq2    C6  613   0.761   3.256   2.071 -0.3583  0.1787  0.0017
   40TCq2    C7  614   0.765   3.135   2.014 -0.2960  0.4945  0.1903
   40TCq2    C8  615   0.880   3.337   2.114  0.2041  0.3239  0.0005
   40TCq2    O4  616   0.863   3.437   2.185 -0.0058 -0.2584 -0.0001
   40TCq2    C9  617   0.391   3.322   2.079  0.6989  0.2507  0.1127
   40TCq2    O5  618   0.403   3.424   2.155 -0.2637  0.3243  0.5339
   40TCq2    O6  619   0.286   3.257   2.059  0.5398  0.4219  0.0050
   40TCq2    H2  620   0.444   3.092   1.935  0.7394 -1.4185  0.5411
   40TCq2    H3  621   0.637   3.420   2.124  0.0098 -0.3744  2.4144
   40TCq2    H4  622   0.861   3.083   2.020 -1.0974 -1.0439 -0.2567
   41TMC2    C1  623   0.733   0.942  13.543 -0.5727  0.4227 -0.1848
   41TMC2    C2  624   0.855   0.986  13.489  0.4126 -0.4447 -1.0742
   41TMC2    C3  625   0.868   1.021  13.362 -0.1913  0.3488  0.1035
   41TMC2    C4  626   0.622   0.927  13.462 -0.0594  0.5235  0.3111
   41TMC2    C5  627   0.635   0.957  13.329 -0.0885 -0.8679  0.6103
   41TMC2    C6  628   0.758   1.014  13.275 -0.6817 -0.0285  0.8076
   41TMC2     C  629   0.734   0.866  13.665 -0.1818  0.2504  0.1161
   41TMC2     O  630   0.837   0.807  13.694 -0.1783  0.0521  0.0855
   41TMC2     H  631   0.946   0.984  13.548  0.8828 -0.5834 -1.8125
   41TMC2    H1  632   0.526   0.893  13.501  0.7970 -3.0956 -0.7526
   41TMC2    H2  633   0.760   1.052  13.174 -0.1373 -0.5585  0.6159
   41TMC2    C7  634   0.525   0.972  13.247 -0.2455  0.3600 -0.2873
   41TMC2    C8  635   0.979   1.105  13.330 -1.0728  0.9238 -0.5369
   41TMC2    O1  636   0.423   1.027  13.293  0.3167 -0.5203 -0.0932
   41TMC2    O2  637   1.089   1.078  13.379  1.0494  0.5721  0.1089
   41TMC2    O5  638   0.916   1.224  13.319  0.3076 -0.4774  1.0998
   41TMC2    H5  639   0.832   1.227  13.268 -0.4840 -1.8099  2.2987
   42MPD2     C  640   0.650   0.719  13.919  0.3099 -0.4364 -0.3233
   42MPD2    C1  641   0.583   0.825  13.865  0.2355  0.0684 -0.0106
   42MPD2    C2  642   0.475   0.884  13.932  0.1924 -0.1455  0.3663
   42MPD2    C3  643   0.435   0.836  14.053  0.4796  0.2633 -0.1052
   42MPD2    C4  644   0.510   0.734  14.115 -0.5957 -0.1877  0.0355
   42MPD2    C5  645   0.618   0.680  14.048 -0.0726  0.1242  0.5292
   42MPD2     H  646   0.408   0.950  13.879  0.2345 -1.7369 -1.6511
   42MPD2    H1  647   0.484   0.691  14.211 -0.2714  0.2551  0.3230
   42MPD2    H2  648   0.732   0.676  13.862  0.2783  1.1705 -1.5766
   42MPD2    H3  649   0.667   0.591  14.085 -1.2164 -0.7256 -0.0043
   42MPD2     N  650   0.316   0.880  14.122 -0.3443 -0.1805  0.2832
   42MPD2    H5  651   0.290   0.830  14.206 -2.0763  0.5407  0.1642
   42MPD2    N1  652   0.616   0.879  13.731  0.5504 -0.4883  0.4887
   42MPD2    H7  653   0.555   0.951  13.691  0.7473 -0.6161 -0.0450
   43MPD2     C  654   1.114   3.075   0.675  0.2038  0.0484  0.3888
   43MPD2    C1  655   1.209   3.164   0.714  0.3336 -0.7582  0.0639
   43MPD2    C2  656   1.179   3.288   0.769  0.4596 -0.2337  0.1014
   43MPD2    C3  657   1.051   3.308   0.804 -0.0651  0.3835 -0.6918
   43MPD2    C4  658   0.953   3.232   0.744 -0.3650  0.5318  0.7126
   43MPD2    C5  659   0.984   3.118   0.678  0.2352 -0.1106 -0.3216
   43MPD2     H  660   1.261   3.349   0.804 -0.7429  1.8065 -0.6465
   43MPD2    H1  661   0.848   3.254   0.760 -0.6809 -0.0779 -0.5450
   43MPD2    H2  662   1.143   2.977   0.640 -1.8928 -0.1489 -0.7979
   43MPD2    H3  663   0.910   3.047   0.641 -1.5597  1.4491  0.2453
   43MPD2     N  664   1.010   3.407   0.881 -0.3639 -0.2615 -0.1635
   43MPD2    H5  665   0.911   3.429   0.874 -0.0956  0.4895 -1.7716
   43MPD2    N1  666   1.340   3.130   0.685 -0.4826  0.5595 -0.8767
   43MPD2    H7  667   1.367   3.035   0.662 -2.4034 -0.0378 -0.5970
   44TCq2    C1  668   1.140   3.752   1.327 -0.5323 -0.4964  0.3425
   44TCq2    O2  669   1.237   3.680   1.327  0.1260  0.2156 -0.9677
   44TCq2    C2  670   1.042   3.723   1.232  0.2738 -0.4189  1.0080
   44TCq2    C3  671   0.969   3.814   1.161  0.6974 -0.1253 -0.9699
   44TCq2    C4  672   0.907   3.781   1.042 -0.1709 -0.1606  0.0550
   44TCq2    C5  673   0.929   3.659   0.982  0.0783  0.5999 -0.7626
   44TCq2    C6  674   1.012   3.568   1.051 -0.2513 -0.1845 -0.3522
   44TCq2    C7  675   1.062   3.601   1.171 -0.9098 -0.4413 -0.1519
   44TCq2    C8  676   1.088   3.477   0.975  0.1432 -0.5689 -0.3421
   44TCq2    O4  677   1.208   3.469   1.000  0.2180 -0.1395 -0.4344
   44TCq2    C9  678   0.832   3.881   0.970 -0.6535  0.3218 -0.1955
   44TCq2    O5  679   0.835   3.995   1.025  0.3293  0.1866 -0.0505
   44TCq2    O6  680   0.788   3.849   0.858  0.1349 -0.0610 -0.5494
   44TCq2    H2  681   0.970   3.917   1.197 -0.9764 -1.0019  1.5877
   44TCq2    H3  682   0.892   3.642   0.881 -0.4258  1.7615 -0.7656
   44TCq2    H4  683   1.114   3.522   1.225  0.9129  1.3135  0.6982
   45TMC2    C1  684   2.134   0.861   9.775 -0.6065  0.3224 -0.0619
   45TMC2    C2  685   2.253   0.799   9.759 -0.0764 -0.5989  0.5103
   45TMC2    C3  686   2.364   0.870   9.787 -0.1468 -0.2371  0.6518
   45TMC2    C4  687   2.123   0.980   9.831  0.0819 -0.2252 -0.6081
   45TMC2    C5  688   2.239   1.039   9.875  0.2135  0.3884 -0.3740
   45TMC2    C6  689   2.360   0.992   9.849 -0.0799  0.2738  0.8986
   45TMC2     C  690   2.022   0.792   9.734  0.0145 -0.0164 -0.3201
   45TMC2     O  691   2.028   0.673   9.734  0.5080 -0.7601 -0.5387
   45TMC2     H  692   2.260   0.701   9.713  2.3096 -1.1889  2.1449
   45TMC2    H1  693   2.027   1.021   9.859 -0.4451 -0.2946 -2.2985
   45TMC2    H2  694   2.446   1.037   9.897  0.9975 -0.1427 -0.6331
   45TMC2    C7  695   2.232   1.159   9.954 -0.4151 -0.2247  0.3564
   45TMC2    C8  696   2.494   0.792   9.795 -0.1555  0.4666 -0.4760
   45TMC2    O1  697   2.326   1.189  10.029 -0.2664  0.4259 -0.3633
   45TMC2    O2  698   2.501   0.674   9.821 -0.4013  0.5554 -0.5048
   45TMC2    O5  699   2.595   0.878   9.810 -0.0432 -0.2133 -0.0584
   45TMC2    H5  700   2.588   0.964   9.762 -1.8429 -0.1075  0.4186
   46MPD2     C  701   1.751   0.718   9.627 -0.0436 -0.0237  0.0119
   46MPD2    C1  702   1.792   0.847   9.642 -0.2158  0.9305 -0.7593
   46MPD2    C2  703   1.702   0.947   9.613  0.7943 -0.3654 -0.5707
   46MPD2    C3  704   1.570   0.916   9.581  0.0687 -0.2541 -0.3298
   46MPD2    C4  705   1.530   0.785   9.573  0.0656 -0.7437 -0.4619
   46MPD2    C5  706   1.619   0.688   9.603  0.4535  0.4739  0.0211
   46MPD2     H  707   1.734   1.046   9.643 -2.1406  0.1370  0.8377
   46MPD2    H1  708   1.431   0.760   9.537  0.6237 -2.3173 -0.8904
   46MPD2    H2  709   1.815   0.631   9.636  0.4973  0.2123 -1.5423
   46MPD2    H3  710   1.585   0.586   9.595 -0.1607  0.6780  0.0986
   46MPD2     N  711   1.491   1.031   9.553 -0.3465 -0.2733 -0.1443
   46MPD2    H5  712   1.532   1.124   9.552 -2.8377  0.8273 -0.1322
   46MPD2    N1  713   1.921   0.872   9.687 -0.6761 -0.1236 -0.4619
   46MPD2    H7  714   1.956   0.967   9.688  0.6774 -0.6506  2.7750
   47TMC2    C1  715   0.594   2.037   9.434 -0.0894 -0.5850 -0.1089
   47TMC2    C2  716   0.669   2.142   9.381  1.0366 -0.1213  0.0233
   47TMC2    C3  717   0.632   2.203   9.271  0.5808 -0.3944  0.8565
   47TMC2    C4  718   0.476   1.995   9.369  0.3102  0.5135 -0.5431
   47TMC2    C5  719   0.436   2.071   9.263 -0.2000  0.1782 -0.4427
   47TMC2    C6  720   0.514   2.164   9.206 -0.2746 -0.2198 -0.2169
   47TMC2     C  721   0.659   1.978   9.553 -0.2300  0.1275  0.2588
   47TMC2     O  722   0.751   2.035   9.611  0.0724  0.2711 -0.1369
   47TMC2     H  723   0.747   2.191   9.438  0.3004 -0.5197  1.3533
   47TMC2    H1  724   0.417   1.911   9.402  1.0136  0.7435  1.3216
   47TMC2    H2  725   0.486   2.234   9.128  0.0344  0.1718  0.0215
   47TMC2    C7  726   0.295   2.066   9.226 -0.5122  0.2668 -0.2118
   47TMC2    C8  727   0.656   2.344   9.270 -0.6097  0.6793 -0.4124
   47TMC2    O1  728   0.225   2.033   9.318  0.4791 -0.1414  0.7628
   47TMC2    O2  729   0.569   2.423   9.229 -0.3659 -0.2477  0.4322
   47TMC2    O5  730   0.791   2.356   9.252  0.4166 -0.2465  0.1903
   47TMC2    H5  731   0.832   2.269   9.270  0.3025  0.5487  4.3456
   48MPD2     C  732   0.716   1.856   9.811 -0.7121 -0.1621  0.0645
   48MPD2    C1  733   0.656   1.782   9.709  0.5573  0.0485 -0.2000
   48MPD2    C2  734   0.637   1.645   9.733  0.4378  1.1167  0.9129
   48MPD2    C3  735   0.673   1.581   9.853 -0.2343  0.0836  0.2677
   48MPD2    C4  736   0.719   1.666   9.958  0.2395  0.4238  0.2023
   48MPD2    C5  737   0.742   1.795   9.932  0.4021  0.8742  0.3343
   48MPD2     H  738   0.601   1.584   9.651  2.5476 -0.7649  1.4080
   48MPD2    H1  739   0.753   1.633  10.055  0.6896 -4.3078 -1.5567
   48MPD2    H2  740   0.749   1.959   9.805 -0.0328 -0.3575  0.3828
   48MPD2    H3  741   0.794   1.850  10.009 -1.6523  1.7368  1.1046
   48MPD2     N  742   0.653   1.441   9.872  0.7343 -0.0054  0.4469
   48MPD2    H5  743   0.615   1.380   9.800 -0.6312  0.4769  0.7596
   48MPD2    N1  744   0.618   1.851   9.594 -0.7345  0.2392 -0.0398
   48MPD2    H7  745   0.557   1.800   9.531  0.5228  2.0505 -2.7312
   49MPD2     C  746   2.769   3.726   9.748  0.3869 -0.3704  0.1226
   49MPD2    C1  747   2.669   3.663   9.821 -0.3923 -0.0884 -0.7166
   49MPD2    C2  748   2.682   3.667   9.952  0.2934 -0.6057 -0.2243
   49MPD2    C3  749   2.782   3.735  10.014  0.5321 -0.6017  0.1323
   49MPD2    C4  750   2.879   3.799   9.937  0.1765  0.8516  0.2480
   49MPD2    C5  751   2.870   3.790   9.806 -0.3413  0.5960  0.7767
   49MPD2     H  752   2.606   3.607  10.001  2.3057 -1.7328  1.5243
   49MPD2    H1  753   2.965   3.841   9.987  0.5923  0.4061 -0.0863
   49MPD2    H2  754   2.782   3.712   9.641  0.8210 -2.4203  0.4310
   49MPD2    H3  755   2.947   3.831   9.742 -0.3927 -0.0557  0.3006
   49MPD2     N  756   2.799   3.749  10.151 -0.1179  0.3499 -0.0083
   49MPD2    H5  757   2.885   3.797  10.176  1.0668 -1.7740 -0.0291
   49MPD2    N1  758   2.575   3.566   9.772  0.3934  0.0496  0.0551
   49MPD2    H7  759   2.519   3.515   9.840  0.4083 -2.1342 -1.5964
   50TCq2    C1  760   2.564   3.538   9.642  0.1607  0.6063  0.3020
   50TCq2    O2  761   2.608   3.597   9.547 -0.1244  0.1571  0.5489
   50TCq2    C2  762   2.464   3.434   9.614 -0.0838  0.0925 -0.4986
   50TCq2    C3  763   2.407   3.450   9.494 -0.5894  0.3872 -0.6023
   50TCq2    C4  764   2.286   3.386   9.471 -1.1080  0.3114 -0.2768
   50TCq2    C5  765   2.228   3.312   9.574 -0.2230 -0.0287 -0.1037
   50TCq2    C6  766   2.293   3.296   9.692 -0.1820  0.3915  0.3540
   50TCq2    C7  767   2.411   3.362   9.716 -0.1962 -0.3729  0.1589
   50TCq2    C8  768   2.244   3.200   9.784 -0.0589 -0.1297  0.3843
   50TCq2    O4  769   2.175   3.111   9.735  0.2574 -0.6290  0.4754
   50TCq2    C9  770   2.221   3.406   9.345  0.0356  0.4614 -0.1178
   50TCq2    O5  771   2.259   3.502   9.272  0.0987 -0.2180 -0.2842
   50TCq2    O6  772   2.119   3.340   9.328 -0.0980 -0.0468 -1.0850
   50TCq2    H2  773   2.436   3.528   9.425 -0.1085  0.6614 -0.0916
   50TCq2    H3  774   2.134   3.261   9.556 -0.4867  0.0416  1.1202
   50TCq2    H4  775   2.470   3.345   9.805 -0.2109  0.1931  0.2713
   51MPD2     C  776   3.737   1.449   1.923  0.2450 -0.4823  0.4840
   51MPD2    C1  777   3.790   1.465   1.792 -0.0768  0.1432  0.8290
   51MPD2    C2  778   3.914   1.418   1.770  0.1948  1.0148  0.3055
   51MPD2    C3  779   3.998   1.381   1.877 -0.2430  0.0021 -0.2779
   51MPD2    C4  780   3.951   1.363   2.004  0.3708  0.3333 -0.5466
   51MPD2    C5  781   3.817   1.400   2.021 -0.0264  0.0760 -0.0642
   51MPD2     H  782   3.955   1.421   1.670 -1.5643 -3.3192 -0.5538
   51MPD2    H1  783   3.997   1.319   2.092 -1.1362 -2.0782 -0.9659
   51MPD2    H2  784   3.639   1.491   1.942  0.8047  1.1163 -0.2117
   51MPD2    H3  785   3.772   1.396   2.120 -2.7592  0.6064 -1.2824
   51MPD2     N  786   4.134   1.356   1.864 -0.3025 -0.1480 -0.0148
   51MPD2    H5  787   4.179   1.313   1.944 -1.6264  1.2231  1.4735
   51MPD2    N1  788   3.728   1.531   1.680 -0.4992 -0.8458  0.1006
   51MPD2    H7  789   3.778   1.517   1.593  0.5069 -2.5934  0.9462
   52TCq2    C1  790   4.216   1.395   1.760  0.1258 -0.2572  0.7645
   52TCq2    O2  791   4.186   1.450   1.655  0.3998 -0.4350  0.1324
   52TCq2    C2  792   4.365   1.381   1.786 -0.3896 -0.5046  0.1624
   52TCq2    C3  793   4.406   1.331   1.908  0.3143 -0.2770 -0.6940
   52TCq2    C4  794   4.538   1.329   1.928  0.9144  0.4992 -0.4395
   52TCq2    C5  795   4.626   1.377   1.834  0.0061 -0.5261 -0.5663
   52TCq2    C6  796   4.584   1.436   1.724 -0.4468 -0.6490  0.6296
   52TCq2    C7  797   4.452   1.443   1.696  0.2245  0.3834 -0.1357
   52TCq2    C8  798   4.672   1.439   1.611 -0.0405  0.3275 -0.6397
   52TCq2    O4  799   0.031   1.350   1.612 -0.1382 -0.2589 -0.2489
   52TCq2    C9  800   4.583   1.272   2.052  0.0277  0.4689 -0.2999
   52TCq2    O5  801   4.506   1.202   2.129  0.2708 -0.2227  1.2144
   52TCq2    O6  802   4.707   1.289   2.075 -0.6725 -0.0614 -0.3363
   52TCq2    H2  803   4.345   1.279   1.981 -0.4727  0.0399 -1.1255
   52TCq2    H3  804   0.008   1.369   1.848  0.1207  0.0382 -1.1247
   52TCq2    H4  805   4.407   1.466   1.600  1.1462  0.6240 -0.5077
   53TMC2    C1  806   3.183   1.031  11.259 -0.0442  0.1658 -0.3760
   53TMC2    C2  807   3.182   1.118  11.154 -0.0173  0.0865 -0.4383
   53TMC2    C3  808   3.259   1.230  11.173  0.1965  1.2464 -0.3123
   53TMC2    C4  809   3.250   1.049  11.376 -0.4626  0.7292  0.0459
   53TMC2    C5  810   3.340   1.156  11.381 -0.0711 -0.0471 -0.7582
   53TMC2    C6  811   3.339   1.261  11.287 -0.0461  1.0821  0.2678
   53TMC2     C  812   3.068   0.941  11.259 -0.1247  0.1977 -0.8613
   53TMC2     O  813   3.031   0.908  11.147  0.3550  0.5064 -0.2507
   53TMC2     H  814   3.108   1.116  11.074 -1.5187  0.0680  0.9584
   53TMC2    H1  815   3.255   0.969  11.448  1.7447  0.6170 -0.2479
   53TMC2    H2  816   3.403   1.348  11.295  1.1479  0.1714  0.5347
   53TMC2    C7  817   3.370   1.189  11.521 -0.7909  0.5809 -0.0784
   53TMC2    C8  818   3.248   1.341  11.074  0.5060  0.5548 -0.3580
   53TMC2    O1  819   3.356   1.093  11.601 -0.4670  0.6145 -0.5360
   53TMC2    O2  820   3.273   1.453  11.113  0.2222 -0.5526 -0.2494
   53TMC2    O5  821   3.245   1.298  10.943  0.0673  0.9037  0.0986
   53TMC2    H5  822   3.245   1.201  10.928  0.7058  1.1690 -1.5716
   54MPD2     C  823   2.829   0.779  11.312 -0.2050  0.3868 -0.4362
   54MPD2    C1  824   2.909   0.841  11.410 -0.4513 -0.4232 -0.4892
   54MPD2    C2  825   2.880   0.814  11.540 -0.1850 -0.7342  0.0296
   54MPD2    C3  826   2.764   0.746  11.574  0.6151  0.0371  0.4895
   54MPD2    C4  827   2.677   0.699  11.477 -0.5716  0.2331 -0.1086
   54MPD2    C5  828   2.721   0.710  11.344  0.1886  0.1698  0.2478
   54MPD2     H  829   2.956   0.853  11.608 -0.7198  2.1838 -1.0421
   54MPD2    H1  830   2.582   0.651  11.496 -0.5896  0.2052 -0.2701
   54MPD2    H2  831   2.839   0.800  11.206  1.7522 -3.4618 -1.0250
   54MPD2    H3  832   2.652   0.671  11.271  0.3002  0.3574  0.0401
   54MPD2     N  833   2.727   0.732  11.707  0.1795 -0.2458 -0.5115
   54MPD2    H5  834   2.633   0.697  11.720 -0.2322  0.3071 -1.9565
   54MPD2    N1  835   3.024   0.917  11.383  0.0201  0.5705  0.0117
   54MPD2    H7  836   3.061   0.972  11.460  0.4758 -0.3503  0.4514
   55MPD2     C  837   4.532   3.283  17.354  0.5414 -0.3898 -0.0211
   55MPD2    C1  838   4.436   3.240  17.435 -0.0143  0.1833 -0.8951
   55MPD2    C2  839   4.325   3.321  17.459  0.6064  0.2638 -0.1889
   55MPD2    C3  840   4.323   3.449  17.414 -0.4417 -0.3120  0.0449
   55MPD2    C4  841   4.432   3.494  17.340 -0.0293 -0.3668  0.7821
   55MPD2    C5  842   4.537   3.410  17.312  0.0344  0.1605 -0.1435
   55MPD2     H  843   4.254   3.280  17.529  2.1030  0.2187  1.3171
   55MPD2    H1  844   4.452   3.594  17.304  1.1912 -1.1759 -0.7640
   55MPD2    H2  845   4.608   3.218  17.313 -0.9952 -2.3694  0.2608
   55MPD2    H3  846   4.618   3.445  17.248  0.4191  0.5701  0.5688
   55MPD2     N  847   4.223   3.547  17.442  0.1445  0.0613 -0.1075
   55MPD2    H5  848   4.235   3.641  17.404 -1.4342 -0.3481 -1.6028
   55MPD2    N1  849   4.445   3.103  17.477  0.2879 -0.1027  0.3182
   55MPD2    H7  850   4.536   3.063  17.454 -0.2473 -0.1547 -1.7328
   56TCq2    C1  851   4.354   3.036  17.562  0.4954 -0.5371  0.2363
   56TCq2    O2  852   4.257   3.079  17.623 -0.5266 -0.2859  0.2730
   56TCq2    C2  853   4.405   2.900  17.597  0.0677 -0.7267  0.1246
   56TCq2    C3  854   4.494   2.839  17.516  1.2300 -0.1124 -0.3356
   56TCq2    C4  855   4.590   2.759  17.575 -0.3102  0.2917 -0.3823
   56TCq2    C5  856   4.610   2.746   0.008 -0.7246  0.8456  0.5007
   56TCq2    C6  857   4.517   2.809   0.089 -0.7762 -0.6797 -0.0459
   56TCq2    C7  858   4.408   2.880   0.037  0.0287  0.6842  0.3914
   56TCq2    C8  859   4.518   2.788   0.234 -0.4188  0.1048  0.7262
   56TCq2    O4  860   4.608   2.717   0.281  0.0978  0.2794 -0.5527
   56TCq2    C9  861   4.691   2.697  17.488 -0.2729 -0.6554  0.1567
   56TCq2    O5  862   4.691   2.738  17.367 -0.1516 -0.3886  0.1234
   56TCq2    O6  863   0.061   2.633  17.537  0.5253 -0.7012  0.6138
   56TCq2    H2  864   4.481   2.846  17.409  1.5452 -1.0609 -0.4365
   56TCq2    H3  865   4.698   2.698   0.047 -0.9533 -2.1322 -2.6865
   56TCq2    H4  866   4.338   2.937   0.098 -2.3264 -1.2885 -0.4647
   57TMC2    C1  867   3.657   0.032  14.161  0.6557 -0.2544  0.6577
   57TMC2    C2  868   3.748   0.097  14.237 -0.2270  0.3258 -0.1946
   57TMC2    C3  869   3.882   0.061  14.221 -0.8346 -0.4474  0.1755
   57TMC2    C4  870   3.690   4.657  14.070  0.5965 -0.4839  0.1258
   57TMC2    C5  871   3.822   4.632  14.048  0.1508 -0.4240 -0.2898
   57TMC2    C6  872   3.913   4.693  14.124  0.5679  0.3338 -0.6296
   57TMC2     C  873   3.514   0.038  14.199 -0.4372  0.3949  0.5222
   57TMC2     O  874   3.472   0.145  14.238 -0.5943 -0.3862 -0.0462
   57TMC2     H  875   3.717   0.171  14.310  1.0435  0.8960 -0.2345
   57TMC2    H1  876   3.614   4.611  14.008  0.2289  0.3931 -0.0746
   57TMC2    H2  877   4.018   4.667  14.121  0.6910  0.9943 -1.8533
   57TMC2    C7  878   3.869   4.516  13.971 -0.2515  0.0922 -0.1241
   57TMC2    C8  879   3.996   0.126  14.291 -0.4382  0.0666  0.7937
   57TMC2    O1  880   3.964   4.454  14.017 -0.3312 -0.4530  0.0404
   57TMC2    O2  881   4.112   0.088  14.283 -0.8167  0.1167  0.4753
   57TMC2    O5  882   3.952   0.246  14.329  0.3549 -0.7509  0.8970
   57TMC2    H5  883   3.862   0.271  14.301  1.6624 -0.2597 -2.9879
   58MPD2     C  884   3.096   4.556  14.405  0.2771  0.5148  0.0643
   58MPD2    C1  885   3.115   4.682  14.353  0.9223 -0.0685 -0.4998
   58MPD2    C2  886   3.230   4.708  14.282 -0.2362  0.8388  0.3701
   58MPD2    C3  887   3.329   4.612  14.269  0.5014 -0.5060 -0.1755
   58MPD2    C4  888   3.311   4.489  14.319  0.1698  0.2213  0.4605
   58MPD2    C5  889   3.189   4.465  14.384 -1.1255  0.5697  0.1291
   58MPD2     H  890   3.246   0.078  14.232  2.6240  0.1527 -0.0262
   58MPD2    H1  891   3.382   4.408  14.312  0.3406  0.4404 -0.3222
   58MPD2    H2  892   3.009   4.535  14.467  0.4303 -1.2646 -0.3367
   58MPD2    H3  893   3.172   4.369  14.431 -0.8020 -0.3367 -1.5921
   58MPD2     N  894   3.450   4.642  14.203  0.5220 -0.6267  0.2073
   58MPD2    H5  895   3.509   4.565  14.175  1.3493  0.7141 -1.7635
   58MPD2    N1  896   3.008   0.048  14.343 -0.2480  0.3105  0.0954
   58MPD2    H7  897   3.027   0.137  14.300  0.3132  0.9803  1.7373
   59MPD2     C  898   1.182   4.691  13.140  0.5779  0.4052 -0.3940
   59MPD2    C1  899   1.221   0.069  13.066 -0.7105 -0.1193  0.2141
   59MPD2    C2  900   1.312   0.165  13.118 -0.3955  0.6059 -0.5217
   59MPD2    C3  901   1.360   0.145  13.250 -0.5668 -0.1348 -0.1513
   59MPD2    C4  902   1.308   0.037  13.320  0.3470  0.3840 -0.3467
   59MPD2    C5  903   1.220   4.678  13.271  0.8319  0.0901  1.1289
   59MPD2     H  904   1.339   0.245  13.050  2.2899 -1.0721 -1.4034
   59MPD2    H1  905   1.348   0.037  13.421  0.3550  1.8583 -0.3404
   59MPD2    H2  906   1.101   4.628  13.106  2.0183 -1.2127 -0.8487
   59MPD2    H3  907   1.185   4.596  13.333  1.9558 -0.2356  1.3383
   59MPD2     N  908   1.463   0.229  13.307  0.4938  0.2048 -0.2268
   59MPD2    H5  909   1.505   0.209  13.397  1.9946 -0.5344 -1.0932
   59MPD2    N1  910   1.176   0.094  12.931 -0.4686 -0.0085  0.2845
   59MPD2    H7  911   1.212   0.179  12.889  1.3298  1.0754  4.0253
   60TCq2    C1  912   1.066   0.027  12.876  0.0180 -0.2881  0.6963
   60TCq2    O2  913   0.990   4.659  12.914  0.2004 -0.1827  0.3095
   60TCq2    C2  914   1.014   0.098  12.759 -0.1114  0.2802 -0.4439
   60TCq2    C3  915   0.882   0.091  12.723  0.1905  0.7601  0.7663
   60TCq2    C4  916   0.834   0.172  12.623  0.9261  0.8327  0.7291
   60TCq2    C5  917   0.913   0.253  12.552  0.0986  0.0688  0.4422
   60TCq2    C6  918   1.048   0.256  12.575 -0.1801  0.3185  0.0382
   60TCq2    C7  919   1.099   0.181  12.683 -0.0191  0.2492  0.1674
   60TCq2    C8  920   1.131   0.358  12.515  0.1628  0.1097 -0.1292
   60TCq2    O4  921   1.249   0.357  12.545  0.0327 -0.2032 -0.5927
   60TCq2    C9  922   0.691   0.178  12.603  0.5163 -0.6117 -0.2243
   60TCq2    O5  923   0.652   0.263  12.513 -0.3240  0.3613 -0.2453
   60TCq2    O6  924   0.618   0.114  12.682  0.2405  0.3302  0.1001
   60TCq2    H2  925   0.813   0.034  12.785 -0.0434  0.7494  0.4976
   60TCq2    H3  926   0.864   0.304  12.469 -2.4724 -0.6471  1.4938
   60TCq2    H4  927   1.204   0.187  12.708  0.4611 -0.2108 -1.7828
   61MPD2     C  928   0.411   1.319  15.534  0.5371 -0.3400  0.2463
   61MPD2    C1  929   0.504   1.422  15.539  0.4658  0.9097 -0.1556
   61MPD2    C2  930   0.555   1.484  15.424  0.0415 -0.3344 -0.3373
   61MPD2    C3  931   0.528   1.434  15.298 -0.3158 -0.2819 -0.2132
   61MPD2    C4  932   0.425   1.344  15.295  0.1660 -0.5067  0.6350
   61MPD2    C5  933   0.374   1.282  15.407  0.6790 -0.3635  0.1704
   61MPD2     H  934   0.630   1.561  15.432  0.2939 -0.8785  2.6803
   61MPD2    H1  935   0.388   1.311  15.199  1.6433 -4.4300  1.4334
   61MPD2    H2  936   0.376   1.259  15.617 -0.6744  0.6690  0.4717
   61MPD2    H3  937   0.313   1.193  15.392 -0.6411  0.9317 -2.0956
   61MPD2     N  938   0.577   1.489  15.181 -0.1037 -0.3768 -0.0578
   61MPD2    H5  939   0.529   1.469  15.093  1.0272  1.1345 -1.0105
   61MPD2    N1  940   0.534   1.491  15.663  0.5136  0.0495  0.0229
   61MPD2    H7  941   0.568   1.584  15.642  0.5242 -0.1358 -0.7859
   62TCq2    C1  942   0.473   1.468  15.782 -0.8689  0.6809 -0.4737
   62TCq2    O2  943   0.437   1.366  15.830 -0.1603  0.0385  0.4628
   62TCq2    C2  944   0.449   1.597  15.843 -0.4728 -0.4134 -0.1067
   62TCq2    C3  945   0.330   1.611  15.913 -0.2358  0.2176 -0.0898
   62TCq2    C4  946   0.272   1.734  15.939 -0.1578  0.6930 -0.0480
   62TCq2    C5  947   0.338   1.849  15.901  0.2794 -0.2031  0.0778
   62TCq2    C6  948   0.456   1.834  15.835  0.8218  0.6393 -0.2684
   62TCq2    C7  949   0.513   1.711  15.805  0.1330  0.1454 -0.2484
   62TCq2    C8  950   0.531   1.956  15.801  0.3947 -0.1870 -0.1730
   62TCq2    O4  951   0.631   1.936  15.732  0.4481 -0.1564  0.1104
   62TCq2    C9  952   0.142   1.746  16.006 -0.6275  0.3229  0.2060
   62TCq2    O5  953   0.076   1.638  16.016  0.6608  0.0032  0.1994
   62TCq2    O6  954   0.089   1.858  16.015 -0.6928  0.1496 -0.3958
   62TCq2    H2  955   0.284   1.523  15.957  0.4673  1.6638  3.5358
   62TCq2    H3  956   0.290   1.940  15.934  0.1926 -0.6883  1.3093
   62TCq2    H4  957   0.604   1.710  15.746  0.1145  0.4406 -0.2839
   63TMC2    C1  958   4.678   1.707  10.948 -0.1516 -0.4363 -0.1699
   63TMC2    C2  959   0.056   1.754  11.020  0.1752 -0.4322  0.9472
   63TMC2    C3  960   0.152   1.825  10.957 -0.8530  0.8479 -0.3093
   63TMC2    C4  961   4.685   1.710  10.812  0.3696  0.5513  0.4400
   63TMC2    C5  962   0.054   1.788  10.753  0.5747  0.3183  0.2999
   63TMC2    C6  963   0.157   1.838  10.825  0.1081  0.4995 -0.3835
   63TMC2     C  964   4.571   1.640  11.014  0.4558 -0.6088 -0.2095
   63TMC2     O  965   4.555   1.659  11.133 -0.4124  0.1393 -0.5290
   63TMC2     H  966   0.041   1.761  11.127  0.0855 -1.4409  0.9976
   63TMC2    H1  967   4.594   1.681  10.760  0.4780  3.7712 -1.5745
   63TMC2    H2  968   0.242   1.892  10.785 -1.0807  3.0965  0.5983
   63TMC2    C7  969   0.065   1.785  10.610  0.2487 -0.4375 -0.3873
   63TMC2    C8  970   0.277   1.854  11.032  0.4189 -0.4034  0.7944
   63TMC2    O1  971   4.699   1.726  10.553  0.1292  0.0245  0.3813
   63TMC2    O2  972   0.373   1.899  10.970  0.6036 -0.0589 -0.0183
   63TMC2    O5  973   0.243   1.880  11.157  0.5232  0.2404 -0.0259
   63TMC2    H5  974   0.220   1.794  11.198  1.0769  0.3321  0.4885
   64MPD2     C  975   4.301   1.203  11.072  0.1784  0.4558 -0.4795
   64MPD2    C1  976   4.380   1.196  10.957 -0.0786  0.0678 -0.8617
   64MPD2    C2  977   4.445   1.308  10.908 -0.2640 -0.5328  0.2861
   64MPD2    C3  978   4.448   1.428  10.975 -0.0080 -0.2214  0.3368
   64MPD2    C4  979   4.375   1.439  11.088 -1.1914 -0.3514  0.0530
   64MPD2    C5  980   4.301   1.331  11.131 -0.0790 -0.0377 -0.3296
   64MPD2     H  981   4.511   1.306  10.822 -0.5968 -2.7963  0.0927
   64MPD2    H1  982   4.375   1.529  11.147  2.1706  0.3396 -0.9960
   64MPD2    H2  983   4.255   1.118  11.121  0.5691  0.7802  0.4464
   64MPD2    H3  984   4.248   1.348  11.224 -0.5824  0.3177 -0.6825
   64MPD2     N  985   4.538   1.533  10.941 -0.2646  0.1520 -0.0963
   64MPD2    H5  986   4.593   1.507  10.860  2.6605  0.4003  1.8153
   64MPD2    N1  987   4.419   1.076  10.897  0.5236 -0.4276 -0.1743
   64MPD2    H7  988   4.479   1.080  10.815  0.3860  3.6870 -0.0877
   65MPD2     C  989   1.427   0.750  15.786 -0.4378 -0.2954 -0.0871
   65MPD2    C1  990   1.417   0.744  15.648 -0.4976  0.2805 -0.1441
   65MPD2    C2  991   1.385   0.626  15.584 -0.7185  0.2140  0.0437
   65MPD2    C3  992   1.388   0.506  15.655 -0.1055  0.1283 -0.1491
   65MPD2    C4  993   1.393   0.514  15.794 -0.0355 -0.0234  0.6075
   65MPD2    C5  994   1.409   0.633  15.860  0.6718 -0.0937 -1.2084
   65MPD2     H  995   1.383   0.632  15.476  1.6715  1.6163  0.0589
   65MPD2    H1  996   1.370   0.430  15.858  0.8265 -0.4624  0.3388
   65MPD2    H2  997   1.466   0.839  15.834  0.2260 -0.4609 -0.3083
   65MPD2    H3  998   1.400   0.636  15.968  0.9221  0.3196 -1.2021
   65MPD2     N  999   1.352   0.380  15.596 -0.1886 -0.4020  0.2502
   65MPD2    H5 1000   1.315   0.310  15.658 -0.1022  1.2709  2.2079
   65MPD2    N1 1001   1.424   0.857  15.571 -0.0789 -0.5282 -0.5365
   65MPD2    H7 1002   1.390   0.841  15.477 -0.4667 -0.7938 -0.3509
   66TCq2    C1 1003   1.436   0.989  15.617  0.5205 -0.2492  0.3664
   66TCq2    O2 1004   1.458   1.031  15.730  0.4140  0.0646 -0.4174
   66TCq2    C2 1005   1.406   1.088  15.510 -0.6261 -0.6090  0.1703
   66TCq2    C3 1006   1.367   1.039  15.385 -0.5122 -0.2203 -0.0446
   66TCq2    C4 1007   1.334   1.129  15.286 -0.2607  0.1659  1.3070
   66TCq2    C5 1008   1.337   1.262  15.316  0.1608 -0.4022  0.6571
   66TCq2    C6 1009   1.368   1.300  15.442 -0.1820  0.1483  0.3229
   66TCq2    C7 1010   1.415   1.218  15.544 -0.5861 -0.2984  0.3603
   66TCq2    C8 1011   1.362   1.439  15.474 -0.0196  0.6560  0.4006
   66TCq2    O4 1012   1.360   1.513  15.380 -0.1830 -0.7956  0.5811
   66TCq2    C9 1013   1.299   1.084  15.154  0.0959 -0.0335  0.6859
   66TCq2    O5 1014   1.267   1.173  15.072  0.1073 -0.4898  0.1409
   66TCq2    O6 1015   1.316   0.961  15.131 -0.7601  0.3722 -0.4702
   66TCq2    H2 1016   1.366   0.937  15.350  0.9631  0.5247 -2.3208
   66TCq2    H3 1017   1.327   1.340  15.241  0.8645 -2.2149 -1.2963
   66TCq2    H4 1018   1.459   1.252  15.637  1.9883  0.0571 -0.9610
   67MPD2     C 1019   0.834   0.085  14.270 -0.8734 -0.1087  0.3718
   67MPD2    C1 1020   0.848   0.213  14.224 -0.7968 -0.6798 -0.6688
   67MPD2    C2 1021   0.740   0.267  14.169  0.1807  0.0090 -0.3922
   67MPD2    C3 1022   0.624   0.198  14.134 -0.0022 -1.0075  0.3808
   67MPD2    C4 1023   0.608   0.076  14.197  0.9368 -0.5159 -0.5218
   67MPD2    C5 1024   0.716   0.021  14.258 -1.0699 -0.0002  0.6023
   67MPD2     H 1025   0.739   0.372  14.142  0.1098  0.6955  2.3032
   67MPD2    H1 1026   0.518   0.018  14.177  1.6059 -1.5972 -0.3798
   67MPD2    H2 1027   0.907   0.032  14.330 -0.4338 -0.0688 -0.1285
   67MPD2    H3 1028   0.716   4.649  14.305 -1.8513 -0.2236  0.1358
   67MPD2     N 1029   0.517   0.259  14.070 -0.5441 -0.1841  0.1847
   67MPD2    H5 1030   0.432   0.205  14.058 -1.0147  0.0552  2.4032
   67MPD2    N1 1031   0.965   0.292  14.246  0.1683 -0.1484  0.4429
   67MPD2    H7 1032   0.948   0.391  14.232  0.7889 -0.2804 -1.1358
   68TCq2    C1 1033   1.084   0.250  14.286 -0.1494 -0.9947  0.0397
   68TCq2    O2 1034   1.128   0.137  14.285  0.4554 -0.0870  0.0440
   68TCq2    C2 1035   1.154   0.359  14.357 -0.2517  0.5914  0.3593
   68TCq2    C3 1036   1.092   0.475  14.400  0.3337  0.3622 -0.3460
   68TCq2    C4 1037   1.160   0.556  14.487 -0.2004  0.6178 -0.3069
   68TCq2    C5 1038   1.286   0.530  14.531 -0.2500  0.2660 -0.2897
   68TCq2    C6 1039   1.337   0.412  14.485 -0.5352 -1.0590 -0.4250
   68TCq2    C7 1040   1.275   0.329  14.399 -0.0925  0.3943 -0.1743
   68TCq2    C8 1041   1.477   0.386  14.511 -0.3211 -0.1722 -0.3305
   68TCq2    O4 1042   1.520   0.283  14.464 -0.3645  0.4383 -0.2876
   68TCq2    C9 1043   1.082   0.673  14.532 -0.2715 -0.5024  1.3676
   68TCq2    O5 1044   1.147   0.746  14.608 -0.8570  0.3463  0.6110
   68TCq2    O6 1045   0.959   0.660  14.536 -0.1261 -0.5314 -0.3247
   68TCq2    H2 1046   0.992   0.509  14.379 -0.4609 -1.6778  0.1777
   68TCq2    H3 1047   1.333   0.605  14.593  0.5493 -0.7893  0.3720
   68TCq2    H4 1048   1.339   0.254  14.354 -2.7526 -0.6173 -2.3078
   69TMC2    C1 1049   3.205   1.698  12.362  0.4536 -1.1812  0.7996
   69TMC2    C2 1050   3.073   1.680  12.376  0.9158 -0.1641 -0.5814
   69TMC2    C3 1051   2.992   1.748  12.297  0.5500  0.3861  0.3693
   69TMC2    C4 1052   3.260   1.787  12.272 -0.4755  0.4690 -0.0486
   69TMC2    C5 1053   3.173   1.852  12.185  0.3225  0.9783 -0.0096
   69TMC2    C6 1054   3.033   1.840  12.208 -0.2510 -0.3494 -0.2950
   69TMC2     C 1055   3.288   1.609  12.442 -0.2617  0.5114 -0.4023
   69TMC2     O 1056   3.236   1.545  12.534 -0.5981  0.1540  0.0076
   69TMC2     H 1057   3.034   1.613  12.452 -0.0417 -0.1714 -1.0724
   69TMC2    H1 1058   3.368   1.786  12.268 -0.4524 -2.5593  0.9228
   69TMC2    H2 1059   2.963   1.905  12.155 -0.2420 -2.1371 -2.5084
   69TMC2    C7 1060   3.230   1.883  12.051 -0.3225  0.1508  0.3993
   69TMC2    C8 1061   2.857   1.747  12.336 -0.0886  0.2609  0.4175
   69TMC2    O1 1062   3.350   1.873  12.058 -0.1052 -0.4611  0.0162
   69TMC2    O2 1063   2.829   1.733  12.455  0.4401  0.5575 -0.5994
   69TMC2    O5 1064   2.789   1.804  12.246  0.3707  0.2002  0.0105
   69TMC2    H5 1065   2.834   1.787  12.161  1.0763 -0.8768  0.6068
   70MPD2     C 1066   3.657   1.590  12.459 -0.1522 -0.1527 -0.4518
   70MPD2    C1 1067   3.530   1.591  12.509  0.0270  0.1327 -0.0990
   70MPD2    C2 1068   3.513   1.545  12.637  0.1907  0.4515  0.1713
   70MPD2    C3 1069   3.620   1.492  12.714  0.1256  0.1237 -0.2526
   70MPD2    C4 1070   3.748   1.497  12.660 -0.2772  0.3640  0.0158
   70MPD2    C5 1071   3.764   1.544  12.532  0.1705  0.1896  0.1820
   70MPD2     H 1072   3.412   1.549  12.677 -0.5053 -2.3929 -1.3182
   70MPD2    H1 1073   3.831   1.461  12.719 -0.4892  0.4733  0.3806
   70MPD2    H2 1074   3.674   1.612  12.354 -0.6650 -1.5699 -0.8375
   70MPD2    H3 1075   3.862   1.532  12.488  0.7983  3.2879  0.7350
   70MPD2     N 1076   3.604   1.453  12.848 -0.0284 -0.6471  0.5356
   70MPD2    H5 1077   3.691   1.433  12.897  0.9252 -0.3218 -1.0369
   70MPD2    N1 1078   3.423   1.624  12.421 -0.4382 -0.4626 -0.0739
   70MPD2    H7 1079   3.456   1.666  12.335 -0.7683  0.8376  0.4336
   71TMC2    C1 1080   0.378   1.085   1.697 -0.3224 -0.1304 -0.1269
   71TMC2    C2 1081   0.460   0.982   1.735 -0.8931 -1.0079  0.1934
   71TMC2    C3 1082   0.400   0.864   1.759  0.3769  0.5672 -0.1641
   71TMC2    C4 1083   0.244   1.083   1.709 -0.3206  0.2603 -0.6797
   71TMC2    C5 1084   0.183   0.960   1.735 -0.6494 -0.0600 -0.3128
   71TMC2    C6 1085   0.261   0.853   1.763  0.3173 -0.6920 -0.3147
   71TMC2     C 1086   0.437   1.223   1.677  0.1100 -0.0202 -0.5523
   71TMC2     O 1087   0.541   1.231   1.616  0.6808 -0.7804  0.4015
   71TMC2     H 1088   0.562   0.991   1.699 -0.7146 -1.6869  0.5435
   71TMC2    H1 1089   0.180   1.163   1.675 -1.3865  1.0813  3.3485
   71TMC2    H2 1090   0.224   0.757   1.797 -3.1269  0.8036  0.1524
   71TMC2    C7 1091   0.039   0.946   1.743  0.0017 -0.0809 -0.1193
   71TMC2    C8 1092   0.470   0.747   1.804  0.4274 -1.0655 -0.0527
   71TMC2    O1 1093   4.724   0.849   1.805  0.1598 -0.0284  0.4608
   71TMC2    O2 1094   0.409   0.658   1.854 -0.8152  0.2422  0.3432
   71TMC2    O5 1095   0.600   0.775   1.815  0.2529  0.1253  0.7680
   71TMC2    H5 1096   0.623   0.827   1.735 -0.9470  2.3938  1.8903
   72MPD2     C 1097   0.388   1.738   1.687 -0.1748  0.0666 -0.4984
   72MPD2    C1 1098   0.473   1.661   1.613  0.7308  0.6036 -0.0820
   72MPD2    C2 1099   0.471   1.520   1.631 -0.8427 -0.1999 -0.2371
   72MPD2    C3 1100   0.377   1.457   1.711  0.2552 -0.6338  0.2727
   72MPD2    C4 1101   0.296   1.538   1.787 -0.0195 -0.5307 -0.7315
   72MPD2    C5 1102   0.314   1.678   1.784  0.1946  0.2329 -1.2003
   72MPD2     H 1103   0.551   1.470   1.579 -2.3640 -0.8565 -1.9257
   72MPD2    H1 1104   0.224   1.509   1.862 -0.2602 -0.7898 -1.0652
   72MPD2    H2 1105   0.398   1.846   1.693 -1.5520  0.2046 -0.6904
   72MPD2    H3 1106   0.240   1.734   1.840  1.3399  2.1409 -1.6026
   72MPD2     N 1107   0.362   1.318   1.741 -0.0270  0.2164  0.2967
   72MPD2    H5 1108   0.294   1.288   1.810 -0.0220  2.1806  1.1723
   72MPD2    N1 1109   0.563   1.722   1.520 -0.1009 -0.4028 -0.2282
   72MPD2    H7 1110   0.626   1.656   1.475 -0.1693 -2.1990  2.2777
   73TMC2    C1 1111   0.652   3.403  13.946  0.0986  0.1616 -0.0268
   73TMC2    C2 1112   0.585   3.385  14.062  0.0072 -0.1916  0.6811
   73TMC2    C3 1113   0.656   3.342  14.169 -0.2825 -0.4897  0.0613
   73TMC2    C4 1114   0.786   3.375  13.943  0.2138  0.5585  0.2429
   73TMC2    C5 1115   0.855   3.334  14.053 -0.1713 -0.0515  0.3722
   73TMC2    C6 1116   0.786   3.310  14.170  0.4577  0.2997  0.6054
   73TMC2     C 1117   0.632   3.541  13.904 -0.4613  0.3492 -0.8133
   73TMC2     O 1118   0.723   3.617  13.942 -0.0991 -0.0290 -0.4411
   73TMC2     H 1119   0.477   3.385  14.067 -0.0142  2.2314 -0.0897
   73TMC2    H1 1120   0.829   3.391  13.845  1.7117  0.2676  0.8493
   73TMC2    H2 1121   0.833   3.272  14.260  1.2752 -1.3946 -0.5567
   73TMC2    C7 1122   0.987   3.395  14.069 -0.5115 -0.5403  0.1106
   73TMC2    C8 1123   0.574   3.324  14.291  0.0522  0.2664  0.2855
   73TMC2    O1 1124   1.073   3.346  14.140  0.3420 -0.2068  0.2212
   73TMC2    O2 1125   0.486   3.244  14.301 -0.7638 -0.6553  0.4279
   73TMC2    O5 1126   0.637   3.386  14.394 -0.3113  0.1764  0.5565
   73TMC2    H5 1127   0.705   3.451  14.366 -2.1412  1.0488 -1.8798
   74MPD2     C 1128   0.394   3.926  13.657 -0.3249  0.8950 -0.0658
   74MPD2    C1 1129   0.517   3.919  13.725  0.2557 -0.1933 -0.4163
   74MPD2    C2 1130   0.545   3.802  13.795 -0.2863  0.1897 -0.4808
   74MPD2    C3 1131   0.465   3.690  13.800 -0.8578  0.0301  0.4281
   74MPD2    C4 1132   0.340   3.702  13.744  0.0669  0.8040 -0.0981
   74MPD2    C5 1133   0.310   3.816  13.676  0.4021 -0.4663  0.2655
   74MPD2     H 1134   0.645   3.785  13.831  0.2555  2.5536 -0.8460
   74MPD2    H1 1135   0.275   3.617  13.730 -0.0887  0.9372 -0.1860
   74MPD2    H2 1136   0.368   4.018  13.605 -1.8767  0.2215 -0.4906
   74MPD2    H3 1137   0.216   3.827  13.623  0.1048 -0.7395  0.7403
   74MPD2     N 1138   0.506   3.569  13.868  0.0936 -0.5583 -0.1075
   74MPD2    H5 1139   0.443   3.490  13.878  1.1652 -1.1564  1.8134
   74MPD2    N1 1140   0.611   4.028  13.714 -0.4235 -0.3350 -0.6597
   74MPD2    H7 1141   0.580   4.098  13.647 -0.1038 -0.5737 -1.0540
   75TCq2    C1 1142   0.531   0.372  13.990  0.1954  0.0674 -0.2496
   75TCq2    O2 1143   0.630   0.404  13.925 -0.4279 -0.5227  0.1916
   75TCq2    C2 1144   0.402   0.419  13.929  0.3673 -0.1948 -0.3401
   75TCq2    C3 1145   0.298   0.424  14.017 -0.0895 -0.0324  0.0845
   75TCq2    C4 1146   0.193   0.500  13.985  0.1094  0.5389 -0.5251
   75TCq2    C5 1147   0.187   0.571  13.865  0.4841 -0.1616 -0.4027
   75TCq2    C6 1148   0.301   0.564  13.779  0.1494  0.0128 -0.5181
   75TCq2    C7 1149   0.412   0.494  13.813  0.1535  0.5256 -0.0904
   75TCq2    C8 1150   0.297   0.612  13.644 -0.1723  0.2943  0.0104
   75TCq2    O4 1151   0.384   0.577  13.566 -0.1637 -0.2908 -0.6613
   75TCq2    C9 1152   0.081   0.507  14.073 -0.6541  0.2124  0.3053
   75TCq2    O5 1153   4.706   0.577  14.044 -0.2775 -0.1822  0.0344
   75TCq2    O6 1154   0.089   0.447  14.185  0.0020  0.3014  0.7857
   75TCq2    H2 1155   0.299   0.376  14.114 -1.0282 -0.0718  0.0739
   75TCq2    H3 1156   0.098   0.629  13.842 -0.1605 -0.6381  0.8718
   75TCq2    H4 1157   0.505   0.509  13.760  1.3040 -1.5840  1.3516
   76MPD2     C 1158   4.101   1.438  11.898 -0.1299 -0.0703  0.3890
   76MPD2    C1 1159   4.098   1.439  11.758 -0.1444 -0.1491 -0.0840
   76MPD2    C2 1160   4.178   1.356  11.681 -0.1570 -0.3439 -0.0634
   76MPD2    C3 1161   4.277   1.290  11.746  0.1113 -0.1202 -0.0149
   76MPD2    C4 1162   4.280   1.282  11.881  0.1617  0.2818 -0.5473
   76MPD2    C5 1163   4.186   1.346  11.956  0.2630  0.2175  0.7246
   76MPD2     H 1164   4.159   1.360  11.575 -1.8941  1.5935  0.3365
   76MPD2    H1 1165   4.356   1.230  11.939 -0.6476 -1.4531 -1.0430
   76MPD2    H2 1166   4.040   1.495  11.966 -0.0038 -0.8013  1.1154
   76MPD2    H3 1167   4.193   1.337  12.064 -0.6375 -0.8071  0.6947
   76MPD2     N 1168   4.374   1.204  11.684 -0.0212  0.1232  0.1093
   76MPD2    H5 1169   4.440   1.163  11.750 -0.7524  1.5914  1.7510
   76MPD2    N1 1170   4.005   1.524  11.691 -0.3370 -0.3389  0.6067
   76MPD2    H7 1171   3.999   1.508  11.591 -2.3292 -1.0787  0.8551
   77TCq2    C1 1172   4.377   1.185  11.552 -0.4840 -0.8018 -0.0998
   77TCq2    O2 1173   4.306   1.218  11.458 -0.0940 -0.1747  0.3503
   77TCq2    C2 1174   4.483   1.093  11.538  0.6935 -0.0873 -0.0961
   77TCq2    C3 1175   4.446   0.964  11.515  0.0688  0.6876  0.3141
   77TCq2    C4 1176   4.543   0.870  11.526  0.5395  0.7359  0.1008
   77TCq2    C5 1177   4.671   0.899  11.565  0.4661  0.3310 -0.7912
   77TCq2    C6 1178   4.703   1.032  11.580 -0.2955 -0.0251  0.1164
   77TCq2    C7 1179   4.614   1.135  11.561 -0.3503  0.5158  0.1546
   77TCq2    C8 1180   0.097   1.077  11.653 -0.4216  0.1095 -0.1001
   77TCq2    O4 1181   0.146   1.187  11.617  0.2153  0.5113  0.1619
   77TCq2    C9 1182   4.496   0.734  11.530  0.2411  0.5424  0.6639
   77TCq2    O5 1183   4.568   0.649  11.582 -0.3686  0.4328 -0.5256
   77TCq2    O6 1184   4.375   0.713  11.498  0.1959  0.2743 -0.4909
   77TCq2    H2 1185   4.340   0.953  11.493  0.2780  1.1594 -0.9367
   77TCq2    H3 1186   0.021   0.825  11.588  0.9158  0.0439 -3.1994
   77TCq2    H4 1187   4.643   1.230  11.605  1.7611  0.2134 -0.5921
   78MPD1     C 1188   1.037   3.093   2.353  0.1409 -0.2890  0.0326
   78MPD1    C1 1189   0.906   3.058   2.367  0.1523  0.1774 -0.3713
   78MPD1    C2 1190   0.859   2.938   2.326  0.5624 -0.8754 -0.4299
   78MPD1    C3 1191   0.938   2.859   2.245  0.2058  0.5734  0.2828
   78MPD1    C4 1192   1.071   2.897   2.221  0.2978 -0.2155 -0.1549
   78MPD1    C5 1193   1.114   3.013   2.271  0.7527 -0.1700 -0.0033
   78MPD1     H 1194   0.761   2.905   2.359 -0.2221  1.1830 -0.6678
   78MPD1    H1 1195   1.139   2.844   2.156 -0.7896 -1.5413 -0.1986
   78MPD1    H2 1196   1.084   3.176   2.405 -1.7492 -1.0454  2.9209
   78MPD1    H3 1197   1.218   3.041   2.266 -0.1664  2.6814 -2.9523
   78MPD1     N 1198   0.893   2.740   2.183  0.1359  0.2149 -0.1504
   78MPD1    H5 1199   0.967   2.690   2.135 -0.1501 -0.6637  0.3160
   78MPD1    N1 1200   0.827   3.125   2.460 -0.0315 -0.0484  0.3304
   78MPD1    H6 1201   0.816   3.224   2.438  0.0356 -0.5168 -1.7163
   78MPD1    H7 1202   0.732   3.090   2.451  0.2027 -0.7064  0.4622
   79TCq2    C1 1203   0.761   2.695   2.183  0.8395  0.9341  0.6146
   79TCq2    O2 1204   0.662   2.742   2.237  0.2063 -0.0937 -0.1730
   79TCq2    C2 1205   0.729   2.579   2.099  0.3948 -0.1512 -0.8875
   79TCq2    C3 1206   0.608   2.559   2.051 -0.1380 -0.3773 -0.3876
   79TCq2    C4 1207   0.574   2.459   1.965 -0.1046  0.5076 -0.2136
   79TCq2    C5 1208   0.667   2.376   1.912  0.7468  0.4347  0.1777
   79TCq2    C6 1209   0.795   2.396   1.963  0.3015  0.9619 -0.5846
   79TCq2    C7 1210   0.825   2.492   2.051  0.5346 -0.4184  0.5415
   79TCq2    C8 1211   0.897   2.296   1.931  0.1795 -0.8926  0.0724
   79TCq2    O4 1212   1.014   2.318   1.967  0.2545  0.1287  0.2004
   79TCq2    C9 1213   0.429   2.446   1.935  0.2384 -0.8421  0.1014
   79TCq2    O5 1214   0.383   2.331   1.911  0.0147  0.1296 -0.3781
   79TCq2    O6 1215   0.356   2.537   1.981 -0.2812 -0.4584 -0.1520
   79TCq2    H2 1216   0.530   2.628   2.081 -0.6829 -0.7416 -0.9832
   79TCq2    H3 1217   0.635   2.295   1.848  1.9107 -0.9687  1.3738
   79TCq2    H4 1218   0.928   2.501   2.085  0.0829 -1.2410  2.0914
   80MPD2     C 1219   3.853   1.023  11.669 -0.5480  0.0315  0.2418
   80MPD2    C1 1220   3.725   0.985  11.711 -0.2099 -0.1468 -0.2637
   80MPD2    C2 1221   3.677   1.033  11.831  0.2192  0.5753  0.9226
   80MPD2    C3 1222   3.762   1.108  11.904  0.4776  0.4135  0.4631
   80MPD2    C4 1223   3.886   1.147  11.863  0.6707  0.0541  0.2641
   80MPD2    C5 1224   3.938   1.094  11.748  0.4534  0.4951  0.1668
   80MPD2     H 1225   3.580   0.998  11.867  0.1362  2.2705  2.3572
   80MPD2    H1 1226   3.935   1.212  11.934 -0.9841 -0.7571  2.1653
   80MPD2    H2 1227   3.894   0.997  11.572 -0.1886 -2.0586  0.9586
   80MPD2    H3 1228   4.036   1.119  11.709  0.7854 -1.3747 -0.1855
   80MPD2     N 1229   3.734   1.147  12.037 -0.5954 -0.0420 -0.4408
   80MPD2    H5 1230   3.801   1.207  12.086 -1.7726 -0.2812  1.4651
   80MPD2    N1 1231   3.636   0.902  11.642  0.6483  0.1593 -0.6887
   80MPD2    H7 1232   3.538   0.894  11.667  1.6493  1.5789  3.5528
   81TCq2    C1 1233   3.670   0.852  11.518 -0.2606 -0.1423 -0.0263
   81TCq2    O2 1234   3.776   0.849  11.455  0.2310  0.0371  0.0234
   81TCq2    C2 1235   3.556   0.792  11.458  0.5966  0.3013 -0.2698
   81TCq2    C3 1236   3.545   0.798  11.318  0.2416 -0.1445 -0.2721
   81TCq2    C4 1237   3.433   0.744  11.260 -0.1252 -0.1873  0.3768
   81TCq2    C5 1238   3.334   0.684  11.335  0.4734 -0.0935  0.1843
   81TCq2    C6 1239   3.349   0.675  11.474 -0.2872 -0.0984  0.0880
   81TCq2    C7 1240   3.459   0.733  11.539 -0.0562 -0.1817 -0.0278
   81TCq2    C8 1241   3.232   0.623  11.544 -0.4435 -0.0588  0.0641
   81TCq2    O4 1242   3.149   0.558  11.478  0.0317  0.3237  0.1650
   81TCq2    C9 1243   3.413   0.775  11.118  0.3167 -0.5294 -0.1092
   81TCq2    O5 1244   3.295   0.768  11.079 -0.3832 -0.0979 -0.5429
   81TCq2    O6 1245   3.507   0.822  11.051  0.7701  1.1120 -0.4666
   81TCq2    H2 1246   3.622   0.844  11.256 -1.9685  3.4670 -0.3626
   81TCq2    H3 1247   3.247   0.642  11.287 -1.0699  0.8038  2.1759
   81TCq2    H4 1248   3.474   0.715  11.645  2.9183  1.4010 -0.1700
   82MPD2     C 1249   1.645   0.863  10.734  0.0846 -0.1941 -0.8033
   82MPD2    C1 1250   1.607   0.759  10.663  0.7501 -0.5424 -0.7082
   82MPD2    C2 1251   1.686   0.644  10.659 -0.3538  0.9458 -0.5585
   82MPD2    C3 1252   1.797   0.629  10.737  0.2601  0.3295 -0.0899
   82MPD2    C4 1253   1.832   0.736  10.810  0.0926 -0.2876 -0.0924
   82MPD2    C5 1254   1.758   0.848  10.800 -0.1482  0.7100 -0.5573
   82MPD2     H 1255   1.652   0.563  10.595  0.3794 -0.9495  1.4564
   82MPD2    H1 1256   1.915   0.724  10.877 -0.5132  1.7664  1.0329
   82MPD2    H2 1257   1.589   0.955  10.751  0.7698 -0.0784  0.8796
   82MPD2    H3 1258   1.786   0.930  10.865  0.4958 -1.1604  1.5018
   82MPD2     N 1259   1.877   0.511  10.757  0.5647 -0.2524  0.5184
   82MPD2    H5 1260   1.959   0.516  10.817 -0.1706 -0.8167  1.5809
   82MPD2    N1 1261   1.474   0.763  10.605  0.0731 -0.1732 -0.5189
   82MPD2    H7 1262   1.425   0.847  10.635  0.3201 -0.6359  1.1920
   83TCq2    C1 1263   1.845   0.389  10.709  0.1498 -0.2365 -0.0717
   83TCq2    O2 1264   1.738   0.346  10.670 -0.4758  0.6738 -1.1720
   83TCq2    C2 1265   1.934   0.290  10.763  0.3007  0.6216  0.3725
   83TCq2    C3 1266   2.017   0.343  10.853 -0.0092 -0.2957 -0.1687
   83TCq2    C4 1267   2.067   0.253  10.953 -0.3932 -0.5708 -0.0872
   83TCq2    C5 1268   2.009   0.131  10.964  0.9362 -0.3423 -0.4373
   83TCq2    C6 1269   1.910   0.088  10.873  0.1257 -0.6458  0.2704
   83TCq2    C7 1270   1.877   0.166  10.766 -0.6462  0.3000  0.1735
   83TCq2    C8 1271   1.812   4.717  10.924  0.8278 -0.3098 -0.5072
   83TCq2    O4 1272   1.791   0.003  11.044  0.4334 -0.0589 -0.1118
   83TCq2    C9 1273   2.188   0.280  11.028 -0.2362  0.1511  0.0637
   83TCq2    O5 1274   2.228   0.397  11.021 -0.1997  0.5715  0.6687
   83TCq2    O6 1275   2.232   0.196  11.113 -0.4975 -0.7801 -0.4344
   83TCq2    H2 1276   2.073   0.435  10.843 -0.8951  0.4601  1.6862
   83TCq2    H3 1277   2.042   0.072  11.049  0.1054  0.5387  0.4971
   83TCq2    H4 1278   1.817   0.129  10.683 -0.8837 -0.3328  0.6232
   84TCq2    C1 1279   2.698   3.729  10.240 -0.5989  0.3613  0.1027
   84TCq2    O2 1280   2.580   3.717  10.218  0.3313 -0.4630  0.5597
   84TCq2    C2 1281   2.739   3.729  10.377 -0.0007 -0.0595 -0.4635
   84TCq2    C3 1282   2.874   3.743  10.409 -0.3947 -0.1767 -0.3148
   84TCq2    C4 1283   2.902   3.755  10.536  0.3850  0.1916  0.2082
   84TCq2    C5 1284   2.803   3.748  10.640 -0.4839 -0.6073 -1.1216
   84TCq2    C6 1285   2.672   3.731  10.604 -0.4597 -0.1486 -0.5397
   84TCq2    C7 1286   2.638   3.736  10.474  0.2784 -0.0251 -0.1429
   84TCq2    C8 1287   2.572   3.776  10.697  0.0969  0.3279  0.1152
   84TCq2    O4 1288   2.483   3.853  10.668  0.0368 -0.3157 -0.2609
   84TCq2    C9 1289   3.042   3.775  10.584 -0.3691  0.3940 -0.5338
   84TCq2    O5 1290   3.074   3.772  10.708 -0.0671 -0.4115 -0.2127
   84TCq2    O6 1291   3.123   3.765  10.488 -0.1360 -0.3055  0.3049
   84TCq2    H2 1292   2.953   3.741  10.335 -0.2351  2.2703 -0.2270
   84TCq2    H3 1293   2.829   3.748  10.745 -1.1194 -1.2879 -0.9639
   84TCq2    H4 1294   2.533   3.734  10.447  0.4488 -0.5318 -0.7808
   85MPD2     C 1295   3.562   1.757  16.572 -0.4274 -0.6729  0.2062
   85MPD2    C1 1296   3.503   1.737  16.445 -0.3712 -0.1794  0.9886
   85MPD2    C2 1297   3.536   1.823  16.346  0.3212  0.4709  0.4486
   85MPD2    C3 1298   3.613   1.938  16.374  0.0155  0.6183 -0.8273
   85MPD2    C4 1299   3.657   1.968  16.503 -0.6803 -0.4162  0.4698
   85MPD2    C5 1300   3.642   1.865  16.597 -0.0687 -0.4185 -0.1896
   85MPD2     H 1301   3.496   1.806  16.247  0.4351  1.5474  0.2198
   85MPD2    H1 1302   3.719   2.049  16.538 -0.0356 -0.0921 -1.3806
   85MPD2    H2 1303   3.536   1.703  16.662 -0.5139 -3.0349 -1.2356
   85MPD2    H3 1304   3.674   1.880  16.699 -1.4644 -0.9081  0.3273
   85MPD2     N 1305   3.627   2.037  16.273  0.1192  0.0823  0.4013
   85MPD2    H5 1306   3.610   2.021  16.175  1.3179 -0.1087  0.2360
   85MPD2    N1 1307   3.422   1.627  16.417 -0.4289  0.1898  0.7574
   85MPD2    H7 1308   3.389   1.617  16.321 -0.0490 -1.6235  0.8192
   86TCq2    C1 1309   3.684   2.163  16.288  0.2853  0.0856  0.8008
   86TCq2    O2 1310   3.722   2.216  16.392 -0.2746  0.1932  0.3044
   86TCq2    C2 1311   3.681   2.242  16.164  0.2576  0.5306 -0.4277
   86TCq2    C3 1312   3.729   2.369  16.176 -0.3386  0.0975 -0.0696
   86TCq2    C4 1313   3.768   2.430  16.063  0.1912 -0.0776  0.6425
   86TCq2    C5 1314   3.762   2.366  15.945  0.0967  0.1284  0.1286
   86TCq2    C6 1315   3.719   2.241  15.934 -0.1605  0.7806  0.5301
   86TCq2    C7 1316   3.673   2.176  16.043  0.7755  0.6787 -0.3818
   86TCq2    C8 1317   3.795   2.151  15.852  0.4955  0.1018 -0.2676
   86TCq2    O4 1318   3.858   2.061  15.910  0.3567 -0.2954  0.3539
   86TCq2    C9 1319   3.855   2.547  16.066  0.1758  0.4348  0.3935
   86TCq2    O5 1320   3.912   2.566  16.177 -0.4652 -0.0622  0.0495
   86TCq2    O6 1321   3.871   2.613  15.961 -0.0945 -0.4685  0.1031
   86TCq2    H2 1322   3.740   2.421  16.270 -0.9858  0.3206 -0.1227
   86TCq2    H3 1323   3.806   2.410  15.857 -0.4498 -0.2382 -0.3331
   86TCq2    H4 1324   3.663   2.069  16.029  2.7627  0.3686  0.5556
   87MPD2     C 1325   0.411   0.510   1.498  0.0416 -0.3128 -0.0795
   87MPD2    C1 1326   0.494   0.616   1.498  0.9822 -0.2227 -0.1299
   87MPD2    C2 1327   0.457   0.729   1.430 -0.2658 -1.4446 -0.1009
   87MPD2    C3 1328   0.331   0.742   1.381  0.4381  0.8818 -0.8264
   87MPD2    C4 1329   0.236   0.645   1.406  0.2156 -0.2752 -0.3577
   87MPD2    C5 1330   0.284   0.530   1.458 -0.7692  0.0913 -0.0766
   87MPD2     H 1331   0.532   0.806   1.415 -0.9661 -0.8544 -0.5810
   87MPD2    H1 1332   0.131   0.657   1.382  0.4200  0.3599 -0.9354
   87MPD2    H2 1333   0.434   0.417   1.548  3.2441 -0.0169 -1.0469
   87MPD2    H3 1334   0.211   0.453   1.479 -0.1625 -0.8073 -1.2799
   87MPD2     N 1335   0.292   0.853   1.300  0.7553 -0.0765 -0.2507
   87MPD2    H5 1336   0.193   0.862   1.279  0.5948  0.2170  0.6560
   87MPD2    N1 1337   0.617   0.595   1.557  0.7013 -0.2471  0.1839
   87MPD2    H7 1338   0.640   0.497   1.564 -0.0626 -0.5451 -1.3836
   88TCq2    C1 1339   0.716   0.687   1.551  0.1953  0.0095 -0.2789
   88TCq2    O2 1340   0.701   0.805   1.551  0.3517  0.4002  0.3764
   88TCq2    C2 1341   0.855   0.639   1.552 -0.1962  0.6152 -0.4049
   88TCq2    C3 1342   0.948   0.735   1.509  0.0933  0.1248  0.0952
   88TCq2    C4 1343   1.066   0.697   1.450 -0.1187 -0.4190 -0.4662
   88TCq2    C5 1344   1.090   0.566   1.418 -0.1313 -0.1086  0.0827
   88TCq2    C6 1345   0.995   0.476   1.452 -0.4846 -0.5486 -0.1274
   88TCq2    C7 1346   0.878   0.508   1.514 -0.1147  0.2571  0.3058
   88TCq2    C8 1347   1.029   0.335   1.464  0.2341 -0.1808  0.1646
   88TCq2    O4 1348   0.964   0.262   1.531  0.7435 -0.6017  0.1862
   88TCq2    C9 1349   1.164   0.796   1.411  0.5046 -0.4389  0.3341
   88TCq2    O5 1350   1.262   0.760   1.342 -0.4435 -0.2663  0.0924
   88TCq2    O6 1351   1.129   0.917   1.427  0.1141  0.2506  0.5466
   88TCq2    H2 1352   0.933   0.840   1.531  0.6457  0.4088 -0.8619
   88TCq2    H3 1353   1.184   0.535   1.373  0.8187  2.6300  0.1698
   88TCq2    H4 1354   0.813   0.432   1.556  1.6981 -2.2349 -1.3491
   89MPD2     C 1355   1.158   3.378   2.216 -0.2324  0.0785 -0.1932
   89MPD2    C1 1356   1.126   3.337   2.088  0.1798 -0.0976 -0.2253
   89MPD2    C2 1357   1.222   3.319   1.993  0.3612 -0.0669  0.1100
   89MPD2    C3 1358   1.354   3.346   2.022 -0.1089 -0.0174  0.2941
   89MPD2    C4 1359   1.388   3.391   2.151 -0.5048  0.1031  0.6974
   89MPD2    C5 1360   1.289   3.409   2.245 -0.4119  0.3117 -1.0274
   89MPD2     H 1361   1.197   3.282   1.894  0.1658 -0.4353  0.2979
   89MPD2    H1 1362   1.490   3.410   2.185 -0.1157 -1.6357  0.5490
   89MPD2    H2 1363   1.087   3.385   2.297 -2.1187 -1.6108 -1.6955
   89MPD2    H3 1364   1.320   3.460   2.336  2.9088 -0.0607 -1.9818
   89MPD2     N 1365   1.450   3.329   1.922 -0.6980  0.0222 -0.5127
   89MPD2    H5 1366   1.423   3.304   1.827 -0.8223 -0.5720 -0.3223
   89MPD2    N1 1367   0.995   3.292   2.055  0.1790  0.6918  0.0365
   89MPD2    H7 1368   0.986   3.226   1.978 -0.7490 -0.1093  0.8276
   90TCq2    C1 1369   1.586   3.357   1.937  0.2669  0.5784  0.1705
   90TCq2    O2 1370   1.642   3.413   2.030  0.2141 -0.3085 -0.2410
   90TCq2    C2 1371   1.677   3.297   1.837  0.1242 -0.4586  0.8211
   90TCq2    C3 1372   1.812   3.320   1.855 -0.3217 -0.8337  0.2762
   90TCq2    C4 1373   1.898   3.279   1.756  0.4243 -1.0676  0.0111
   90TCq2    C5 1374   1.846   3.230   1.635  0.0412  0.9506  0.9088
   90TCq2    C6 1375   1.713   3.203   1.636 -0.0890  0.2924  0.2907
   90TCq2    C7 1376   1.624   3.232   1.730  0.2323 -0.0797 -0.1355
   90TCq2    C8 1377   1.653   3.185   1.505  0.2312 -0.3397  0.0909
   90TCq2    O4 1378   1.557   3.116   1.488 -0.7910  0.0966 -0.0584
   90TCq2    C9 1379   2.036   3.307   1.773 -0.1387  0.1363 -0.8214
   90TCq2    O5 1380   2.072   3.399   1.852  0.2417 -0.0255  0.1021
   90TCq2    O6 1381   2.117   3.240   1.705  0.1810 -0.2977 -0.2912
   90TCq2    H2 1382   1.858   3.370   1.939 -2.3273  0.8773  0.3590
   90TCq2    H3 1383   1.915   3.184   1.566 -0.1265 -0.7561  1.8898
   90TCq2    H4 1384   1.519   3.235   1.703  0.4091 -1.1224 -0.9152
   91TMC2    C1 1385   3.709   2.976  17.035  0.1937  0.0466 -0.5512
   91TMC2    C2 1386   3.620   2.957  17.134 -0.3008 -0.7585  0.1897
   91TMC2    C3 1387   3.503   3.027  17.125 -0.2745 -0.8133  0.0231
   91TMC2    C4 1388   3.676   3.046  16.919  0.1453  0.2419 -1.0993
   91TMC2    C5 1389   3.557   3.107  16.909 -0.7241  0.2805 -0.1274
   91TMC2    C6 1390   3.472   3.103  17.014 -0.0996 -0.1685  0.9312
   91TMC2     C 1391   3.839   2.910  17.043 -0.0657 -0.1248  0.4435
   91TMC2     O 1392   3.846   2.809  17.110 -0.1926 -0.6004  0.3367
   91TMC2     H 1393   3.651   2.894  17.218 -1.4879 -0.8917  0.5255
   91TMC2    H1 1394   3.748   3.064  16.840  0.5128  0.2170 -0.7719
   91TMC2    H2 1395   3.386   3.168  17.015 -0.9559 -1.3246  1.8749
   91TMC2    C7 1396   3.564   3.226  16.825  0.1912 -0.3979 -0.2240
   91TMC2    C8 1397   3.394   2.993  17.217  0.8773 -0.6649 -0.6605
   91TMC2    O1 1398   3.523   3.339  16.863 -0.3526 -0.0839 -0.5102
   91TMC2    O2 1399   3.280   2.963  17.182 -0.1046  0.0102 -0.1371
   91TMC2    O5 1400   3.461   2.944  17.323 -0.4644  0.5865 -0.3075
   91TMC2    H5 1401   3.531   3.007  17.348  0.7577 -1.4344  1.3841
   92MPD2     C 1402   4.120   2.811  17.017  0.1707 -0.6306 -0.3548
   92MPD2    C1 1403   4.063   2.919  16.951 -0.1581 -0.3221  0.8547
   92MPD2    C2 1404   4.137   2.982  16.849 -0.5015 -0.8347  0.5451
   92MPD2    C3 1405   4.263   2.932  16.816  1.5134 -0.2392 -0.9807
   92MPD2    C4 1406   4.313   2.828  16.885  0.0858 -0.0897 -0.8013
   92MPD2    C5 1407   4.239   2.764  16.981  0.0405 -0.3608  0.2260
   92MPD2     H 1408   4.082   3.059  16.796  2.1462  1.3497  0.9683
   92MPD2    H1 1409   4.413   2.786  16.877 -1.2397 -3.0516 -1.9664
   92MPD2    H2 1410   4.065   2.758  17.094  0.2730  0.4132  0.4489
   92MPD2    H3 1411   4.272   2.684  17.047  0.8478 -0.3451 -0.1520
   92MPD2     N 1412   4.334   3.003  16.718 -0.1527  0.5571 -0.5496
   92MPD2    H5 1413   4.288   3.088  16.687 -1.0779 -0.5756 -2.2705
   92MPD2    N1 1414   3.934   2.971  16.971  0.0138  0.8792 -0.6144
   92MPD2    H7 1415   3.914   3.064  16.935 -1.3657  0.7332 -0.2166
   93MPD2     C 1416   0.223   3.182  14.028 -0.4637 -0.2411  0.0578
   93MPD2    C1 1417   0.156   3.159  13.909  0.7582  0.3216 -0.2920
   93MPD2    C2 1418   0.038   3.085  13.923  0.2137  0.0626  0.4705
   93MPD2    C3 1419   4.690   3.085  14.043 -0.4435  0.7023 -0.5197
   93MPD2    C4 1420   0.032   3.111  14.153 -0.0095  0.4546  0.6869
   93MPD2    C5 1421   0.162   3.162  14.148  0.3585  0.7397  0.7819
   93MPD2     H 1422   4.718   3.061  13.828 -2.0344 -0.0098  1.5521
   93MPD2    H1 1423   4.710   3.103  14.250  0.4883 -3.6687  0.5719
   93MPD2    H2 1424   0.327   3.213  14.025 -0.6230  0.3592  0.7445
   93MPD2    H3 1425   0.204   3.186  14.245  1.8169 -0.7578  0.5308
   93MPD2     N 1426   4.558   3.048  14.028  0.3017 -0.5826 -0.4139
   93MPD2    H5 1427   4.520   3.032  13.935 -0.9945  2.3094 -0.3759
   93MPD2    N1 1428   0.214   3.177  13.779 -0.0295  0.6510  0.1724
   93MPD2    H7 1429   0.166   3.131  13.703  3.1715  0.8869 -1.9732
   94TCq2    C1 1430   0.327   3.242  13.758 -0.5805 -0.3126  0.2411
   94TCq2    O2 1431   0.384   3.330  13.826  0.2350 -0.0795  0.0739
   94TCq2    C2 1432   0.374   3.231  13.621  0.2438 -0.0612 -0.2616
   94TCq2    C3 1433   0.388   3.099  13.578  0.0753 -0.3046  0.4069
   94TCq2    C4 1434   0.505   3.062  13.519 -0.3536 -0.7545  0.0438
   94TCq2    C5 1435   0.597   3.146  13.484 -0.4238 -0.6126 -0.1241
   94TCq2    C6 1436   0.580   3.276  13.526  0.5323 -0.2159 -0.0238
   94TCq2    C7 1437   0.469   3.323  13.588  0.0490 -0.1587 -0.6279
   94TCq2    C8 1438   0.707   3.350  13.537  0.5513  0.2528 -0.7994
   94TCq2    O4 1439   0.808   3.289  13.512 -0.6331  0.0036 -0.3588
   94TCq2    C9 1440   0.527   2.920  13.494 -0.1271  0.1816  0.3578
   94TCq2    O5 1441   0.649   2.885  13.474 -0.2427 -0.4430 -0.5312
   94TCq2    O6 1442   0.429   2.842  13.515 -1.2894  0.1926  0.6230
   94TCq2    H2 1443   0.320   3.018  13.602 -0.4060 -0.2798 -0.8730
   94TCq2    H3 1444   0.689   3.110  13.439  0.3477 -0.6296  1.4412
   94TCq2    H4 1445   0.464   3.421  13.632  2.4339 -0.4037  0.2129
   95TMC2    C1 1446   0.753   4.310  16.017  0.3296 -0.3616 -0.5245
   95TMC2    C2 1447   0.751   4.172  16.033  0.3052 -0.0748 -0.6801
   95TMC2    C3 1448   0.733   4.118  16.159  0.4693 -0.7542  0.6147
   95TMC2    C4 1449   0.739   4.394  16.126 -0.1380  0.2659  0.2948
   95TMC2    C5 1450   0.714   4.329  16.253  0.4127  0.9178 -0.2476
   95TMC2    C6 1451   0.708   4.195  16.272  0.5684  0.5049 -0.8059
   95TMC2     C 1452   0.819   4.370  15.901  0.2917  0.5882 -1.4212
   95TMC2     O 1453   0.851   4.489  15.912  0.1378 -0.1698 -0.5457
   95TMC2     H 1454   0.772   4.111  15.946 -0.6035 -0.8975 -0.3261
   95TMC2    H1 1455   0.745   4.502  16.119 -0.8300  0.2404 -0.5672
   95TMC2    H2 1456   0.735   4.155  16.369 -0.6820 -0.6574 -0.9380
   95TMC2    C7 1457   0.740   4.410  16.369  0.1543 -0.3995 -0.6254
   95TMC2    C8 1458   0.724   3.976  16.164 -0.0370 -0.7631 -0.2596
   95TMC2    O1 1459   0.771   4.522  16.348  0.2708  0.0647 -0.1839
   95TMC2    O2 1460   0.778   3.899  16.085 -0.1372 -0.3753 -0.2198
   95TMC2    O5 1461   0.672   3.943  16.284  0.1297  0.1582 -0.7339
   95TMC2    H5 1462   0.642   4.013  16.345 -1.1150 -1.1584  0.1832
   96MPD2     C 1463   0.988   4.336  15.418 -0.7959 -0.6090  0.2319
   96MPD2    C1 1464   1.001   4.444  15.511 -0.4699  0.4882 -0.4330
   96MPD2    C2 1465   0.936   4.434  15.639 -0.1873  0.1964 -0.3178
   96MPD2    C3 1466   0.868   4.317  15.672  0.2464 -0.7436  0.0034
   96MPD2    C4 1467   0.848   4.222  15.570 -0.2960 -0.1239 -0.2123
   96MPD2    C5 1468   0.903   4.233  15.446 -0.5743  0.0948  0.5249
   96MPD2     H 1469   0.945   4.504  15.721 -0.9196 -1.1064  0.8700
   96MPD2    H1 1470   0.786   4.134  15.587  1.0121 -1.0571 -0.2124
   96MPD2    H2 1471   1.038   4.347  15.322 -0.3397 -0.2381  0.5137
   96MPD2    H3 1472   0.888   4.159  15.369  0.7450 -0.3542  0.7016
   96MPD2     N 1473   0.805   4.294  15.792  0.1462 -0.9269 -0.4584
   96MPD2    H5 1474   0.749   4.210  15.801  0.5664 -1.1509  0.0965
   96MPD2    N1 1475   1.074   4.556  15.462  0.2603 -0.8348 -0.1156
   96MPD2    H7 1476   1.112   4.540  15.369 -0.0631 -0.0688 -0.3790
   97MPD2     C 1477   3.223   1.849   1.885  0.0389 -0.6231 -0.7163
   97MPD2    C1 1478   3.131   1.902   1.794  0.6773 -0.0315  0.0594
   97MPD2    C2 1479   3.182   1.981   1.686 -0.3105  0.1309 -0.3524
   97MPD2    C3 1480   3.318   2.002   1.676  0.3004 -0.2419 -0.4930
   97MPD2    C4 1481   3.402   1.951   1.776  0.1281  0.7876 -0.2197
   97MPD2    C5 1482   3.356   1.878   1.877  0.6259 -0.8830 -0.1063
   97MPD2     H 1483   3.109   2.024   1.617 -0.8158 -0.8322 -0.4290
   97MPD2    H1 1484   3.510   1.960   1.766  0.1413 -1.7687 -2.2930
   97MPD2    H2 1485   3.196   1.789   1.971  1.0485 -0.9177 -0.6081
   97MPD2    H3 1486   3.422   1.829   1.947  1.9354  0.5696 -0.3272
   97MPD2     N 1487   3.377   2.075   1.569 -0.1834  0.7373  1.0001
   97MPD2    H5 1488   3.478   2.073   1.573 -0.2417 -2.9995  0.3919
   97MPD2    N1 1489   2.986   1.889   1.825 -0.2195  0.4309  0.1907
   97MPD2    H7 1490   2.963   1.819   1.895 -0.9391  0.9012  0.4325
   98TCq2    C1 1491   3.315   2.148   1.470  0.1863  0.7241 -0.1498
   98TCq2    O2 1492   3.198   2.185   1.471  0.1289  0.2892  0.1677
   98TCq2    C2 1493   3.402   2.197   1.367  0.9194  0.0108  0.2112
   98TCq2    C3 1494   3.526   2.139   1.352 -0.1682  0.2430  0.6588
   98TCq2    C4 1495   3.608   2.178   1.247 -0.0605 -0.1126  0.3843
   98TCq2    C5 1496   3.566   2.266   1.153 -0.1099  0.5916  0.2446
   98TCq2    C6 1497   3.449   2.333   1.187  0.0966  0.3708 -0.6156
   98TCq2    C7 1498   3.361   2.295   1.285  0.0366 -0.2106  0.6181
   98TCq2    C8 1499   3.448   2.468   1.142  0.7013  0.0350  0.2378
   98TCq2    O4 1500   3.554   2.526   1.123 -0.7036  0.0138 -0.0537
   98TCq2    C9 1501   3.729   2.104   1.220 -0.5174  0.7181 -0.7329
   98TCq2    O5 1502   3.773   2.098   1.099  0.1099 -0.0153  1.0601
   98TCq2    O6 1503   3.790   2.058   1.320  0.1150 -0.5128  0.1779
   98TCq2    H2 1504   3.558   2.052   1.408  1.3773  0.8627  0.7289
   98TCq2    H3 1505   3.633   2.294   1.072  1.4209  1.6096  1.8605
   98TCq2    H4 1506   3.266   2.342   1.308 -0.1098 -0.7559  1.1382
   99MPD2     C 1507   1.386   4.032   1.692 -0.0407  0.0174 -0.1543
   99MPD2    C1 1508   1.261   4.085   1.678  1.2218  0.1353  0.3878
   99MPD2    C2 1509   1.180   4.018   1.583  0.1052 -0.3048 -0.0702
   99MPD2    C3 1510   1.219   3.905   1.506  0.3405 -0.1005  0.1426
   99MPD2    C4 1511   1.346   3.860   1.530 -0.6182 -0.1915 -0.4466
   99MPD2    C5 1512   1.423   3.914   1.629  0.3513  0.2634  0.3035
   99MPD2     H 1513   1.080   4.058   1.572  0.4843  0.4865 -0.6652
   99MPD2    H1 1514   1.384   3.773   1.477 -0.3955  1.3644 -2.8096
   99MPD2    H2 1515   1.462   4.073   1.758 -0.4060  0.4115  0.0138
   99MPD2    H3 1516   1.520   3.867   1.639 -0.5571 -1.1188  2.4403
   99MPD2     N 1517   1.128   3.863   1.409 -0.5688 -0.0199  0.6948
   99MPD2    H5 1518   1.039   3.912   1.403 -0.3789  0.7668  3.8887
   99MPD2    N1 1519   1.210   4.196   1.744  0.5751 -0.1755 -0.1567
   99MPD2    H7 1520   1.114   4.224   1.729 -0.4365 -1.3896  3.9083
  100TCq2    C1 1521   1.291   4.267   1.832  0.0670 -0.1805  0.0742
  100TCq2    O2 1522   1.414   4.275   1.842 -0.4093  0.0711 -0.5941
  100TCq2    C2 1523   1.229   4.357   1.922  0.3804  0.0650  0.1126
  100TCq2    C3 1524   1.283   4.472   1.982 -0.5888 -0.5391 -0.9073
  100TCq2    C4 1525   1.204   4.540   2.066  0.5346 -0.7481  0.5128
  100TCq2    C5 1526   1.075   4.501   2.102  0.5790 -0.6842  0.2097
  100TCq2    C6 1527   1.027   4.391   2.041 -0.0291 -0.3561 -0.3331
  100TCq2    C7 1528   1.100   4.311   1.958  0.3545  0.4571  0.0658
  100TCq2    C8 1529   0.895   4.343   2.083  0.4556  0.7204 -0.0930
  100TCq2    O4 1530   0.849   4.361   2.195  0.3707  0.5107  0.1141
  100TCq2    C9 1531   1.245   4.662   2.122  0.2274  0.7426  0.3584
  100TCq2    O5 1532   1.187   4.690   2.231 -0.3677  0.1394  1.1101
  100TCq2    O6 1533   1.366   4.687   2.103 -0.2907  0.1678  0.0004
  100TCq2    H2 1534   1.382   4.505   1.955 -0.8103  2.0475  1.4788
  100TCq2    H3 1535   1.011   4.565   2.162 -0.1075 -1.4027  0.2379
  100TCq2    H4 1536   1.074   4.209   1.931 -0.2203  0.1780  1.6478
  101MPD2     C 1537   2.446   0.518  13.038 -0.2567  0.2361  0.4956
  101MPD2    C1 1538   2.403   0.601  13.134 -0.3445  0.6529  0.0033
  101MPD2    C2 1539   2.286   0.579  13.202  0.2829  0.3474 -0.3467
  101MPD2    C3 1540   2.218   0.467  13.171  0.2579 -0.5507 -0.2394
  101MPD2    C4 1541   2.261   0.380  13.074 -0.0888 -0.0360 -0.0217
  101MPD2    C5 1542   2.380   0.400  13.018 -0.3823  0.6905  0.3868
  101MPD2     H 1543   2.254   0.653  13.275  1.0641 -0.6237  0.9673
  101MPD2    H1 1544   2.203   0.293  13.047 -0.5881  0.1600  0.4002
  101MPD2    H2 1545   2.534   0.539  12.979 -0.3758 -0.4923  0.0595
  101MPD2    H3 1546   2.420   0.331  12.944 -0.0972  1.1842  0.0830
  101MPD2     N 1547   2.098   0.450  13.254  0.6602 -0.3542  0.5825
  101MPD2    H5 1548   2.083   0.517  13.329  0.6175  0.5048 -0.1870
  101MPD2    N1 1549   2.472   0.716  13.170  0.1393 -0.8053  0.1405
  101MPD2    H7 1550   2.433   0.776  13.242 -0.8561  0.1917 -1.2287
  102TCq2    C1 1551   2.755   1.191  12.990  0.6184 -0.1953  0.4879
  102TCq2    O2 1552   2.827   1.138  12.909  0.5976  0.4818  0.1096
  102TCq2    C2 1553   2.709   1.104  13.097  0.3058  0.2880 -0.5669
  102TCq2    C3 1554   2.658   1.164  13.206  0.5679  0.0296 -0.1158
  102TCq2    C4 1555   2.581   1.091  13.289 -0.2924  0.3030 -0.1292
  102TCq2    C5 1556   2.565   0.958  13.263 -0.0173 -0.0210  0.3390
  102TCq2    C6 1557   2.625   0.899  13.154 -0.7086  0.3242 -0.0282
  102TCq2    C7 1558   2.696   0.974  13.066 -0.4486 -0.5398  0.2881
  102TCq2    C8 1559   2.580   0.774  13.099 -0.8581 -0.4957 -0.0926
  102TCq2    O4 1560   2.627   0.745  12.993 -0.4448  0.0903 -0.3091
  102TCq2    C9 1561   2.524   1.157  13.408 -0.1920 -0.7120 -0.1886
  102TCq2    O5 1562   2.577   1.256  13.461 -0.3964 -0.5380  0.3008
  102TCq2    O6 1563   2.437   1.085  13.459  0.0291 -0.3681 -0.0331
  102TCq2    H2 1564   2.648   1.270  13.225 -2.0711 -0.2756  0.1544
  102TCq2    H3 1565   2.516   0.902  13.342 -1.7513  1.7123  0.4964
  102TCq2    H4 1566   2.744   0.937  12.977 -0.2678  0.0221  0.1579
  103TMC2    C1 1567   0.332   0.652  12.293 -0.2845 -0.2850 -0.2816
  103TMC2    C2 1568   0.317   0.517  12.301  0.5641 -0.3989 -0.0794
  103TMC2    C3 1569   0.371   0.444  12.404 -0.0400  0.2720  0.0235
  103TMC2    C4 1570   0.391   0.726  12.398 -0.0825 -0.3083  0.8007
  103TMC2    C5 1571   0.442   0.648  12.496  0.8374 -0.2604  0.3330
  103TMC2    C6 1572   0.423   0.513  12.509  0.0612 -0.3046 -0.0229
  103TMC2     C 1573   0.288   0.716  12.165 -0.5321 -0.0333 -0.1446
  103TMC2     O 1574   0.225   0.654  12.080 -0.1660 -0.8440  1.2105
  103TMC2     H 1575   0.254   0.467  12.228  0.0958 -3.3638  2.3852
  103TMC2    H1 1576   0.419   0.830  12.396 -1.9611  0.1755 -0.8883
  103TMC2    H2 1577   0.458   0.459  12.597  0.8748 -1.8331 -1.2866
  103TMC2    C7 1578   0.494   0.714  12.616  0.2189  0.1620  0.7119
  103TMC2    C8 1579   0.329   0.305  12.427  0.0046 -0.0662 -0.0246
  103TMC2    O1 1580   0.572   0.653  12.686 -0.4101  0.0027 -0.4011
  103TMC2    O2 1581   0.221   0.271  12.394  0.3705  0.7955 -0.0426
  103TMC2    O5 1582   0.406   0.238  12.510 -0.3790 -0.1542 -0.5112
  103TMC2    H5 1583   0.503   0.257  12.507 -0.1613 -1.1953 -0.0733
  104MPD2     C 1584   0.429   1.034  12.040 -0.0975 -0.5468 -0.2191
  104MPD2    C1 1585   0.338   0.929  12.049  0.3499  0.0542  0.3853
  104MPD2    C2 1586   0.239   0.928  11.957  0.2821 -0.0939  0.4218
  104MPD2    C3 1587   0.227   1.020  11.857 -0.1794 -0.0722  0.0774
  104MPD2    C4 1588   0.318   1.119  11.844  0.1856 -0.6178  0.3577
  104MPD2    C5 1589   0.419   1.124  11.935 -0.4257 -0.2231  0.0421
  104MPD2     H 1590   0.165   0.849  11.963 -0.0725  0.1462 -0.7859
  104MPD2    H1 1591   0.314   1.201  11.773 -0.3213 -0.9333  0.0153
  104MPD2    H2 1592   0.518   1.033  12.102  0.8421  0.3804 -1.5646
  104MPD2    H3 1593   0.490   1.205  11.924 -0.5058  0.0890  1.8859
  104MPD2     N 1594   0.121   0.995  11.762 -0.0559 -0.4378 -0.0517
  104MPD2    H5 1595   0.064   0.914  11.782  0.6970 -0.7491  0.8568
  104MPD2    N1 1596   0.358   0.834  12.149 -0.3554  0.4169  0.3093
  104MPD2    H7 1597   0.417   0.856  12.229  1.1287 -0.1338 -0.6262
  105MPD2     C 1598   2.010   4.478   0.224 -0.2164  0.9888 -0.5688
  105MPD2    C1 1599   1.952   4.599   0.196 -0.2395 -0.1459 -0.3249
  105MPD2    C2 1600   1.850   4.647   0.278  0.5898 -0.2848  0.2272
  105MPD2    C3 1601   1.794   4.565   0.376 -0.0918 -0.4870  0.3212
  105MPD2    C4 1602   1.851   4.442   0.402 -0.1583 -0.4909 -0.0365
  105MPD2    C5 1603   1.960   4.414   0.327  0.4481  0.2945  0.1804
  105MPD2     H 1604   1.817   0.022   0.254 -1.2069 -0.5131  1.7962
  105MPD2    H1 1605   1.827   4.372   0.481 -0.7670 -2.1071 -1.6534
  105MPD2    H2 1606   2.080   4.423   0.162  1.2463  2.1574  0.0546
  105MPD2    H3 1607   2.005   4.319   0.356  0.8153  0.6686  0.8524
  105MPD2     N 1608   1.680   4.620   0.441  0.1950 -0.1033  0.4666
  105MPD2    H5 1609   1.647   4.712   0.415 -3.1410 -1.3369  0.3430
  105MPD2    N1 1610   1.996   4.678   0.090  0.2205 -0.8334  0.2388
  105MPD2    H7 1611   1.963   0.049   0.095 -2.1431 -1.5848 -1.0154
  106TCq2    C1 1612   1.622   4.566   0.549  0.4243 -0.6259 -0.3250
  106TCq2    O2 1613   1.656   4.468   0.615  0.5502  0.2867  0.7838
  106TCq2    C2 1614   1.516   4.643   0.606  0.3223 -0.1086  1.0249
  106TCq2    C3 1615   1.487   0.041   0.554 -0.6526  0.2700  0.0341
  106TCq2    C4 1616   1.416   0.135   0.627  0.1180  0.2269  0.1451
  106TCq2    C5 1617   1.358   0.096   0.745 -0.1694  0.3556  0.0833
  106TCq2    C6 1618   1.400   4.700   0.800  0.0953  0.0198 -0.0738
  106TCq2    C7 1619   1.481   4.607   0.735 -0.2747  0.7742 -0.1627
  106TCq2    C8 1620   1.357   4.665   0.933  0.1422 -0.0565 -0.2653
  106TCq2    O4 1621   1.377   4.551   0.968  0.1532  0.2386  0.4206
  106TCq2    C9 1622   1.360   0.262   0.573 -0.4428 -0.2884  0.2834
  106TCq2    O5 1623   1.289   0.339   0.648 -0.0909 -0.3151  0.2569
  106TCq2    O6 1624   1.402   0.303   0.459 -0.3718 -0.3520 -0.1575
  106TCq2    H2 1625   1.513   0.059   0.450 -0.5715 -0.3996 -0.0620
  106TCq2    H3 1626   1.288   0.163   0.792 -0.0054 -1.8217  3.4243
  106TCq2    H4 1627   1.529   4.527   0.790 -1.2871  1.0009  1.0405
  107TMC2    C1 1628   2.166   4.367  11.357  0.2134 -0.4043 -0.4540
  107TMC2    C2 1629   2.115   4.423  11.242  0.2520  0.4485 -0.3939
  107TMC2    C3 1630   2.130   4.349  11.129  0.5534  0.2452  0.2982
  107TMC2    C4 1631   2.233   4.249  11.361 -0.2409  0.2063  0.5231
  107TMC2    C5 1632   2.257   4.186  11.238  0.1124  0.5278 -0.0107
  107TMC2    C6 1633   2.189   4.224  11.122  0.7489  0.3357  0.3358
  107TMC2     C 1634   2.176   4.455  11.472  0.0609 -0.4150  0.1652
  107TMC2     O 1635   2.217   4.417  11.582 -0.0579  0.4774  0.2693
  107TMC2     H 1636   2.049   4.508  11.234  0.3649  0.3558 -2.3212
  107TMC2    H1 1637   2.278   4.225  11.457  4.0219  1.5719 -1.1556
  107TMC2    H2 1638   2.191   4.170  11.028 -4.1811  1.2710 -0.3334
  107TMC2    C7 1639   2.325   4.058  11.238 -0.0329  0.4520 -0.0991
  107TMC2    C8 1640   2.059   4.400  11.014  0.1780  0.0273  0.1559
  107TMC2    O1 1641   2.363   4.027  11.351  0.1590  0.2369 -0.1203
  107TMC2    O2 1642   2.012   4.324  10.929 -0.4153 -0.1474  0.0983
  107TMC2    O5 1643   2.094   4.526  10.992 -0.0973  0.0957  0.0721
  107TMC2    H5 1644   2.135   4.563  11.074  1.3787 -1.3496 -0.0188
  108MPD2     C 1645   2.093   0.087  11.449  0.1684 -0.1243 -0.1506
  108MPD2    C1 1646   2.126   4.695  11.510  0.4313 -0.8815 -0.8360
  108MPD2    C2 1647   2.110   4.689  11.648 -0.6220 -0.3752  0.7282
  108MPD2    C3 1648   2.058   0.070  11.722  0.0559  0.2166 -0.5481
  108MPD2    C4 1649   2.030   0.187  11.655  0.0005 -0.4628  0.0549
  108MPD2    C5 1650   2.062   0.202  11.520  0.2286  0.0930  0.2296
  108MPD2     H 1651   2.128   4.595  11.698 -0.9009  0.4604  2.4357
  108MPD2    H1 1652   1.995   0.276  11.707 -3.4786 -2.6965  1.5213
  108MPD2    H2 1653   2.117   0.104  11.345  2.5801 -0.5291  0.3559
  108MPD2    H3 1654   2.037   0.292  11.465 -1.8173  0.1404  1.2303
  108MPD2     N 1655   2.014   0.060  11.858 -0.2848 -0.3170 -0.4917
  108MPD2    H5 1656   1.967   0.142  11.895 -1.5798 -1.1032 -0.3575
  108MPD2    N1 1657   2.152   4.585  11.432 -0.6008 -0.0948  0.5309
  108MPD2    H7 1658   2.144   4.600  11.332  0.1062 -0.3751  0.4359
  109MPD2     C 1659   1.499   1.129   2.072 -0.1461  0.3568 -0.0989
  109MPD2    C1 1660   1.600   1.216   2.033 -0.5717  0.6789  0.4027
  109MPD2    C2 1661   1.731   1.170   2.036  0.2015  0.4019 -0.4221
  109MPD2    C3 1662   1.765   1.050   2.098  0.2886  0.4280  0.2948
  109MPD2    C4 1663   1.666   0.964   2.131  0.3172 -0.1961  0.2765
  109MPD2    C5 1664   1.539   1.003   2.106  0.2523  0.7886 -0.4073
  109MPD2     H 1665   1.816   1.233   2.014  2.2571 -2.2495 -0.1886
  109MPD2    H1 1666   1.677   0.863   2.168  0.7310 -1.0974 -2.2880
  109MPD2    H2 1667   1.393   1.152   2.067 -0.1057  1.0592  2.3937
  109MPD2    H3 1668   1.456   0.936   2.127  1.8869 -1.1300  0.0436
  109MPD2     N 1669   1.911   1.028   2.108 -0.7716  0.0449 -0.0089
  109MPD2    H5 1670   1.968   1.100   2.065  1.0110 -0.7413  1.0390
  109MPD2    N1 1671   1.564   1.347   1.990  0.6455  0.0541  0.0488
  109MPD2    H7 1672   1.467   1.371   2.004  0.1360 -2.0503  0.1035
  110TCq2    C1 1673   1.966   0.926   2.183 -0.1572  0.2574 -0.2827
  110TCq2    O2 1674   1.906   0.841   2.245  0.3108  0.2404  0.0572
  110TCq2    C2 1675   2.114   0.923   2.186 -0.4917  0.0038  0.0511
  110TCq2    C3 1676   2.179   0.806   2.209 -1.1546 -0.7397  0.0470
  110TCq2    C4 1677   2.315   0.811   2.194 -0.2068  0.5551  0.0780
  110TCq2    C5 1678   2.389   0.930   2.186  0.3038  0.2783  0.6385
  110TCq2    C6 1679   2.316   1.048   2.189 -0.5085  0.1603  0.1917
  110TCq2    C7 1680   2.175   1.050   2.193  0.3845  0.9175 -0.3428
  110TCq2    C8 1681   2.392   1.168   2.161  0.4722 -0.4772 -0.2294
  110TCq2    O4 1682   2.332   1.259   2.115 -0.2687  0.3927 -0.7636
  110TCq2    C9 1683   2.391   0.690   2.205  0.1694 -0.1925 -0.0619
  110TCq2    O5 1684   2.328   0.583   2.219 -0.1209 -0.2271 -0.2492
  110TCq2    O6 1685   2.518   0.698   2.205 -0.0276  0.3936  0.0528
  110TCq2    H2 1686   2.132   0.709   2.217  0.1619 -1.3935 -0.2436
  110TCq2    H3 1687   2.496   0.935   2.166  0.4796  1.5835  1.9307
  110TCq2    H4 1688   2.118   1.142   2.203 -1.1997 -0.1196  0.0604
  111TMC2    C1 1689   1.832   1.587  12.121 -0.0769  0.3459 -0.5950
  111TMC2    C2 1690   1.780   1.615  12.246  0.1940 -0.3909  0.1127
  111TMC2    C3 1691   1.830   1.522  12.346  0.7869  0.5911  0.1226
  111TMC2    C4 1692   1.927   1.498  12.100 -0.2121 -0.4497  0.1756
  111TMC2    C5 1693   1.983   1.434  12.201  0.0373  0.4094 -0.1016
  111TMC2    C6 1694   1.941   1.445  12.326 -0.3736  0.5439  0.0736
  111TMC2     C 1695   1.827   1.684  12.016  0.2094 -0.0451  0.2593
  111TMC2     O 1696   1.913   1.676  11.929  0.1473  0.0194  0.8416
  111TMC2     H 1697   1.707   1.691  12.269  0.7885  0.0223  0.6578
  111TMC2    H1 1698   1.965   1.480  12.000  0.1575 -1.6057  0.5207
  111TMC2    H2 1699   1.989   1.393  12.408 -1.0177 -0.5496 -0.2403
  111TMC2    C7 1700   2.108   1.361  12.186  0.0118  1.2544  0.2322
  111TMC2    C8 1701   1.803   1.573  12.481 -0.1152  0.6018 -0.1638
  111TMC2    O1 1702   2.164   1.329  12.289 -0.4888  0.5421  0.2615
  111TMC2    O2 1703   1.795   1.692  12.504 -0.1188 -0.3608 -0.5781
  111TMC2    O5 1704   1.844   1.475  12.566 -0.0093 -0.1019 -0.7149
  111TMC2    H5 1705   1.819   1.386  12.533  2.0374 -0.4195 -1.4487
  112MPD2     C 1706   1.561   2.031  11.744  0.2477  0.1181 -0.7348
  112MPD2    C1 1707   1.687   1.987  11.742 -0.1778  0.2914 -0.0235
  112MPD2    C2 1708   1.731   1.887  11.828  0.2997 -0.0381  0.0639
  112MPD2    C3 1709   1.647   1.833  11.919  0.4242 -0.1406 -0.0916
  112MPD2    C4 1710   1.515   1.872  11.918 -0.2553 -0.0534 -0.1500
  112MPD2    C5 1711   1.470   1.969  11.828 -0.3544 -0.0390  0.0123
  112MPD2     H 1712   1.833   1.853  11.810  0.0647 -1.9831  2.3047
  112MPD2    H1 1713   1.443   1.831  11.988  0.3607 -0.1519  0.4156
  112MPD2    H2 1714   1.525   2.105  11.674  0.5195 -1.5541 -2.6201
  112MPD2    H3 1715   1.364   1.992  11.824 -0.1934  0.9001  1.2247
  112MPD2     N 1716   1.697   1.735  12.010  0.0782  0.5243  0.4708
  112MPD2    H5 1717   1.639   1.703  12.087  0.2982  2.0367  1.2592
  112MPD2    N1 1718   1.786   2.045  11.661 -0.0798  0.2074 -0.5310
  112MPD2    H7 1719   1.871   1.991  11.645 -0.1646 -0.7452  2.1132
  113MPD2     C 1720   0.423   3.919   1.198 -0.2506  0.1622  0.3445
  113MPD2    C1 1721   0.320   4.005   1.186 -0.6474  1.0706  0.2222
  113MPD2    C2 1722   0.212   3.976   1.097 -0.1803  0.0169  0.0168
  113MPD2    C3 1723   0.220   3.865   1.020 -0.5436 -0.0986  0.1737
  113MPD2    C4 1724   0.330   3.784   1.022  0.1182 -0.2515 -0.1322
  113MPD2    C5 1725   0.431   3.811   1.113  0.6349 -0.7797  0.6284
  113MPD2     H 1726   0.122   4.034   1.107  0.6986  1.4344 -0.2471
  113MPD2    H1 1727   0.340   3.698   0.957 -0.6133 -0.1896 -0.3307
  113MPD2    H2 1728   0.504   3.930   1.270  0.8238 -0.7970 -0.7083
  113MPD2    H3 1729   0.517   3.745   1.110  0.8231 -0.4981 -0.0887
  113MPD2     N 1730   0.110   3.825   0.942 -0.8395 -0.2666  0.1665
  113MPD2    H5 1731   0.117   3.742   0.884  0.7788 -0.9821  1.3811
  113MPD2    N1 1732   0.299   4.112   1.274 -1.0614 -0.5186  0.3277
  113MPD2    H7 1733   0.218   4.167   1.248 -0.8046 -1.1337 -1.7802
  114TCq2    C1 1734   4.706   3.873   0.958  0.7153  0.0312 -0.2933
  114TCq2    O2 1735   4.655   3.950   1.038  0.1782 -0.8119  0.6332
  114TCq2    C2 1736   4.615   3.811   0.867  0.4248  0.2767 -0.1286
  114TCq2    C3 1737   4.649   3.741   0.756  0.0863  0.1155  0.2865
  114TCq2    C4 1738   4.554   3.685   0.676 -0.5737  0.1672 -0.0270
  114TCq2    C5 1739   4.422   3.690   0.720  0.1009  0.3607 -0.4054
  114TCq2    C6 1740   4.394   3.762   0.832 -0.0630  0.0369 -0.4944
  114TCq2    C7 1741   4.486   3.832   0.901  0.5257  0.6667 -0.7802
  114TCq2    C8 1742   4.276   3.745   0.912 -0.4013  0.2383  0.6228
  114TCq2    O4 1743   4.236   3.832   0.987  0.3408  0.2556  0.2336
  114TCq2    C9 1744   4.588   3.625   0.550  0.4292 -0.2188  0.2156
  114TCq2    O5 1745   4.703   3.579   0.544 -0.1062 -0.2090  0.1207
  114TCq2    O6 1746   4.504   3.636   0.452 -0.5175  0.0244 -0.2741
  114TCq2    H2 1747   0.025   3.725   0.719 -0.6341 -2.4960 -0.5753
  114TCq2    H3 1748   4.349   3.636   0.661  1.3104 -1.9092  0.1909
  114TCq2    H4 1749   4.456   3.878   0.994 -0.2198  1.5283 -1.4435
  115TMC2    C1 1750   1.459   2.023   0.073  0.0975  0.0778  0.4151
  115TMC2    C2 1751   1.554   2.056   0.167 -0.8120 -0.0956 -0.0498
  115TMC2    C3 1752   1.599   2.183   0.184 -0.7108  0.0090  0.5808
  115TMC2    C4 1753   1.400   2.123   0.002  0.5201  0.2354  0.0434
  115TMC2    C5 1754   1.452   2.255   0.016 -0.5857  0.1644 -1.0493
  115TMC2    C6 1755   1.540   2.287   0.113  0.6105 -0.2860  0.1864
  115TMC2     C 1756   1.391   1.889   0.063 -0.1692  0.3118 -0.3477
  115TMC2     O 1757   1.318   1.866  17.669 -0.3601  0.1780 -0.2630
  115TMC2     H 1758   1.602   1.981   0.229  2.2353  1.5129 -0.4926
  115TMC2    H1 1759   1.332   2.108  17.621  1.4027  3.0208 -1.1565
  115TMC2    H2 1760   1.584   2.384   0.133  1.7679 -0.8998  0.6434
  115TMC2    C7 1761   1.378   2.358  17.649 -0.0768 -0.2763  0.3105
  115TMC2    C8 1762   1.731   2.198   0.242  0.5060 -0.5598  0.4991
  115TMC2    O1 1763   1.283   2.333  17.575 -0.0736  0.1317 -0.3699
  115TMC2    O2 1764   1.768   2.113   0.317  0.1440 -0.2590 -0.3738
  115TMC2    O5 1765   1.798   2.292   0.168 -0.0555  0.3597 -0.0289
  115TMC2    H5 1766   1.744   2.350   0.110 -0.8045  0.3765  0.6955
  116MPD2     C 1767   1.289   1.416   0.234 -0.3351  0.3604  0.3942
  116MPD2    C1 1768   1.245   1.484   0.121 -1.3681  0.7225 -0.8728
  116MPD2    C2 1769   1.285   1.615   0.107 -0.4023  0.4085 -0.3787
  116MPD2    C3 1770   1.378   1.673   0.191 -0.5038 -0.6691 -0.7783
  116MPD2    C4 1771   1.417   1.608   0.304  0.5631  0.8252  0.4341
  116MPD2    C5 1772   1.370   1.482   0.323  0.0333  0.2053  0.3289
  116MPD2     H 1773   1.248   1.668   0.020  2.5349 -0.9125 -2.4368
  116MPD2    H1 1774   1.482   1.649   0.380 -0.2005  3.0639 -0.1327
  116MPD2    H2 1775   1.255   1.317   0.261  1.1800  0.0846  1.2984
  116MPD2    H3 1776   1.404   1.432   0.413 -1.4452  1.3044  1.4844
  116MPD2     N 1777   1.428   1.805   0.168  0.3801 -0.0111 -0.5627
  116MPD2    H5 1778   1.497   1.833   0.238 -0.6560 -1.2359  0.9580
  116MPD2    N1 1779   1.171   1.416   0.028  0.0991  0.4535 -0.2493
  116MPD2    H7 1780   1.150   1.320   0.052 -0.9200  0.2830 -1.8141
  117TMC2    C1 1781   4.255   3.287  14.273  0.3306 -0.6744 -0.3759
  117TMC2    C2 1782   4.258   3.223  14.393  0.1005 -0.3747 -0.3273
  117TMC2    C3 1783   4.379   3.219  14.453  0.5950 -0.4625 -0.0700
  117TMC2    C4 1784   4.369   3.342  14.221  0.0104 -0.4163  0.7355
  117TMC2    C5 1785   4.489   3.335  14.291 -0.1331  0.5489  0.6313
  117TMC2    C6 1786   4.499   3.269  14.414  0.2572  0.8506  0.0355
  117TMC2     C 1787   4.134   3.285  14.203 -0.0533  0.2942  0.7566
  117TMC2     O 1788   4.068   3.184  14.204 -0.5151  0.3168 -0.0829
  117TMC2     H 1789   4.176   3.169  14.438 -0.7453 -0.2395 -1.7025
  117TMC2    H1 1790   4.366   3.396  14.127  0.3678  1.8072  1.9829
  117TMC2    H2 1791   4.593   3.248  14.465 -0.2241 -1.5070 -0.0750
  117TMC2    C7 1792   4.604   3.404  14.234 -0.4429  0.2720  0.1055
  117TMC2    C8 1793   4.387   3.142  14.571  0.2882 -0.3593 -0.3159
  117TMC2    O1 1794   4.595   3.450  14.123  0.9335 -0.3164 -0.7438
  117TMC2    O2 1795   4.378   3.191  14.682  0.0589 -0.1643 -0.3648
  117TMC2    O5 1796   4.488   3.059  14.540 -0.4605  0.0407  0.2778
  117TMC2    H5 1797   4.481   3.036  14.445 -1.2375 -1.3423  0.6662
  118MPD2     C 1798   0.204   3.461  14.379 -0.1387 -0.6457  0.2858
  118MPD2    C1 1799   0.104   3.477  14.289  0.3439 -0.5989  0.0132
  118MPD2    C2 1800   0.115   3.574  14.190 -0.2753 -0.8028 -0.6415
  118MPD2    C3 1801   0.229   3.657  14.185  0.1798 -0.3018 -0.0481
  118MPD2    C4 1802   0.323   3.636  14.274 -0.4801  0.8967 -0.6912
  118MPD2    C5 1803   0.308   3.538  14.371 -0.2138 -0.7553  0.4119
  118MPD2     H 1804   0.034   3.593  14.121  0.3256 -1.0895 -1.4368
  118MPD2    H1 1805   0.408   3.703  14.283 -0.7636  0.8696  2.1693
  118MPD2    H2 1806   0.205   3.390  14.461 -1.0298 -0.5394  0.3858
  118MPD2    H3 1807   0.393   3.537  14.439  0.0584  2.4496  0.1333
  118MPD2     N 1808   0.232   3.780  14.111 -0.8199 -0.1814 -0.3811
  118MPD2    H5 1809   0.305   3.849  14.127  0.6122 -1.2277 -2.4913
  118MPD2    N1 1810   4.710   3.411  14.318  0.7766  0.2513  0.7340
  118MPD2    H7 1811   4.709   3.338  14.389 -1.2863 -1.6584 -1.2204
  119MPD2     C 1812   2.918   0.120  13.680  0.6324  0.2427  0.1546
  119MPD2    C1 1813   2.815   0.168  13.756 -0.3873 -0.2335  1.4329
  119MPD2    C2 1814   2.694   0.185  13.683 -0.5949 -0.2437 -0.2222
  119MPD2    C3 1815   2.682   0.178  13.539  0.6686  0.3234 -0.2062
  119MPD2    C4 1816   2.799   0.148  13.474  0.1398  0.2443 -0.5790
  119MPD2    C5 1817   2.911   0.102  13.543  0.6571 -0.4028 -0.2215
  119MPD2     H 1818   2.605   0.201  13.743  0.2890  1.2444  0.6963
  119MPD2    H1 1819   2.788   0.142  13.367  0.3804  0.9883 -0.6462
  119MPD2    H2 1820   3.012   0.101  13.730  0.1374  1.9984  1.7480
  119MPD2    H3 1821   2.988   0.042  13.495 -0.2255 -1.4009 -0.3980
  119MPD2     N 1822   2.561   0.190  13.468  0.0531  0.1742 -0.0530
  119MPD2    H5 1823   2.566   0.198  13.367  1.5460  1.5504  0.1275
  119MPD2    N1 1824   2.818   0.163  13.899 -0.1850  0.6444  0.7793
  119MPD2    H7 1825   2.885   0.105  13.949  2.8870  3.5886  0.0883
  120TCq2    C1 1826   2.436   0.171  13.532 -0.8098  0.6243 -0.3090
  120TCq2    O2 1827   2.407   0.125  13.644  0.3048 -0.0097  0.4184
  120TCq2    C2 1828   2.324   0.179  13.443  0.1196 -0.2357  0.5113
  120TCq2    C3 1829   2.334   0.114  13.332  0.1854  0.1077 -0.2946
  120TCq2    C4 1830   2.226   0.050  13.272  0.3048 -0.2244 -0.2585
  120TCq2    C5 1831   2.113   0.050  13.340 -0.2924  0.6428  0.3832
  120TCq2    C6 1832   2.101   0.124  13.454 -0.3791  0.1216 -0.9856
  120TCq2    C7 1833   2.207   0.186  13.511  0.8265 -0.5549 -0.1148
  120TCq2    C8 1834   1.998   0.072  13.545 -0.3438 -0.3633 -0.0512
  120TCq2    O4 1835   1.881   0.078  13.506  0.2186 -0.9626  0.4456
  120TCq2    C9 1836   2.242   4.721  13.144 -0.5442 -0.2680 -0.4670
  120TCq2    O5 1837   2.364   4.695  13.114  0.3750  0.2263  0.6230
  120TCq2    O6 1838   2.142   4.692  13.075  0.1666 -1.1279 -0.1725
  120TCq2    H2 1839   2.431   0.108  13.283  0.0260 -0.6488 -0.5261
  120TCq2    H3 1840   2.025   0.008  13.292 -0.2421 -0.1028  0.9460
  120TCq2    H4 1841   2.187   0.247  13.599 -0.3753 -2.3026  0.8166
  121TMC2    C1 1842   4.332   2.235  13.752  0.4222  0.5379 -0.3319
  121TMC2    C2 1843   4.298   2.223  13.882  0.1250 -0.4873 -0.4481
  121TMC2    C3 1844   4.173   2.186  13.922 -0.0936 -0.2569  0.0120
  121TMC2    C4 1845   4.243   2.210  13.658  0.1005 -0.4876  0.8496
  121TMC2    C5 1846   4.117   2.164  13.700 -0.0040  0.6267 -0.1590
  121TMC2    C6 1847   4.081   2.145  13.827  0.0470 -1.2998 -0.1285
  121TMC2     C 1848   4.459   2.300  13.731 -0.7405  0.0971 -0.5153
  121TMC2     O 1849   4.529   2.337  13.824  0.0521 -0.0869 -0.3975
  121TMC2     H 1850   4.366   2.256  13.960 -1.2637 -1.0893  1.0170
  121TMC2    H1 1851   4.282   2.202  13.557 -1.9488 -2.6131  0.2334
  121TMC2    H2 1852   3.983   2.114  13.862 -1.4828  2.3719 -1.1275
  121TMC2    C7 1853   4.035   2.102  13.595 -0.2814 -0.1826  0.0673
  121TMC2    C8 1854   4.156   2.155  14.060  0.2717  0.5692  0.4739
  121TMC2    O1 1855   4.101   2.061  13.500 -0.1810 -0.2701  0.4597
  121TMC2    O2 1856   4.048   2.138  14.104  0.2705  0.1910 -0.1141
  121TMC2    O5 1857   4.265   2.082  14.090 -0.1273  0.0504  0.1224
  121TMC2    H5 1858   4.331   2.094  14.017 -0.5824  1.6146 -0.0303
  122MPD2     C 1859   4.626   2.524  13.625 -0.0448 -0.3614  0.2917
  122MPD2    C1 1860   4.571   2.419  13.548 -0.1821 -0.1860  0.2283
  122MPD2    C2 1861   4.617   2.408  13.423 -0.3284  0.0742  0.4572
  122MPD2    C3 1862   4.690   2.510  13.363 -0.0586  1.1795  0.6564
  122MPD2    C4 1863   0.004   2.625  13.440 -0.0783  0.1022 -0.1018
  122MPD2    C5 1864   4.701   2.624  13.570  0.5606 -0.4548 -0.5659
  122MPD2     H 1865   4.578   2.328  13.360 -0.4361  0.3661  0.1516
  122MPD2    H1 1866   0.063   2.699  13.386  2.7452 -0.9199  1.5956
  122MPD2    H2 1867   4.602   2.531  13.730 -1.1341 -1.8170  0.1381
  122MPD2    H3 1868   0.022   2.698  13.634  0.7192 -0.3726 -0.7762
  122MPD2     N 1869   4.720   2.509  13.223 -0.8027 -0.1514 -0.6517
  122MPD2    H5 1870   0.040   2.592  13.186 -0.7185 -0.1207 -0.4802
  122MPD2    N1 1871   4.487   2.325  13.597 -0.1440  0.1584 -0.6648
  122MPD2    H7 1872   4.461   2.259  13.524  0.9477 -0.7668 -0.2306
  123MPD2     C 1873   3.831   4.144   9.067  0.2163  0.3481  0.1266
  123MPD2    C1 1874   3.753   4.200   9.158  0.1547  0.7401  0.5485
  123MPD2    C2 1875   3.754   4.339   9.173 -0.2130  0.9588  0.6434
  123MPD2    C3 1876   3.849   4.415   9.098 -0.0188  0.3702  0.3082
  123MPD2    C4 1877   3.933   4.354   9.014  0.8411  0.0734  0.5370
  123MPD2    C5 1878   3.910   4.218   8.988  0.3911 -0.3067 -0.1746
  123MPD2     H 1879   3.689   4.386   9.246  0.1674  0.5517  1.2377
  123MPD2    H1 1880   4.007   4.406   8.955 -0.1354 -1.1369 -1.7509
  123MPD2    H2 1881   3.833   4.036   9.063 -0.0491  0.3449  0.1203
  123MPD2    H3 1882   3.964   4.173   8.906  0.7328  0.9598 -0.6481
  123MPD2     N 1883   3.856   4.546   9.138 -0.4660 -0.0921 -1.4022
  123MPD2    H5 1884   3.799   4.584   9.213  0.8294 -1.0963  0.1049
  123MPD2    N1 1885   3.675   4.121   9.236  0.5144 -0.0006 -0.6321
  123MPD2    H7 1886   3.686   4.021   9.224  0.1868 -0.6007  3.9904
  124TCq2    C1 1887   3.943   4.641   9.082  0.3055  0.4195 -0.4599
  124TCq2    O2 1888   3.994   4.641   8.968  0.0700  0.7047 -0.2856
  124TCq2    C2 1889   3.943   0.039   9.157  0.1633 -0.2890 -0.2474
  124TCq2    C3 1890   3.943   0.153   9.089  0.4192 -0.0494  0.3771
  124TCq2    C4 1891   3.902   0.271   9.151  0.2928  0.0439  0.0304
  124TCq2    C5 1892   3.856   0.272   9.280 -0.8988  0.7553 -0.5600
  124TCq2    C6 1893   3.867   0.155   9.351  0.7829  0.2002  0.3001
  124TCq2    C7 1894   3.898   0.037   9.286 -0.3056 -0.5938  0.4687
  124TCq2    C8 1895   3.802   0.134   9.479  0.1997  0.3224 -0.6456
  124TCq2    O4 1896   3.827   0.031   9.534  0.2372  0.1435  0.2925
  124TCq2    C9 1897   3.905   0.394   9.087  0.0365 -1.4473  0.2851
  124TCq2    O5 1898   3.895   0.394   8.964  0.1532  0.5112 -0.4296
  124TCq2    O6 1899   3.894   0.497   9.156 -0.1456  0.2008 -0.6298
  124TCq2    H2 1900   3.987   0.151   8.989 -1.0852  0.6818 -0.3040
  124TCq2    H3 1901   3.835   0.366   9.329 -2.1082  0.6388 -0.8500
  124TCq2    H4 1902   3.923   4.674   9.344 -1.8755 -1.0728  0.4218
  125TMC2    C1 1903   4.084   2.059   9.295  0.3281  0.5403 -0.0326
  125TMC2    C2 1904   4.105   1.925   9.325  0.4087 -0.2672 -0.2155
  125TMC2    C3 1905   4.218   1.855   9.293 -0.3228 -0.2741 -0.0279
  125TMC2    C4 1906   4.179   2.123   9.219 -0.0991  0.3402 -0.5178
  125TMC2    C5 1907   4.299   2.056   9.196 -0.1151  0.2206  0.0482
  125TMC2    C6 1908   4.314   1.923   9.221 -0.3248  0.2163 -1.1205
  125TMC2     C 1909   3.972   2.138   9.344 -0.9362 -0.1418 -0.2259
  125TMC2     O 1910   3.968   2.251   9.306 -0.0313 -0.2025 -0.1699
  125TMC2     H 1911   4.021   1.873   9.371 -0.3774  0.0788 -1.2677
  125TMC2    H1 1912   4.156   2.221   9.179  0.8706  1.2316  1.1076
  125TMC2    H2 1913   4.391   1.861   9.178  0.4568  0.9750 -0.8261
  125TMC2    C7 1914   4.386   2.124   9.099 -0.3253  0.0564 -0.5547
  125TMC2    C8 1915   4.244   1.720   9.337 -0.1935  0.4688 -0.4389
  125TMC2    O1 1916   4.337   2.193   9.012  0.3424  0.0405  0.2092
  125TMC2    O2 1917   4.305   1.635   9.274 -0.1328 -0.0285  0.4240
  125TMC2    O5 1918   4.201   1.713   9.462  0.1046 -0.4887 -0.0525
  125TMC2    H5 1919   4.165   1.797   9.498 -0.2369  0.5149 -2.7166
  126MPD1     C 1920   3.596   2.213   9.675  0.3944 -0.1707  0.1767
  126MPD1    C1 1921   3.615   2.076   9.668  0.0215  0.1425 -0.0573
  126MPD1    C2 1922   3.699   2.024   9.571 -0.5823  0.1480 -0.0009
  126MPD1    C3 1923   3.776   2.113   9.495 -0.6456 -0.2603 -0.5281
  126MPD1    C4 1924   3.754   2.246   9.496  1.5053 -0.1741  0.7074
  126MPD1    C5 1925   3.668   2.292   9.594 -1.1437  0.7530  0.5591
  126MPD1     H 1926   3.723   1.919   9.581 -0.1000  0.3813  1.2441
  126MPD1    H1 1927   3.796   2.327   9.438 -0.3469  0.1871 -0.1172
  126MPD1    H2 1928   3.531   2.268   9.742 -0.3785 -0.4254 -0.3733
  126MPD1    H3 1929   3.662   2.400   9.598 -0.5645  0.8118 -0.1274
  126MPD1     N 1930   3.885   2.056   9.423  0.1798  0.4030 -0.0555
  126MPD1    H5 1931   3.905   1.957   9.438  1.5006  0.1841 -3.1239
  126MPD1    N1 1932   3.562   1.991   9.761  0.2837 -0.1654  0.2378
  126MPD1    H6 1933   3.623   1.936   9.820  0.4591 -1.1744 -0.8953
  126MPD1    H7 1934   3.498   2.044   9.821 -2.1339 -0.1811 -2.3413
  127MPD2     C 1935   0.150   0.574   9.723 -0.0840 -0.9263 -1.0524
  127MPD2    C1 1936   0.170   0.568   9.861 -0.1890  0.4221  0.3794
  127MPD2    C2 1937   0.250   0.665   9.913 -0.5506  0.2103 -0.0428
  127MPD2    C3 1938   0.318   0.758   9.832  0.0036  0.0816  0.4082
  127MPD2    C4 1939   0.309   0.757   9.697  0.3320 -0.1108  0.1742
  127MPD2    C5 1940   0.218   0.661   9.647  0.2930  0.1973  0.1917
  127MPD2     H 1941   0.251   0.683  10.020  3.1669  0.2206 -0.0949
  127MPD2    H1 1942   0.365   0.812   9.623  2.2023  1.3712  2.6713
  127MPD2    H2 1943   0.089   0.500   9.675 -0.5041 -0.7047 -0.8605
  127MPD2    H3 1944   0.217   0.652   9.539  3.4496 -1.6001  0.3115
  127MPD2     N 1945   0.403   0.850   9.896  0.5823 -0.0466 -0.4231
  127MPD2    H5 1946   0.418   0.845   9.997  1.9072 -0.2703 -0.6315
  127MPD2    N1 1947   0.103   0.468   9.939 -0.2355  0.3570 -0.1914
  127MPD2    H7 1948   0.038   0.403   9.896  0.4102 -0.4178 -0.0102
  128TCq2    C1 1949   0.128   0.441  10.073 -0.2555 -0.3878  0.4746
  128TCq2    O2 1950   0.211   0.497  10.144 -0.1394 -0.1265  0.4926
  128TCq2    C2 1951   0.068   0.311  10.118 -0.4943  0.7358  0.0630
  128TCq2    C3 1952   0.006   0.225  10.027 -0.3943  0.2891  0.2050
  128TCq2    C4 1953   4.661   0.117  10.072  0.1552 -0.4502  0.2989
  128TCq2    C5 1954   4.660   0.085  10.204 -0.1210  0.5234  0.3668
  128TCq2    C6 1955   4.716   0.172  10.297 -0.4383  0.1656  0.0049
  128TCq2    C7 1956   0.061   0.284  10.253  0.0032  0.0629  0.8123
  128TCq2    C8 1957   0.002   0.138  10.437  0.1803 -0.4804  0.3493
  128TCq2    O4 1958   0.095   0.188  10.499  0.7155  0.0519  0.4778
  128TCq2    C9 1959   4.599   0.033   9.977  0.0454 -0.1368 -0.1202
  128TCq2    O5 1960   4.508   4.684  10.027 -1.2419  0.0466 -0.0515
  128TCq2    O6 1961   4.644   0.029   9.861  1.1519 -0.0903  0.0166
  128TCq2    H2 1962   0.012   0.247   9.921  0.7401 -0.0707  0.1970
  128TCq2    H3 1963   4.623   4.712  10.233  0.7505  0.2749  0.6223
  128TCq2    H4 1964   0.083   0.366  10.320 -1.3571  0.0237  1.3025
  129MPD2     C 1965   2.776   1.689   1.539  0.2420  0.1358  0.1165
  129MPD2    C1 1966   2.853   1.588   1.602  0.0727  0.0261  0.5828
  129MPD2    C2 1967   2.991   1.594   1.580  0.3227 -0.2099 -0.0826
  129MPD2    C3 1968   3.054   1.680   1.497 -0.4933 -0.0411 -0.8786
  129MPD2    C4 1969   2.974   1.772   1.438 -0.7954 -0.4949 -0.1487
  129MPD2    C5 1970   2.840   1.783   1.464 -0.4028 -0.3471 -0.2815
  129MPD2     H 1971   3.050   1.514   1.623  0.3598 -0.1866 -0.0907
  129MPD2    H1 1972   3.009   1.849   1.371  1.1608 -0.4219  0.9873
  129MPD2    H2 1973   2.667   1.689   1.537  0.2172 -2.5025  0.9897
  129MPD2    H3 1974   2.776   1.853   1.412  2.1461  0.9940 -1.6032
  129MPD2     N 1975   3.196   1.673   1.480  0.2596 -1.1196  0.5692
  129MPD2    H5 1976   3.243   1.601   1.534 -0.6884 -1.6861  0.6271
  129MPD2    N1 1977   2.803   1.472   1.666  0.4397  0.0952 -0.0696
  129MPD2    H7 1978   2.876   1.410   1.699 -0.3611  0.5445  2.5307
  130TCq2    C1 1979   2.674   1.441   1.684  0.2476  0.8931  0.6684
  130TCq2    O2 1980   2.582   1.500   1.637  0.4306  0.0763 -0.5319
  130TCq2    C2 1981   2.646   1.325   1.767  0.4150  0.1997 -0.3079
  130TCq2    C3 1982   2.743   1.258   1.842 -0.0642 -0.0216 -0.0936
  130TCq2    C4 1983   2.716   1.137   1.898 -0.0311 -0.0443 -0.5914
  130TCq2    C5 1984   2.589   1.082   1.886 -0.8705 -0.3236 -0.1693
  130TCq2    C6 1985   2.494   1.158   1.824 -0.2617  0.5770  0.1682
  130TCq2    C7 1986   2.519   1.281   1.769  0.0585  0.5463  0.5363
  130TCq2    C8 1987   2.364   1.118   1.810 -0.0702  0.2943 -0.6980
  130TCq2    O4 1988   2.277   1.202   1.784 -0.0069  0.3238  0.6523
  130TCq2    C9 1989   2.819   1.063   1.971  0.3458  0.0477  1.2374
  130TCq2    O5 1990   2.788   0.962   2.047 -0.1375  0.5365 -0.6747
  130TCq2    O6 1991   2.931   1.119   1.973  0.3689  0.0234  0.5767
  130TCq2    H2 1992   2.843   1.298   1.854 -0.6087  1.5660 -0.7965
  130TCq2    H3 1993   2.570   0.981   1.921  0.8254 -0.6109 -0.1048
  130TCq2    H4 1994   2.454   1.312   1.688  1.4135  0.2816 -0.6603
  131MPD2     C 1995   2.698   4.066   9.369 -0.0445 -0.3809 -0.3052
  131MPD2    C1 1996   2.776   4.181   9.347  0.0928 -0.7149 -0.3316
  131MPD2    C2 1997   2.910   4.184   9.387  0.0456  0.1006  0.4076
  131MPD2    C3 1998   2.968   4.072   9.439 -0.0556  0.9960 -0.3833
  131MPD2    C4 1999   2.886   3.969   9.478  0.1552  0.7540  0.4622
  131MPD2    C5 2000   2.758   3.957   9.432  0.1338  0.6176  0.2700
  131MPD2     H 2001   2.966   4.273   9.360 -0.3395  0.5169  0.9650
  131MPD2    H1 2002   2.931   3.874   9.508  1.5547  1.1916 -0.2539
  131MPD2    H2 2003   2.598   4.049   9.329 -1.1942  0.4174  2.1801
  131MPD2    H3 2004   2.702   3.866   9.449  3.0374 -1.3267 -0.5424
  131MPD2     N 2005   3.106   4.077   9.473 -0.5607 -0.1009  0.4903
  131MPD2    H5 2006   3.156   4.151   9.425 -1.8846  0.1370 -0.5046
  131MPD2    N1 2007   2.711   4.292   9.292  0.1529 -0.6591 -0.0488
  131MPD2    H7 2008   2.618   4.271   9.256  0.3809  1.3508 -1.8050
  132TCq2    C1 2009   2.478   0.086   9.232  0.4247  0.4480 -0.7181
  132TCq2    O2 2010   2.372   0.117   9.180  0.4106 -0.2277  0.5190
  132TCq2    C2 2011   2.542   4.691   9.177  0.0110  1.2143 -0.0524
  132TCq2    C3 2012   2.482   4.638   9.064 -0.5580  0.2535  0.6038
  132TCq2    C4 2013   2.519   4.517   9.018 -0.2079  0.7498  0.1382
  132TCq2    C5 2014   2.618   4.448   9.085 -0.1531  0.0898 -0.0360
  132TCq2    C6 2015   2.674   4.500   9.201 -0.2011  0.7605 -0.5975
  132TCq2    C7 2016   2.631   4.618   9.252 -0.6999 -0.3682 -0.6879
  132TCq2    C8 2017   2.761   4.422   9.286  0.7343 -0.0648 -0.6104
  132TCq2    O4 2018   2.861   4.469   9.334  0.6488 -0.7862  0.4168
  132TCq2    C9 2019   2.473   4.466   8.891  0.1407  0.1324  0.4597
  132TCq2    O5 2020   2.487   4.342   8.869 -0.0104 -0.0113  0.6132
  132TCq2    O6 2021   2.381   4.533   8.840  0.2935 -0.1793 -0.2302
  132TCq2    H2 2022   2.395   4.682   9.015  1.2901  0.4130 -2.5197
  132TCq2    H3 2023   2.665   4.362   9.039 -0.1205  0.2201 -0.2475
  132TCq2    H4 2024   2.678   4.649   9.345  1.3346  1.7266 -2.4180
  133MPD2     C 2025   1.910   1.794   9.635 -0.0884 -0.4125  0.5968
  133MPD2    C1 2026   1.932   1.657   9.623  0.5513 -0.6269  0.7049
  133MPD2    C2 2027   1.811   1.574   9.618  0.2154 -0.4934 -0.1053
  133MPD2    C3 2028   1.687   1.630   9.618 -0.2074  0.1428 -0.5606
  133MPD2    C4 2029   1.670   1.771   9.626  0.1945 -0.4945  0.2634
  133MPD2    C5 2030   1.782   1.849   9.642 -0.3071  0.2687 -0.7854
  133MPD2     H 2031   1.820   1.466   9.618 -2.0073 -0.6889 -2.3102
  133MPD2    H1 2032   1.573   1.820   9.630  0.7218  0.3697  2.4608
  133MPD2    H2 2033   1.994   1.862   9.629 -1.3590  1.0678 -0.2321
  133MPD2    H3 2034   1.771   1.956   9.656  0.7383  0.6243 -2.6818
  133MPD2     N 2035   1.564   1.557   9.613 -0.3150  0.1431 -0.0680
  133MPD2    H5 2036   1.482   1.616   9.610  0.4852  1.2413 -0.3055
  133MPD2    N1 2037   2.067   1.612   9.618 -0.3271 -0.9003 -0.7968
  133MPD2    H7 2038   2.149   1.672   9.622 -2.5528  2.0796  0.0261
  134TCq2    C1 2039   2.096   1.477   9.596 -0.4559  0.1293 -0.3823
  134TCq2    O2 2040   2.025   1.385   9.558  0.2254 -0.0444 -0.2898
  134TCq2    C2 2041   2.226   1.442   9.638 -0.6841  0.4645  0.1811
  134TCq2    C3 2042   2.284   1.322   9.592 -0.0590 -0.4550 -0.3839
  134TCq2    C4 2043   2.395   1.278   9.663  0.5274  0.2685 -0.6698
  134TCq2    C5 2044   2.465   1.349   9.757  0.0253 -0.1243 -0.6350
  134TCq2    C6 2045   2.408   1.466   9.796 -0.0899  0.3953 -0.0153
  134TCq2    C7 2046   2.285   1.512   9.742  0.0517  0.0141 -0.1411
  134TCq2    C8 2047   2.479   1.548   9.888  0.8411 -0.1642 -0.1036
  134TCq2    O4 2048   2.561   1.491   9.958  0.1126 -0.0754 -0.1400
  134TCq2    C9 2049   2.461   1.161   9.605 -0.5031 -0.3812 -0.3125
  134TCq2    O5 2050   2.391   1.108   9.515 -0.2652  0.1247 -0.3097
  134TCq2    O6 2051   2.549   1.104   9.668 -0.0357 -0.0380  0.2325
  134TCq2    H2 2052   2.232   1.270   9.513  1.6696 -0.4190 -1.5470
  134TCq2    H3 2053   2.556   1.317   9.806 -0.6262 -0.7161  0.1791
  134TCq2    H4 2054   2.235   1.594   9.792  0.0270 -0.0737 -0.0222
  135MPD2     C 2055   4.160   2.556   9.405  0.3863  0.3461  0.3516
  135MPD2    C1 2056   4.225   2.451   9.460  0.5655  0.1077  0.8460
  135MPD2    C2 2057   4.351   2.409   9.413  0.2254 -0.1097  0.2056
  135MPD2    C3 2058   4.415   2.481   9.311 -0.2224 -0.2653 -0.1202
  135MPD2    C4 2059   4.352   2.600   9.265  1.2061  0.2014  0.3145
  135MPD2    C5 2060   4.219   2.631   9.304 -0.0722  0.5397  0.0508
  135MPD2     H 2061   4.397   2.327   9.467  0.1934  0.0302  0.4475
  135MPD2    H1 2062   4.396   2.655   9.183 -1.0012  1.0740 -0.2891
  135MPD2    H2 2063   4.060   2.582   9.436 -0.0963 -0.5023 -0.5170
  135MPD2    H3 2064   4.163   2.712   9.260 -2.2447  0.2536  2.3043
  135MPD2     N 2065   4.551   2.461   9.273  0.4591  0.1469  0.2296
  135MPD2    H5 2066   4.586   2.536   9.214 -0.8369  0.0794 -0.6248
  135MPD2    N1 2067   4.158   2.366   9.550  0.8435 -0.1888 -0.6922
  135MPD2    H7 2068   4.206   2.280   9.576  0.2098 -0.0696  0.8973
  136TCq2    C1 2069   4.043   2.388   9.616  0.4856  0.4711  0.6551
  136TCq2    O2 2070   3.971   2.486   9.632 -0.1998  0.2567 -0.3863
  136TCq2    C2 2071   3.990   2.266   9.683  0.6161 -1.0736  0.3673
  136TCq2    C3 2072   4.056   2.146   9.669  0.5812 -0.0045 -0.0338
  136TCq2    C4 2073   4.020   2.040   9.751  0.4356  0.4572 -0.5547
  136TCq2    C5 2074   3.929   2.053   9.853  0.5089  0.0733 -0.4118
  136TCq2    C6 2075   3.889   2.185   9.884  0.1589 -0.0145 -0.3515
  136TCq2    C7 2076   3.906   2.288   9.794 -0.1491  0.5750 -0.1018
  136TCq2    C8 2077   3.788   2.207   9.994  0.9388 -0.3168 -0.0148
  136TCq2    O4 2078   3.730   2.312   9.995 -0.3089  0.7817 -0.5490
  136TCq2    C9 2079   4.069   1.908   9.711  0.5988  0.0516  0.5705
  136TCq2    O5 2080   4.136   1.902   9.599 -0.5071  0.2709 -0.1623
  136TCq2    O6 2081   4.010   1.817   9.773  0.6193 -0.5029 -0.2556
  136TCq2    H2 2082   4.127   2.132   9.588  0.7468 -0.2994  0.1633
  136TCq2    H3 2083   3.889   1.966   9.904 -0.8746  0.2689 -1.1489
  136TCq2    H4 2084   3.857   2.385   9.794  1.0185  1.1696  0.8247
  137MPD2     C 2085   4.248   0.735  10.178  0.1671 -0.4258 -0.8813
  137MPD2    C1 2086   4.137   0.703  10.255 -0.0964 -0.4018 -0.8054
  137MPD2    C2 2087   4.120   0.765  10.377 -0.1752  0.5306  0.7855
  137MPD2    C3 2088   4.181   0.878  10.411 -0.5751 -0.4821 -0.5570
  137MPD2    C4 2089   4.293   0.912  10.335 -0.0682 -0.6262  0.2339
  137MPD2    C5 2090   4.320   0.841  10.211  0.1206  0.8316  0.2890
  137MPD2     H 2091   4.047   0.726  10.448  0.7036 -0.0991  1.3382
  137MPD2    H1 2092   4.358   0.997  10.356  2.4360 -1.5861 -3.6447
  137MPD2    H2 2093   4.272   0.696  10.080  4.0117 -0.2395 -0.0213
  137MPD2    H3 2094   4.398   0.871  10.142 -0.5333 -1.0945 -1.3049
  137MPD2     N 2095   4.155   0.931  10.540  0.0322 -0.5800 -0.4195
  137MPD2    H5 2096   4.078   0.889  10.591 -0.2556  2.0233  1.2714
  137MPD2    N1 2097   4.071   0.577  10.221 -0.0376 -0.4722  0.0123
  137MPD2    H7 2098   4.108   0.536  10.136  1.3497 -0.1032  0.4562
  138TCq2    C1 2099   3.949   0.527  10.265  0.4794 -0.2976 -0.0357
  138TCq2    O2 2100   3.885   0.571  10.357  0.8600 -0.0441 -0.0363
  138TCq2    C2 2101   3.936   0.389  10.221  0.0216  0.5353 -0.0822
  138TCq2    C3 2102   4.047   0.311  10.200  0.1424  0.7740 -0.0304
  138TCq2    C4 2103   4.032   0.175  10.215  0.9513  0.3698 -0.0102
  138TCq2    C5 2104   3.907   0.118  10.239 -0.1258  0.3040 -0.1329
  138TCq2    C6 2105   3.802   0.201  10.245  0.1329 -0.6770  0.2060
  138TCq2    C7 2106   3.813   0.336  10.248 -0.3682  0.2420 -0.8164
  138TCq2    C8 2107   3.682   0.127  10.256 -0.6971 -0.0037 -0.1953
  138TCq2    O4 2108   3.676   0.017  10.306 -0.6634 -0.0263  0.3711
  138TCq2    C9 2109   4.146   0.089  10.205 -0.7451 -0.2427  0.4965
  138TCq2    O5 2110   4.239   0.118  10.122  0.0323  0.0449 -0.4427
  138TCq2    O6 2111   4.148   4.710  10.273 -0.1928 -0.2565  0.4955
  138TCq2    H2 2112   4.144   0.350  10.173  0.2565  3.0817  3.7287
  138TCq2    H3 2113   3.908   0.011  10.254 -1.2160  0.4587  1.0491
  138TCq2    H4 2114   3.733   0.402  10.278 -0.3902  0.3348 -1.0763
  139TMC2    C1 2115   4.029   4.359  13.173  0.1939 -0.6238  1.2531
  139TMC2    C2 2116   3.982   4.414  13.054  0.2760  0.0468  0.2348
  139TMC2    C3 2117   3.936   4.545  13.053 -0.0056  0.0242  0.1021
  139TMC2    C4 2118   4.025   4.433  13.292  0.3937 -0.7105 -0.6593
  139TMC2    C5 2119   3.986   4.562  13.283 -0.1163 -0.4114 -0.6651
  139TMC2    C6 2120   3.932   4.622  13.171  0.0648 -0.0386  0.4627
  139TMC2     C 2121   4.054   4.219  13.186  0.0628 -0.1628  0.0608
  139TMC2     O 2122   4.004   4.137  13.112  0.3249 -0.3859  0.6471
  139TMC2     H 2123   3.965   4.344  12.974  3.2934 -0.7246  0.2715
  139TMC2    H1 2124   4.038   4.380  13.385 -3.0557  0.4126  0.4935
  139TMC2    H2 2125   3.890   4.722  13.172  4.0784  1.6253  0.6320
  139TMC2    C7 2126   3.961   4.627  13.409 -0.2333 -0.1876  0.0263
  139TMC2    C8 2127   3.844   4.588  12.949  0.2827  0.0135 -0.2271
  139TMC2    O1 2128   3.897   0.004  13.398 -0.2013 -0.6624  0.2007
  139TMC2    O2 2129   3.731   4.633  12.976 -0.4511 -0.1972  0.2512
  139TMC2    O5 2130   3.876   4.516  12.842  0.4148 -0.2920  0.0827
  139TMC2    H5 2131   3.972   4.497  12.838  0.7973  2.0849 -2.1900
  140MPD2     C 2132   4.306   4.070  13.422 -0.4048  0.7704 -0.1255
  140MPD2    C1 2133   4.197   4.073  13.338 -0.3163  0.2336  0.2081
  140MPD2    C2 2134   4.138   3.960  13.294  0.2606 -1.0647 -0.1491
  140MPD2    C3 2135   4.189   3.838  13.337  0.1336 -0.2294  0.0381
  140MPD2    C4 2136   4.296   3.830  13.425  0.1694  0.5201  0.4368
  140MPD2    C5 2137   4.348   3.950  13.464  0.5268 -0.5547  0.0546
  140MPD2     H 2138   4.045   3.972  13.239  0.4565  0.2764 -0.1956
  140MPD2    H1 2139   4.349   3.742  13.460  0.7077  0.2716 -0.9678
  140MPD2    H2 2140   4.358   4.162  13.445 -0.9025  0.7100  1.2223
  140MPD2    H3 2141   4.423   3.960  13.542  1.7099 -0.0362 -1.1431
  140MPD2     N 2142   4.107   3.730  13.302 -0.3468  0.5270 -0.3423
  140MPD2    H5 2143   4.042   3.750  13.227 -3.0731 -2.0359  1.3723
  140MPD2    N1 2144   4.152   4.206  13.286  0.2221  0.1057  0.0440
  140MPD2    H7 2145   4.209   4.284  13.317  0.7249 -0.4071  0.4107
  141TCq2    C1 2146   0.267   1.005  14.105  0.7733  0.2705 -0.3043
  141TCq2    O2 2147   0.315   1.097  14.045  0.0418 -0.7042  0.2267
  141TCq2    C2 2148   0.163   1.032  14.203  0.3149 -1.3157  0.2358
  141TCq2    C3 2149   0.067   0.936  14.216 -0.3870 -0.3890 -0.2141
  141TCq2    C4 2150   4.680   0.971  14.282 -0.5741  0.1456  0.2328
  141TCq2    C5 2151   4.660   1.093  14.335  0.1683  0.1911  0.4364
  141TCq2    C6 2152   0.043   1.180  14.337  0.8823  0.8528  0.2362
  141TCq2    C7 2153   0.156   1.151  14.265 -0.6928 -0.4540  0.4099
  141TCq2    C8 2154   0.028   1.312  14.401  0.4880 -0.0892  0.2844
  141TCq2    O4 2155   4.642   1.362  14.418  0.4446  0.4639 -0.4356
  141TCq2    C9 2156   4.577   0.869  14.312 -0.6376 -0.1152  0.5066
  141TCq2    O5 2157   4.575   0.755  14.254  0.5232  0.0049  0.8619
  141TCq2    O6 2158   4.474   0.911  14.368 -0.6132  0.2253 -0.0943
  141TCq2    H2 2159   0.078   0.837  14.173  1.7889 -0.1457 -0.2289
  141TCq2    H3 2160   4.577   1.112  14.402  0.4986  0.2462  0.8326
  141TCq2    H4 2161   0.235   1.225  14.264 -1.2954  0.2215  2.7157
  142MPD2     C 2162   2.773   4.133  10.213  0.0352  0.4015 -0.8799
  142MPD2    C1 2163   2.836   4.153  10.094  0.0523 -0.5335  0.9817
  142MPD2    C2 2164   2.959   4.211  10.081  0.0790  0.4477 -0.2607
  142MPD2    C3 2165   3.024   4.243  10.200  0.2890 -0.1579  0.1171
  142MPD2    C4 2166   2.979   4.215  10.321 -0.3222  0.0617  0.0865
  142MPD2    C5 2167   2.850   4.166  10.324 -0.2074  0.0352  0.6373
  142MPD2     H 2168   2.998   4.234   9.982  1.1487  0.0993  0.0718
  142MPD2    H1 2169   3.021   4.232  10.420  0.5363  2.1506 -0.6317
  142MPD2    H2 2170   2.672   4.093  10.223  0.7091 -1.4457 -1.4077
  142MPD2    H3 2171   2.813   4.135  10.421 -1.2790 -1.8175 -0.3544
  142MPD2     N 2172   3.149   4.315  10.195 -0.0301  0.0996 -0.3463
  142MPD2    H5 2173   3.199   4.322  10.283  2.3996 -1.2702 -1.6485
  142MPD2    N1 2174   2.749   4.122   9.982 -0.0908 -0.5650 -0.2071
  142MPD2    H7 2175   2.657   4.083   9.998 -0.4577  0.1629 -0.5404
  143TCq2    C1 2176   3.211   4.366  10.087  0.0787  0.3112 -0.7374
  143TCq2    O2 2177   3.169   4.397   9.973  0.2264 -0.0201 -0.7098
  143TCq2    C2 2178   3.344   4.417  10.116 -0.1278 -0.5623  0.2240
  143TCq2    C3 2179   3.410   4.372  10.225  0.2101 -0.4380 -0.0115
  143TCq2    C4 2180   3.541   4.425  10.243  0.8994  0.7540  0.1992
  143TCq2    C5 2181   3.597   4.510  10.151  0.3540  0.4129  0.0237
  143TCq2    C6 2182   3.531   4.526  10.035 -0.3409  0.7882  0.0694
  143TCq2    C7 2183   3.399   4.486  10.014 -0.1379 -0.3948 -0.7132
  143TCq2    C8 2184   3.581   4.624   9.934  1.1650 -0.6294  0.4534
  143TCq2    O4 2185   3.701   4.617   9.912  0.3246 -0.6018  0.2990
  143TCq2    C9 2186   3.612   4.401  10.364 -0.1855  0.8716  0.7784
  143TCq2    O5 2187   3.719   4.464  10.389 -0.0003 -0.3478  0.1966
  143TCq2    O6 2188   3.549   4.331  10.445 -0.0873 -0.6785  0.3591
  143TCq2    H2 2189   3.363   4.309  10.300  1.4144 -1.2519  0.0658
  143TCq2    H3 2190   3.691   4.557  10.175 -0.1885  1.2765  0.4188
  143TCq2    H4 2191   3.357   4.493   9.915  0.9407  1.0277 -1.0786
  144MPD2     C 2192   0.074   3.071   0.784  0.9898 -0.4240  0.7214
  144MPD2    C1 2193   0.161   3.059   0.682  0.3735 -0.6797  0.2650
  144MPD2    C2 2194   0.297   3.035   0.706  1.0953  0.4527 -0.5681
  144MPD2    C3 2195   0.343   3.042   0.834  0.0276 -0.2153 -0.5312
  144MPD2    C4 2196   0.262   3.066   0.937 -0.3080  0.0789 -0.0608
  144MPD2    C5 2197   0.122   3.080   0.914 -0.5209 -0.7911  1.1187
  144MPD2     H 2198   0.362   3.013   0.622  0.3263  2.1840 -1.6234
  144MPD2    H1 2199   0.292   3.060   1.042  1.0381 -0.9576 -0.5050
  144MPD2    H2 2200   4.696   3.098   0.765  1.2516 -1.0553 -1.5265
  144MPD2    H3 2201   0.057   3.101   0.999 -0.9054 -0.3308  0.7101
  144MPD2     N 2202   0.481   3.024   0.871  0.1561 -0.4612  1.0260
  144MPD2    H5 2203   0.507   3.033   0.968 -0.4115  0.5785  1.0733
  144MPD2    N1 2204   0.119   3.079   0.544  0.2230 -0.2542 -0.2838
  144MPD2    H7 2205   0.189   3.056   0.474  0.6573  0.0028  0.0660
  145TCq2    C1 2206   0.579   2.983   0.785  0.5073  0.0820  0.4653
  145TCq2    O2 2207   0.569   2.935   0.671 -0.9160  0.1057  0.4268
  145TCq2    C2 2208   0.709   2.966   0.850  0.0655 -0.3063  0.5117
  145TCq2    C3 2209   0.799   2.876   0.796  0.2432 -0.5055  0.7075
  145TCq2    C4 2210   0.913   2.845   0.858  0.7306  0.2875 -0.6556
  145TCq2    C5 2211   0.950   2.891   0.978 -0.8700 -0.3826  0.1126
  145TCq2    C6 2212   0.868   2.995   1.028 -0.0131  1.0861  1.4344
  145TCq2    C7 2213   0.747   3.026   0.969  0.6956  0.1733 -0.3870
  145TCq2    C8 2214   0.925   3.072   1.139 -0.5334  0.3485 -0.0515
  145TCq2    O4 2215   1.044   3.058   1.165  0.5056 -0.3157  0.1264
  145TCq2    C9 2216   1.002   2.753   0.787  0.6387 -0.5134 -0.0195
  145TCq2    O5 2217   1.109   2.711   0.841 -0.1841  0.6597  0.0470
  145TCq2    O6 2218   0.974   2.734   0.670 -0.1789 -0.0509  0.0202
  145TCq2    H2 2219   0.776   2.832   0.700  1.3365  0.6443 -0.0827
  145TCq2    H3 2220   1.043   2.867   1.028 -0.9651 -0.0253  0.4595
  145TCq2    H4 2221   0.681   3.097   1.018  0.2032  0.8173 -2.0091
  146TMC2    C1 2222   1.695   2.665  12.499  0.1514  0.2260  0.9216
  146TMC2    C2 2223   1.644   2.767  12.427  0.0208  0.5575  0.1469
  146TMC2    C3 2224   1.664   2.770  12.292  0.1380 -0.7911 -0.5410
  146TMC2    C4 2225   1.777   2.564  12.441  0.1437 -0.2094  0.3998
  146TMC2    C5 2226   1.794   2.576  12.302  0.0456 -0.3019  0.1494
  146TMC2    C6 2227   1.741   2.680  12.227 -0.5016  0.0732 -0.2338
  146TMC2     C 2228   1.702   2.685  12.643 -0.0375 -0.1519 -0.2266
  146TMC2     O 2229   1.634   2.770  12.698 -0.2964  1.0101 -0.0250
  146TMC2     H 2230   1.608   2.859  12.473 -0.3957  0.7366 -0.5367
  146TMC2    H1 2231   1.806   2.471  12.487 -0.7303  0.7464  2.8549
  146TMC2    H2 2232   1.737   2.683  12.118 -0.4609  0.2673 -0.2287
  146TMC2    C7 2233   1.867   2.474  12.231  0.5233  0.2663 -0.1774
  146TMC2    C8 2234   1.594   2.868  12.222 -0.2767  0.2274  0.0419
  146TMC2    O1 2235   1.842   2.463  12.115  0.4700 -0.3099  0.2703
  146TMC2    O2 2236   1.643   2.911  12.114 -0.1384  0.1409  0.7337
  146TMC2    O5 2237   1.464   2.849  12.256 -0.0488  0.5864  0.5791
  146TMC2    H5 2238   1.451   2.793  12.335  2.3896  0.8259  1.1543
  147MPD2     C 2239   2.236   2.115  12.184  0.2325 -0.1845  0.0032
  147MPD2    C1 2240   2.223   2.145  12.315  0.0089  0.5260 -0.3598
  147MPD2    C2 2241   2.127   2.238  12.360  0.0591 -0.7880  0.6521
  147MPD2    C3 2242   2.042   2.295  12.267 -0.6136  0.1777  0.5955
  147MPD2    C4 2243   2.058   2.263  12.134 -0.2365 -0.4386 -0.6851
  147MPD2    C5 2244   2.151   2.170  12.095  0.7799  0.1639  0.2988
  147MPD2     H 2245   2.133   2.262  12.466  0.0633  0.9731  0.2679
  147MPD2    H1 2246   2.001   2.304  12.051 -0.8695 -0.2805 -0.1663
  147MPD2    H2 2247   2.316   2.057  12.141  1.2648  0.2949  1.2841
  147MPD2    H3 2248   2.157   2.154  11.988  0.4804 -0.8376  0.4306
  147MPD2     N 2249   1.955   2.398  12.308 -0.4264 -0.0756  0.3394
  147MPD2    H5 2250   1.969   2.425  12.405 -1.4633 -1.3836  0.8387
  147MPD2    N1 2251   2.325   2.100  12.399 -0.2896 -0.4411 -0.0919
  147MPD2    H7 2252   2.398   2.047  12.353 -0.6013 -1.1236  0.2026
  148MPD2     C 2253   2.559   1.347  10.900 -0.3467 -0.8010  0.5703
  148MPD2    C1 2254   2.581   1.246  10.802 -0.4896 -0.1450  0.0095
  148MPD2    C2 2255   2.475   1.160  10.774 -0.0359 -0.8069 -0.5944
  148MPD2    C3 2256   2.350   1.175  10.833 -0.1085 -0.2549  0.7826
  148MPD2    C4 2257   2.337   1.279  10.923  0.8347 -0.4364  0.1816
  148MPD2    C5 2258   2.437   1.355  10.965  0.4952 -0.5457 -0.3676
  148MPD2     H 2259   2.512   1.079  10.712  0.8248 -0.6992 -0.2277
  148MPD2    H1 2260   2.241   1.301  10.968  1.2559  0.9810  0.3803
  148MPD2    H2 2261   2.630   1.421  10.934 -1.5289  0.3059  0.6368
  148MPD2    H3 2262   2.416   1.439  11.030 -0.9930  0.1575 -1.7342
  148MPD2     N 2263   2.243   1.099  10.797  0.3283 -0.0838  0.7697
  148MPD2    H5 2264   2.157   1.121  10.847 -1.0812 -2.6326 -0.5219
  148MPD2    N1 2265   2.700   1.218  10.725 -0.2543  0.2502 -0.0306
  148MPD2    H7 2266   2.690   1.155  10.647 -0.5090 -1.4500  1.3772
  149TCq2    C1 2267   2.825   1.277  10.742  0.3083 -0.5171 -0.3263
  149TCq2    O2 2268   2.872   1.348  10.829  0.4161  0.0326  0.4564
  149TCq2    C2 2269   2.924   1.216  10.650 -0.5926  0.1703  0.1454
  149TCq2    C3 2270   3.032   1.161  10.719  0.3019  0.5106 -0.0978
  149TCq2    C4 2271   3.093   1.047  10.688 -0.2517  1.0028  0.7839
  149TCq2    C5 2272   3.033   0.957  10.607  0.5795  0.2726 -0.1226
  149TCq2    C6 2273   2.928   1.006  10.538 -0.3356  0.3255 -0.3573
  149TCq2    C7 2274   2.867   1.132  10.556  0.9796  0.4099  0.5981
  149TCq2    C8 2275   2.831   0.923  10.483  0.2861 -0.4717 -0.1314
  149TCq2    O4 2276   2.713   0.943  10.505 -0.8020  0.1154 -0.2120
  149TCq2    C9 2277   3.177   0.991  10.791  0.4373  0.8240 -0.4046
  149TCq2    O5 2278   3.230   1.063  10.877 -0.1263 -0.5798 -0.0275
  149TCq2    O6 2279   3.208   0.866  10.796  0.2731  0.2488 -0.3357
  149TCq2    H2 2280   3.053   1.210  10.813  0.4148  0.4177 -0.0754
  149TCq2    H3 2281   3.071   0.856  10.593 -1.2657 -0.4724  0.2608
  149TCq2    H4 2282   2.781   1.163  10.497  0.4124  0.1545  1.2986
  150MPD2     C 2283   3.547   0.543  12.217 -0.3371  0.4544  0.1608
  150MPD2    C1 2284   3.556   0.532  12.082  0.1968  0.1914 -0.6853
  150MPD2    C2 2285   3.641   0.610  12.009 -0.2167  0.1785  0.0966
  150MPD2    C3 2286   3.730   0.693  12.074 -0.0242  0.5429 -0.7691
  150MPD2    C4 2287   3.728   0.699  12.213 -0.5316  1.0717 -0.3271
  150MPD2    C5 2288   3.641   0.620  12.281 -0.1328 -0.0507  0.2222
  150MPD2     H 2289   3.646   0.606  11.901 -1.1462 -3.2446  0.1865
  150MPD2    H1 2290   3.787   0.767  12.274  1.4997 -1.1267  0.1449
  150MPD2    H2 2291   3.483   0.480  12.278  1.0955 -0.6193  0.5688
  150MPD2    H3 2292   3.637   0.638  12.388  0.6490 -3.6442  0.8408
  150MPD2     N 2293   3.826   0.762  11.995 -0.4269  0.5694 -0.1127
  150MPD2    H5 2294   3.812   0.758  11.895  2.1457 -2.5759 -0.3446
  150MPD2    N1 2295   3.460   0.446  12.023  0.1487  0.6379  1.0421
  150MPD2    H7 2296   3.408   0.381  12.081  1.9926 -0.0124  1.9513
  151TCq2    C1 2297   3.937   0.834  12.039  0.0822  0.4066 -0.2297
  151TCq2    O2 2298   3.955   0.877  12.151 -0.1760  0.0164  0.9170
  151TCq2    C2 2299   4.045   0.823  11.948  0.4172  0.5134  0.0035
  151TCq2    C3 2300   4.039   0.748  11.833 -0.3637  0.4751 -0.0547
  151TCq2    C4 2301   4.146   0.672  11.801  0.1026 -0.6716 -0.3429
  151TCq2    C5 2302   4.271   0.690  11.855 -0.5274  1.1024  0.6080
  151TCq2    C6 2303   4.278   0.783  11.953  0.5386 -0.3826  0.7369
  151TCq2    C7 2304   4.171   0.852  12.004 -0.3335  0.7252  0.0418
  151TCq2    C8 2305   4.401   0.774  12.035  0.0097 -0.1830  0.7182
  151TCq2    O4 2306   4.447   0.875  12.090  0.3395 -0.2952 -0.4093
  151TCq2    C9 2307   4.135   0.584  11.678 -0.1664  0.3223 -0.0119
  151TCq2    O5 2308   4.223   0.499  11.656  0.1938  0.2849 -0.1171
  151TCq2    O6 2309   4.058   0.623  11.584  0.1237 -0.6806  0.0735
  151TCq2    H2 2310   3.954   0.733  11.768  0.3138 -0.9810 -0.5870
  151TCq2    H3 2311   4.356   0.630  11.823 -0.3281  0.7552  1.7923
  151TCq2    H4 2312   4.181   0.913  12.093  0.3811  2.0858 -0.9806
  152MPD2     C 2313   3.558   4.579  12.663  0.4482  0.0516 -0.4899
  152MPD2    C1 2314   3.613   4.656  12.567  0.4316 -0.1274  0.3041
  152MPD2    C2 2315   3.537   0.031  12.513 -1.0834  0.0396 -0.7295
  152MPD2    C3 2316   3.409   0.055  12.557  0.2253  0.4923  0.0383
  152MPD2    C4 2317   3.353   4.688  12.644  0.0749  0.0612 -0.0074
  152MPD2    C5 2318   3.429   4.591  12.703  0.2249  0.4312  0.0899
  152MPD2     H 2319   3.585   0.093  12.438  1.1797  1.1052  1.6241
  152MPD2    H1 2320   3.254   4.695  12.686  0.3568 -1.1901  0.8558
  152MPD2    H2 2321   3.610   4.496  12.709 -0.5432 -0.3064 -0.0145
  152MPD2    H3 2322   3.393   4.531  12.786  1.0148  0.9010  0.7773
  152MPD2     N 2323   3.346   0.175  12.515  0.4153  0.0691  0.3467
  152MPD2    H5 2324   3.402   0.245  12.467 -0.3363  0.7566  0.4647
  152MPD2    N1 2325   3.752   4.635  12.542 -0.2199 -0.2828  0.3069
  152MPD2    H7 2326   3.794   4.561  12.597 -0.3755 -0.2094  0.5257
  153TCq2    C1 2327   3.826   4.699  12.449  0.2861  0.2767  0.3494
  153TCq2    O2 2328   3.790   0.054  12.362 -0.1828  0.1601  0.4133
  153TCq2    C2 2329   3.964   4.651  12.453 -0.3660 -0.4613 -0.3509
  153TCq2    C3 2330   4.014   4.579  12.558  0.6557 -0.0820  0.0094
  153TCq2    C4 2331   4.142   4.607  12.594  0.0787  0.2809 -0.3282
  153TCq2    C5 2332   4.219   4.703  12.530  0.0675  0.0956  0.5033
  153TCq2    C6 2333   4.168   0.039  12.418  0.2943 -0.0364 -0.8655
  153TCq2    C7 2334   4.044   0.008  12.380 -0.1597 -0.3610 -0.1927
  153TCq2    C8 2335   4.221   0.165  12.381  0.3549 -0.4509 -0.4594
  153TCq2    O4 2336   4.164   0.231  12.294  0.5431 -0.7903 -0.6173
  153TCq2    C9 2337   4.200   4.554  12.715 -0.3617 -0.2671 -0.0450
  153TCq2    O5 2338   4.318   4.578  12.741  0.6511  0.4970  0.1903
  153TCq2    O6 2339   4.132   4.483  12.793 -0.9283 -0.6950 -0.9920
  153TCq2    H2 2340   3.956   4.508  12.616 -2.0086  0.4958 -1.9258
  153TCq2    H3 2341   4.316   0.001  12.571  0.1454  1.8712 -0.6616
  153TCq2    H4 2342   3.997   0.065  12.300  0.0682 -0.6666 -0.5440
  154MPD2     C 2343   0.758   0.168   0.451  0.0876  0.0382 -0.6191
  154MPD2    C1 2344   0.716   0.048   0.500  1.0983 -0.5897 -0.2592
  154MPD2    C2 2345   0.581   0.041   0.530 -0.4985  0.7173  0.2496
  154MPD2    C3 2346   0.494   0.146   0.505  0.0261  0.0396  0.4192
  154MPD2    C4 2347   0.538   0.258   0.436  0.7129  0.3306 -0.0781
  154MPD2    C5 2348   0.674   0.272   0.408 -0.6333  0.8075 -0.4394
  154MPD2     H 2349   0.529   4.680   0.570  1.2506 -1.6807 -2.6287
  154MPD2    H1 2350   0.468   0.330   0.395 -0.6292 -1.9279 -1.7728
  154MPD2    H2 2351   0.862   0.195   0.434  0.4277  0.5648  2.1581
  154MPD2    H3 2352   0.709   0.367   0.369  2.5396  0.0393  0.5571
  154MPD2     N 2353   0.363   0.132   0.554  0.1166 -0.5432  0.0458
  154MPD2    H5 2354   0.344   0.051   0.614 -0.7069 -0.7437 -0.4855
  154MPD2    N1 2355   0.809   4.665   0.504  0.1571 -0.3596 -0.8308
  154MPD2    H7 2356   0.905   4.686   0.480 -0.1385  0.1703 -1.5225
  155TCq2    C1 2357   0.776   4.537   0.528 -0.0593  0.8240  0.1323
  155TCq2    O2 2358   0.680   4.486   0.589  0.3206  0.4057 -0.7476
  155TCq2    C2 2359   0.888   4.444   0.505 -0.5830 -0.3925  0.8889
  155TCq2    C3 2360   0.875   4.315   0.563 -0.5578  0.0249 -0.0165
  155TCq2    C4 2361   0.973   4.228   0.531 -0.5849  0.3990  0.6322
  155TCq2    C5 2362   1.085   4.263   0.461 -0.2647 -0.3556  0.0884
  155TCq2    C6 2363   1.093   4.386   0.413  0.6921 -0.2911 -0.0167
  155TCq2    C7 2364   0.999   4.481   0.433 -0.0234 -0.3148  0.3857
  155TCq2    C8 2365   1.214   4.408   0.326  0.5199 -0.2419 -0.5173
  155TCq2    O4 2366   1.281   4.310   0.296 -0.7755 -0.4781  0.0170
  155TCq2    C9 2367   0.964   4.100   0.590  0.2555  0.2913 -0.7100
  155TCq2    O5 2368   1.070   4.029   0.596 -0.0617 -0.4040 -0.0531
  155TCq2    O6 2369   0.852   4.060   0.633 -0.2004  0.2965 -0.1747
  155TCq2    H2 2370   0.783   4.280   0.609 -1.4958  1.1482 -1.0249
  155TCq2    H3 2371   1.156   4.182   0.448  0.7241  0.3379  1.1199
  155TCq2    H4 2372   1.015   4.576   0.384 -1.8488 -0.2814 -0.1416
  156MPD2     C 2373   3.868   2.527  12.447 -0.4178 -0.1166 -0.2379
  156MPD2    C1 2374   3.824   2.632  12.362  0.5145 -0.7934  0.4692
  156MPD2    C2 2375   3.838   2.758  12.413 -0.7673  0.1190  0.7096
  156MPD2    C3 2376   3.869   2.779  12.546  1.0601  0.4046  0.3165
  156MPD2    C4 2377   3.916   2.678  12.624  0.4228 -0.3697  0.4006
  156MPD2    C5 2378   3.930   2.548  12.571 -0.8116  0.8936 -0.0171
  156MPD2     H 2379   3.811   2.841  12.348  0.1082 -1.5786 -1.8265
  156MPD2    H1 2380   3.944   2.689  12.728  1.3099 -0.2414  0.1452
  156MPD2    H2 2381   3.878   2.422  12.426 -0.4043  0.1318 -1.4516
  156MPD2    H3 2382   3.964   2.467  12.634 -0.6821 -0.5744 -1.9722
  156MPD2     N 2383   3.849   2.902  12.603 -0.0721  0.2143  0.0544
  156MPD2    H5 2384   3.810   2.978  12.548 -0.0198  0.5896  0.5290
  156MPD2    N1 2385   3.784   2.600  12.230 -0.3058 -0.0670 -0.3231
  156MPD2    H7 2386   3.805   2.504  12.206 -0.0344 -0.7254  2.4775
  157TCq2    C1 2387   3.727   2.691  12.141  0.5254 -0.0522  0.0932
  157TCq2    O2 2388   3.705   2.809  12.154  0.2424 -0.1611 -0.2289
  157TCq2    C2 2389   3.682   2.628  12.022  0.2771  0.1638  0.1372
  157TCq2    C3 2390   3.685   2.490  12.005  0.3851  0.5629  0.1073
  157TCq2    C4 2391   3.644   2.443  11.887 -0.1584 -0.2822  0.0253
  157TCq2    C5 2392   3.605   2.518  11.788 -0.8962 -0.1360 -0.2641
  157TCq2    C6 2393   3.588   2.652  11.809 -0.4343  1.7242 -0.4928
  157TCq2    C7 2394   3.622   2.705  11.924 -0.1428  0.8236 -0.3573
  157TCq2    C8 2395   3.563   2.736  11.696  0.6425 -0.1489  0.0268
  157TCq2    O4 2396   3.615   2.845  11.689 -0.5664 -0.3336 -0.0484
  157TCq2    C9 2397   3.677   2.305  11.867  0.9851 -0.1351 -0.6729
  157TCq2    O5 2398   3.685   2.239  11.973  0.4891 -0.0944  0.0624
  157TCq2    O6 2399   3.709   2.279  11.752  0.5493  0.1553 -0.1137
  157TCq2    H2 2400   3.752   2.420  12.054  1.8012  1.6964 -0.1984
  157TCq2    H3 2401   3.600   2.470  11.690 -0.8648 -2.6360  0.9583
  157TCq2    H4 2402   3.615   2.813  11.931 -1.6768  0.7591 -0.8405
  158TMC2    C1 2403   3.857   1.444  13.861  0.2306 -0.1888 -0.1295
  158TMC2    C2 2404   3.823   1.576  13.890 -0.5404  0.0666 -0.4595
  158TMC2    C3 2405   3.698   1.612  13.850 -0.0984  0.1936 -0.7410
  158TMC2    C4 2406   3.768   1.345  13.830  0.1538 -0.0420 -0.6623
  158TMC2    C5 2407   3.643   1.388  13.801  0.2121 -0.0692  0.2985
  158TMC2    C6 2408   3.602   1.521  13.807 -0.3552  0.0311 -0.3789
  158TMC2     C 2409   3.991   1.410  13.908 -0.3211  0.4048  0.4162
  158TMC2     O 2410   4.078   1.485  13.872  0.3441 -0.3574  0.2375
  158TMC2     H 2411   3.898   1.643  13.931  1.1631 -0.8224 -2.1451
  158TMC2    H1 2412   3.795   1.240  13.829 -0.1646 -0.1291 -0.2030
  158TMC2    H2 2413   3.498   1.550  13.802  0.0079  0.7693 -3.2877
  158TMC2    C7 2414   3.544   1.292  13.747  0.1043 -0.5015 -0.0588
  158TMC2    C8 2415   3.648   1.745  13.885  0.6714 -0.5969 -0.9636
  158TMC2    O1 2416   3.464   1.351  13.679  0.0707 -0.3694 -0.2690
  158TMC2    O2 2417   3.588   1.759  13.992  0.1715  0.3534 -0.2786
  158TMC2    O5 2418   3.762   1.806  13.852 -0.1702 -0.2483  0.1172
  158TMC2    H5 2419   3.784   1.766  13.765 -0.7320  0.0832 -0.1737
  159MPD2     C 2420   4.324   1.134  14.162 -1.0222  0.4424 -0.3946
  159MPD2    C1 2421   4.204   1.110  14.217  0.0753 -0.2646 -0.0180
  159MPD2    C2 2422   4.091   1.165  14.155 -0.2389 -0.5712  0.3759
  159MPD2    C3 2423   4.101   1.245  14.041 -0.4122  0.1517  0.5744
  159MPD2    C4 2424   4.227   1.269  13.989  0.5272  0.4471 -0.3547
  159MPD2    C5 2425   4.335   1.215  14.049  0.2484  0.2433 -0.0169
  159MPD2     H 2426   3.994   1.140  14.197  0.1724 -2.1683  0.3820
  159MPD2    H1 2427   4.235   1.339  13.907 -0.1603  2.4411  1.2776
  159MPD2    H2 2428   4.415   1.097  14.208 -0.7693  0.9618 -0.4730
  159MPD2    H3 2429   4.433   1.227  14.006  0.4273  0.8770  0.5721
  159MPD2     N 2430   3.987   1.300  13.986 -0.1628 -0.3153  0.0431
  159MPD2    H5 2431   3.895   1.275  14.020 -0.6266  1.3826  0.0267
  159MPD2    N1 2432   4.192   1.034  14.334 -0.3089  0.1266 -0.6651
  159MPD2    H7 2433   4.278   1.003  14.378 -1.5682 -2.2951  0.0903
  160TMC2    C1 2434   3.313   3.880   0.827  0.0926  0.2082 -0.9978
  160TMC2    C2 2435   3.384   3.764   0.829  0.5409  0.2096  0.1910
  160TMC2    C3 2436   3.507   3.770   0.771 -0.1037  0.1134 -0.1123
  160TMC2    C4 2437   3.363   3.997   0.770 -0.1012  0.9645  0.4265
  160TMC2    C5 2438   3.487   3.996   0.710  0.4534  0.1263 -0.0019
  160TMC2    C6 2439   3.563   3.885   0.711  0.0735 -0.5837  1.0227
  160TMC2     C 2440   3.214   3.893   0.935 -0.7684  0.5218  0.0437
  160TMC2     O 2441   3.228   3.814   1.025 -0.0160 -0.4036 -0.9042
  160TMC2     H 2442   3.343   3.675   0.875  0.3211  0.7746  1.0895
  160TMC2    H1 2443   3.297   4.083   0.764  0.2351  1.1385 -0.6409
  160TMC2    H2 2444   3.659   3.881   0.661 -1.1772 -0.5065 -1.4100
  160TMC2    C7 2445   3.544   4.125   0.690  0.1525  0.2010 -0.2862
  160TMC2    C8 2446   3.592   3.656   0.789  0.7009 -0.0409 -0.2594
  160TMC2    O1 2447   3.481   4.213   0.635 -0.3244  0.2464 -0.4241
  160TMC2    O2 2448   3.609   3.614   0.901  0.3547  0.1348 -0.0100
  160TMC2    O5 2449   3.626   3.594   0.677  0.0120  0.1566 -0.3497
  160TMC2    H5 2450   3.618   3.643   0.593 -0.0119  1.2917  0.3201
  161MPD2     C 2451   3.025   3.998   1.138  0.0552 -0.6527 -0.7365
  161MPD2    C1 2452   3.036   4.047   1.008  0.3029  0.0924  0.9286
  161MPD2    C2 2453   2.967   4.162   0.974  0.0887 -0.0818 -0.3883
  161MPD2    C3 2454   2.874   4.216   1.059 -0.4600  0.9244  0.4206
  161MPD2    C4 2455   2.863   4.163   1.186 -0.6021 -0.3348  0.3867
  161MPD2    C5 2456   2.937   4.051   1.228 -0.1194 -0.6645 -0.1128
  161MPD2     H 2457   2.972   4.192   0.869  0.4873 -3.0921 -1.2377
  161MPD2    H1 2458   2.794   4.206   1.258 -0.6246  2.0894 -1.0846
  161MPD2    H2 2459   3.081   3.914   1.178 -3.8582 -1.2535  3.6007
  161MPD2    H3 2460   2.934   4.015   1.330 -1.1752 -2.0416 -0.6207
  161MPD2     N 2461   2.786   4.322   1.025  0.0872 -0.1017 -0.2930
  161MPD2    H5 2462   2.725   4.358   1.098 -0.1707  1.6152 -1.3665
  161MPD2    N1 2463   3.122   3.991   0.911  0.6444 -0.2361  0.2360
  161MPD2    H7 2464   3.119   4.039   0.822  0.5640 -0.0651  0.3307
  162TMC2    C1 2465   1.955   1.938   1.155 -0.5422  0.2206 -0.0763
  162TMC2    C2 2466   1.985   2.066   1.170 -0.2944  0.5123  0.7709
  162TMC2    C3 2467   1.905   2.139   1.254 -0.2420  0.4789  0.1501
  162TMC2    C4 2468   1.846   1.877   1.215 -0.9839  0.4141  0.3006
  162TMC2    C5 2469   1.766   1.954   1.301  0.3594 -0.3977  0.1672
  162TMC2    C6 2470   1.797   2.083   1.317 -0.8892 -0.3298 -0.1038
  162TMC2     C 2471   2.039   1.855   1.078 -0.3668  0.0531  0.0032
  162TMC2     O 2472   1.993   1.747   1.037 -0.1233  0.6209  0.5995
  162TMC2     H 2473   2.046   2.122   1.100  0.7364 -1.1460  0.3300
  162TMC2    H1 2474   1.818   1.773   1.204  0.3632 -0.0830  1.5646
  162TMC2    H2 2475   1.728   2.148   1.370  0.7260  0.6521  0.7940
  162TMC2    C7 2476   1.639   1.905   1.338 -0.3215 -0.3787  0.0060
  162TMC2    C8 2477   1.904   2.283   1.259 -0.6563  0.6013  0.0389
  162TMC2    O1 2478   1.552   1.993   1.331  0.2907  0.1380  0.0462
  162TMC2    O2 2479   1.808   2.332   1.311 -0.5167  0.3806  0.1093
  162TMC2    O5 2480   2.028   2.329   1.269  0.2091 -0.0077 -0.2633
  162TMC2    H5 2481   2.096   2.259   1.257 -1.6158 -1.9155  0.5063
  163MPD2     C 2482   2.485   1.770   0.838 -0.1259  0.4504  0.1869
  163MPD2    C1 2483   2.369   1.696   0.825 -0.0645 -0.3045  0.3074
  163MPD2    C2 2484   2.261   1.746   0.904 -0.1659  0.3661 -0.2482
  163MPD2    C3 2485   2.272   1.856   0.983 -0.1399 -0.1694 -0.3583
  163MPD2    C4 2486   2.391   1.919   1.001  0.1911 -0.0735  0.4397
  163MPD2    C5 2487   2.491   1.874   0.923 -0.0922  0.6526  0.0583
  163MPD2     H 2488   2.166   1.693   0.898  0.0638  0.0337 -1.0428
  163MPD2    H1 2489   2.409   2.003   1.067 -0.8690  0.5131 -0.0124
  163MPD2    H2 2490   2.579   1.739   0.794 -0.4707  0.0571 -0.2652
  163MPD2    H3 2491   2.585   1.927   0.926 -0.5867  1.3054  3.6083
  163MPD2     N 2492   2.158   1.915   1.047  1.1255 -0.0162 -0.3464
  163MPD2    H5 2493   2.182   2.003   1.091  1.6324 -1.2859  1.9567
  163MPD2    N1 2494   2.368   1.592   0.733 -0.3749 -0.1370  0.0335
  163MPD2    H7 2495   2.449   1.581   0.673  1.3610 -0.1724  2.3753
  164TCq2    C1 2496   2.382   1.017  11.358  0.8089 -0.4382 -0.3530
  164TCq2    O2 2497   2.430   1.125  11.393 -0.0582  0.8275  0.1415
  164TCq2    C2 2498   2.297   0.946  11.456  0.0613 -0.5681  0.3394
  164TCq2    C3 2499   2.357   0.852  11.534  0.5931  0.0367  0.1791
  164TCq2    C4 2500   2.311   0.828  11.661  1.0382  0.5715  0.4991
  164TCq2    C5 2501   2.204   0.899  11.705  0.0122  0.2307 -0.4083
  164TCq2    C6 2502   2.135   0.985  11.627  0.1042 -0.2286  0.0912
  164TCq2    C7 2503   2.182   1.010  11.498 -0.0448 -0.5267  0.6397
  164TCq2    C8 2504   2.008   1.048  11.657 -0.3232  0.0019  0.0160
  164TCq2    O4 2505   1.951   1.084  11.557  0.3536  0.0524  0.1251
  164TCq2    C9 2506   2.385   0.744  11.752 -0.3066 -1.1757  0.3998
  164TCq2    O5 2507   2.465   0.670  11.693  0.0420 -0.5182 -0.4468
  164TCq2    O6 2508   2.359   0.744  11.876 -0.0929  0.2112  0.0969
  164TCq2    H2 2509   2.458   0.822  11.507  0.3671 -0.7192  0.1703
  164TCq2    H3 2510   2.184   0.881  11.810  4.1312  4.3240  1.1204
  164TCq2    H4 2511   2.136   1.072  11.422 -0.6441 -1.3322  0.3490
  165MPD2     C 2512   4.540   1.676   1.356 -0.4613  0.3562  0.3127
  165MPD2    C1 2513   4.559   1.631   1.489  0.4734 -0.5079  0.4506
  165MPD2    C2 2514   4.507   1.706   1.590 -0.2796  0.2759  0.2858
  165MPD2    C3 2515   4.431   1.820   1.565 -1.6233 -0.1921 -0.6470
  165MPD2    C4 2516   4.410   1.862   1.437 -0.1830 -0.6276 -0.7057
  165MPD2    C5 2517   4.465   1.790   1.333  0.0577  0.1197  0.4898
  165MPD2     H 2518   4.523   1.674   1.693 -0.2017  0.8867  0.4635
  165MPD2    H1 2519   4.336   1.936   1.409  0.4957  0.0621 -0.6605
  165MPD2    H2 2520   4.582   1.626   1.269 -0.7449 -2.0998  1.5958
  165MPD2    H3 2521   4.446   1.825   1.233  4.1242  1.8142  0.3243
  165MPD2     N 2522   4.365   1.910   1.657 -0.4044  0.1392  0.7684
  165MPD2    H5 2523   4.320   1.995   1.625 -1.3919 -0.3623  0.7959
  165MPD2    N1 2524   4.647   1.522   1.498 -0.8832  0.1010 -0.0056
  165MPD2    H7 2525   4.672   1.503   1.402  0.7982  1.7157  0.1054
  166TCq2    C1 2526   4.381   1.897   1.797  0.7068 -0.3535 -0.5549
  166TCq2    O2 2527   4.437   1.808   1.862  0.1518 -0.1427 -0.6023
  166TCq2    C2 2528   4.309   1.997   1.868  0.4045  0.1436 -0.5498
  166TCq2    C3 2529   4.365   2.036   1.988  0.6029  0.1115 -0.1575
  166TCq2    C4 2530   4.314   2.139   2.051  0.2846 -0.7270  0.3967
  166TCq2    C5 2531   4.206   2.210   1.992 -0.1903  0.1642  0.6476
  166TCq2    C6 2532   4.157   2.176   1.866  0.2119  0.0324  0.7304
  166TCq2    C7 2533   4.202   2.059   1.811  0.8658  0.5706 -0.6324
  166TCq2    C8 2534   4.100   2.273   1.772  0.2343 -0.3112 -0.4750
  166TCq2    O4 2535   4.120   2.253   1.650  0.1380 -0.2659 -0.2153
  166TCq2    C9 2536   4.383   2.190   2.166  0.0977  0.4208 -0.1145
  166TCq2    O5 2537   4.464   2.106   2.218 -0.2865 -0.3833  0.0110
  166TCq2    O6 2538   4.374   2.318   2.179 -0.2240 -0.5613 -0.3820
  166TCq2    H2 2539   4.453   1.980   2.019 -0.4264 -0.6481  1.3897
  166TCq2    H3 2540   4.165   2.291   2.050 -2.2509 -1.2279  1.1551
  166TCq2    H4 2541   4.159   2.023   1.718  1.3045 -0.7308 -0.3407
  167TMC2    C1 2542   2.084   0.773  13.047  0.4487 -0.1751 -0.2877
  167TMC2    C2 2543   1.998   0.794  13.149 -0.2640  0.0032 -0.2938
  167TMC2    C3 2544   1.876   0.737  13.154 -0.1839 -0.2482  0.7783
  167TMC2    C4 2545   2.051   0.689  12.948 -0.0632 -0.2007 -0.7228
  167TMC2    C5 2546   1.934   0.618  12.966  0.6516 -1.0401 -0.1753
  167TMC2    C6 2547   1.844   0.639  13.066  0.7593 -0.3381  0.6908
  167TMC2     C 2548   2.171   0.882  13.015  0.2531 -0.6195  0.7327
  167TMC2     O 2549   2.214   0.954  13.105  0.5589 -0.2886 -0.3447
  167TMC2     H 2550   2.025   0.877  13.213 -2.6121  1.4955 -1.2550
  167TMC2    H1 2551   2.126   0.671  12.871 -0.8099  1.9770 -1.9743
  167TMC2    H2 2552   1.745   0.594  13.064  0.4179  0.4508 -0.4058
  167TMC2    C7 2553   1.894   0.518  12.873  0.0620  0.1890 -0.0252
  167TMC2    C8 2554   1.780   0.738  13.270 -0.1173  0.7054  0.2725
  167TMC2    O1 2555   1.800   0.445  12.901 -0.2417  0.6613  0.3827
  167TMC2    O2 2556   1.671   0.689  13.268 -0.2810 -0.4212 -0.6077
  167TMC2    O5 2557   1.844   0.768  13.384  0.2082  0.7038  0.2193
  167TMC2    H5 2558   1.940   0.746  13.386 -0.5957 -3.0836 -2.6894
  168MPD2     C 2559   2.259   1.122  12.865 -0.3236 -0.6375  0.3167
  168MPD2    C1 2560   2.212   1.007  12.809 -0.5503 -0.2511 -0.2515
  168MPD2    C2 2561   2.169   1.008  12.678  0.3458  0.1232  0.4572
  168MPD2    C3 2562   2.186   1.122  12.600 -0.1100  0.0398 -0.6362
  168MPD2    C4 2563   2.237   1.235  12.663 -0.1053  1.3070  0.2464
  168MPD2    C5 2564   2.268   1.242  12.794 -0.2905 -0.6933 -0.7547
  168MPD2     H 2565   2.139   0.912  12.639 -0.2991  0.3477  0.4034
  168MPD2    H1 2566   2.262   1.318  12.598  0.1558  0.9211 -0.1522
  168MPD2    H2 2567   2.281   1.129  12.971 -1.3184 -0.2476  0.5030
  168MPD2    H3 2568   2.288   1.337  12.841 -4.0117 -0.2700 -0.0316
  168MPD2     N 2569   2.166   1.120  12.461  0.4629 -0.1076 -0.1942
  168MPD2    H5 2570   2.209   1.179  12.390  0.7895 -1.2797 -0.9724
  168MPD2    N1 2571   2.169   0.891  12.879 -0.5051  0.5037  0.1402
  168MPD2    H7 2572   2.104   0.832  12.827  1.3794 -2.2391  0.8794
  169MPD1     C 2573   4.051   4.481   9.480 -0.6215  0.8075 -0.6235
  169MPD1    C1 2574   4.072   4.361   9.424  0.0554 -0.7647  0.6674
  169MPD1    C2 2575   4.197   4.336   9.370  0.0673  0.3072 -0.1326
  169MPD1    C3 2576   4.300   4.423   9.372 -0.7202  0.0708  0.3171
  169MPD1    C4 2577   4.272   4.549   9.416  0.0264  0.8301  0.3822
  169MPD1    C5 2578   4.149   4.575   9.477 -1.0708  0.0598  0.2992
  169MPD1     H 2579   4.203   4.240   9.321  1.2357  1.3014 -1.9219
  169MPD1    H1 2580   4.343   4.628   9.398 -1.1019  1.8620  0.4221
  169MPD1    H2 2581   3.962   4.504   9.538 -0.3092 -0.6181  0.4269
  169MPD1    H3 2582   4.125   4.677   9.504 -3.1376 -0.6309  1.1459
  169MPD1     N 2583   4.428   4.381   9.314 -0.2990 -0.1484 -0.2434
  169MPD1    H5 2584   4.423   4.284   9.286 -0.2642 -1.5177  4.4265
  169MPD1    N1 2585   3.979   4.260   9.440 -0.4168 -0.2174  0.1148
  169MPD1    H6 2586   3.882   4.289   9.437 -0.0918  0.9919  1.0088
  169MPD1    H7 2587   3.981   4.175   9.384 -0.4734 -0.3786  0.3567
  170MPD1     C 2588   2.910   2.809  13.147 -0.8422 -0.1715 -0.2623
  170MPD1    C1 2589   2.893   2.780  13.281 -0.3236 -0.2788 -0.4041
  170MPD1    C2 2590   2.840   2.883  13.358  0.9212 -0.3017  1.2781
  170MPD1    C3 2591   2.836   3.014  13.319  0.2943 -0.4039  0.2103
  170MPD1    C4 2592   2.867   3.040  13.189  0.6285 -0.5567  0.3600
  170MPD1    C5 2593   2.894   2.938  13.102  0.2870  0.4719 -0.0454
  170MPD1     H 2594   2.808   2.857  13.459  1.0709 -0.4264  1.2923
  170MPD1    H1 2595   2.860   3.136  13.140 -0.2971 -0.5314  0.5388
  170MPD1    H2 2596   2.932   2.728  13.079 -2.0904 -0.2922 -0.5202
  170MPD1    H3 2597   2.895   2.956  12.995  0.0772  0.1947 -0.0931
  170MPD1     N 2598   2.793   3.112  13.405  0.6912  0.0611  0.7475
  170MPD1    H5 2599   2.752   3.077  13.491  1.4073 -1.6476  0.3974
  170MPD1    N1 2600   2.874   2.647  13.320 -0.0376 -0.3633 -0.5501
  170MPD1    H6 2601   2.938   2.581  13.276  2.3514 -0.0019  2.3530
  170MPD1    H7 2602   2.876   2.632  13.421  2.0055  0.9492 -0.3897
  171MPD1     C 2603   1.495   4.144  15.584  0.1256  0.0437  0.2416
  171MPD1    C1 2604   1.454   4.015  15.552  0.1383  0.1819  0.6524
  171MPD1    C2 2605   1.502   3.908  15.630 -0.2243 -0.8251 -0.4265
  171MPD1    C3 2606   1.612   3.926  15.722  0.1136  0.0887  0.8351
  171MPD1    C4 2607   1.658   4.058  15.732  0.2646 -0.4786  0.3432
  171MPD1    C5 2608   1.595   4.160  15.672 -0.0346 -0.1851  0.7796
  171MPD1     H 2609   1.465   3.810  15.606  0.0218 -1.0149 -0.0348
  171MPD1    H1 2610   1.742   4.082  15.796  1.3134 -0.4415 -1.0394
  171MPD1    H2 2611   1.443   4.235  15.557  1.5124  1.8418  3.5424
  171MPD1    H3 2612   1.633   4.260  15.693 -2.0571  0.6527  0.4746
  171MPD1     N 2613   1.669   3.834  15.813 -0.7770 -0.0613  0.1728
  171MPD1    H5 2614   1.748   3.860  15.870 -1.4645  0.6241  0.8223
  171MPD1    N1 2615   1.354   3.999  15.459 -0.1470  0.3841 -0.0179
  171MPD1    H6 2616   1.373   3.921  15.396  0.6485 -0.6211  1.4856
  171MPD1    H7 2617   1.344   4.078  15.395 -0.1376  0.3101 -0.1115
  172MPD1     C 2618   0.182   2.510   0.476  0.7729  0.0147  0.2237
  172MPD1    C1 2619   0.171   2.640   0.526  0.1814  1.1029  0.3391
  172MPD1    C2 2620   0.277   2.728   0.490 -0.1234 -0.3366  0.4012
  172MPD1    C3 2621   0.378   2.692   0.400  0.2844  0.1380 -0.1734
  172MPD1    C4 2622   0.374   2.573   0.347 -0.1618  0.5922 -0.4388
  172MPD1    C5 2623   0.281   2.483   0.388  0.0768  0.2654 -0.7001
  172MPD1     H 2624   0.285   2.826   0.536 -0.5741 -0.2494  0.2978
  172MPD1    H1 2625   0.440   2.535   0.269 -1.7729 -1.4865 -0.7946
  172MPD1    H2 2626   0.117   2.426   0.496  0.9731 -0.2548 -0.2456
  172MPD1    H3 2627   0.285   2.387   0.338 -0.0829  0.2144 -0.6144
  172MPD1     N 2628   0.481   2.781   0.372 -0.7006 -1.0573 -0.5345
  172MPD1    H5 2629   0.561   2.743   0.323 -1.0397 -0.3089 -1.6535
  172MPD1    N1 2630   0.095   2.663   0.640 -0.1575  0.3464  0.3282
  172MPD1    H6 2631   0.062   2.759   0.651  2.5981  1.3254  0.0014
  172MPD1    H7 2632   0.005   2.622   0.613  0.1268 -1.3987  2.0014
  173MPD1     C 2633   2.144   3.150  14.182  0.1199 -0.5044  0.0404
  173MPD1    C1 2634   2.064   3.071  14.258 -0.4017  0.5190 -0.4452
  173MPD1    C2 2635   2.115   3.025  14.383 -0.8104  0.3521 -0.8995
  173MPD1    C3 2636   2.246   3.055  14.425 -0.5851 -0.0580 -0.7094
  173MPD1    C4 2637   2.321   3.135  14.343 -0.6115 -0.0879 -0.1643
  173MPD1    C5 2638   2.265   3.183  14.225 -0.1199 -0.1075  0.3132
  173MPD1     H 2639   2.051   2.955  14.436 -0.5476  0.2581 -0.7029
  173MPD1    H1 2640   2.422   3.168  14.362 -0.5021 -1.0335  0.9044
  173MPD1    H2 2641   2.107   3.194  14.089  0.9835 -1.6018 -0.8210
  173MPD1    H3 2642   2.333   3.247  14.170 -0.6267 -1.1867 -1.5676
  173MPD1     N 2643   2.291   2.999  14.551  0.6876 -0.2965  0.0241
  173MPD1    H5 2644   2.227   2.953  14.614 -1.3141  0.2319 -1.6164
  173MPD1    N1 2645   1.933   3.049  14.224  0.2828  0.0445  0.3340
  173MPD1    H6 2646   1.896   2.962  14.263  0.9545 -0.4770 -0.1879
  173MPD1    H7 2647   1.923   3.058  14.124  0.1546 -2.8962  0.0642
  174MPD1     C 2648   3.151   2.660  15.132 -0.5702 -0.9272  0.4643
  174MPD1    C1 2649   3.101   2.775  15.180 -0.3877 -0.8271  0.1663
  174MPD1    C2 2650   2.978   2.822  15.135 -0.9634  0.1547 -0.2289
  174MPD1    C3 2651   2.918   2.756  15.033 -0.5965 -0.0984 -0.4273
  174MPD1    C4 2652   2.979   2.642  14.973  0.3015  0.7362  0.2185
  174MPD1    C5 2653   3.094   2.596  15.023  0.3871 -0.0666 -0.2523
  174MPD1     H 2654   2.939   2.914  15.176  0.9573  0.9880 -0.2541
  174MPD1    H1 2655   2.937   2.593  14.886  3.6296 -2.0994  0.1942
  174MPD1    H2 2656   3.248   2.626  15.168  0.4161  0.0523 -1.2740
  174MPD1    H3 2657   3.134   2.504  14.982 -0.7606 -0.9154  0.5288
  174MPD1     N 2658   2.793   2.807  14.999  0.2627 -0.3302  0.7952
  174MPD1    H5 2659   2.753   2.881  15.056 -1.6993  0.1742 -1.2161
  174MPD1    N1 2660   3.146   2.828  15.299 -0.5592  0.1526  0.6980
  174MPD1    H6 2661   3.247   2.819  15.309 -0.2685  0.1314 -2.4068
  174MPD1    H7 2662   3.128   2.926  15.317 -1.4276  0.4551 -1.8418
  175MPD1     C 2663   1.100   3.773  15.502 -0.4296  0.1401 -0.0144
  175MPD1    C1 2664   0.964   3.792  15.482 -0.3481 -0.4530  0.5062
  175MPD1    C2 2665   0.877   3.729  15.570 -0.0503  1.0030  0.3988
  175MPD1    C3 2666   0.926   3.696  15.695 -0.3168  0.8146  0.2232
  175MPD1    C4 2667   1.064   3.696  15.716 -0.0263  0.6261 -0.1878
  175MPD1    C5 2668   1.144   3.719  15.613 -0.3871 -0.3254 -0.0972
  175MPD1     H 2669   0.773   3.743  15.542  0.1107 -0.5914 -0.9890
  175MPD1    H1 2670   1.106   3.677  15.814 -0.8150  0.7189  0.1726
  175MPD1    H2 2671   1.170   3.800  15.425  1.5586  3.0926  2.8282
  175MPD1    H3 2672   1.252   3.713  15.628 -0.4690 -1.0655  0.1622
  175MPD1     N 2673   0.846   3.662  15.802 -0.0525 -0.5533 -0.2878
  175MPD1    H5 2674   0.887   3.639  15.891 -0.8920  1.1896  0.5514
  175MPD1    N1 2675   0.926   3.824  15.348 -0.3428  0.3578  0.7061
  175MPD1    H6 2676   0.992   3.897  15.322 -0.9309  0.3481 -0.8017
  175MPD1    H7 2677   0.836   3.870  15.357 -0.6881 -0.2608  0.3829
  176MPD1     C 2678   2.021   0.787   0.114  0.4933  0.2943 -0.5564
  176MPD1    C1 2679   2.123   0.823   0.024 -0.4874  0.1079  0.2276
  176MPD1    C2 2680   2.160   0.956   0.023  0.1870 -0.1828 -0.2913
  176MPD1    C3 2681   2.090   1.056   0.082  0.0309  0.3005  0.2752
  176MPD1    C4 2682   1.989   1.016   0.176 -0.0441  0.5238  0.5529
  176MPD1    C5 2683   1.960   0.880   0.189 -0.2286  0.3900  0.6742
  176MPD1     H 2684   2.241   0.983  17.659  0.7330  2.7095  1.5722
  176MPD1    H1 2685   1.924   1.085   0.229  0.0436  1.7769 -0.9826
  176MPD1    H2 2686   2.011   0.681   0.134  1.7161  0.1223 -0.8447
  176MPD1    H3 2687   1.887   0.850   0.263 -0.5230  1.8843  0.9959
  176MPD1     N 2688   2.127   1.190   0.066  0.1507 -0.6501 -0.5802
  176MPD1    H5 2689   2.197   1.203  17.696  0.0663 -0.9055 -0.7058
  176MPD1    N1 2690   2.200   0.728  17.653 -0.0273 -0.1474 -0.3157
  176MPD1    H6 2691   2.151   0.641  17.637  2.1619 -1.1749 -1.3752
  176MPD1    H7 2692   2.233   0.761  17.562 -1.1875  0.0764 -0.6493
  177MPD1     C 2693   0.795   0.610  10.586 -0.3462  0.4055 -0.0277
  177MPD1    C1 2694   0.729   0.553  10.478  0.5292  0.0963  0.2904
  177MPD1    C2 2695   0.720   0.632  10.366 -0.3284 -0.2149  0.5683
  177MPD1    C3 2696   0.740   0.766  10.362 -0.0605  0.1650 -0.4682
  177MPD1    C4 2697   0.793   0.825  10.472  0.3543 -0.2478 -0.5185
  177MPD1    C5 2698   0.823   0.746  10.581 -1.0250  0.2862  0.0046
  177MPD1     H 2699   0.678   0.585  10.277  1.6999 -0.3473 -0.3314
  177MPD1    H1 2700   0.824   0.928  10.482 -2.5598  0.5577  0.2032
  177MPD1    H2 2701   0.811   0.562  10.682 -1.1281 -0.1982 -0.1997
  177MPD1    H3 2702   0.877   0.792  10.662 -0.3966  1.9237 -1.3572
  177MPD1     N 2703   0.715   0.837  10.242  0.1597 -0.1747 -0.0445
  177MPD1    H5 2704   0.667   0.777  10.174  2.2666 -1.7734 -0.1199
  177MPD1    N1 2705   0.699   0.417  10.481  0.3370  1.2209  0.1474
  177MPD1    H6 2706   0.666   0.398  10.576  0.6042  2.1401  0.4227
  177MPD1    H7 2707   0.616   0.393  10.427  1.5103  2.8808 -2.3988
  178MPD1     C 2708   3.213   2.244   0.483  0.0914 -0.2866 -0.3569
  178MPD1    C1 2709   3.117   2.281   0.391 -0.1611  0.3216 -0.1260
  178MPD1    C2 2710   3.145   2.253   0.261  0.5000  0.3744 -0.2662
  178MPD1    C3 2711   3.264   2.192   0.213 -0.1072 -0.3621  0.1891
  178MPD1    C4 2712   3.367   2.168   0.303 -0.3081  0.3257 -0.3812
  178MPD1    C5 2713   3.328   2.192   0.435 -0.6765  0.7087  0.2042
  178MPD1     H 2714   3.081   2.277   0.177 -0.6289  2.7756  1.2627
  178MPD1    H1 2715   3.468   2.132   0.285 -2.3118 -4.4390 -2.1249
  178MPD1    H2 2716   3.193   2.250   0.590  1.1791 -3.5602  0.0312
  178MPD1    H3 2717   3.399   2.172   0.514  0.9556  0.6993 -1.2757
  178MPD1     N 2718   3.303   2.179   0.077  0.4146  0.3713  0.1442
  178MPD1    H5 2719   3.402   2.163   0.065  0.6155  0.2570  2.0741
  178MPD1    N1 2720   2.988   2.319   0.435 -0.2447 -0.7834 -0.5750
  178MPD1    H6 2721   2.943   2.372   0.360  0.5457  0.6768 -0.0017
  178MPD1    H7 2722   2.980   2.365   0.525  0.0590 -0.0118 -0.9453
  179MPD1     C 2723   3.200   0.243  15.872 -0.7390  0.2314  0.4144
  179MPD1    C1 2724   3.080   0.302  15.842  1.1114 -0.5298 -0.1449
  179MPD1    C2 2725   2.961   0.239  15.886  0.2278  0.2272 -1.0191
  179MPD1    C3 2726   2.967   0.130  15.965 -0.3151 -0.1045  0.2062
  179MPD1    C4 2727   3.086   0.079  16.002  0.2676 -0.3635 -0.4040
  179MPD1    C5 2728   3.205   0.139  15.960 -0.7240  0.0375 -0.1413
  179MPD1     H 2729   2.863   0.282  15.869  0.3174  1.2523  1.0856
  179MPD1    H1 2730   3.095   4.714  16.061 -0.0069  0.4696  0.9052
  179MPD1    H2 2731   3.286   0.296  15.834  0.0194  0.1010  1.9471
  179MPD1    H3 2732   3.297   0.086  15.981  0.8140  1.3490 -3.5979
  179MPD1     N 2733   2.850   0.064  16.014  0.4724  0.3514 -0.1951
  179MPD1    H5 2734   2.865   4.706  16.071 -2.8483 -0.4232 -0.4490
  179MPD1    N1 2735   3.074   0.406  15.749  0.6378  0.6485  0.4183
  179MPD1    H6 2736   2.988   0.460  15.760  0.2285  0.0733  0.0589
  179MPD1    H7 2737   3.151   0.473  15.742 -1.7516  3.1929 -1.8062
  180MPD1     C 2738   2.153   1.339  15.280  0.3114  0.2620 -0.4675
  180MPD1    C1 2739   2.222   1.452  15.248  0.5119 -0.1902  0.6960
  180MPD1    C2 2740   2.205   1.507  15.119  0.2335  0.7496 -0.1381
  180MPD1    C3 2741   2.115   1.450  15.029 -0.4975 -0.5645  0.3741
  180MPD1    C4 2742   2.042   1.337  15.063 -0.4977 -0.6935 -0.0954
  180MPD1    C5 2743   2.064   1.283  15.190  0.2803  0.0138 -0.3806
  180MPD1     H 2744   2.256   1.596  15.084  0.5617 -0.0079 -1.5859
  180MPD1    H1 2745   1.974   1.286  14.996 -1.4597 -1.7951  1.7217
  180MPD1    H2 2746   2.159   1.284  15.373 -0.3812  1.2726  0.1751
  180MPD1    H3 2747   2.014   1.192  15.222  0.3268 -0.5637 -1.9509
  180MPD1     N 2748   2.111   1.509  14.901  0.3646  0.7533  0.2007
  180MPD1    H5 2749   2.177   1.582  14.873  1.4111  0.5793  2.2091
  180MPD1    N1 2750   2.330   1.482  15.334  0.3750 -0.0879 -0.1958
  180MPD1    H6 2751   2.332   1.584  15.329  0.0430  0.0523  2.5157
  180MPD1    H7 2752   2.310   1.465  15.433 -2.4407 -1.8692 -1.0802
  181MPD1     C 2753   3.997   3.623   9.510 -0.6040  0.0387 -0.4825
  181MPD1    C1 2754   4.056   3.745   9.487 -0.3292 -0.2934 -0.1822
  181MPD1    C2 2755   4.185   3.745   9.436  0.5714 -0.6788 -0.0207
  181MPD1    C3 2756   4.255   3.625   9.426 -0.1424 -0.1491  0.0360
  181MPD1    C4 2757   4.202   3.507   9.471 -0.1759  0.4239  0.0066
  181MPD1    C5 2758   4.067   3.505   9.500  0.2220  0.5505  0.4117
  181MPD1     H 2759   4.237   3.833   9.400 -0.1427 -0.7374 -1.1878
  181MPD1    H1 2760   4.245   3.410   9.491  0.8438  0.2447 -3.0201
  181MPD1    H2 2761   3.895   3.621   9.548 -0.4870 -0.4255 -0.1853
  181MPD1    H3 2762   4.030   3.413   9.543 -0.3554 -0.2727 -1.8543
  181MPD1     N 2763   4.386   3.617   9.370 -0.5477 -0.5408 -0.5170
  181MPD1    H5 2764   4.416   3.520   9.363  0.2858 -0.4156  1.2845
  181MPD1    N1 2765   3.980   3.862   9.493 -0.5121 -1.0601  0.3894
  181MPD1    H6 2766   3.900   3.838   9.552  0.2016 -1.0349  1.3605
  181MPD1    H7 2767   4.038   3.929   9.543  0.3336 -1.0240 -0.6522
  182MPD1     C 2768   0.162   1.610   1.193  0.0831 -0.1591 -0.1267
  182MPD1    C1 2769   0.144   1.727   1.269  0.4328 -0.7996 -0.4385
  182MPD1    C2 2770   0.086   1.836   1.205  0.2863  1.2614 -0.7956
  182MPD1    C3 2771   0.028   1.816   1.081 -0.2314 -0.2083  0.0732
  182MPD1    C4 2772   0.044   1.693   1.010  0.3312  0.7298  0.8566
  182MPD1    C5 2773   0.104   1.588   1.073  0.6428  0.3438 -0.4879
  182MPD1     H 2774   0.078   1.932   1.255  2.3180  0.2921  1.4136
  182MPD1    H1 2775   0.021   1.680   0.905  0.9490 -2.1802  1.0878
  182MPD1    H2 2776   0.209   1.519   1.229  1.7781 -0.2680 -2.5790
  182MPD1    H3 2777   0.118   1.497   1.016  2.1330  0.3554 -0.1208
  182MPD1     N 2778   4.680   1.914   1.017 -0.3666  0.0641  0.0021
  182MPD1    H5 2779   4.653   1.900   0.920 -1.5634 -0.2819  0.3823
  182MPD1    N1 2780   0.226   1.753   1.381 -0.9170  0.0386 -0.3054
  182MPD1    H6 2781   0.246   1.674   1.442 -0.1072  0.6688  0.2419
  182MPD1    H7 2782   0.173   1.821   1.434 -0.8235  0.6747 -1.0156
  183MPD1     C 2783   0.314   3.296   9.532  0.0872  0.2667 -0.1349
  183MPD1    C1 2784   0.344   3.431   9.547 -0.4157 -0.0086 -0.1624
  183MPD1    C2 2785   0.476   3.468   9.557  0.0049 -0.2001 -0.4793
  183MPD1    C3 2786   0.575   3.379   9.571 -0.1606 -0.2928 -0.0288
  183MPD1    C4 2787   0.547   3.248   9.563  0.6594 -0.1245  0.1404
  183MPD1    C5 2788   0.418   3.204   9.536  0.6250  0.2486 -0.1909
  183MPD1     H 2789   0.509   3.572   9.558 -1.3243  0.2144 -0.4855
  183MPD1    H1 2790   0.623   3.173   9.577  1.4540  0.7001  0.2842
  183MPD1    H2 2791   0.210   3.271   9.515  1.1390 -3.2008 -1.6353
  183MPD1    H3 2792   0.399   3.098   9.527 -1.2245  0.4318  1.5911
  183MPD1     N 2793   0.707   3.429   9.576 -0.0680  0.0148  0.2192
  183MPD1    H5 2794   0.722   3.528   9.562 -0.6487 -0.1131 -1.3922
  183MPD1    N1 2795   0.253   3.529   9.506  0.1862  0.0112 -0.3684
  183MPD1    H6 2796   0.277   3.620   9.545  1.7421 -0.2161 -0.7938
  183MPD1    H7 2797   0.160   3.505   9.540  0.3567 -0.2096 -0.0520
  184MPD1     C 2798   4.516   0.433  10.431  0.4202 -0.1664  0.2427
  184MPD1    C1 2799   4.610   0.535  10.424 -0.2753  0.3321 -1.0036
  184MPD1    C2 2800   4.620   0.614  10.307  0.1186  0.1926 -0.1721
  184MPD1    C3 2801   4.554   0.574  10.197 -0.0377  0.1351 -0.1592
  184MPD1    C4 2802   4.469   0.465  10.197 -0.2196  0.0156 -0.3765
  184MPD1    C5 2803   4.454   0.396  10.316  0.0176 -0.1187  0.2092
  184MPD1     H 2804   4.696   0.691  10.309  0.7152 -0.3569 -1.8111
  184MPD1    H1 2805   4.420   0.429  10.108  0.1523  0.5649 -0.8056
  184MPD1    H2 2806   4.504   0.377  10.523  2.3152  1.7613  1.6704
  184MPD1    H3 2807   4.392   0.307  10.316  0.4528 -0.4251  1.3090
  184MPD1     N 2808   4.580   0.637  10.068  0.0302 -0.2714 -0.5316
  184MPD1    H5 2809   4.547   0.589   9.985  1.2192 -2.6102  0.3760
  184MPD1    N1 2810   4.679   0.576  10.539  0.1542 -0.0963  0.3716
  184MPD1    H6 2811   0.050   0.607  10.527 -0.6530  2.7313  1.0657
  184MPD1    H7 2812   4.680   0.500  10.606  0.8898 -0.9920 -0.6741
  185MPD1     C 2813   4.191   0.395   9.356  0.3745  0.5875 -0.3701
  185MPD1    C1 2814   4.262   0.502   9.297 -1.1157 -0.5488 -0.2421
  185MPD1    C2 2815   4.326   0.589   9.386 -0.3910 -0.1381  0.1478
  185MPD1    C3 2816   4.339   0.556   9.524  0.8108 -0.2923 -0.1260
  185MPD1    C4 2817   4.285   0.444   9.579  0.2817  0.2589  0.5668
  185MPD1    C5 2818   4.211   0.366   9.485 -0.1496 -0.4167  0.3609
  185MPD1     H 2819   4.378   0.677   9.349 -0.5079 -0.9103 -1.8550
  185MPD1    H1 2820   4.295   0.423   9.685  1.4379 -0.0902  0.3938
  185MPD1    H2 2821   4.125   0.334   9.296  1.4139  0.0518 -0.9645
  185MPD1    H3 2822   4.152   0.287   9.529  3.0554 -1.6883  2.3863
  185MPD1     N 2823   4.416   0.632   9.616 -0.2401  0.0594 -0.3866
  185MPD1    H5 2824   4.422   0.596   9.711 -1.2523 -2.2879 -1.2233
  185MPD1    N1 2825   4.248   0.518   9.163 -0.2160  0.3469  0.1541
  185MPD1    H6 2826   4.331   0.560   9.121 -0.5788 -1.1555 -2.0344
  185MPD1    H7 2827   4.255   0.426   9.120  3.5240  1.0730 -0.7592
  186MPD1     C 2828   2.802   0.642  15.654  0.3200 -0.8777  0.8803
  186MPD1    C1 2829   2.737   0.537  15.718  0.4850 -0.2714  0.5178
  186MPD1    C2 2830   2.731   0.529  15.856  0.3120  0.0976 -0.8230
  186MPD1    C3 2831   2.808   0.617  15.927 -0.0425  0.3567 -0.2952
  186MPD1    C4 2832   2.876   0.722  15.866  0.8125  0.7372 -0.3692
  186MPD1    C5 2833   2.870   0.733  15.734  0.0043 -0.7924 -0.5475
  186MPD1     H 2834   2.676   0.447  15.902  0.4120 -0.0692 -0.9976
  186MPD1    H1 2835   2.925   0.797  15.927  1.0156 -1.1654  1.8177
  186MPD1    H2 2836   2.797   0.655  15.546 -1.2256  1.1048  1.2060
  186MPD1    H3 2837   2.919   0.813  15.679  0.3601 -0.4125  0.3266
  186MPD1     N 2838   2.816   0.621  16.069  0.1474 -0.2026 -0.1680
  186MPD1    H5 2839   2.882   0.685  16.111  0.6586 -0.9656  0.1884
  186MPD1    N1 2840   2.658   0.455  15.641 -0.2673 -0.1438 -0.5894
  186MPD1    H6 2841   2.646   0.367  15.691 -0.8578  0.1603 -0.1907
  186MPD1    H7 2842   2.709   0.435  15.556  1.3222  0.6697  0.1777
  187MPD1     C 2843   2.760   1.923   0.203  0.7391  0.6086  0.5862
  187MPD1    C1 2844   2.824   1.992   0.102 -0.6455 -0.7223  0.2781
  187MPD1    C2 2845   2.750   2.040  17.699  0.2341 -0.5964 -0.4382
  187MPD1    C3 2846   2.613   2.024  17.697 -0.2659  0.7227 -0.6583
  187MPD1    C4 2847   2.550   1.958   0.099 -0.6460  0.6824  0.5961
  187MPD1    C5 2848   2.625   1.911   0.205 -0.0065  0.5983  0.1517
  187MPD1     H 2849   2.804   2.079  17.613 -0.6491 -0.2043 -0.8118
  187MPD1    H1 2850   2.442   1.953   0.108 -0.4978 -3.7667 -0.5307
  187MPD1    H2 2851   2.815   1.877   0.285  0.5941 -1.5295 -0.5253
  187MPD1    H3 2852   2.573   1.855   0.282 -0.5580 -0.3771 -0.9382
  187MPD1     N 2853   2.528   2.096  17.606  0.0157 -0.1495 -0.4376
  187MPD1    H5 2854   2.428   2.081  17.611 -0.1357  0.5627 -1.2583
  187MPD1    N1 2855   2.966   1.988   0.095 -0.2743 -0.1169 -0.0970
  187MPD1    H6 2856   3.014   1.959   0.180  1.1125 -0.2096 -0.9180
  187MPD1    H7 2857   3.003   2.077   0.063 -1.9242  1.3016  1.9452
  188MPD1     C 2858   1.756   3.035  11.109  0.0455  0.3913  0.5793
  188MPD1    C1 2859   1.734   3.078  10.980 -0.0465  0.4613  0.4408
  188MPD1    C2 2860   1.787   3.000  10.876  0.1722 -0.3327 -0.1310
  188MPD1    C3 2861   1.829   2.868  10.897 -0.8085  0.0600 -0.2510
  188MPD1    C4 2862   1.826   2.822  11.027  0.1401  0.0701  0.3770
  188MPD1    C5 2863   1.784   2.901  11.136  0.1643  1.0902  0.6011
  188MPD1     H 2864   1.790   3.040  10.775 -0.8556 -0.1711 -0.0942
  188MPD1    H1 2865   1.843   2.716  11.044 -1.0141 -0.1698  0.0529
  188MPD1    H2 2866   1.737   3.101  11.193 -1.0807  0.5388  0.2087
  188MPD1    H3 2867   1.771   2.865  11.237 -0.6072  0.9585  0.4535
  188MPD1     N 2868   1.878   2.783  10.794 -0.4681  0.6393  0.3719
  188MPD1    H5 2869   1.895   2.686  10.819 -1.6022  0.1096 -0.9029
  188MPD1    N1 2870   1.708   3.217  10.961  0.5325 -0.7634  0.1594
  188MPD1    H6 2871   1.670   3.235  10.868  0.3690  1.5565  0.6763
  188MPD1    H7 2872   1.643   3.253  11.030  1.2552 -1.5151  1.2334
  189MPD1     C 2873   4.267   2.575   0.436  0.0357  0.2544 -0.1691
  189MPD1    C1 2874   4.261   2.609   0.573  0.1576 -0.0921  0.0806
  189MPD1    C2 2875   4.165   2.701   0.610  0.6430 -0.2150 -0.5063
  189MPD1    C3 2876   4.086   2.766   0.520 -0.8478  0.1273 -0.5829
  189MPD1    C4 2877   4.107   2.738   0.380 -0.2343  0.1696  0.0324
  189MPD1    C5 2878   4.201   2.643   0.336 -0.3022  1.0774  0.3200
  189MPD1     H 2879   4.145   2.733   0.712 -0.5088  2.1569 -1.4776
  189MPD1    H1 2880   4.041   2.781   0.305  1.0020 -0.6503 -1.5432
  189MPD1    H2 2881   4.334   2.494   0.409 -0.7494 -0.5398  0.2839
  189MPD1    H3 2882   4.200   2.607   0.234  0.5033  1.2705  0.2417
  189MPD1     N 2883   3.987   2.851   0.574  0.5998 -0.4039 -0.1769
  189MPD1    H5 2884   3.958   2.849   0.671  4.1988  0.7346  0.9084
  189MPD1    N1 2885   4.332   2.531   0.666  0.1049 -0.3809  0.0629
  189MPD1    H6 2886   4.423   2.505   0.628 -0.3308 -0.5603 -0.8754
  189MPD1    H7 2887   4.351   2.603   0.735 -1.7912  1.1980 -1.0519
  190MPD1     C 2888   2.969   1.999  15.221  0.1959  0.0956  0.5449
  190MPD1    C1 2889   3.035   1.883  15.189 -0.3117  0.2451 -0.2109
  190MPD1    C2 2890   3.055   1.794  15.299  0.3450 -0.2055 -0.6110
  190MPD1    C3 2891   2.989   1.797  15.419 -0.5513 -0.0504 -0.2613
  190MPD1    C4 2892   2.918   1.914  15.441 -0.4546  0.3047 -0.8733
  190MPD1    C5 2893   2.907   2.008  15.340  0.9524  0.1226  0.1318
  190MPD1     H 2894   3.125   1.712  15.288  1.0686  0.3944 -0.4846
  190MPD1    H1 2895   2.864   1.941  15.532  1.2191  0.9991 -0.0872
  190MPD1    H2 2896   2.958   2.075  15.144 -1.8814  0.7936  1.5545
  190MPD1    H3 2897   2.839   2.092  15.343  0.2371 -0.3893 -1.9106
  190MPD1     N 2898   3.006   1.693  15.511  0.3423  0.0438  0.1291
  190MPD1    H5 2899   3.062   1.611  15.491 -2.7321 -2.2264  0.9381
  190MPD1    N1 2900   3.109   1.884  15.067  0.1725 -0.2545  0.5440
  190MPD1    H6 2901   3.140   1.789  15.046 -0.5290  0.0934 -2.1722
  190MPD1    H7 2902   3.042   1.913  14.995  1.7980  4.3284  0.8677
  191MPD1     C 2903   1.485   4.015  13.010  0.3128  0.3376  0.1374
  191MPD1    C1 2904   1.607   4.065  12.966 -0.0785 -0.0682  0.4133
  191MPD1    C2 2905   1.595   4.159  12.868 -0.1070 -0.1588 -0.6661
  191MPD1    C3 2906   1.485   4.169  12.790  0.0427 -0.1549  0.2380
  191MPD1    C4 2907   1.366   4.118  12.832  0.4808  0.4633 -0.4817
  191MPD1    C5 2908   1.366   4.052  12.945  0.5496 -0.0362 -0.5684
  191MPD1     H 2909   1.688   4.205  12.836  1.0245 -2.0817 -0.1399
  191MPD1    H1 2910   1.273   4.122  12.777 -0.6786  0.0932  1.4701
  191MPD1    H2 2911   1.468   3.947  13.092 -0.6741  1.6714  1.0445
  191MPD1    H3 2912   1.278   4.001  12.982  0.9552  0.2718  0.8570
  191MPD1     N 2913   1.504   4.236  12.667 -0.4700 -0.9095  0.0092
  191MPD1    H5 2914   1.596   4.260  12.631  0.3786  0.3899  2.9656
  191MPD1    N1 2915   1.723   4.058  13.039 -0.3526  0.1414  0.2100
  191MPD1    H6 2916   1.720   3.973  13.096  0.9864 -1.3689 -1.9483
  191MPD1    H7 2917   1.801   4.048  12.975 -0.3646 -0.5767  0.2990
  192MPD1     C 2918   0.786   4.623  12.211 -0.0427  0.2703 -0.3406
  192MPD1    C1 2919   0.829   4.564  12.097 -0.0862  0.0641 -0.3205
  192MPD1    C2 2920   0.963   4.528  12.112  0.1367 -0.0108 -0.5216
  192MPD1    C3 2921   1.042   4.582  12.217  0.2194 -0.0849 -0.7383
  192MPD1    C4 2922   0.985   4.664  12.314  0.1141  0.3013  0.4170
  192MPD1    C5 2923   0.853   4.681  12.311  0.1924 -0.1392  0.5361
  192MPD1     H 2924   1.011   4.456  12.046  0.1652  1.0125 -1.6170
  192MPD1    H1 2925   1.046   4.705  12.393  4.3042  0.8303 -3.0361
  192MPD1    H2 2926   0.678   4.623  12.219  0.0266 -1.5441  0.6199
  192MPD1    H3 2927   0.801   0.010  12.390  0.3637  0.6105  0.1329
  192MPD1     N 2928   1.179   4.562  12.232  0.0105  0.2392 -0.4459
  192MPD1    H5 2929   1.228   4.619  12.301 -0.2072 -0.9420  0.6733
  192MPD1    N1 2930   0.737   4.518  12.000  0.3882 -0.3710 -0.0374
  192MPD1    H6 2931   0.774   4.519  11.905  0.2347  1.6318 -0.0700
  192MPD1    H7 2932   0.670   4.593  11.993  0.3483 -0.7064 -3.4220
  193MPD1     C 2933   2.046   3.172  17.605 -0.2141  0.2684  0.1973
  193MPD1    C1 2934   1.963   3.278  17.629 -0.0323 -0.4601 -0.2877
  193MPD1    C2 2935   1.987   3.400  17.567 -0.3919 -0.1801  0.6198
  193MPD1    C3 2936   2.080   3.410  17.469  0.0013 -0.4553  0.0007
  193MPD1    C4 2937   2.166   3.300  17.439 -0.3651  0.3029  0.0613
  193MPD1    C5 2938   2.151   3.180  17.513 -0.1850  0.2469  0.4411
  193MPD1     H 2939   1.923   3.477  17.608 -0.2481 -0.6513  1.7509
  193MPD1    H1 2940   2.250   3.316  17.373  1.8969  2.5476  3.4494
  193MPD1    H2 2941   2.037   3.083  17.667  0.9275 -0.4898 -0.7197
  193MPD1    H3 2942   2.214   3.094  17.494 -0.4582 -0.0148  0.7232
  193MPD1     N 2943   2.107   3.523  17.394 -0.7408  0.0302 -0.5113
  193MPD1    H5 2944   2.179   3.509  17.324  1.2919  1.2212  1.3309
  193MPD1    N1 2945   1.862   3.272   0.025  0.8135 -0.1195  0.4828
  193MPD1    H6 2946   1.817   3.182   0.041  0.1940  0.2557  0.8537
  193MPD1    H7 2947   1.788   3.342   0.021  0.6958 -0.2562  0.2918
  194MPD1     C 2948   4.169   1.366  16.859  0.2677 -0.3296  0.3172
  194MPD1    C1 2949   4.190   1.289  16.748  0.7186  0.5707 -0.4292
  194MPD1    C2 2950   4.238   1.157  16.753 -0.3735 -0.3398 -0.5104
  194MPD1    C3 2951   4.289   1.119  16.872 -0.3444  0.4506  0.0972
  194MPD1    C4 2952   4.275   1.193  16.989 -0.1602  0.3232 -0.2268
  194MPD1    C5 2953   4.204   1.315  16.982 -0.2621 -0.2449 -0.0711
  194MPD1     H 2954   4.254   1.092  16.668 -1.6440 -0.2848 -0.7964
  194MPD1    H1 2955   4.324   1.169  17.083 -2.2042 -2.1864  0.1904
  194MPD1    H2 2956   4.124   1.465  16.859 -0.5797 -0.7175  0.6068
  194MPD1    H3 2957   4.197   1.375  17.072  0.7791  1.8958 -1.4331
  194MPD1     N 2958   4.350   0.994  16.898  0.0981  0.0481 -0.0987
  194MPD1    H5 2959   4.375   0.978  16.995 -2.2330 -1.1208  0.2991
  194MPD1    N1 2960   4.132   1.333  16.630 -0.2661 -0.1973  0.4562
  194MPD1    H6 2961   4.138   1.434  16.617 -3.0508 -0.0674  0.2766
  194MPD1    H7 2962   4.190   1.300  16.554 -0.8961  1.9435 -0.9500
  195MPD1     C 2963   1.758   3.109   0.345  0.1614  0.2662 -0.4766
  195MPD1    C1 2964   1.642   3.048   0.360  0.2098  0.2888 -0.2202
  195MPD1    C2 2965   1.631   2.921   0.414  0.1652  1.0521 -0.4235
  195MPD1    C3 2966   1.751   2.854   0.440 -0.6608 -0.1770 -0.8489
  195MPD1    C4 2967   1.870   2.914   0.419  0.2584  0.4071 -0.8263
  195MPD1    C5 2968   1.876   3.044   0.377  0.0919  0.5089 -0.6033
  195MPD1     H 2969   1.534   2.874   0.425  0.3363  0.6288 -0.6934
  195MPD1    H1 2970   1.957   2.854   0.441 -1.1054 -1.3623 -0.2746
  195MPD1    H2 2971   1.765   3.209   0.303  1.3301  1.0289  1.5254
  195MPD1    H3 2972   1.971   3.096   0.367 -0.4494  1.9038  1.4343
  195MPD1     N 2973   1.756   2.710   0.475  0.3655  0.1999  0.3560
  195MPD1    H5 2974   1.845   2.667   0.449  1.5520  1.7194  1.8981
  195MPD1    N1 2975   1.529   3.109   0.310  0.0984  0.2671  0.0565
  195MPD1    H6 2976   1.539   3.208   0.327  0.2412 -0.2224  2.8475
  195MPD1    H7 2977   1.450   3.077   0.367  1.2022 -1.7836  0.4267
  196MPD1     C 2978   0.469   1.579   0.719 -0.1588 -0.1208  0.1035
  196MPD1    C1 2979   0.589   1.639   0.696 -0.2086 -0.6390  0.2726
  196MPD1    C2 2980   0.646   1.706   0.799 -0.4368 -0.1491 -0.0197
  196MPD1    C3 2981   0.577   1.715   0.924  0.0408 -0.3509 -0.2880
  196MPD1    C4 2982   0.449   1.663   0.931  0.4444 -0.8398 -0.3374
  196MPD1    C5 2983   0.399   1.590   0.830 -0.2173 -0.2034  0.4577
  196MPD1     H 2984   0.746   1.746   0.786 -0.4239 -0.3148 -0.4402
  196MPD1    H1 2985   0.392   1.672   1.023  1.8653  1.0318  0.3833
  196MPD1    H2 2986   0.423   1.522   0.639  1.2761 -0.4174 -0.4944
  196MPD1    H3 2987   0.301   1.545   0.835  0.9004 -2.6071  0.8517
  196MPD1     N 2988   0.627   1.779   1.043  0.4956  0.4687  0.1141
  196MPD1    H5 2989   0.560   1.785   1.118  0.9365 -0.0700  0.5455
  196MPD1    N1 2990   0.660   1.619   0.572  0.1762  0.4182  0.5391
  196MPD1    H6 2991   0.600   1.603   0.492  1.2634  1.9045 -0.5661
  196MPD1    H7 2992   0.730   1.690   0.550  0.3902  0.0701  0.1194
  197MPD1     C 2993   0.470   3.592  17.482 -0.4869 -0.0880 -0.4125
  197MPD1    C1 2994   0.420   3.648  17.367 -0.4532 -1.1802 -0.2818
  197MPD1    C2 2995   0.499   3.738  17.295 -0.1821  0.2986  0.8234
  197MPD1    C3 2996   0.629   3.763  17.335  0.0681 -0.8801 -0.6085
  197MPD1    C4 2997   0.673   3.710  17.451 -0.0880  0.2169  0.4425
  197MPD1    C5 2998   0.599   3.621  17.522  0.6531  0.3573  0.4411
  197MPD1     H 2999   0.458   3.792  17.211 -2.0616  1.2479  2.3313
  197MPD1    H1 3000   0.772   3.740  17.482  0.3562 -0.1619 -0.6492
  197MPD1    H2 3001   0.415   3.520  17.541 -0.2798  1.0095  1.1034
  197MPD1    H3 3002   0.636   3.574  17.612  0.6203 -2.1709 -0.8575
  197MPD1     N 3003   0.714   3.850  17.263  0.0371  0.3186  0.5143
  197MPD1    H5 3004   0.792   3.890  17.314  2.0417 -3.0300 -0.0049
  197MPD1    N1 3005   0.282   3.621  17.334 -0.2739  0.3031  0.5800
  197MPD1    H6 3006   0.244   3.535  17.374  0.5466 -1.4409 -2.3206
  197MPD1    H7 3007   0.256   3.628  17.236  0.7450 -2.0450  0.1253
  198MPD1     C 3008   2.753   2.517  15.922  0.2409 -0.8047 -0.0714
  198MPD1    C1 3009   2.782   2.589  15.803 -0.6786  0.7956  0.0464
  198MPD1    C2 3010   2.853   2.704  15.817  0.6768 -0.8866  0.0222
  198MPD1    C3 3011   2.896   2.757  15.937 -0.3855  0.1393 -0.7084
  198MPD1    C4 3012   2.875   2.683  16.049  0.3139 -0.0032  0.2331
  198MPD1    C5 3013   2.802   2.563  16.046 -0.2293  0.0703 -0.4297
  198MPD1     H 3014   2.871   2.756  15.723  0.6711  1.4383  1.2925
  198MPD1    H1 3015   2.901   2.721  16.148  0.2457 -1.3985  0.7805
  198MPD1    H2 3016   2.697   2.424  15.923 -0.3201 -0.4397  1.6107
  198MPD1    H3 3017   2.779   2.519  16.143 -1.5058 -0.1105 -0.8205
  198MPD1     N 3018   2.965   2.881  15.937 -0.1291 -0.4222  0.3426
  198MPD1    H5 3019   2.973   2.922  15.845 -2.5616  1.7871  1.1283
  198MPD1    N1 3020   2.718   2.562  15.681  0.4369 -0.4520  0.0457
  198MPD1    H6 3021   2.704   2.465  15.654  2.9769 -0.9358  0.4725
  198MPD1    H7 3022   2.751   2.619  15.603  1.0418  1.1673  1.4828
  199MPD1     C 3023   4.323   2.929   9.327 -0.6316 -0.0350  0.5573
  199MPD1    C1 3024   4.200   2.963   9.379  0.3617  0.4875  0.5670
  199MPD1    C2 3025   4.143   3.078   9.342 -0.5318  0.0686 -0.3859
  199MPD1    C3 3026   4.187   3.158   9.234  0.2029 -0.3041 -0.0035
  199MPD1    C4 3027   4.306   3.120   9.171  0.0835 -0.6428  0.1723
  199MPD1    C5 3028   4.371   3.003   9.221 -0.8004  0.5573 -0.4200
  199MPD1     H 3029   4.059   3.118   9.397 -1.5437 -0.2150 -1.7221
  199MPD1    H1 3030   4.348   3.162   9.080  2.9136 -3.0569  0.3588
  199MPD1    H2 3031   4.379   2.851   9.377  0.8997  0.4787 -0.3538
  199MPD1    H3 3032   4.473   2.979   9.193 -0.9767  0.2050 -0.7691
  199MPD1     N 3033   4.137   3.278   9.191  0.0334  0.4729 -0.2044
  199MPD1    H5 3034   4.181   3.320   9.110  0.7501  0.1238  0.0066
  199MPD1    N1 3035   4.176   2.898   9.503  0.4860  0.3590  0.3361
  199MPD1    H6 3036   4.075   2.899   9.513  0.3957 -0.2580 -0.5293
  199MPD1    H7 3037   4.211   2.803   9.505  1.3686  0.6818  0.3721
  200MPD1     C 3038   2.917   4.260  15.534 -0.1025 -0.6681 -0.0825
  200MPD1    C1 3039   2.928   4.254  15.399  0.0807 -0.3552 -0.6588
  200MPD1    C2 3040   3.032   4.182  15.337  0.0793  0.2575 -0.5101
  200MPD1    C3 3041   3.137   4.137  15.415  0.1230 -0.6090 -0.4362
  200MPD1    C4 3042   3.138   4.158  15.552  0.0373  0.1198 -1.2405
  200MPD1    C5 3043   3.025   4.213  15.606  0.2834 -0.3073  0.0590
  200MPD1     H 3044   3.025   4.157  15.232  1.7441 -2.0179 -0.0796
  200MPD1    H1 3045   3.222   4.129  15.614 -0.3569 -1.2673 -1.3481
  200MPD1    H2 3046   2.831   4.310  15.578 -1.7501 -3.5718  0.0321
  200MPD1    H3 3047   3.026   4.228  15.714  1.6413  1.1067 -0.1409
  200MPD1     N 3048   3.225   4.045  15.345  0.1778 -0.1172  0.4487
  200MPD1    H5 3049   3.202   4.019  15.249 -1.4083  1.0581  0.5079
  200MPD1    N1 3050   2.813   4.293  15.323  0.3985 -0.3198  0.2113
  200MPD1    H6 3051   2.844   4.341  15.239  1.1787 -0.1913  0.5723
  200MPD1    H7 3052   2.746   4.349  15.374 -1.7933 -1.2883 -1.6213
  201MPD1     C 3053   0.808   3.368  12.444  0.8823 -0.1259  0.2700
  201MPD1    C1 3054   0.865   3.270  12.372 -0.0624  0.9102  0.7338
  201MPD1    C2 3055   0.949   3.183  12.439  0.4550 -0.5623  0.3895
  201MPD1    C3 3056   0.974   3.197  12.576 -0.1262  0.3421 -0.1166
  201MPD1    C4 3057   0.922   3.300  12.654 -0.3740 -0.6886  0.1369
  201MPD1    C5 3058   0.827   3.377  12.583 -0.0706  0.0615  0.3345
  201MPD1     H 3059   1.004   3.105  12.388 -0.2531 -1.8713  1.6301
  201MPD1    H1 3060   0.933   3.317  12.760  1.3288  1.8415 -0.4193
  201MPD1    H2 3061   0.741   3.441  12.402  1.8339  1.5961  1.7312
  201MPD1    H3 3062   0.779   3.462  12.631  2.0591  0.9992  0.8300
  201MPD1     N 3063   1.058   3.099  12.623  0.1996 -0.0768 -0.0428
  201MPD1    H5 3064   1.091   3.027  12.560 -0.1920 -0.1864 -0.1235
  201MPD1    N1 3065   0.841   3.250  12.237 -0.0760  0.4825 -0.0605
  201MPD1    H6 3066   0.752   3.280  12.198  1.8818  3.7181 -2.0464
  201MPD1    H7 3067   0.856   3.154  12.208 -0.5245 -0.0908  1.6329
  202MPD1     C 3068   0.940   2.147   9.895  0.0401  0.4225 -0.2386
  202MPD1    C1 3069   0.942   2.267   9.827 -0.5328  0.0052 -0.1946
  202MPD1    C2 3070   1.017   2.369   9.883 -0.3679 -0.5350 -0.0630
  202MPD1    C3 3071   1.057   2.354  10.012  0.0292 -0.1623 -0.4823
  202MPD1    C4 3072   1.049   2.234  10.078  0.4035 -0.4948  1.2720
  202MPD1    C5 3073   0.991   2.129  10.016 -0.0415  0.6620  0.5937
  202MPD1     H 3074   1.016   2.462   9.827  1.3147 -1.9860 -2.4774
  202MPD1    H1 3075   1.090   2.224  10.178  0.1163  2.3027  1.6593
  202MPD1    H2 3076   0.925   2.050   9.848 -1.8143  0.0257  1.1525
  202MPD1    H3 3077   1.003   2.027  10.050  0.9349  0.2749 -0.9546
  202MPD1     N 3078   1.096   2.463  10.092  0.0916  0.2238 -0.2746
  202MPD1    H5 3079   1.133   2.440  10.184  0.8292  2.3562 -0.0512
  202MPD1    N1 3080   0.921   2.265   9.688  0.5237 -0.0148 -0.6852
  202MPD1    H6 3081   0.846   2.202   9.660  0.1037  1.0659 -1.9813
  202MPD1    H7 3082   0.904   2.363   9.665 -0.6448 -0.1802 -0.4784
  203MPD1     C 3083   4.486   4.064  12.154  0.4796  0.3375 -0.0626
  203MPD1    C1 3084   4.578   4.006  12.083 -0.0556  0.2673 -0.7486
  203MPD1    C2 3085   4.570   3.868  12.087  0.7434  0.2242  0.5712
  203MPD1    C3 3086   4.486   3.794  12.172 -0.0663 -0.7616  0.2433
  203MPD1    C4 3087   4.382   3.867  12.234  0.1871  0.3031 -0.3679
  203MPD1    C5 3088   4.384   4.003  12.221 -0.2332  0.1758 -0.0386
  203MPD1     H 3089   4.636   3.818  12.017  0.7633 -1.3288  1.6987
  203MPD1    H1 3090   4.295   3.821  12.280  0.6079  0.2203  0.3370
  203MPD1    H2 3091   4.480   4.172  12.157  0.8064  0.3440  0.3613
  203MPD1    H3 3092   4.304   4.058  12.270 -0.6525  1.5407 -2.2462
  203MPD1     N 3093   4.498   3.653  12.169 -0.5673 -0.2426 -0.1138
  203MPD1    H5 3094   4.559   3.609  12.101  1.5072  2.5466 -0.0814
  203MPD1    N1 3095   4.658   4.072  11.989 -0.4322  0.3133  0.8908
  203MPD1    H6 3096   0.021   4.023  11.976 -0.7753 -0.5344  1.7156
  203MPD1    H7 3097   4.687   4.159  12.033 -1.4291  0.9366  0.3175
  204MPD1     C 3098   0.421   4.518  17.511  0.8614  0.5012 -0.8389
  204MPD1    C1 3099   0.401   4.590  17.398  0.4346 -0.4037 -0.4450
  204MPD1    C2 3100   0.287   4.560  17.323 -0.3951  0.3789 -0.4204
  204MPD1    C3 3101   0.205   4.456  17.361  0.0914  0.6344  0.7413
  204MPD1    C4 3102   0.229   4.374  17.472  0.3063  0.5221  0.0233
  204MPD1    C5 3103   0.338   4.408  17.543  0.0597  0.1491 -1.1899
  204MPD1     H 3104   0.252   4.612  17.234  3.7531  1.4597 -1.4530
  204MPD1    H1 3105   0.163   4.296  17.507 -1.0276  2.2304  1.2842
  204MPD1    H2 3106   0.507   4.537  17.574  0.1670 -0.2925  0.3351
  204MPD1    H3 3107   0.364   4.355  17.634  0.8597 -0.6306 -1.8765
  204MPD1     N 3108   0.101   4.435  17.271  0.7270 -0.2372 -0.3783
  204MPD1    H5 3109   0.096   4.496  17.190  0.2913  0.3105  0.0546
  204MPD1    N1 3110   0.468   4.713  17.374  0.0630 -0.3284 -0.5049
  204MPD1    H6 3111   0.566   4.706  17.401 -0.4236 -2.4191  0.7352
  204MPD1    H7 3112   0.470   0.006  17.274  1.9177 -0.6768 -0.5255
  205MPD1     C 3113   0.147   3.097  16.811 -0.6678  0.5608  0.7294
  205MPD1    C1 3114   0.108   3.224  16.764 -0.0347  0.2485 -0.4857
  205MPD1    C2 3115   4.705   3.272  16.795  0.3111 -0.1859 -0.7967
  205MPD1    C3 3116   4.611   3.197  16.867 -0.2763  0.2357 -0.5021
  205MPD1    C4 3117   4.658   3.075  16.914  0.1913 -0.2989 -0.0597
  205MPD1    C5 3118   0.062   3.029  16.895  0.2220  0.4199 -0.5147
  205MPD1     H 3119   4.684   3.368  16.750  1.8706  1.3668  1.8151
  205MPD1    H1 3120   4.589   3.018  16.976  1.5784 -1.3011  0.5504
  205MPD1    H2 3121   0.239   3.052  16.774 -1.1532  2.0305 -2.2449
  205MPD1    H3 3122   0.100   2.936  16.936  2.5880  0.4083 -2.6726
  205MPD1     N 3123   4.479   3.234  16.894  0.7167  0.4244 -0.3443
  205MPD1    H5 3124   4.434   3.173  16.962  4.6131 -0.0495  1.7677
  205MPD1    N1 3125   0.189   3.293  16.672 -0.0150 -0.3490 -0.1076
  205MPD1    H6 3126   0.283   3.285  16.709 -0.0127  2.3376  0.4544
  205MPD1    H7 3127   0.155   3.389  16.669  0.6080 -0.1284  0.0021
  206MPD1     C 3128   4.059   1.733  16.543  0.3158 -0.0245 -0.6806
  206MPD1    C1 3129   4.146   1.632  16.501 -0.1129 -0.7947  0.5600
  206MPD1    C2 3130   4.119   1.560  16.392 -0.2436  0.0813  0.5744
  206MPD1    C3 3131   3.997   1.570  16.326 -0.3205 -0.1670 -0.8773
  206MPD1    C4 3132   3.907   1.671  16.376  0.2332  0.8728 -0.1045
  206MPD1    C5 3133   3.936   1.747  16.485 -0.1801 -0.1928  0.0534
  206MPD1     H 3134   4.197   1.497  16.351  0.4944  1.0551  0.4670
  206MPD1    H1 3135   3.807   1.685  16.337  0.7701 -1.9770 -2.5656
  206MPD1    H2 3136   4.088   1.795  16.627  2.0837 -3.9413  1.6309
  206MPD1    H3 3137   3.883   1.833  16.525 -0.0128 -0.4993  0.9195
  206MPD1     N 3138   3.953   1.490  16.220  0.1867 -0.8850  1.0921
  206MPD1    H5 3139   3.865   1.518  16.179  0.7666 -1.0560 -0.2646
  206MPD1    N1 3140   4.276   1.651  16.550  0.4827 -0.2205 -0.1532
  206MPD1    H6 3141   4.339   1.572  16.536  1.7284  0.2107  3.0072
  206MPD1    H7 3142   4.274   1.686  16.645 -0.8934  2.6554 -1.2333
  207MPD1     C 3143   2.440   0.069   9.684 -0.2776  0.2228 -0.2102
  207MPD1    C1 3144   2.362   4.715   9.604  0.1339  0.0050 -0.9290
  207MPD1    C2 3145   2.388   4.581   9.600  0.2899  0.3776 -0.2060
  207MPD1    C3 3146   2.493   4.517   9.669 -0.3330  0.0054  0.1580
  207MPD1    C4 3147   2.569   4.595   9.750 -0.2046 -0.1832  0.0529
  207MPD1    C5 3148   2.541   0.007   9.752 -0.0353  0.0593 -0.1774
  207MPD1     H 3149   2.310   4.517   9.559 -1.1597  0.8624  1.8365
  207MPD1    H1 3150   2.647   4.555   9.813  1.8152  3.0967 -0.3287
  207MPD1    H2 3151   2.435   0.176   9.696 -0.2975  0.3144 -1.0235
  207MPD1    H3 3152   2.611   0.065   9.810  2.3477 -1.9285 -1.0805
  207MPD1     N 3153   2.521   4.383   9.658 -0.0244  0.2826  0.1338
  207MPD1    H5 3154   2.601   4.351   9.711  0.0582  1.2508  0.6028
  207MPD1    N1 3155   2.252   0.044   9.529  0.0353  1.1455  0.5647
  207MPD1    H6 3156   2.202   4.703   9.469  1.5743  0.0482  0.4603
  207MPD1    H7 3157   2.285   0.125   9.477 -0.6758  1.3702  0.4624
  208MPD1     C 3158   0.104   2.000  17.032  0.2083  0.1700  0.3199
  208MPD1    C1 3159   0.147   1.998  17.163 -0.8818 -0.0670  0.2576
  208MPD1    C2 3160   0.077   2.072  17.260  0.4731 -0.3178 -0.8864
  208MPD1    C3 3161   4.689   2.141  17.222  0.1903 -0.5088  0.4554
  208MPD1    C4 3162   4.645   2.146  17.090  0.3106  0.8073  0.0536
  208MPD1    C5 3163   4.714   2.075  16.999  0.1918 -0.1731 -0.2047
  208MPD1     H 3164   0.107   2.086  17.363  0.8646 -0.1897 -1.0189
  208MPD1    H1 3165   4.550   2.187  17.058 -0.1278 -0.1844  0.1047
  208MPD1    H2 3166   0.161   1.957  16.950  0.6209 -1.4566  1.4523
  208MPD1    H3 3167   4.681   2.074  16.896 -2.2571  0.2022  0.5606
  208MPD1     N 3168   4.625   2.215  17.320  0.3285  0.4773  0.5739
  208MPD1    H5 3169   4.681   2.221  17.405  1.8943  0.7526 -0.4822
  208MPD1    N1 3170   0.281   1.963  17.181  0.9570 -0.2755 -0.7284
  208MPD1    H6 3171   0.300   1.922  17.272 -1.3060 -1.3170 -0.7370
  208MPD1    H7 3172   0.323   1.902  17.111 -0.4351 -1.5764 -0.4262
  209MPD1     C 3173   1.733   2.718   9.833  0.1296  0.4259 -0.0419
  209MPD1    C1 3174   1.790   2.822   9.761 -0.1228 -0.5417 -0.2466
  209MPD1    C2 3175   1.841   2.926   9.838  0.8340  0.1215  0.1467
  209MPD1    C3 3176   1.816   2.935   9.970  0.0919  0.4822 -0.2641
  209MPD1    C4 3177   1.742   2.842  10.031 -0.2784  0.1524  0.2605
  209MPD1    C5 3178   1.695   2.734   9.966 -0.0603  0.2549 -0.7182
  209MPD1     H 3179   1.909   2.992   9.787 -0.2865  1.7732  0.7917
  209MPD1    H1 3180   1.714   2.845  10.136 -1.4968 -0.6264 -0.0397
  209MPD1    H2 3181   1.702   2.626   9.784  2.6524 -0.0565 -0.7078
  209MPD1    H3 3182   1.638   2.661  10.022  0.8927 -0.4480 -0.6476
  209MPD1     N 3183   1.886   3.035  10.045 -0.7100  0.3949  0.4161
  209MPD1    H5 3184   1.932   3.112   9.999 -1.2854 -0.2897 -1.3069
  209MPD1    N1 3185   1.844   2.791   9.639 -0.4175  0.1028 -0.0683
  209MPD1    H6 3186   1.870   2.863   9.571 -1.1678  0.4005 -0.0324
  209MPD1    H7 3187   1.787   2.723   9.590  1.2692 -0.6932 -0.9527
  210MPD1     C 3188   2.088   3.564  10.994 -0.3955  0.5477 -0.0312
  210MPD1    C1 3189   2.011   3.458  10.962  0.0888  0.3553 -0.8188
  210MPD1    C2 3190   2.018   3.418  10.832 -0.3629  0.3930  0.5618
  210MPD1    C3 3191   2.072   3.490  10.727 -0.0511 -1.0171 -0.6591
  210MPD1    C4 3192   2.141   3.603  10.764  0.0883 -0.7222  0.0352
  210MPD1    C5 3193   2.146   3.642  10.896  0.2881 -0.1057  0.0001
  210MPD1     H 3194   1.965   3.324  10.822  0.8170 -0.4032  1.8673
  210MPD1    H1 3195   2.188   3.671  10.694 -3.4355 -0.2088 -1.8591
  210MPD1    H2 3196   2.099   3.598  11.097 -1.1223 -0.1446  0.2797
  210MPD1    H3 3197   2.184   3.742  10.913 -1.4192  1.1381 -3.5675
  210MPD1     N 3198   2.053   3.447  10.592 -0.5467 -1.1205  0.0649
  210MPD1    H5 3199   2.087   3.521  10.532 -0.6566  1.2412  2.9440
  210MPD1    N1 3200   1.952   3.372  11.050 -0.5516 -0.1480  0.0040
  210MPD1    H6 3201   1.903   3.425  11.122 -0.7819 -0.8657  0.3783
  210MPD1    H7 3202   1.882   3.313  11.004 -0.0363 -1.3515  0.7431
  211MPD1     C 3203   0.251   2.588  16.050  0.5315 -0.2861 -0.8044
  211MPD1    C1 3204   0.123   2.558  16.077  0.0489 -0.8398 -0.3174
  211MPD1    C2 3205   0.056   2.638  16.167  0.2112 -0.4329  0.1015
  211MPD1    C3 3206   0.098   2.766  16.196  0.3711  0.4857  0.1004
  211MPD1    C4 3207   0.224   2.802  16.153 -0.6086 -0.7752 -0.1923
  211MPD1    C5 3208   0.298   2.709  16.084 -0.1663  0.5463  0.1861
  211MPD1     H 3209   4.681   2.613  16.201  0.0265  0.1694  0.0013
  211MPD1    H1 3210   0.266   2.900  16.173  0.9113 -1.2225 -1.1998
  211MPD1    H2 3211   0.325   2.519  16.010 -0.1719 -1.5885  0.1595
  211MPD1    H3 3212   0.398   2.736  16.054 -0.0430 -0.4042 -0.2487
  211MPD1     N 3213   0.005   2.852  16.261 -0.0880 -0.2381 -0.3399
  211MPD1    H5 3214   4.643   2.812  16.294  0.8724 -1.9409  0.0939
  211MPD1    N1 3215   0.066   2.432  16.055 -0.3799 -0.0520  0.1258
  211MPD1    H6 3216   0.108   2.397  15.969 -1.8603  1.4044 -1.1910
  211MPD1    H7 3217   4.690   2.432  16.057 -0.3595  1.1401  1.2548
  212MPD1     C 3218   3.848   1.135  17.011 -0.2929 -0.2564 -0.3883
  212MPD1    C1 3219   3.884   1.005  17.010 -0.8747  0.8714 -0.0645
  212MPD1    C2 3220   3.788   0.910  17.052  0.1010 -1.0034 -0.2846
  212MPD1    C3 3221   3.652   0.941  17.075  0.9715  0.5938 -0.0378
  212MPD1    C4 3222   3.623   1.075  17.071  0.0110  0.1506 -0.6540
  212MPD1    C5 3223   3.722   1.169  17.043 -0.6635 -0.4279 -0.2259
  212MPD1     H 3224   3.820   0.807  17.064 -1.1869 -1.4336 -0.5163
  212MPD1    H1 3225   3.527   1.114  17.102  0.2891 -0.0517  0.4552
  212MPD1    H2 3226   3.918   1.216  16.995 -1.5992  1.1404  0.9553
  212MPD1    H3 3227   3.700   1.275  17.052 -0.8278 -0.5695  1.0224
  212MPD1     N 3228   3.544   0.859  17.103 -0.0624 -0.6634  0.0235
  212MPD1    H5 3229   3.455   0.906  17.110 -0.3314 -1.2342  0.4945
  212MPD1    N1 3230   4.018   0.962  17.014 -0.5950 -0.0821  0.3762
  212MPD1    H6 3231   4.085   1.017  16.961 -1.1767  0.3930  0.1372
  212MPD1    H7 3232   4.034   0.870  16.974  0.1765  0.8136 -1.3616
  213MPD1     C 3233   2.226   1.719  16.053  0.5317  0.5692  0.4375
  213MPD1    C1 3234   2.325   1.804  16.026  0.3603  0.3654 -0.4757
  213MPD1    C2 3235   2.314   1.877  15.907  0.4750  0.6989  1.4381
  213MPD1    C3 3236   2.195   1.889  15.836  0.3457  0.5798 -0.5409
  213MPD1    C4 3237   2.087   1.810  15.880 -0.6338  0.2218 -0.4449
  213MPD1    C5 3238   2.106   1.731  15.989  0.1978 -0.9434  0.4398
  213MPD1     H 3239   2.401   1.933  15.875  1.9132 -2.0892  0.4034
  213MPD1    H1 3240   1.997   1.810  15.820 -0.5050 -0.0829 -0.6351
  213MPD1    H2 3241   2.219   1.654  16.140  0.1925 -0.0231 -0.0216
  213MPD1    H3 3242   2.029   1.660  16.018 -2.1050  1.6321  0.6094
  213MPD1     N 3243   2.194   1.977  15.725  0.1064  0.0492 -0.3612
  213MPD1    H5 3244   2.286   2.013  15.701 -1.6435  3.8068 -1.6237
  213MPD1    N1 3245   2.453   1.782  16.092 -0.4890  0.0289 -0.0238
  213MPD1    H6 3246   2.436   1.744  16.185 -0.1420  1.3790  0.5828
  213MPD1    H7 3247   2.496   1.873  16.104 -0.4997  0.0149  0.1182
  214MPD1     C 3248   1.503   1.815  15.199  0.1383  0.1548  0.7444
  214MPD1    C1 3249   1.542   1.919  15.122  0.2431  0.6973  0.4971
  214MPD1    C2 3250   1.654   1.985  15.162 -0.8832 -0.7164 -0.0959
  214MPD1    C3 3251   1.738   1.938  15.262  0.5695  0.5289  0.5582
  214MPD1    C4 3252   1.704   1.828  15.328 -0.2653  0.1020  0.0953
  214MPD1    C5 3253   1.592   1.761  15.290 -0.2966 -0.7197 -0.1597
  214MPD1     H 3254   1.680   2.077  15.112 -0.1274  0.1148  1.8341
  214MPD1    H1 3255   1.770   1.787  15.404  0.1422 -0.4271 -0.5459
  214MPD1    H2 3256   1.407   1.768  15.182  0.4410  0.5022 -1.9336
  214MPD1    H3 3257   1.563   1.673  15.346  0.4532  0.5327  2.2168
  214MPD1     N 3258   1.858   2.009  15.303  0.5770  0.5771  0.3516
  214MPD1    H5 3259   1.910   1.961  15.375  0.8117 -1.9244 -1.4846
  214MPD1    N1 3260   1.462   1.974  15.021  0.1985  0.2717 -0.4042
  214MPD1    H6 3261   1.508   2.013  14.939  0.4828 -1.8137 -1.2170
  214MPD1    H7 3262   1.411   1.893  14.988  0.4847  0.4867 -1.3756
  215MPD1     C 3263   1.038   3.287  10.607  0.4222 -0.2649  0.1993
  215MPD1    C1 3264   1.107   3.364  10.517 -0.5970  0.2060 -0.3177
  215MPD1    C2 3265   1.228   3.420  10.560  0.1915 -0.2982 -0.4698
  215MPD1    C3 3266   1.269   3.407  10.692 -0.3470 -0.4928  1.0915
  215MPD1    C4 3267   1.187   3.336  10.786  0.3345 -0.6004 -0.5330
  215MPD1    C5 3268   1.075   3.281  10.738 -0.3138  0.4473 -0.2354
  215MPD1     H 3269   1.295   3.469  10.490  0.2980  0.1146 -0.0731
  215MPD1    H1 3270   1.212   3.331  10.891 -0.7572  0.3106 -0.2348
  215MPD1    H2 3271   0.956   3.224  10.575 -1.7848  3.1363 -0.8501
  215MPD1    H3 3272   1.017   3.223  10.808  1.4275  0.2649  1.0665
  215MPD1     N 3273   1.388   3.469  10.726 -0.5189 -0.1595 -0.4499
  215MPD1    H5 3274   1.419   3.530  10.651 -1.4123  1.2091  0.2967
  215MPD1    N1 3275   1.081   3.362  10.381 -0.3046 -0.3660 -0.1399
  215MPD1    H6 3276   0.983   3.345  10.359 -0.4020 -1.1862  0.9428
  215MPD1    H7 3277   1.116   3.448  10.338 -1.8318  0.0908 -0.4778
  216MPD1     C 3278   3.991   0.813  16.585  0.5085 -0.3405  0.2626
  216MPD1    C1 3279   3.888   0.841  16.664  0.4197 -0.6851 -0.4188
  216MPD1    C2 3280   3.864   0.756  16.773 -0.7196  0.4560  0.0868
  216MPD1    C3 3281   3.962   0.659  16.806  0.2422 -0.2810 -0.4011
  216MPD1    C4 3282   4.072   0.641  16.726  0.4280 -0.2033  0.1439
  216MPD1    C5 3283   4.090   0.722  16.617  0.3163  0.1876  0.1272
  216MPD1     H 3284   3.768   0.752  16.822 -1.0611  0.9250 -0.5549
  216MPD1    H1 3285   4.142   0.560  16.740  0.1274 -0.0322  2.5185
  216MPD1    H2 3286   4.011   0.878  16.501 -1.4762  0.4984  0.4380
  216MPD1    H3 3287   4.186   0.717  16.566 -0.6051  0.2468 -1.6293
  216MPD1     N 3288   3.937   0.571  16.919 -0.4850  0.0671 -0.0145
  216MPD1    H5 3289   3.846   0.579  16.964 -0.3526 -0.8548  0.4088
  216MPD1    N1 3290   3.790   0.936  16.621 -0.1647 -0.4063 -0.9000
  216MPD1    H6 3291   3.746   0.981  16.702 -1.0126 -0.4302 -1.3470
  216MPD1    H7 3292   3.841   1.009  16.573  0.3221 -0.5058 -0.5320
  217MPD1     C 3293   0.645   2.880   8.928 -0.1405 -0.3598 -0.1554
  217MPD1    C1 3294   0.510   2.888   8.911  0.2048 -0.6843  0.3065
  217MPD1    C2 3295   0.428   2.789   8.968 -0.1531  0.6217  0.1415
  217MPD1    C3 3296   0.478   2.712   9.072  0.1688 -0.2403  0.3518
  217MPD1    C4 3297   0.615   2.711   9.092 -0.0964  0.3704 -0.7208
  217MPD1    C5 3298   0.700   2.793   9.020  0.0090 -0.3135  0.5766
  217MPD1     H 3299   0.322   2.795   8.948 -0.1017  0.2499 -0.2627
  217MPD1    H1 3300   0.654   2.647   9.171 -0.2121  1.5721  0.3173
  217MPD1    H2 3301   0.713   2.944   8.871 -1.3266  0.2508 -0.8881
  217MPD1    H3 3302   0.805   2.788   9.044  0.3096 -1.3845 -0.9638
  217MPD1     N 3303   0.405   2.623   9.148 -0.2052 -0.2029  0.5923
  217MPD1    H5 3304   0.456   2.557   9.206  1.8095 -0.4995 -1.5046
  217MPD1    N1 3305   0.465   2.970   8.812  0.7268 -0.1682  0.1311
  217MPD1    H6 3306   0.374   3.014   8.826  1.8696  1.4315  2.6660
  217MPD1    H7 3307   0.536   3.043   8.812  0.0185  0.5218 -0.1841
  218MPD1     C 3308   0.582   3.879  12.511 -0.0824  0.5582 -0.7593
  218MPD1    C1 3309   0.646   3.789  12.596 -0.4193  0.2617 -0.4313
  218MPD1    C2 3310   0.782   3.754  12.573  0.2095 -0.1729  0.3104
  218MPD1    C3 3311   0.835   3.776  12.452  0.2339  0.3374 -0.0022
  218MPD1    C4 3312   0.774   3.872  12.372 -0.9176  0.5310  0.0235
  218MPD1    C5 3313   0.647   3.918  12.403  0.2459  0.3004 -0.3225
  218MPD1     H 3314   0.835   3.691  12.644  0.3669 -0.7594 -0.3293
  218MPD1    H1 3315   0.833   3.924  12.298 -0.0379 -1.8574 -0.9384
  218MPD1    H2 3316   0.490   3.926  12.543  0.0292 -0.3384  0.8937
  218MPD1    H3 3317   0.608   4.003  12.349  0.5406  0.4467 -0.3058
  218MPD1     N 3318   0.958   3.710  12.424  0.3040 -0.1322 -0.0499
  218MPD1    H5 3319   0.997   3.650  12.496  0.1263 -1.7109 -1.2877
  218MPD1    N1 3320   0.592   3.750  12.718  0.0795 -0.4534 -0.4103
  218MPD1    H6 3321   0.491   3.743  12.727 -0.0448  1.5908 -0.2581
  218MPD1    H7 3322   0.636   3.676  12.772 -1.7900 -0.8455  0.5854
  219MPD1     C 3323   1.763   4.002  11.875 -0.2202  0.4676  0.4696
  219MPD1    C1 3324   1.802   3.886  11.939 -0.2802  0.4253 -0.8489
  219MPD1    C2 3325   1.709   3.802  12.000 -0.1172  0.5209  0.6745
  219MPD1    C3 3326   1.578   3.849  12.012  0.0699  0.0462 -0.0187
  219MPD1    C4 3327   1.544   3.968  11.954 -0.2939 -1.1244 -0.1597
  219MPD1    C5 3328   1.639   4.047  11.888 -0.4833 -0.2648 -0.1750
  219MPD1     H 3329   1.743   3.707  12.040 -0.2641  0.1596 -0.0626
  219MPD1    H1 3330   1.443   4.005  11.965 -0.3773 -1.0662 -1.1259
  219MPD1    H2 3331   1.839   4.061  11.825  0.7545 -0.9220  0.2950
  219MPD1    H3 3332   1.611   4.138  11.835 -0.6481  0.0822  0.5019
  219MPD1     N 3333   1.477   3.779  12.083  0.6025  0.5423 -0.1302
  219MPD1    H5 3334   1.383   3.815  12.093  1.4384  2.3532  1.1818
  219MPD1    N1 3335   1.929   3.833  11.913 -0.7364 -0.3885  0.1752
  219MPD1    H6 3336   1.971   3.780  11.989  0.7761 -1.1070 -1.1542
  219MPD1    H7 3337   1.998   3.903  11.889  0.1297 -1.1387  0.4718
  220MPD1     C 3338   1.478   3.846   8.977 -0.2626 -0.2956 -0.3779
  220MPD1    C1 3339   1.380   3.905   9.040  0.8021 -0.2554  0.0219
  220MPD1    C2 3340   1.385   3.898   9.182  0.2828 -0.4900  0.4950
  220MPD1    C3 3341   1.478   3.826   9.257  0.0864  1.3303 -0.4798
  220MPD1    C4 3342   1.576   3.760   9.184 -0.2282  0.1451 -0.3404
  220MPD1    C5 3343   1.577   3.782   9.048 -0.5249  0.6769  0.0135
  220MPD1     H 3344   1.312   3.954   9.238  0.3728 -0.7779  0.8956
  220MPD1    H1 3345   1.656   3.697   9.220 -0.0810  1.1937  1.1564
  220MPD1    H2 3346   1.484   3.871   8.872  1.8766 -1.8846 -0.6339
  220MPD1    H3 3347   1.659   3.739   8.992 -1.3184 -1.1342  0.2369
  220MPD1     N 3348   1.473   3.822   9.399  0.8032 -0.2222 -0.1313
  220MPD1    H5 3349   1.401   3.873   9.449  0.8523 -0.4715  0.1964
  220MPD1    N1 3350   1.284   3.980   8.972  0.8652  0.2298 -0.6328
  220MPD1    H6 3351   1.254   3.930   8.888  1.0143  0.3767 -0.7753
  220MPD1    H7 3352   1.198   4.006   9.019  0.1511 -3.5827  0.1813
  221MPD1     C 3353   0.389   2.642  17.066 -0.1075  0.4707 -0.1435
  221MPD1    C1 3354   0.251   2.668  17.046 -0.8154  0.3983  0.4109
  221MPD1    C2 3355   0.185   2.584  16.955  0.3415  0.2768  0.2062
  221MPD1    C3 3356   0.250   2.480  16.881 -0.4707  0.5236  0.2435
  221MPD1    C4 3357   0.384   2.482  16.887 -0.4239 -0.1837  0.1387
  221MPD1    C5 3358   0.454   2.554  16.986 -0.2289 -0.0071 -0.2865
  221MPD1     H 3359   0.077   2.597  16.953  0.3504  0.6343  1.8125
  221MPD1    H1 3360   0.433   2.406  16.827 -0.8937 -1.9646  2.0211
  221MPD1    H2 3361   0.449   2.694  17.139  1.9317 -0.0858 -1.4201
  221MPD1    H3 3362   0.560   2.541  17.002  0.2166 -0.6662 -3.7492
  221MPD1     N 3363   0.190   2.390  16.796  0.1007  0.0145  0.3621
  221MPD1    H5 3364   0.248   2.328  16.742 -0.0476 -1.7426  2.2219
  221MPD1    N1 3365   0.181   2.747  17.138 -0.3897  0.5865  1.1149
  221MPD1    H6 3366   0.093   2.784  17.101 -0.6350 -0.5619  0.5438
  221MPD1    H7 3367   0.249   2.818  17.162 -0.8006  1.2840  0.2185
  222MPD1     C 3368   3.899   0.579  17.490  0.2322 -0.1705 -0.4207
  222MPD1    C1 3369   3.805   0.626  17.400  0.6972  0.4865 -0.5455
  222MPD1    C2 3370   3.686   0.661  17.447  0.2579 -0.3208  0.3230
  222MPD1    C3 3371   3.645   0.644  17.578 -0.2122 -0.2646 -0.0724
  222MPD1    C4 3372   3.730   0.578  17.663  0.7612 -0.1700 -0.4905
  222MPD1    C5 3373   3.850   0.541  17.613  0.0293 -0.2236  0.0637
  222MPD1     H 3374   3.614   0.696  17.374 -0.7938 -0.9644  1.0430
  222MPD1    H1 3375   3.704   0.548   0.062  0.3522  1.5508 -0.0972
  222MPD1    H2 3376   3.997   0.543  17.460 -0.6952 -2.6171 -0.5164
  222MPD1    H3 3377   3.905   0.475  17.678  1.3957  1.2710  0.4101
  222MPD1     N 3378   3.515   0.677  17.620 -0.5421 -0.1299  0.2724
  222MPD1    H5 3379   3.492   0.641   0.010 -1.1540  0.4483  0.3469
  222MPD1    N1 3380   3.849   0.655  17.269 -0.3970  0.1025  0.0896
  222MPD1    H6 3381   3.768   0.654  17.208  1.4457 -0.5155 -2.3223
  222MPD1    H7 3382   3.917   0.590  17.229  1.6615  2.0043  0.4580
  223MPD1     C 3383   2.948   0.323   0.446  0.1863  0.0847 -0.3698
  223MPD1    C1 3384   3.022   0.292   0.338  0.1687 -0.1295  0.1508
  223MPD1    C2 3385   3.084   0.394   0.269  0.2102 -0.5434  1.1673
  223MPD1    C3 3386   3.069   0.525   0.301 -0.0924  0.0234 -0.3054
  223MPD1    C4 3387   2.980   0.554   0.405 -0.6753 -0.3566 -0.9317
  223MPD1    C5 3388   2.925   0.453   0.477  0.9120 -0.0962  0.2019
  223MPD1     H 3389   3.154   0.365   0.191 -0.5019 -1.4723  0.8597
  223MPD1    H1 3390   2.961   0.651   0.449 -0.4486 -1.7232  2.2031
  223MPD1    H2 3391   2.927   0.249   0.523  3.9567 -1.0124 -0.3846
  223MPD1    H3 3392   2.880   0.485   0.570 -0.6709 -1.4929 -0.0815
  223MPD1     N 3393   3.148   0.623   0.231  0.3645 -0.5534  0.0655
  223MPD1    H5 3394   3.205   0.587   0.155 -1.2460  0.1824 -1.4881
  223MPD1    N1 3395   3.053   0.163   0.307 -0.0563 -0.3457  0.2865
  223MPD1    H6 3396   3.077   0.142   0.211  0.9800  0.5715  0.3405
  223MPD1    H7 3397   2.982   0.098   0.339  0.6194 -1.5725 -0.7228
  224MPD1     C 3398   1.091   3.639   9.085  0.3763 -0.3878  0.2569
  224MPD1    C1 3399   1.162   3.529   9.136  0.8907 -0.7229 -0.3131
  224MPD1    C2 3400   1.094   3.417   9.174 -0.2401 -0.0445 -0.3106
  224MPD1    C3 3401   0.952   3.419   9.170  0.1440  0.0700  0.2000
  224MPD1    C4 3402   0.890   3.534   9.138 -0.3549  0.3489 -0.1943
  224MPD1    C5 3403   0.957   3.642   9.086  0.4114  0.5118 -0.9481
  224MPD1     H 3404   1.147   3.326   9.200 -0.6786  0.4850  2.3834
  224MPD1    H1 3405   0.783   3.541   9.154 -0.7993 -0.2078 -2.8930
  224MPD1    H2 3406   1.149   3.726   9.054  0.6172 -1.1999 -1.5939
  224MPD1    H3 3407   0.906   3.737   9.073 -1.7947 -0.6411 -0.6150
  224MPD1     N 3408   0.880   3.311   9.220 -0.2990 -0.4831 -0.1258
  224MPD1    H5 3409   0.781   3.305   9.199 -0.4890 -2.4064  1.3301
  224MPD1    N1 3410   1.306   3.530   9.123  0.2453 -0.6278 -0.0117
  224MPD1    H6 3411   1.350   3.459   9.180  0.8426 -0.1158  0.1659
  224MPD1    H7 3412   1.338   3.625   9.140 -0.7205 -0.0979 -1.1833
  225MPD1     C 3413   1.570   3.842  12.557  0.4063  0.4873 -0.0332
  225MPD1    C1 3414   1.583   3.899  12.432  0.2929  0.1198  0.3650
  225MPD1    C2 3415   1.471   3.956  12.366  0.8159 -0.2087  0.2680
  225MPD1    C3 3416   1.348   3.977  12.433  0.3176 -0.0934  0.3858
  225MPD1    C4 3417   1.339   3.923  12.556 -0.4239  0.2853  0.0941
  225MPD1    C5 3418   1.446   3.862  12.614 -0.0099  0.1759  0.5012
  225MPD1     H 3419   1.477   3.996  12.266 -0.3699  0.6031  0.5177
  225MPD1    H1 3420   1.248   3.912  12.614 -2.0253 -1.5629 -2.8402
  225MPD1    H2 3421   1.643   3.799  12.624 -2.9310 -2.3082  1.7726
  225MPD1    H3 3422   1.427   3.821  12.713 -2.3296  1.0005  0.4084
  225MPD1     N 3423   1.246   4.044  12.382 -0.5994 -0.2889  0.2315
  225MPD1    H5 3424   1.165   4.060  12.441 -0.3182  0.0775  0.5181
  225MPD1    N1 3425   1.698   3.856  12.367  0.2682  0.3013 -0.2624
  225MPD1    H6 3426   1.722   3.912  12.285 -3.5590  0.8937 -0.9571
  225MPD1    H7 3427   1.779   3.830  12.423  0.6083 -0.8175 -1.2692
  226MPD1     C 3428   1.550   4.446  10.312 -0.2683  0.0238  0.0692
  226MPD1    C1 3429   1.627   4.531  10.236 -0.4831 -0.2678 -0.6792
  226MPD1    C2 3430   1.578   4.549  10.107  0.1621  0.5859 -0.6735
  226MPD1    C3 3431   1.467   4.480  10.060 -0.3408 -0.1516  0.0681
  226MPD1    C4 3432   1.394   4.403  10.146 -0.2885  0.2946 -0.2936
  226MPD1    C5 3433   1.438   4.381  10.270 -0.7508  0.4618  0.0134
  226MPD1     H 3434   1.640   4.614  10.046  0.9721  0.3215 -0.1271
  226MPD1    H1 3435   1.311   4.344  10.108  0.1687  0.2025 -1.1487
  226MPD1    H2 3436   1.596   4.410  10.403 -0.1316  0.3028  0.1108
  226MPD1    H3 3437   1.391   4.313  10.340  0.6270  0.6344  1.0956
  226MPD1     N 3438   1.434   4.503   9.925 -0.3300 -0.3646 -0.5953
  226MPD1    H5 3439   1.495   4.563   9.869  1.4890  0.1813  1.9969
  226MPD1    N1 3440   1.730   4.616  10.285  0.2014  0.0268  0.1617
  226MPD1    H6 3441   1.799   4.653  10.219 -0.3148  1.5762  0.5020
  226MPD1    H7 3442   1.776   4.571  10.364 -1.2947 -0.0377  0.9871
  227MPD1     C 3443   1.217   0.580   9.638 -0.8080 -0.5215 -0.0769
  227MPD1    C1 3444   1.219   0.511   9.757 -0.2237  0.5371  0.0126
  227MPD1    C2 3445   1.249   0.380   9.753  0.8665  0.1891 -0.1890
  227MPD1    C3 3446   1.269   0.305   9.638 -0.9474 -0.1928  0.0356
  227MPD1    C4 3447   1.266   0.379   9.524  0.1546 -0.6444  0.2206
  227MPD1    C5 3448   1.238   0.510   9.524  0.6919  0.1553 -0.7881
  227MPD1     H 3449   1.255   0.327   9.848 -3.5962  2.3225  1.2739
  227MPD1    H1 3450   1.283   0.333   9.427  1.3074 -0.2085  0.2194
  227MPD1    H2 3451   1.202   0.687   9.637  0.0720 -0.4069 -3.0379
  227MPD1    H3 3452   1.224   0.564   9.431  1.9218  0.9262 -0.5278
  227MPD1     N 3453   1.289   0.167   9.647 -0.3239  0.1069 -0.2558
  227MPD1    H5 3454   1.286   0.128   9.741  0.3788  0.0944 -0.2370
  227MPD1    N1 3455   1.200   0.583   9.876  0.1294 -0.2928 -0.2564
  227MPD1    H6 3456   1.148   0.670   9.875  0.1892 -0.2534  0.0186
  227MPD1    H7 3457   1.192   0.532   9.964 -3.7004  1.3081  0.3057
  228MPD1     C 3458   3.316   2.050  12.501 -0.3480 -0.1137  0.8272
  228MPD1    C1 3459   3.272   1.944  12.576  0.4685  0.3197 -0.1995
  228MPD1    C2 3460   3.139   1.927  12.582  0.5307 -0.0947  0.3375
  228MPD1    C3 3461   3.054   2.018  12.521 -0.8503 -0.3111  0.5493
  228MPD1    C4 3462   3.103   2.124  12.446  0.5946  0.1274  0.3935
  228MPD1    C5 3463   3.237   2.130  12.424  0.0984 -0.4651 -0.3715
  228MPD1     H 3464   3.091   1.852  12.645  0.1780  0.5189  0.8022
  228MPD1    H1 3465   3.042   2.204  12.405  1.2574  0.2862 -0.2786
  228MPD1    H2 3466   3.420   2.080  12.509  0.5126 -2.1318 -2.9971
  228MPD1    H3 3467   3.280   2.202  12.356 -0.6859  0.4489  0.0921
  228MPD1     N 3468   2.915   1.995  12.552  0.1053  0.3981  0.7145
  228MPD1    H5 3469   2.894   1.912  12.605 -0.4140 -1.0086 -1.6963
  228MPD1    N1 3470   3.358   1.875  12.668 -0.0186  0.1454  0.5427
  228MPD1    H6 3471   3.450   1.862  12.626 -0.9505 -0.8560 -1.1771
  228MPD1    H7 3472   3.321   1.788  12.707 -0.7578  0.6425  0.9583
  229MPD1     C 3473   2.402   0.214  15.434 -0.3667  0.2044 -1.0048
  229MPD1    C1 3474   2.403   0.127  15.547 -0.3497  0.0456 -0.2677
  229MPD1    C2 3475   2.524   0.065  15.581  0.0239 -0.3756  0.3353
  229MPD1    C3 3476   2.634   0.066  15.492 -0.5592 -0.8030  0.1740
  229MPD1    C4 3477   2.624   0.134  15.373 -0.2293  0.2839 -0.1222
  229MPD1    C5 3478   2.512   0.213  15.350  0.9015  0.0860 -0.7616
  229MPD1     H 3479   2.537   0.015  15.676  0.0684 -2.1875 -0.6192
  229MPD1    H1 3480   2.709   0.124  15.306 -0.9899 -3.6388 -0.5112
  229MPD1    H2 3481   2.316   0.277  15.413 -0.7362  0.7560  2.2177
  229MPD1    H3 3482   2.493   0.271  15.261 -1.6881  0.9656  0.3539
  229MPD1     N 3483   2.766   0.020  15.518 -0.1064  0.1073  0.4574
  229MPD1    H5 3484   2.823   0.037  15.436 -0.4488 -0.0389  0.1922
  229MPD1    N1 3485   2.292   0.142  15.627  0.2090 -0.2839  0.5280
  229MPD1    H6 3486   2.271   0.061  15.686  0.4485  1.1764  2.6018
  229MPD1    H7 3487   2.207   0.165  15.576  0.0283  0.0503  0.9823
  230MPD1     C 3488   3.620   4.554  16.109 -0.7410 -0.0801  0.0500
  230MPD1    C1 3489   3.656   4.541  15.975  0.3107  0.4115 -0.1855
  230MPD1    C2 3490   3.551   4.510  15.886 -0.3698  0.0709 -0.1916
  230MPD1    C3 3491   3.416   4.513  15.924  0.6441 -0.3543  0.1758
  230MPD1    C4 3492   3.388   4.546  16.052  0.4036 -0.0338  0.2992
  230MPD1    C5 3493   3.491   4.549  16.148 -0.3515  0.2226  0.3594
  230MPD1     H 3494   3.569   4.494  15.781 -0.4698  0.5362 -0.2810
  230MPD1    H1 3495   3.286   4.562  16.085 -0.5151  0.1741 -2.6701
  230MPD1    H2 3496   3.699   4.558  16.183 -0.4112 -1.2106 -0.2450
  230MPD1    H3 3497   3.467   4.558  16.253 -0.4084  1.0300  0.2713
  230MPD1     N 3498   3.321   4.496  15.821 -0.8689 -0.6532  0.2106
  230MPD1    H5 3499   3.358   4.477  15.729  2.0811  1.7917  0.9083
  230MPD1    N1 3500   3.786   4.518  15.944 -0.0493  0.2457 -0.0635
  230MPD1    H6 3501   3.857   4.566  15.999 -0.7533  0.2894  0.8175
  230MPD1    H7 3502   3.810   4.544  15.849  1.0367 -1.5295 -0.2722
  231MPD1     C 3503   1.078   2.059  15.771 -0.2142  0.2777 -0.3103
  231MPD1    C1 3504   1.010   2.097  15.661  0.2211 -0.2158 -0.1553
  231MPD1    C2 3505   1.082   2.127  15.553 -0.1308 -0.5096  0.7586
  231MPD1    C3 3506   1.221   2.136  15.556  0.1839 -0.0134  0.4928
  231MPD1    C4 3507   1.285   2.110  15.667 -0.4123  0.4412 -0.4491
  231MPD1    C5 3508   1.212   2.072  15.777  0.0116 -0.2791 -0.1134
  231MPD1     H 3509   1.027   2.143  15.461  0.1060  0.1213  0.7289
  231MPD1    H1 3510   1.391   2.125  15.683 -0.1030 -0.5188 -1.6180
  231MPD1    H2 3511   1.021   2.009  15.849 -0.3546  0.2842 -0.4089
  231MPD1    H3 3512   1.267   2.051  15.868  1.6135  1.1222 -0.7557
  231MPD1     N 3513   1.283   2.184  15.438 -0.1104  0.1074  0.6209
  231MPD1    H5 3514   1.228   2.203  15.355  0.8389 -1.2956 -0.3151
  231MPD1    N1 3515   0.871   2.087  15.661  0.2634  0.7605  0.4668
  231MPD1    H6 3516   0.837   2.094  15.756 -0.1997  0.6761  0.3079
  231MPD1    H7 3517   0.834   2.166  15.608 -0.2977 -0.4095 -0.8773
  232MPD1     C 3518   3.277   4.153   0.118  0.4602  0.3091  0.4691
  232MPD1    C1 3519   3.220   4.195   0.234 -0.3929 -1.1312 -0.1076
  232MPD1    C2 3520   3.087   4.227   0.228 -0.1887  0.4957 -0.1715
  232MPD1    C3 3521   3.013   4.225   0.114 -1.0556  1.2406  0.1919
  232MPD1    C4 3522   3.074   4.177  17.701 -0.3665 -0.2916 -0.3562
  232MPD1    C5 3523   3.209   4.145  17.701 -0.6295 -0.3458  0.2223
  232MPD1     H 3524   3.038   4.269   0.315  1.5412  2.9004 -0.3328
  232MPD1    H1 3525   3.028   4.168  17.603 -1.2095  1.1152 -0.0877
  232MPD1    H2 3526   3.385   4.137   0.120  0.2303 -1.1829  0.7611
  232MPD1    H3 3527   3.256   4.103  17.612 -2.0928  0.1097 -0.7750
  232MPD1     N 3528   2.879   4.262   0.116 -0.0357 -0.1303  0.4083
  232MPD1    H5 3529   2.841   4.281   0.208 -0.2580  0.0735  0.2749
  232MPD1    N1 3530   3.280   4.179   0.362  0.4794  0.5652  0.1843
  232MPD1    H6 3531   3.221   4.215   0.436  2.7322  0.3066  2.1031
  232MPD1    H7 3532   3.367   4.230   0.377  0.1221  1.3151 -0.2819
  233MPD1     C 3533   3.133   2.836   1.316  0.4142 -0.7785 -0.6700
  233MPD1    C1 3534   3.107   2.723   1.389  0.2428  0.4598 -0.2739
  233MPD1    C2 3535   3.221   2.654   1.422  0.4981  1.1525  0.4580
  233MPD1    C3 3536   3.350   2.697   1.407  0.1291 -0.7601  0.4734
  233MPD1    C4 3537   3.367   2.814   1.336  0.0296  0.3168  0.8739
  233MPD1    C5 3538   3.258   2.880   1.285 -0.8380 -0.4883 -0.0153
  233MPD1     H 3539   3.211   2.555   1.466  1.2052  0.5661 -0.7076
  233MPD1    H1 3540   3.470   2.844   1.319  0.4921 -0.7229  1.8200
  233MPD1    H2 3541   3.043   2.888   1.285  1.2271  1.6233  1.0009
  233MPD1    H3 3542   3.268   2.978   1.238  0.6666 -0.6420 -0.0062
  233MPD1     N 3543   3.467   2.632   1.440  0.1713 -0.4277  1.1525
  233MPD1    H5 3544   3.555   2.678   1.418 -0.5912  1.1160  1.2875
  233MPD1    N1 3545   2.981   2.673   1.403  0.4935 -0.2578  0.4087
  233MPD1    H6 3546   2.970   2.612   1.484  0.1141  0.0785  0.6091
  233MPD1    H7 3547   2.922   2.751   1.432  0.6836 -0.9814  2.8148
  234MPD1     C 3548   0.700   2.439  11.014  0.3171  0.9033  0.1569
  234MPD1    C1 3549   0.813   2.481  10.951  0.4752  0.0986  0.2404
  234MPD1    C2 3550   0.828   2.443  10.820  0.4799 -0.9482  1.1026
  234MPD1    C3 3551   0.736   2.373  10.746 -0.2539 -0.0411 -0.1530
  234MPD1    C4 3552   0.618   2.335  10.813  0.5918  0.0534  0.3836
  234MPD1    C5 3553   0.610   2.358  10.951 -0.1162  0.3843 -0.1978
  234MPD1     H 3554   0.920   2.472  10.771 -1.5484  0.6555 -1.7004
  234MPD1    H1 3555   0.550   2.263  10.769 -0.3751  1.5049 -0.4734
  234MPD1    H2 3556   0.683   2.475  11.115 -0.6412  0.8226  0.0195
  234MPD1    H3 3557   0.531   2.316  11.012  0.6158  1.2505  1.3441
  234MPD1     N 3558   0.748   2.358  10.601  0.3729  0.3851 -0.1049
  234MPD1    H5 3559   0.802   2.425  10.547  1.0802 -1.8138 -2.1804
  234MPD1    N1 3560   0.916   2.541  11.027  0.2819 -0.4846  0.4159
  234MPD1    H6 3561   0.974   2.587  10.957  0.6810 -0.0999  0.9947
  234MPD1    H7 3562   0.871   2.605  11.092 -0.0607 -0.7353  0.4273
  235MPD1     C 3563   3.736   3.672  10.152  0.6433 -0.3527 -0.6784
  235MPD1    C1 3564   3.611   3.728  10.148  0.7881  0.5409  0.6062
  235MPD1    C2 3565   3.564   3.789  10.029  0.2793  1.0250  0.1778
  235MPD1    C3 3566   3.631   3.785   9.911  0.4785  0.1893  0.1956
  235MPD1    C4 3567   3.764   3.739   9.919  0.0269 -0.3036  0.0856
  235MPD1    C5 3568   3.816   3.682  10.036  0.3823 -0.2550 -0.3422
  235MPD1     H 3569   3.462   3.825  10.020 -0.8797 -2.1452  0.7517
  235MPD1    H1 3570   3.832   3.747   9.835  0.2128  2.3444  0.4739
  235MPD1    H2 3571   3.775   3.615  10.236 -1.1083 -0.6606 -0.0886
  235MPD1    H3 3572   3.913   3.635  10.040  0.5335  0.1077  0.2529
  235MPD1     N 3573   3.564   3.831   9.793 -0.2416 -0.3832  0.2103
  235MPD1    H5 3574   3.465   3.850   9.797 -0.0820  1.2866 -3.4628
  235MPD1    N1 3575   3.525   3.720  10.258 -0.4578  0.4555  0.6109
  235MPD1    H6 3576   3.552   3.639  10.313 -1.8466 -0.2456  0.2618
  235MPD1    H7 3577   3.430   3.695  10.230 -0.5873  0.0397  1.4114
  236MPD1     C 3578   1.384   1.252  10.316  0.0442 -0.6228  0.0869
  236MPD1    C1 3579   1.484   1.322  10.383 -0.1435 -0.9412  0.0617
  236MPD1    C2 3580   1.592   1.249  10.423  0.1403 -0.3950  0.4267
  236MPD1    C3 3581   1.612   1.114  10.383 -0.0494  0.2040  0.3631
  236MPD1    C4 3582   1.511   1.040  10.314 -0.2017  0.8753 -0.0918
  236MPD1    C5 3583   1.398   1.115  10.283 -0.2127 -0.0541  0.2549
  236MPD1     H 3584   1.663   1.303  10.485  0.4038  1.9339 -1.9059
  236MPD1    H1 3585   1.524   0.936  10.286  0.5053  1.2323 -1.0710
  236MPD1    H2 3586   1.288   1.296  10.294 -0.3102 -0.4508  1.9099
  236MPD1    H3 3587   1.310   1.063  10.245  0.1556 -0.1844 -0.4178
  236MPD1     N 3588   1.730   1.045  10.418 -0.2081  0.6479  0.3036
  236MPD1    H5 3589   1.732   0.947  10.392  1.8590  0.3932  1.4396
  236MPD1    N1 3590   1.462   1.449  10.440  0.3128  0.0904 -0.2213
  236MPD1    H6 3591   1.408   1.506  10.376 -0.8415  0.8583  1.4175
  236MPD1    H7 3592   1.553   1.488  10.463  1.0282 -1.1160 -1.0311
  237MPD1     C 3593   2.061   3.237  15.068  0.8195 -0.2786  0.5713
  237MPD1    C1 3594   1.999   3.286  15.175  0.0466 -0.3056  0.9337
  237MPD1    C2 3595   1.860   3.257  15.189 -0.5407  0.2376 -0.0377
  237MPD1    C3 3596   1.789   3.177  15.099 -1.1033 -0.1993 -0.5749
  237MPD1    C4 3597   1.860   3.121  14.994  0.7984  0.6933  0.2573
  237MPD1    C5 3598   1.991   3.153  14.983 -0.5717 -0.3823  0.0161
  237MPD1     H 3599   1.798   3.319  15.253  0.0831 -0.3068  1.1013
  237MPD1    H1 3600   1.817   3.054  14.920 -0.1317 -1.2739  2.5591
  237MPD1    H2 3601   2.166   3.247  15.046  0.3009  1.2352 -1.2152
  237MPD1    H3 3602   2.058   3.111  14.908 -1.1947  1.1778 -1.3974
  237MPD1     N 3603   1.650   3.157  15.102  0.2651  0.0112  0.0167
  237MPD1    H5 3604   1.624   3.090  15.031  3.1159 -2.0778  0.9440
  237MPD1    N1 3605   2.054   3.394  15.249 -0.4881  0.1373  0.3615
  237MPD1    H6 3606   2.155   3.388  15.265 -0.1463  0.9873 -1.4572
  237MPD1    H7 3607   2.010   3.410  15.340 -1.8268  2.5988 -0.7078
  238MPD1     C 3608   3.032   1.568  15.014 -0.1647  0.0686 -0.5152
  238MPD1    C1 3609   3.058   1.615  14.886 -0.0176 -0.2040 -0.6304
  238MPD1    C2 3610   2.970   1.690  14.814  0.1922 -0.1432  0.4054
  238MPD1    C3 3611   2.836   1.703  14.867  0.1568  0.4104 -0.0074
  238MPD1    C4 3612   2.812   1.646  14.995 -0.4192  0.0246  0.1645
  238MPD1    C5 3613   2.909   1.579  15.057  0.4506  0.9384  0.2818
  238MPD1     H 3614   3.002   1.747  14.727  2.1748 -1.3928  0.3278
  238MPD1    H1 3615   2.711   1.668  15.027 -0.7587 -0.2893 -0.7103
  238MPD1    H2 3616   3.094   1.500  15.071 -1.1224 -0.0507  0.3856
  238MPD1    H3 3617   2.889   1.540  15.156  0.7111 -0.7439 -0.3105
  238MPD1     N 3618   2.732   1.780  14.820  0.5474 -0.5102  0.8886
  238MPD1    H5 3619   2.648   1.770  14.876 -1.0477  0.1294 -1.3678
  238MPD1    N1 3620   3.195   1.613  14.851 -0.5801  0.1732 -0.5899
  238MPD1    H6 3621   3.200   1.599  14.750 -2.0071 -0.4796 -0.5636
  238MPD1    H7 3622   3.251   1.538  14.890  0.6212  1.5608  0.3628
  239MPD1     C 3623   3.436   2.904  14.966  0.0724 -0.0199  0.0127
  239MPD1    C1 3624   3.451   2.865  14.837  0.1175  0.2198 -0.4346
  239MPD1    C2 3625   3.361   2.888  14.739  0.0398  0.2252  0.3747
  239MPD1    C3 3626   3.251   2.968  14.773  0.0931  0.4519 -0.1532
  239MPD1    C4 3627   3.240   3.011  14.905  0.7225 -1.1085 -0.4047
  239MPD1    C5 3628   3.334   2.984  15.004 -0.3164 -0.0668  0.3567
  239MPD1     H 3629   3.373   2.849  14.638  0.7493  0.5638  0.3279
  239MPD1    H1 3630   3.162   3.078  14.939  0.4406 -1.2489 -0.7816
  239MPD1    H2 3631   3.507   2.872  15.041 -0.3375 -0.1507  0.3513
  239MPD1    H3 3632   3.315   3.010  15.108  0.8532 -0.6913  0.7311
  239MPD1     N 3633   3.149   3.009  14.679  0.6164 -0.1649 -0.0354
  239MPD1    H5 3634   3.066   3.052  14.719  0.8941 -0.4995  0.9050
  239MPD1    N1 3635   3.561   2.785  14.801  0.0778 -0.3642 -0.5322
  239MPD1    H6 3636   3.596   2.807  14.708 -2.4685  0.6330 -1.2479
  239MPD1    H7 3637   3.535   2.687  14.809  0.2647 -0.4115 -0.4937
  240MPD1     C 3638   2.118   3.007  13.767  0.4896 -1.0451  0.5002
  240MPD1    C1 3639   2.028   2.899  13.783  0.2509 -0.3926  0.0299
  240MPD1    C2 3640   2.031   2.836  13.909  0.1748  0.0977 -0.5405
  240MPD1    C3 3641   2.138   2.858  13.993  0.9710 -0.1322  0.1097
  240MPD1    C4 3642   2.236   2.954  13.962 -0.1165  0.5765  0.2871
  240MPD1    C5 3643   2.222   3.032  13.849 -0.1214  0.3556  0.2604
  240MPD1     H 3644   1.954   2.762  13.927  0.1993  0.1150 -0.3609
  240MPD1    H1 3645   2.323   2.964  14.025  1.7024  1.8296 -2.4039
  240MPD1    H2 3646   2.100   3.077  13.686 -2.4084 -0.2863  1.8098
  240MPD1    H3 3647   2.279   3.123  13.840  0.1179  0.1533 -0.2551
  240MPD1     N 3648   2.140   2.768  14.102  0.2553 -0.1045 -0.7633
  240MPD1    H5 3649   2.047   2.742  14.134  0.2716 -1.0640 -1.5091
  240MPD1    N1 3650   1.912   2.889  13.706  0.2664 -0.2308  0.5198
  240MPD1    H6 3651   1.923   2.928  13.612 -2.2292 -2.7246 -0.8012
  240MPD1    H7 3652   1.868   2.798  13.694  1.1275 -0.5365 -0.3203
  241MPD1     C 3653   2.842   2.321  14.668  0.1317 -1.0629  0.6128
  241MPD1    C1 3654   2.745   2.350  14.761 -0.7659  0.4325 -0.0468
  241MPD1    C2 3655   2.630   2.414  14.719 -0.8563 -0.5566  0.0729
  241MPD1    C3 3656   2.616   2.443  14.582  0.4896 -0.0776 -0.5508
  241MPD1    C4 3657   2.712   2.418  14.495  0.1575 -0.1947 -0.8479
  241MPD1    C5 3658   2.830   2.366  14.539  0.5491  0.4370  0.0319
  241MPD1     H 3659   2.553   2.444  14.788 -0.1893 -2.9314  1.8608
  241MPD1    H1 3660   2.697   2.441  14.390 -0.2404  0.2985 -0.6806
  241MPD1    H2 3661   2.935   2.267  14.685  1.1939  0.7318  0.4538
  241MPD1    H3 3662   2.915   2.353  14.473 -0.2980  0.8171 -1.1359
  241MPD1     N 3663   2.508   2.522  14.529 -0.1947  0.2117 -0.4692
  241MPD1    H5 3664   2.517   2.561  14.435  0.9605  3.2399  0.9131
  241MPD1    N1 3665   2.754   2.290  14.888  0.1883 -0.5230 -0.0653
  241MPD1    H6 3666   2.854   2.286  14.909  0.1186  0.1899  0.4114
  241MPD1    H7 3667   2.715   2.353  14.957 -1.4768 -1.4169 -0.1777
  242MPD1     C 3668   2.143   1.481  15.742 -0.5420 -0.0653  0.1641
  242MPD1    C1 3669   2.278   1.499  15.718  0.2294  0.3833 -0.2850
  242MPD1    C2 3670   2.346   1.401  15.648 -0.1216 -0.3464 -0.3399
  242MPD1    C3 3671   2.286   1.278  15.613  0.3021  0.8808  0.0231
  242MPD1    C4 3672   2.158   1.261  15.659 -1.2183 -0.3129  0.2354
  242MPD1    C5 3673   2.085   1.362  15.717  0.4463 -0.0526  0.6693
  242MPD1     H 3674   2.448   1.434  15.628 -0.1176  0.1828  0.5215
  242MPD1    H1 3675   2.116   1.161  15.660 -0.9637 -0.4273 -0.4766
  242MPD1    H2 3676   2.076   1.560  15.774 -0.2472  0.2858 -0.0840
  242MPD1    H3 3677   1.980   1.350  15.741  0.6679  0.8025  2.0816
  242MPD1     N 3678   2.336   1.181  15.527  1.1517  0.0033 -0.0197
  242MPD1    H5 3679   2.280   1.097  15.514  0.9333  0.2620 -0.7696
  242MPD1    N1 3680   2.334   1.625  15.730  0.3883  0.5946 -0.3300
  242MPD1    H6 3681   2.296   1.678  15.809  0.1762 -2.0522  1.3482
  242MPD1    H7 3682   2.435   1.623  15.737  0.3677  0.7058  0.0540
  243MPD1     C 3683   0.054   4.681  17.490  0.0179 -0.3013  0.4671
  243MPD1    C1 3684   0.005   0.042  17.394  0.4085 -0.1763 -0.5273
  243MPD1    C2 3685   4.595   0.040  17.375  0.6474 -0.9186  0.7887
  243MPD1    C3 3686   4.510   4.671  17.434  1.3520  0.5108 -0.8630
  243MPD1    C4 3687   4.567   4.581  17.525  0.2129  0.2371 -0.5087
  243MPD1    C5 3688   4.705   4.588  17.554  0.6522 -0.0204 -0.2604
  243MPD1     H 3689   4.547   0.117  17.315  3.4214  0.4396  0.3090
  243MPD1    H1 3690   4.507   4.521  17.593  0.3838 -0.7170 -1.2015
  243MPD1    H2 3691   0.152   4.687  17.536 -0.2614 -0.4300  1.0768
  243MPD1    H3 3692   0.023   4.553  17.646  0.9156  0.3283 -0.2501
  243MPD1     N 3693   4.370   4.679  17.413 -1.0020 -0.2442 -0.3775
  243MPD1    H5 3694   4.338   0.027  17.350 -1.7100  0.2485  0.5570
  243MPD1    N1 3695   0.097   0.132  17.337 -0.4174 -0.1294  0.6624
  243MPD1    H6 3696   0.061   0.182  17.256 -1.5488  0.0155  1.2526
  243MPD1    H7 3697   0.190   0.090  17.337 -0.4804 -0.2765 -0.3798
  244MPD1     C 3698   3.522   4.041  17.439 -0.7365  0.3731 -0.3560
  244MPD1    C1 3699   3.532   4.103  17.311 -0.0594 -0.6542  0.5107
  244MPD1    C2 3700   3.604   4.213  17.290 -0.8436 -0.5803  1.1520
  244MPD1    C3 3701   3.661   4.283  17.397 -0.2202  0.5788  0.2299
  244MPD1    C4 3702   3.641   4.231  17.522 -0.8125  0.2564 -0.2441
  244MPD1    C5 3703   3.579   4.112  17.542 -0.2697  0.5562 -0.5708
  244MPD1     H 3704   3.614   4.242  17.186 -1.1306 -2.6906  0.5360
  244MPD1    H1 3705   3.669   4.281  17.614 -1.7709 -1.9042  1.2118
  244MPD1    H2 3706   3.479   3.943  17.457  0.1814 -0.3723 -2.1506
  244MPD1    H3 3707   3.566   4.079  17.644  2.1196 -1.5449 -0.9337
  244MPD1     N 3708   3.744   4.395  17.375  0.4206 -0.3331  0.0925
  244MPD1    H5 3709   3.767   4.412  17.278 -1.6727  1.2893 -0.1141
  244MPD1    N1 3710   3.504   4.020  17.199  0.2863 -0.2924  0.0690
  244MPD1    H6 3711   3.477   4.076  17.118 -2.4882 -0.5082  0.8337
  244MPD1    H7 3712   3.441   3.942  17.219  0.3253 -0.1821  0.6086
  245MPD1     C 3713   0.054   0.108  13.238  0.3312 -0.3824  0.2992
  245MPD1    C1 3714   0.155   0.040  13.299 -0.6507 -0.2251  0.3805
  245MPD1    C2 3715   0.265   0.116  13.337  0.3676  0.6364 -0.2464
  245MPD1    C3 3716   0.285   0.248  13.293 -0.4676  0.4177  0.3339
  245MPD1    C4 3717   0.190   0.303  13.209 -0.4704  0.4285  0.3341
  245MPD1    C5 3718   0.069   0.236  13.188 -0.1016 -0.1645  0.2513
  245MPD1     H 3719   0.348   0.070  13.389 -0.5012 -0.9764 -0.2782
  245MPD1    H1 3720   0.191   0.405  13.172 -2.6392  0.1613 -0.4160
  245MPD1    H2 3721   4.686   0.058  13.213  0.2418  0.0423 -0.2256
  245MPD1    H3 3722   4.715   0.288  13.135  1.1132  1.9207  0.4702
  245MPD1     N 3723   0.406   0.308  13.326 -0.4552 -0.7190 -0.1227
  245MPD1    H5 3724   0.469   0.251  13.382 -1.9737 -0.0462  2.2496
  245MPD1    N1 3725   0.142   4.629  13.328 -0.4187  0.9020 -0.0382
  245MPD1    H6 3726   0.114   4.575  13.246  0.3764  0.4659 -0.0180
  245MPD1    H7 3727   0.234   4.598  13.355 -0.4776 -1.5497 -2.5896
  246MPD1     C 3728   2.589   1.990  10.092 -0.6829  0.0571 -1.0974
  246MPD1    C1 3729   2.525   2.017   9.975  0.8299  0.6654 -0.6266
  246MPD1    C2 3730   2.473   1.916   9.908 -0.1333  0.2728 -0.2564
  246MPD1    C3 3731   2.498   1.784   9.948  0.6119  0.1400 -0.0518
  246MPD1    C4 3732   2.577   1.752  10.062  0.6174 -0.1992 -0.1764
  246MPD1    C5 3733   2.619   1.863  10.132 -0.5632 -0.0116  0.3304
  246MPD1     H 3734   2.408   1.923   9.822 -3.1611  0.6745  2.0804
  246MPD1    H1 3735   2.583   1.653  10.106  0.2991  0.7291  1.9422
  246MPD1    H2 3736   2.598   2.067  10.168 -1.3792 -0.1977 -0.7597
  246MPD1    H3 3737   2.654   1.838  10.232  0.1436 -2.7834 -0.6155
  246MPD1     N 3738   2.442   1.677   9.880 -0.2115 -0.5948  0.4634
  246MPD1    H5 3739   2.399   1.712   9.794 -0.6312 -0.1976  0.8346
  246MPD1    N1 3740   2.483   2.146   9.938 -0.4452 -0.1900  0.5245
  246MPD1    H6 3741   2.481   2.159   9.837 -1.4163  1.2183  0.7186
  246MPD1    H7 3742   2.544   2.216   9.979 -2.9458  1.5332  1.2795
  247MPD1     C 3743   0.821   4.518  16.866  0.0064 -0.1003  0.2220
  247MPD1    C1 3744   0.851   4.593  16.753  0.5577 -0.2797 -0.0423
  247MPD1    C2 3745   0.819   4.542  16.625 -0.3160 -0.4263  0.0463
  247MPD1    C3 3746   0.731   4.433  16.613 -0.0722  0.0761  0.1821
  247MPD1    C4 3747   0.694   4.366  16.732  0.1329 -0.5400  0.2269
  247MPD1    C5 3748   0.747   4.402  16.847 -0.1535 -0.3024  0.6699
  247MPD1     H 3749   0.864   4.586  16.537 -0.2081  1.8859  1.2414
  247MPD1    H1 3750   0.626   4.282  16.729 -0.9798  0.3757  0.1296
  247MPD1    H2 3751   0.864   4.538  16.964  0.6463  0.2298 -0.1263
  247MPD1    H3 3752   0.714   4.343  16.932 -0.0811 -0.4023  0.6280
  247MPD1     N 3753   0.696   4.366  16.490  0.7960  0.0801  0.1836
  247MPD1    H5 3754   0.650   4.277  16.502 -1.1033  0.7164 -2.4610
  247MPD1    N1 3755   0.924   4.710  16.767 -0.3185 -0.0388 -0.1086
  247MPD1    H6 3756   0.882   0.052  16.704  0.4300  0.7216  0.2056
  247MPD1    H7 3757   0.914   0.020  16.862 -0.1387  2.3341 -0.9692
  248MPD1     C 3758   1.516   4.707   0.051 -0.0042  0.0506  1.1301
  248MPD1    C1 3759   1.401   0.037   0.082 -0.5765 -0.3232  0.8334
  248MPD1    C2 3760   1.300   4.715   0.158 -0.3686 -0.1325  0.2942
  248MPD1    C3 3761   1.318   4.590   0.208  0.1999  0.7111  0.4617
  248MPD1    C4 3762   1.433   4.522   0.177  0.5052  0.4529 -0.3377
  248MPD1    C5 3763   1.533   4.583   0.100 -0.0306  0.8423 -0.7914
  248MPD1     H 3764   1.207   0.045   0.166  1.9020  3.4963  1.6165
  248MPD1    H1 3765   1.446   4.416   0.196  2.2872  0.4166 -1.6970
  248MPD1    H2 3766   1.595   0.033  17.699 -0.8044  0.0650 -0.0277
  248MPD1    H3 3767   1.629   4.539   0.079 -0.2951 -0.6714  1.2091
  248MPD1     N 3768   1.216   4.538   0.287  0.0582  0.0478  0.5288
  248MPD1    H5 3769   1.147   4.602   0.325 -2.3267  0.2722 -4.1199
  248MPD1    N1 3770   1.385   0.167   0.036  0.3957 -0.1517  0.0686
  248MPD1    H6 3771   1.452   0.201  17.669  0.0949 -1.1783 -0.7363
  248MPD1    H7 3772   1.299   0.160  17.684  0.0565  0.1371  0.5644
  249MPD1     C 3773   2.221   2.942  10.216 -0.1573  0.3186  0.4029
  249MPD1    C1 3774   2.275   3.062  10.248  0.2481 -0.0881  0.0795
  249MPD1    C2 3775   2.312   3.145  10.139  0.8890  0.0634  0.3415
  249MPD1    C3 3776   2.270   3.113  10.010  0.1341 -0.5126  0.6810
  249MPD1    C4 3777   2.202   2.998   9.989 -0.0430  0.1311 -0.0333
  249MPD1    C5 3778   2.177   2.910  10.089  0.3420  0.8470 -0.0037
  249MPD1     H 3779   2.348   3.244  10.164 -0.9650  0.9639 -0.5269
  249MPD1    H1 3780   2.158   2.972   9.893  1.5773 -0.6650 -0.5734
  249MPD1    H2 3781   2.204   2.861  10.286 -1.2203 -2.4595 -3.0488
  249MPD1    H3 3782   2.123   2.817  10.085  3.2247 -0.8882  1.8260
  249MPD1     N 3783   2.294   3.207   9.914  0.7091 -0.2133 -0.7524
  249MPD1    H5 3784   2.336   3.293   9.947  0.3618 -0.3518  0.0363
  249MPD1    N1 3785   2.331   3.084  10.377  0.1983 -0.5802  0.4756
  249MPD1    H6 3786   2.275   3.030  10.443 -2.5996 -0.4836 -1.8530
  249MPD1    H7 3787   2.344   3.181  10.403  2.1629 -0.9460  0.8887
  250MPD2     C 3788   3.234   4.253  13.461 -0.1057  0.7620  0.4832
  250MPD2    C1 3789   3.215   4.247  13.324  0.5927  0.8550  0.9533
  250MPD2    C2 3790   3.157   4.133  13.276 -0.1854  0.3029 -0.2473
  250MPD2    C3 3791   3.125   4.025  13.361 -0.3161  0.1695  0.1196
  250MPD2    C4 3792   3.144   4.031  13.496 -0.8116  0.5940 -0.4953
  250MPD2    C5 3793   3.196   4.150  13.546  0.1142 -0.1227 -0.3364
  250MPD2     H 3794   3.139   4.132  13.169  0.8426  0.2084 -0.4145
  250MPD2    H1 3795   3.133   3.946  13.562  0.2130  1.7724  1.2134
  250MPD2    H2 3796   3.289   4.334  13.507  1.1537 -0.0326  0.3824
  250MPD2    H3 3797   3.200   4.161  13.653  3.5883  0.4566 -0.5024
  250MPD2     N 3798   3.063   3.907  13.312 -0.0031 -0.2124 -0.7522
  250MPD2    H5 3799   3.049   3.835  13.382 -0.2563 -0.1370 -0.7256
  250MPD2    N1 3800   3.266   4.353  13.241 -0.4689  0.4950 -0.0119
  250MPD2    H7 3801   3.296   4.438  13.287  0.6069  0.0183  0.1783
  251TMC3    C1 3802   3.411   4.413  13.066 -0.1561  0.3080  0.4376
  251TMC3    C2 3803   3.473   4.453  13.181 -0.5349  0.1227 -0.0585
  251TMC3    C3 3804   3.586   4.392  13.220  0.0546 -0.1626  0.2035
  251TMC3    C4 3805   3.477   4.339  12.975  0.0319 -0.0563  0.5619
  251TMC3    C5 3806   3.595   4.281  13.010 -0.3727  0.4844 -0.3917
  251TMC3    C6 3807   3.652   4.307  13.134  0.0757  0.6746  0.5927
  251TMC3     C 3808   3.289   4.340  13.101 -0.0597 -0.4657 -0.2322
  251TMC3     O 3809   3.253   4.257  13.023 -0.3113  0.1016 -0.3518
  251TMC3     H 3810   3.432   4.528  13.247 -0.5808 -0.3696  0.4670
  251TMC3    H1 3811   3.437   4.320  12.876 -0.6471 -0.6338  0.9450
  251TMC3    H2 3812   3.754   4.273  13.151  0.2441  1.4541  1.1346
  251TMC3    C7 3813   3.605   4.141  12.979 -0.7062  0.0528  0.7377
  251TMC3    C8 3814   3.644   4.421  13.353 -0.5342  0.1586 -0.0597
  251TMC3    O1 3815   3.716   4.103  12.979 -0.3025  0.7035 -0.0261
  251TMC3    O2 3816   3.605   4.525  13.400  0.6136 -0.6993 -0.3026
  252TMC3    C1 3817   4.662   4.374   9.241  0.0174  0.2924  0.0997
  252TMC3    C2 3818   0.056   4.450   9.240  1.1503 -0.1912  0.0779
  252TMC3    C3 3819   0.157   4.416   9.149 -1.0607 -0.6962 -0.2673
  252TMC3    C4 3820   4.644   4.274   9.149 -0.1467  0.8123 -0.0394
  252TMC3    C5 3821   0.023   4.241   9.064  0.2654  0.3295 -0.2984
  252TMC3    C6 3822   0.146   4.308   9.063  0.5862 -0.0939 -0.0484
  252TMC3     C 3823   4.548   4.452   9.300 -0.2643 -0.1674 -0.7892
  252TMC3     O 3824   4.569   4.573   9.313 -0.8100  0.7176 -0.4614
  252TMC3     H 3825   0.069   4.528   9.314  0.2450 -0.6052  0.6659
  252TMC3    H1 3826   4.548   4.226   9.138 -0.5463  1.4669  0.5772
  252TMC3    H2 3827   0.232   4.279   9.004  0.1285 -1.0975 -0.2284
  252TMC3    C7 3828   0.019   4.119   8.988  0.7120 -0.3153 -0.2892
  252TMC3    C8 3829   0.266   4.502   9.119  0.0364  0.6112  0.3515
  252TMC3    O1 3830   0.103   4.086   8.905 -0.0347  0.4909  0.0913
  252TMC3    O2 3831   0.315   4.508   9.007  0.1488  0.5782 -0.1361
  253MPD2     C 3832   0.834   3.187  14.937 -0.1734  0.4223  0.3237
  253MPD2    C1 3833   0.699   3.155  14.965 -0.2650  0.9894 -0.7033
  253MPD2    C2 3834   0.657   3.189  15.095  0.2740  0.0340 -0.4292
  253MPD2    C3 3835   0.745   3.242  15.189 -0.2926  0.8151  0.2536
  253MPD2    C4 3836   0.874   3.254  15.159 -0.9830  0.4582 -0.9674
  253MPD2    C5 3837   0.915   3.242  15.028 -0.0822  0.3988  0.1723
  253MPD2     H 3838   0.552   3.178  15.120  0.9015  0.8099  2.5904
  253MPD2    H1 3839   0.944   3.291  15.233 -0.1710 -2.2354 -0.4034
  253MPD2    H2 3840   0.879   3.161  14.842 -1.0328 -1.1175  0.3452
  253MPD2    H3 3841   1.010   3.272  14.987 -0.4028 -0.9495 -1.5741
  253MPD2     N 3842   0.693   3.276  15.316  0.3477  0.0651  0.3473
  253MPD2    H5 3843   0.760   3.282  15.392  0.5216 -1.3370  0.2902
  253MPD2    N1 3844   0.599   3.103  14.881 -0.4527  0.4863  0.7669
  253MPD2    H7 3845   0.507   3.096  14.924 -1.1325  1.8467 -0.4576
  254TMC3    C1 3846   0.536   3.326  15.490  0.3855  0.2298  0.5941
  254TMC3    C2 3847   0.408   3.361  15.516  0.1128  0.0687  0.6309
  254TMC3    C3 3848   0.350   3.339  15.630  0.0437 -0.2526 -0.0130
  254TMC3    C4 3849   0.627   3.293  15.586  0.0829 -0.7078  0.0673
  254TMC3    C5 3850   0.575   3.284  15.713  0.3860  0.6845  0.7404
  254TMC3    C6 3851   0.431   3.284  15.729 -0.2939 -0.2169 -0.1198
  254TMC3     C 3852   0.562   3.297  15.349 -0.2478  0.0875 -0.4065
  254TMC3     O 3853   0.467   3.298  15.273 -0.1804 -0.2969  0.0998
  254TMC3     H 3854   0.338   3.395  15.439  1.4687 -1.4415 -1.2733
  254TMC3    H1 3855   0.731   3.273  15.564  0.2420  1.1696 -0.8576
  254TMC3    H2 3856   0.397   3.272  15.831  2.6880 -1.4536  0.7206
  254TMC3    C7 3857   0.662   3.265  15.825 -0.3661  0.5650 -0.0128
  254TMC3    C8 3858   0.258   3.436  15.680 -0.1689  0.3837 -0.8431
  254TMC3    O1 3859   0.613   3.207  15.917 -0.3390 -0.0391  0.0386
  254TMC3    O2 3860   0.157   3.391  15.741  0.0335  0.3789  0.5743
  255MPD2     C 3861   3.616   0.956  10.227  0.2143 -0.3624  0.1015
  255MPD2    C1 3862   3.618   1.082  10.284 -1.5151  0.1815 -0.3534
  255MPD2    C2 3863   3.660   1.102  10.417  0.0398 -0.1272  0.0228
  255MPD2    C3 3864   3.710   0.997  10.495 -0.4436 -0.2962 -0.2088
  255MPD2    C4 3865   3.710   0.873  10.437 -0.3176  0.8312 -0.0235
  255MPD2    C5 3866   3.667   0.857  10.304  0.2857  0.1713  0.1699
  255MPD2     H 3867   3.662   1.203  10.456 -2.0619  0.5832 -1.6729
  255MPD2    H1 3868   3.746   0.779  10.477 -1.4089  0.4666  0.1124
  255MPD2    H2 3869   3.584   0.939  10.125 -1.9801 -2.4732  1.1430
  255MPD2    H3 3870   3.675   0.758  10.262 -2.0000  0.7210 -1.5247
  255MPD2     N 3871   3.765   1.031  10.619  1.0677  0.4744  0.1338
  255MPD2    H5 3872   3.757   1.129  10.647 -0.6099 -0.1104  1.6838
  255MPD2    N1 3873   3.565   1.184  10.206  0.3327 -0.8956 -0.2431
  255MPD2    H7 3874   3.533   1.167  10.112  1.3240  0.0279 -0.7433
  256TMC3    C1 3875   3.447   1.380  10.163 -0.2230 -0.1876  0.0088
  256TMC3    C2 3876   3.427   1.517  10.210  0.5816 -0.8838  0.0520
  256TMC3    C3 3877   3.305   1.573  10.188  0.2252  0.1690  0.9825
  256TMC3    C4 3878   3.352   1.311  10.096  0.3871 -0.7430  0.0336
  256TMC3    C5 3879   3.240   1.381  10.080 -0.3423 -0.5368 -0.1334
  256TMC3    C6 3880   3.204   1.503  10.124 -0.0499 -0.9488 -0.3004
  256TMC3     C 3881   3.536   1.310  10.253 -0.1936  0.1659 -0.2500
  256TMC3     O 3882   3.573   1.368  10.353 -0.5063  0.6598 -0.2348
  256TMC3     H 3883   3.497   1.568  10.276  0.7504  0.9973 -1.5963
  256TMC3    H1 3884   3.363   1.204  10.085 -0.6275 -0.6044 -2.1804
  256TMC3    H2 3885   3.121   1.558  10.082 -0.4623 -1.2959  0.0627
  256TMC3    C7 3886   3.145   1.301  10.014 -0.2694  0.0990 -0.6215
  256TMC3    C8 3887   3.299   1.724  10.206 -0.7826 -0.0824  0.5597
  256TMC3    O1 3888   3.193   1.214   9.943  0.1634 -0.1905  0.2529
  256TMC3    O2 3889   3.195   1.785  10.231  0.5245  0.1904  0.5190
  257MPD2     C 3890   2.413   4.072  13.361  0.0734 -0.3149  0.3358
  257MPD2    C1 3891   2.408   3.984  13.257 -0.6195 -0.1697 -0.1089
  257MPD2    C2 3892   2.454   3.855  13.286 -0.2303 -0.0278 -0.3384
  257MPD2    C3 3893   2.483   3.818  13.417  0.1580  0.3066  0.1296
  257MPD2    C4 3894   2.470   3.905  13.525 -0.4252 -0.2967 -0.4873
  257MPD2    C5 3895   2.431   4.034  13.488 -0.2280 -0.1079  0.9247
  257MPD2     H 3896   2.469   3.785  13.204 -1.7895 -0.5465 -0.1680
  257MPD2    H1 3897   2.488   3.882  13.630  0.0336  1.0551 -0.2699
  257MPD2    H2 3898   2.383   4.175  13.349  0.0875 -0.6300 -2.4688
  257MPD2    H3 3899   2.415   4.118  13.554 -3.5079 -0.1265  0.1617
  257MPD2     N 3900   2.520   3.684  13.441 -0.2365  0.6259 -0.2107
  257MPD2    H5 3901   2.539   3.623  13.362  2.0119  0.7330  0.2577
  257MPD2    N1 3902   2.388   4.043  13.135  1.2621 -0.2136  0.1937
  257MPD2    H7 3903   2.393   4.144  13.129 -1.0614 -0.0571  1.0142
  258TMC3    C1 3904   2.582   3.491  13.573 -0.3361  0.4002  0.7639
  258TMC3    C2 3905   2.660   3.438  13.468 -0.5322  0.6421 -0.8916
  258TMC3    C3 3906   2.731   3.325  13.497  0.0197  0.4793 -0.4938
  258TMC3    C4 3907   2.579   3.431  13.699 -0.3440  0.5700  0.2811
  258TMC3    C5 3908   2.636   3.307  13.714  0.6261 -0.6150  0.5938
  258TMC3    C6 3909   2.716   3.264  13.616  0.0109 -0.1594  0.2233
  258TMC3     C 3910   2.515   3.624  13.565 -0.0146 -0.0376 -0.4053
  258TMC3     O 3911   2.466   3.665  13.666 -0.2160 -0.3597 -0.1553
  258TMC3     H 3912   2.657   3.469  13.364  1.4730  3.7569 -0.0111
  258TMC3    H1 3913   2.526   3.481  13.779 -0.5143 -1.9007  1.7180
  258TMC3    H2 3914   2.777   3.177  13.641  0.9468  0.2991 -0.4754
  258TMC3    C7 3915   2.636   3.262  13.853 -0.2588 -0.1544 -0.5316
  258TMC3    C8 3916   2.769   3.242  13.378 -0.0609 -0.4347 -0.7473
  258TMC3    O1 3917   2.541   3.301  13.918 -0.1052  0.1770  0.0991
  258TMC3    O2 3918   2.790   3.300  13.276  0.2352  0.4559  0.1497
  259MPD2     C 3919   1.788   0.012   1.719 -0.6624  0.2165 -0.1072
  259MPD2    C1 3920   1.685   4.661   1.659  0.2866  0.5743  0.7521
  259MPD2    C2 3921   1.721   4.586   1.549  0.4605 -0.4666  0.0376
  259MPD2    C3 3922   1.858   4.588   1.508  0.3086 -0.2438  0.8395
  259MPD2    C4 3923   1.957   4.658   1.577 -0.4162 -0.0631  0.4452
  259MPD2    C5 3924   1.917   0.012   1.683 -0.2403  0.0021 -0.1499
  259MPD2     H 3925   1.650   4.523   1.497 -0.7612  0.9814 -0.0627
  259MPD2    H1 3926   2.062   4.640   1.558 -0.4795 -0.5916  0.5885
  259MPD2    H2 3927   1.760   0.080   1.799 -0.2123 -0.5948  0.7348
  259MPD2    H3 3928   1.991   0.068   1.738 -0.6035 -0.5196  0.8634
  259MPD2     N 3929   1.888   4.508   1.398 -0.1624  0.3282 -0.5968
  259MPD2    H5 3930   1.816   4.444   1.365  0.0099 -0.7780  1.2180
  259MPD2    N1 3931   1.561   4.677   1.714  0.1976  0.6078 -0.5165
  259MPD2    H7 3932   1.550   0.001   1.802 -0.2523  1.4678 -1.0536
  260TMC3    C1 3933   2.037   4.420   1.222 -0.0988 -1.6452 -0.0413
  260TMC3    C2 3934   2.165   4.385   1.202  0.0244 -0.7345  0.1163
  260TMC3    C3 3935   2.175   4.289   1.110  0.2888 -0.5330  0.0681
  260TMC3    C4 3936   1.927   4.360   1.162  0.2698  0.6115 -0.7433
  260TMC3    C5 3937   1.948   4.253   1.077 -0.5174 -0.1421 -0.5774
  260TMC3    C6 3938   2.076   4.222   1.050  0.5948 -0.5415 -0.2852
  260TMC3     C 3939   2.012   4.513   1.335 -0.0219 -0.1987 -0.2388
  260TMC3     O 3940   2.109   4.596   1.344  0.5771 -0.3907 -0.4976
  260TMC3     H 3941   2.248   4.447   1.234 -1.6812  2.0814 -0.8875
  260TMC3    H1 3942   1.827   4.401   1.165 -0.5532 -1.3587 -0.9701
  260TMC3    H2 3943   2.107   4.138   0.989  2.0089 -0.9703  1.0218
  260TMC3    C7 3944   1.850   4.214   0.978  0.1850  0.0798 -0.2187
  260TMC3    C8 3945   2.308   4.280   1.053 -0.0804 -0.2715  0.6328
  260TMC3    O1 3946   1.895   4.136   0.896  0.3386  0.4903  0.2242
  260TMC3    O2 3947   2.386   4.228   1.135  0.1358 -0.3175  0.7262
  261MPD2     C 3948   2.832   3.424  12.635 -0.1204  0.3599 -0.8861
  261MPD2    C1 3949   2.885   3.550  12.664 -0.3478  0.7112 -0.0610
  261MPD2    C2 3950   2.917   3.640  12.559 -0.6605  0.9475 -0.7623
  261MPD2    C3 3951   2.900   3.597  12.428 -0.1599  0.2287  0.0392
  261MPD2    C4 3952   2.852   3.473  12.399 -1.3093 -0.2344 -0.3322
  261MPD2    C5 3953   2.823   3.382  12.499 -0.5894  0.3128 -0.4073
  261MPD2     H 3954   2.943   3.743  12.582  0.9601  0.4387 -0.3591
  261MPD2    H1 3955   2.831   3.442  12.297  0.2187  0.1754 -0.7798
  261MPD2    H2 3956   2.797   3.349  12.705  0.0136  1.9905  0.9341
  261MPD2    H3 3957   2.799   3.279  12.474 -1.3585  0.4648 -0.2741
  261MPD2     N 3958   2.908   3.680  12.316  0.0811 -0.5319  0.1301
  261MPD2    H5 3959   2.890   3.633  12.228  1.3583 -0.5168 -0.1446
  261MPD2    N1 3960   2.898   3.599  12.801  0.1611  0.1376 -0.1653
  261MPD2    H7 3961   2.926   3.695  12.814 -1.4860  0.5687  0.2279
  262TMC3    C1 3962   2.953   3.862  12.185  0.2627 -0.2261  0.0259
  262TMC3    C2 3963   2.922   3.992  12.163  0.6696  0.1037 -0.1675
  262TMC3    C3 3964   2.939   4.046  12.045 -0.4861 -0.2808  0.3651
  262TMC3    C4 3965   2.993   3.784  12.080 -0.4700  0.1255  0.2227
  262TMC3    C5 3966   3.007   3.845  11.956  1.1287 -0.5394  0.0112
  262TMC3    C6 3967   2.988   3.981  11.942  0.3029  0.5114 -0.1504
  262TMC3     C 3968   2.935   3.814  12.318  0.8918 -0.7347 -0.3233
  262TMC3     O 3969   2.937   3.896  12.410 -0.3493  0.1728 -0.3077
  262TMC3     H 3970   2.905   4.048  12.254 -0.0337  1.3888 -1.0824
  262TMC3    H1 3971   3.021   3.680  12.092  1.0973  0.4718 -0.4655
  262TMC3    H2 3972   3.001   4.038  11.851  1.2259  1.0922  0.3538
  262TMC3    C7 3973   3.050   3.773  11.840  0.2005  1.0099  0.4907
  262TMC3    C8 3974   2.924   4.189  12.038 -0.5303 -0.4916 -0.4616
  262TMC3    O1 3975   3.065   3.651  11.853  0.4272  0.4131  0.3176
  262TMC3    O2 3976   2.980   4.238  11.943  0.3634 -0.3046  0.2334
  263MPD2     C 3977   4.522   2.882  10.824 -0.1404 -0.2171 -0.0270
  263MPD2    C1 3978   4.529   3.002  10.884  0.0536 -0.2850 -0.1086
  263MPD2    C2 3979   4.483   3.111  10.819  0.1716 -0.5186 -0.1065
  263MPD2    C3 3980   4.420   3.096  10.695  0.6579 -0.6235  0.1290
  263MPD2    C4 3981   4.380   2.970  10.655 -1.1326  0.2380 -0.0018
  263MPD2    C5 3982   4.450   2.856  10.713  0.7262  0.5411  0.1019
  263MPD2     H 3983   4.514   3.205  10.863 -0.5532  0.3986 -1.5797
  263MPD2    H1 3984   4.320   2.960  10.566 -1.0707  0.3055 -0.0520
  263MPD2    H2 3985   4.577   2.803  10.873 -0.7804 -0.1663  0.7721
  263MPD2    H3 3986   4.427   2.755  10.679  0.2211  0.6482  0.1250
  263MPD2     N 3987   4.369   3.218  10.645  0.2530 -0.0995 -0.0289
  263MPD2    H5 3988   4.400   3.305  10.688 -1.5612  1.2187 -1.4090
  263MPD2    N1 3989   4.617   3.015  10.995  1.1088 -0.3345 -0.3086
  263MPD2    H7 3990   4.648   2.928  11.036 -0.9795 -0.7529  0.4127
  264TMC3    C1 3991   4.298   3.372  10.488 -0.1774  0.5466 -0.2878
  264TMC3    C2 3992   4.283   3.468  10.577 -0.0733 -0.1602 -0.9537
  264TMC3    C3 3993   4.301   3.596  10.529  0.2357  1.7642  0.6688
  264TMC3    C4 3994   4.334   3.395  10.358  0.4486  0.4166 -0.4991
  264TMC3    C5 3995   4.348   3.525  10.313  0.0727  0.0396 -1.0529
  264TMC3    C6 3996   4.327   3.624  10.401 -0.2742  0.3842 -0.5616
  264TMC3     C 3997   4.298   3.234  10.524  0.1940  0.5168  0.4734
  264TMC3     O 3998   4.273   3.143  10.444  0.2240 -0.2392 -0.2493
  264TMC3     H 3999   4.239   3.443  10.673 -1.1997  3.4866 -0.5184
  264TMC3    H1 4000   4.344   3.313  10.287  1.5925  0.2851 -0.1829
  264TMC3    H2 4001   4.334   3.729  10.373 -0.0807  0.0139 -1.8919
  264TMC3    C7 4002   4.447   3.534  10.208 -0.3895  0.3181 -0.3807
  264TMC3    C8 4003   4.366   3.696  10.605  0.0799  0.0099  0.7414
  264TMC3    O1 4004   4.500   3.429  10.165  0.4588 -0.0427  0.3409
  264TMC3    O2 4005   4.458   3.753  10.546  0.6977 -0.0164 -0.3551
  265MPD2     C 4006   1.844   3.028  15.764  0.0756 -0.3688 -0.5070
  265MPD2    C1 4007   1.934   3.133  15.765  0.3262 -0.1677 -0.2249
  265MPD2    C2 4008   2.046   3.119  15.691  0.7786  0.1093 -0.3691
  265MPD2    C3 4009   2.087   3.004  15.630  0.2715  0.8137  0.1957
  265MPD2    C4 4010   2.004   2.895  15.643 -0.2886 -0.3475 -0.5431
  265MPD2    C5 4011   1.886   2.908  15.711  0.5152  0.2368 -0.3788
  265MPD2     H 4012   2.106   3.208  15.676  0.7738  0.0106 -0.9721
  265MPD2    H1 4013   2.026   2.802  15.591 -0.9283 -0.6038 -0.3494
  265MPD2    H2 4014   1.753   3.033  15.823  0.3047  0.4389 -0.2161
  265MPD2    H3 4015   1.816   2.825  15.713  1.3220 -0.4452 -0.4599
  265MPD2     N 4016   2.215   2.984  15.562  0.2601  0.3651 -0.1980
  265MPD2    H5 4017   2.250   2.890  15.548  0.6499  0.3593  0.7988
  265MPD2    N1 4018   1.907   3.255  15.836 -0.0135 -0.2334 -0.5147
  265MPD2    H7 4019   1.972   3.332  15.821  0.5178 -0.3163  1.3742
  266TMC3    C1 4020   1.797   3.411  15.966  0.4251 -0.3782  0.4604
  266TMC3    C2 4021   1.765   3.429  16.098  0.2721  0.6245  0.0500
  266TMC3    C3 4022   1.724   3.552  16.128 -0.3568  0.4952 -0.3814
  266TMC3    C4 4023   1.782   3.505  15.866 -0.1414  0.2826  0.8373
  266TMC3    C5 4024   1.736   3.633  15.902  0.5892 -0.0031 -0.3037
  266TMC3    C6 4025   1.703   3.651  16.030  0.4085 -0.3841 -0.5748
  266TMC3     C 4026   1.811   3.270  15.924 -0.8773 -0.3025  0.0256
  266TMC3     O 4027   1.755   3.185  15.993 -0.5099 -0.3199  0.4150
  266TMC3     H 4028   1.759   3.355  16.178 -1.1136  0.5455 -0.1339
  266TMC3    H1 4029   1.806   3.462  15.770 -0.9829 -0.1241  0.8161
  266TMC3    H2 4030   1.650   3.738  16.066  0.0143 -0.2854 -1.3937
  266TMC3    C7 4031   1.654   3.700  15.804 -0.0027  0.2335 -0.1637
  266TMC3    C8 4032   1.706   3.580  16.264  0.6984 -0.4604 -0.5912
  266TMC3    O1 4033   1.592   3.624  15.729 -0.0045  0.0128  0.1386
  266TMC3    O2 4034   1.669   3.483  16.335 -0.5613  0.6368 -0.0365
  267MPD2     C 4035   4.054   0.023   0.165  0.8823  0.5916  0.3993
  267MPD2    C1 4036   4.147   0.072   0.074  0.0125 -0.0263  0.2278
  267MPD2    C2 4037   4.100   0.127  17.658  0.5599  0.3972 -0.1654
  267MPD2    C3 4038   3.972   0.127  17.625 -0.5130  0.9442  0.5345
  267MPD2    C4 4039   3.886   0.062   0.007  0.2297  0.1148  0.5790
  267MPD2    C5 4040   3.926   0.020   0.132  0.2645 -0.2425 -0.2344
  267MPD2     H 4041   4.165   0.172  17.584  0.0740 -2.8055 -2.5603
  267MPD2    H1 4042   3.783   0.050  17.678  1.5702 -0.3124 -3.7086
  267MPD2    H2 4043   4.086   4.708   0.260 -2.1165 -1.6628  0.4566
  267MPD2    H3 4044   3.850   4.708   0.200  1.1537  1.5782  1.7504
  267MPD2     N 4045   3.915   0.186  17.500 -0.2561 -0.0710  0.3628
  267MPD2    H5 4046   3.816   0.164  17.491  0.1613 -1.4437 -0.8776
  267MPD2    N1 4047   4.284   0.069   0.107  0.4019  0.0824  0.1420
  267MPD2    H7 4048   4.313   0.022   0.192 -0.2496 -0.9760 -0.2301
  268TMC3    C1 4049   4.522   0.106   0.080 -0.1459  0.7701  0.1685
  268TMC3    C2 4050   4.614   0.178   0.013  0.2350  0.0112  0.5345
  268TMC3    C3 4051   0.009   0.203   0.068 -0.8875 -0.6162  0.0270
  268TMC3    C4 4052   4.554   0.053   0.201  0.0679 -0.5007 -0.4723
  268TMC3    C5 4053   4.679   0.077   0.252  0.0176 -0.4346  0.1513
  268TMC3    C6 4054   0.047   0.150   0.186 -0.3041  0.0208 -0.0321
  268TMC3     C 4055   4.384   0.119   0.028  1.2556  0.0064  0.0617
  268TMC3     O 4056   4.365   0.199  17.641  0.1280  0.1277 -0.1064
  268TMC3     H 4057   4.582   0.212  17.617  0.6608  1.4159  0.8696
  268TMC3    H1 4058   4.478   0.000   0.258 -0.0623  0.4154  0.1915
  268TMC3    H2 4059   0.150   0.164   0.217 -0.8886  3.4676  0.3552
  268TMC3    C7 4060   4.702   4.724   0.372  0.6014  0.2993  0.5674
  268TMC3    C8 4061   0.084   0.317   0.025 -0.1836 -0.1372 -0.4963
  268TMC3    O1 4062   4.619   0.005   0.457  0.0939  0.0889  0.4133
  268TMC3    O2 4063   0.138   0.374   0.119 -1.2456  0.0353  0.0556
  269MPD2     C 4064   4.611   3.781  15.623  0.5236 -0.5467  0.6767
  269MPD2    C1 4065   4.529   3.808  15.733  0.1857  0.2310 -0.0585
  269MPD2    C2 4066   4.469   3.934  15.742 -0.5724 -0.6349  0.3092
  269MPD2    C3 4067   4.508   4.040  15.659  0.3108  0.5330 -0.1130
  269MPD2    C4 4068   4.594   4.011  15.556 -0.4720 -0.3962 -0.3042
  269MPD2    C5 4069   4.643   3.879  15.540  0.0285  0.3529 -0.2930
  269MPD2     H 4070   4.403   3.957  15.825 -1.1112 -0.9238 -0.0439
  269MPD2    H1 4071   4.636   4.083  15.487  1.5000 -0.5696  0.7202
  269MPD2    H2 4072   4.660   3.688  15.597  1.2544 -0.4608  1.7676
  269MPD2    H3 4073   4.716   3.858  15.462 -0.3785 -0.7608 -0.3706
  269MPD2     N 4074   4.453   4.169  15.687 -0.3832  0.2305  0.5637
  269MPD2    H5 4075   4.387   4.175  15.764 -0.9197 -0.2796  0.1374
  269MPD2    N1 4076   4.501   3.698  15.819 -0.5306  0.5128 -0.0795
  269MPD2    H7 4077   4.542   3.608  15.796 -0.7194  0.4361 -0.1126
  270TMC3    C1 4078   4.370   3.573  15.982 -0.3272 -0.2886 -0.0075
  270TMC3    C2 4079   4.237   3.554  15.964 -0.1204 -0.1668 -0.7616
  270TMC3    C3 4080   4.187   3.426  15.974 -1.1915  0.0646  0.0660
  270TMC3    C4 4081   4.458   3.482  16.020 -0.3062  0.5782 -0.1163
  270TMC3    C5 4082   4.406   3.363  16.041 -0.6920 -0.4862  0.3303
  270TMC3    C6 4083   4.276   3.326  16.008  0.1216 -0.5968 -0.0505
  270TMC3     C 4084   4.420   3.703  15.928  0.2019 -0.1349 -0.2904
  270TMC3     O 4085   4.356   3.800  15.970  0.0143  0.7900  0.1292
  270TMC3     H 4086   4.172   3.626  15.916 -1.5824 -0.3247  0.9667
  270TMC3    H1 4087   4.559   3.510  16.051  1.1459 -1.7236 -2.7458
  270TMC3    H2 4088   4.233   3.228  16.015  2.1612 -1.4605  0.4885
  270TMC3    C7 4089   4.501   3.253  16.026 -0.2081 -0.2512  0.1016
  270TMC3    C8 4090   4.070   3.391  15.886 -0.1690 -0.7023  0.2326
  270TMC3    O1 4091   4.605   3.286  15.976  0.4565 -0.1566 -0.1325
  270TMC3    O2 4092   3.982   3.479  15.881 -0.0369 -0.3995  0.1766
  271MPD2     C 4093   3.449   3.313  14.169 -0.8078 -0.2635  0.1746
  271MPD2    C1 4094   3.401   3.340  14.297 -0.0672 -0.3959  0.2529
  271MPD2    C2 4095   3.305   3.441  14.299  0.2402 -0.2037  0.0700
  271MPD2    C3 4096   3.259   3.508  14.189  0.4265 -0.0507  0.8222
  271MPD2    C4 4097   3.313   3.477  14.067  0.3286  0.1102 -0.8323
  271MPD2    C5 4098   3.409   3.380  14.057  0.3692 -1.1286  0.1983
  271MPD2     H 4099   3.265   3.468  14.396 -1.4239  0.5773 -0.8189
  271MPD2    H1 4100   3.280   3.520  13.973  2.1682  5.1269  0.7618
  271MPD2    H2 4101   3.523   3.235  14.149 -0.5551 -0.9841  3.9014
  271MPD2    H3 4102   3.452   3.356  13.961 -0.5443  1.4017 -0.8380
  271MPD2     N 4103   3.163   3.609  14.187 -0.4447 -0.1934  0.0188
  271MPD2    H5 4104   3.146   3.654  14.098  0.5581  0.0878 -0.0366
  271MPD2    N1 4105   3.444   3.271  14.413 -0.5168 -0.1145  0.1117
  271MPD2    H7 4106   3.408   3.313  14.499 -1.9623  0.9350 -0.9954
  272TMC3    C1 4107   3.587   3.136  14.553 -0.1206  0.0695 -0.7658
  272TMC3    C2 4108   3.677   3.039  14.545 -0.1297 -0.3166 -0.1046
  272TMC3    C3 4109   3.747   3.013  14.662  0.5708 -0.0599  0.3641
  272TMC3    C4 4110   3.544   3.194  14.669 -0.0578  0.0315  0.2792
  272TMC3    C5 4111   3.606   3.154  14.781 -0.7782 -0.1843  0.1805
  272TMC3    C6 4112   3.719   3.071  14.778  0.0406  0.1006 -1.0038
  272TMC3     C 4113   3.525   3.163  14.421 -0.2938 -0.4807 -0.0430
  272TMC3     O 4114   3.559   3.094  14.326 -0.3854  0.1611 -0.3906
  272TMC3     H 4115   3.712   2.988  14.456  0.0495  1.0801 -0.8235
  272TMC3    H1 4116   3.473   3.276  14.670 -0.9837 -0.7957  1.1663
  272TMC3    H2 4117   3.771   3.044  14.870 -1.8903 -1.8355 -0.4699
  272TMC3    C7 4118   3.558   3.222  14.899  1.1039  0.2137  0.3120
  272TMC3    C8 4119   3.886   2.992  14.638  0.0411 -0.4885  0.4575
  272TMC3    O1 4120   3.454   3.288  14.900  0.0565  0.6117  0.1584
  272TMC3    O2 4121   3.933   3.028  14.532 -0.5029  0.2384  0.1660
  273MPD2     C 4122   4.426   1.594  11.689  0.1996 -0.0211  0.1565
  273MPD2    C1 4123   4.499   1.712  11.720 -0.0122 -0.6728  0.2017
  273MPD2    C2 4124   4.544   1.797  11.621 -0.0527  0.1043  0.0855
  273MPD2    C3 4125   4.515   1.771  11.487 -0.1727 -0.3908  0.1085
  273MPD2    C4 4126   4.448   1.656  11.456 -0.4754  0.4463 -0.0271
  273MPD2    C5 4127   4.403   1.571  11.553  0.6304  0.1782 -0.4057
  273MPD2     H 4128   4.592   1.890  11.651  0.7733  0.4598 -2.3382
  273MPD2    H1 4129   4.422   1.632  11.353  1.7476 -1.6686 -0.0843
  273MPD2    H2 4130   4.378   1.530  11.761  0.4304  0.5080  0.7762
  273MPD2    H3 4131   4.349   1.483  11.521  0.3051 -0.7105  2.6107
  273MPD2     N 4132   4.567   1.849  11.380  0.1513  0.1899  0.4016
  273MPD2    H5 4133   4.563   1.796  11.293 -0.4721  0.0141  0.5344
  273MPD2    N1 4134   4.525   1.736  11.855  0.1006 -0.2121  0.0679
  273MPD2    H7 4135   4.513   1.653  11.913  0.1473  1.2391  2.1601
  274TMC3    C1 4136   4.665   2.019  11.264  0.3953  0.4833 -0.6810
  274TMC3    C2 4137   4.592   1.989  11.151 -0.3727 -0.0191  1.2772
  274TMC3    C3 4138   4.622   2.059  11.039  0.5818 -0.2683 -0.0960
  274TMC3    C4 4139   0.034   2.116  11.258  0.3118  0.1542 -0.5204
  274TMC3    C5 4140   0.070   2.170  11.139 -0.3655  0.1533 -0.1791
  274TMC3    C6 4141   4.708   2.157  11.040 -0.6789 -0.5023  0.0943
  274TMC3     C 4142   4.637   1.969  11.386  0.7696 -0.5330  0.2753
  274TMC3     O 4143   4.657   2.031  11.491 -0.0194  0.3957 -0.0441
  274TMC3     H 4144   4.503   1.927  11.148 -0.6891  0.5251 -0.0335
  274TMC3    H1 4145   0.087   2.144  11.348  0.4759 -0.2954 -0.4770
  274TMC3    H2 4146   4.716   2.220  10.952 -0.6809  2.2674  2.0881
  274TMC3    C7 4147   0.154   2.286  11.135 -0.0763 -0.0180  0.0087
  274TMC3    C8 4148   4.540   2.025  10.917  0.0290  0.0691 -0.2876
  274TMC3    O1 4149   0.139   2.369  11.045  0.1542 -0.1526  0.4251
  274TMC3    O2 4150   4.439   1.959  10.934 -0.2479  0.0864  0.1374
  275MPD2     C 4151   0.249   4.314  14.306  0.2814  0.0001  0.2993
  275MPD2    C1 4152   0.305   4.202  14.368 -1.0664  0.1427 -0.0639
  275MPD2    C2 4153   0.227   4.087  14.387  0.3759 -0.2469  1.0384
  275MPD2    C3 4154   0.093   4.082  14.342  0.5157  0.4943  0.2008
  275MPD2    C4 4155   0.038   4.190  14.280  0.0413  0.3653 -0.3066
  275MPD2    C5 4156   0.116   4.299  14.270  0.8966 -0.1599  0.3870
  275MPD2     H 4157   0.274   3.995  14.421  1.4895 -0.2267 -0.4393
  275MPD2    H1 4158   4.657   4.199  14.263 -0.3292 -0.0939  1.7848
  275MPD2    H2 4159   0.298   4.411  14.310 -0.4625  0.4779 -2.3934
  275MPD2    H3 4160   0.070   4.391  14.234  1.3989  0.4360  1.2661
  275MPD2     N 4161   0.002   3.984  14.381  0.3824  0.0093  0.1335
  275MPD2    H5 4162   4.631   4.004  14.356  0.6605  2.4144  0.9562
  275MPD2    N1 4163   0.422   4.206  14.434  0.2160 -0.2191 -0.4462
  275MPD2    H7 4164   0.443   4.126  14.492 -0.1439  0.1777  0.2327
  276TMC3    C1 4165   0.599   4.282  14.546  0.4532 -0.5845 -0.0683
  276TMC3    C2 4166   0.619   4.150  14.590 -0.2184 -0.4167  0.6015
  276TMC3    C3 4167   0.682   4.136  14.706  0.5041  0.2448 -0.0199
  276TMC3    C4 4168   0.661   4.390  14.604 -0.2083 -0.1724  0.1186
  276TMC3    C5 4169   0.739   4.368  14.709  0.1643 -0.4343  0.3113
  276TMC3    C6 4170   0.747   4.240  14.772  0.0310  0.7265 -0.9505
  276TMC3     C 4171   0.509   4.312  14.438  0.2140  0.8726  0.0588
  276TMC3     O 4172   0.520   4.415  14.368  0.6715 -0.4194  0.7625
  276TMC3     H 4173   0.588   4.062  14.536  0.8737 -0.7567  0.5350
  276TMC3    H1 4174   0.655   4.487  14.556  0.2945 -0.2264 -0.0521
  276TMC3    H2 4175   0.817   4.209  14.849 -1.0225 -0.4649 -0.4648
  276TMC3    C7 4176   0.805   4.468  14.775 -0.4141  0.2477  0.2442
  276TMC3    C8 4177   0.748   4.007  14.724  0.8486  0.7785 -0.3534
  276TMC3    O1 4178   0.825   4.447  14.896 -0.4115  0.3890 -0.3515
  276TMC3    O2 4179   0.861   4.011  14.764  0.2245 -0.1860  0.0665
  277MPD2     C 4180   2.049   4.139  13.563 -0.5294  0.0590  0.6182
  277MPD2    C1 4181   1.919   4.154  13.508 -0.3249 -0.2036  0.2834
  277MPD2    C2 4182   1.821   4.066  13.535  0.1918  0.0993  0.7777
  277MPD2    C3 4183   1.842   3.948  13.611 -0.4056 -0.2999 -0.1937
  277MPD2    C4 4184   1.974   3.920  13.638  0.7043  0.5627  1.1663
  277MPD2    C5 4185   2.068   4.022  13.621 -0.3663 -0.5988 -0.0831
  277MPD2     H 4186   1.719   4.085  13.503  0.8369  0.6164 -0.9796
  277MPD2    H1 4187   2.015   3.827  13.676  0.8634  0.4913  0.8180
  277MPD2    H2 4188   2.123   4.218  13.557 -1.2353  0.6328 -0.4658
  277MPD2    H3 4189   2.171   4.001  13.649 -0.6891 -0.9100  0.8712
  277MPD2     N 4190   1.730   3.856  13.631  0.2664 -0.4672 -0.3294
  277MPD2    H5 4191   1.639   3.882  13.594  1.1939  1.6446 -1.0895
  277MPD2    N1 4192   1.889   4.255  13.410  0.1911 -0.4799  0.3578
  277MPD2    H7 4193   1.799   4.256  13.363  1.3365  1.6916 -1.7387
  278TMC3    C1 4194   1.619   3.647  13.651 -0.3887 -0.5433  0.7862
  278TMC3    C2 4195   1.639   3.511  13.620  0.0473 -0.2896 -0.3237
  278TMC3    C3 4196   1.538   3.439  13.579 -0.7382  0.7918 -0.3773
  278TMC3    C4 4197   1.493   3.697  13.639 -0.6906 -0.0168  0.0416
  278TMC3    C5 4198   1.390   3.614  13.594  0.0637 -0.4218  0.2006
  278TMC3    C6 4199   1.412   3.482  13.560  0.8894 -0.2007  0.1075
  278TMC3     C 4200   1.740   3.726  13.680 -0.2364  0.0570 -1.0056
  278TMC3     O 4201   1.842   3.664  13.707  0.3110  0.0217  0.0125
  278TMC3     H 4202   1.726   3.448  13.637  1.5548  2.0493  0.7069
  278TMC3    H1 4203   1.476   3.802  13.661 -2.3828 -0.5222  1.1693
  278TMC3    H2 4204   1.333   3.415  13.530 -0.5706  2.5375 -2.0893
  278TMC3    C7 4205   1.265   3.679  13.593  0.2567  0.4656  0.2090
  278TMC3    C8 4206   1.564   3.298  13.548  0.3544 -0.5131  0.6290
  278TMC3    O1 4207   1.269   3.799  13.559 -0.9223  0.0546 -0.0624
  278TMC3    O2 4208   1.649   3.237  13.614  0.6938  0.0857  0.4440
  279MPD2     C 4209   0.908   2.775  17.699 -0.6327 -0.0443  0.1168
  279MPD2    C1 4210   0.940   2.886   0.066  0.0199  0.8646  0.0959
  279MPD2    C2 4211   1.010   2.989   0.007  0.0252  0.1836  0.7788
  279MPD2    C3 4212   1.040   2.996  17.576 -0.2092  0.4799  0.0942
  279MPD2    C4 4213   0.994   2.885  17.506  0.4661  0.1217 -0.3358
  279MPD2    C5 4214   0.935   2.773  17.566 -0.1277 -0.4462  0.6107
  279MPD2     H 4215   1.016   3.082   0.063 -1.4968  0.2182  0.8910
  279MPD2    H1 4216   1.010   2.871  17.400  0.4250 -1.3060 -0.1591
  279MPD2    H2 4217   0.860   2.687   0.039 -2.7179  0.7108 -0.7096
  279MPD2    H3 4218   0.897   2.696  17.501 -0.0102  0.1144 -0.1200
  279MPD2     N 4219   1.114   3.106  17.514 -0.4920  0.2410  0.0248
  279MPD2    H5 4220   1.130   3.100  17.414  1.3237 -2.2232  0.4700
  279MPD2    N1 4221   0.894   2.887   0.195 -0.3537 -0.1064  0.1656
  279MPD2    H7 4222   0.817   2.824   0.214  0.2340 -0.6973  0.6300
  280TMC3    C1 4223   0.827   3.012   0.377 -0.1417  0.6437 -0.3612
  280TMC3    C2 4224   0.713   2.930   0.373  0.1281  0.2407  0.4194
  280TMC3    C3 4225   0.596   2.994   0.369 -0.3305 -0.1397  0.1032
  280TMC3    C4 4226   0.830   3.141   0.418  0.1807 -0.5334  0.0622
  280TMC3    C5 4227   0.704   3.199   0.419  0.1104 -0.4960 -0.3294
  280TMC3    C6 4228   0.587   3.131   0.377  0.1896 -0.4139  0.3860
  280TMC3     C 4229   0.940   2.974   0.293 -0.7427 -0.5248 -0.2661
  280TMC3     O 4230   1.039   3.045   0.293  0.0725  0.4722  0.5749
  280TMC3     H 4231   0.710   2.822   0.387 -1.2784  0.2897  0.5511
  280TMC3    H1 4232   0.918   3.204   0.425 -0.0254 -0.1185 -1.0951
  280TMC3    H2 4233   0.491   3.180   0.364 -0.6388 -2.2414 -0.3982
  280TMC3    C7 4234   0.694   3.344   0.456 -0.5538 -0.1404 -0.0664
  280TMC3    C8 4235   0.469   2.915   0.376 -0.0396 -0.2589  0.3378
  280TMC3    O1 4236   0.753   3.376   0.554 -0.2846  0.0166 -0.9316
  280TMC3    O2 4237   0.371   2.990   0.397  0.2687  0.7475  0.7498
  281TMC3    C1 4238   4.049   3.507  13.247 -0.2340 -0.5298 -0.4100
  281TMC3    C2 4239   3.981   3.558  13.141  0.4024 -0.1115  0.7333
  281TMC3    C3 4240   3.848   3.537  13.118  0.2954 -0.1747  0.4972
  281TMC3    C4 4241   3.987   3.416  13.329 -0.1858  0.2047  0.7308
  281TMC3    C5 4242   3.853   3.391  13.307 -0.1751  0.6542  0.0197
  281TMC3    C6 4243   3.782   3.455  13.206  0.0785 -0.1710  0.1796
  281TMC3     C 4244   4.127   3.598  13.333 -0.0497 -0.0589 -0.4075
  281TMC3     O 4245   4.204   3.554  13.413  0.0100  0.3977 -0.1517
  281TMC3     H 4246   4.041   3.625  13.081  1.7243 -1.6222  0.3815
  281TMC3    H1 4247   4.045   3.382  13.413  0.6737  0.8458  0.3966
  281TMC3    H2 4248   3.678   3.425  13.200  1.0109 -3.3681 -0.1262
  281TMC3    C7 4249   3.773   3.342  13.415  0.0859 -0.0194 -0.4691
  281TMC3    C8 4250   3.776   3.655  13.079 -0.2397 -0.3188 -0.5528
  281TMC3    O1 4251   3.654   3.365  13.413  0.6755 -0.3144 -0.1208
  281TMC3    O2 4252   3.834   3.762  13.071 -0.2791 -0.2040 -0.1017
  282MPD2     C 4253   1.859   0.369  14.844  0.0706  0.5622  0.1084
  282MPD2    C1 4254   1.754   0.428  14.903 -0.0305 -0.7819 -0.1016
  282MPD2    C2 4255   1.643   0.457  14.827 -0.6209 -0.7583 -0.2407
  282MPD2    C3 4256   1.630   0.414  14.699 -0.2367  0.1491  0.6030
  282MPD2    C4 4257   1.735   0.353  14.636  0.7130 -0.0662  0.2127
  282MPD2    C5 4258   1.849   0.330  14.712 -0.0611 -0.0671 -0.2856
  282MPD2     H 4259   1.570   0.508  14.889 -0.1112 -0.1362 -0.1476
  282MPD2    H1 4260   1.728   0.323  14.532  1.4286  2.3795 -0.5344
  282MPD2    H2 4261   1.949   0.348  14.901 -0.1511 -0.5113  0.0675
  282MPD2    H3 4262   1.935   0.287  14.662  1.4649  1.1621  1.2902
  282MPD2     N 4263   1.502   0.433  14.637  0.3190  0.6383  0.1506
  282MPD2    H5 4264   1.426   0.477  14.688  1.2248  3.3440 -0.8544
  282MPD2    N1 4265   1.739   0.457  15.045  0.0052 -0.1694  0.2630
  282MPD2    H7 4266   1.654   0.499  15.081 -0.0346 -0.4303  0.4747
  283TMC3    C1 4267   1.793   0.463  15.258  0.1423 -0.3552  0.3305
  283TMC3    C2 4268   1.767   0.595  15.288 -0.3562  0.0166  0.2277
  283TMC3    C3 4269   1.758   0.616  15.421  1.3837 -0.6033  0.4687
  283TMC3    C4 4270   1.781   0.359  15.350 -0.2629  0.3484 -0.3030
  283TMC3    C5 4271   1.758   0.389  15.479  0.3141  0.3611  1.0167
  283TMC3    C6 4272   1.757   0.519  15.519  0.2660  0.0742  0.1091
  283TMC3     C 4273   1.834   0.423  15.138  0.7388  0.6380  0.5532
  283TMC3     O 4274   1.939   0.361  15.133  0.1615 -0.4236 -0.9651
  283TMC3     H 4275   1.775   0.669  15.209  0.8182 -0.6302 -0.2653
  283TMC3    H1 4276   1.789   0.256  15.318 -0.4049  0.7845 -1.7274
  283TMC3    H2 4277   1.733   0.533  15.624 -1.8691  2.6486 -0.7500
  283TMC3    C7 4278   1.699   0.291  15.572 -0.3213  0.0110  1.0659
  283TMC3    C8 4279   1.779   0.754  15.476 -0.1522  0.5465  0.1824
  283TMC3    O1 4280   1.657   0.335  15.682  0.0940  0.6358 -0.1160
  283TMC3    O2 4281   1.833   0.761  15.584 -0.0948 -0.6373  0.3527
  284MPD2     C 4282   4.360   0.181  11.512  0.1981  0.1167 -0.2800
  284MPD2    C1 4283   4.494   0.190  11.485  0.4078 -0.2009 -0.2749
  284MPD2    C2 4284   4.589   0.117  11.561 -0.8062  0.1571 -0.5970
  284MPD2    C3 4285   4.549   0.053  11.678  0.8390 -0.1682  0.5291
  284MPD2    C4 4286   4.417   0.053  11.707  0.3255  0.2972 -1.1697
  284MPD2    C5 4287   4.326   0.118  11.628 -0.0689 -0.3543  0.8332
  284MPD2     H 4288   4.693   0.113  11.530 -0.9074  0.2062 -0.9322
  284MPD2    H1 4289   4.382   0.017  11.803 -2.7770 -0.1481 -2.4800
  284MPD2    H2 4290   4.281   0.214  11.444  1.4792 -1.0492 -2.3387
  284MPD2    H3 4291   4.223   0.096  11.654 -0.4420  0.7974  0.3079
  284MPD2     N 4292   4.656   0.008  11.763  0.1479 -0.4675  0.7234
  284MPD2    H5 4293   0.024   0.011  11.724 -0.4068  0.6600 -0.5385
  284MPD2    N1 4294   4.549   0.266  11.374 -0.4877 -0.1849 -0.0993
  284MPD2    H7 4295   4.634   0.223  11.340 -0.7658 -1.0733  0.3220
  285TMC3    C1 4296   4.554   0.410  11.199  0.2096  0.2583  0.1255
  285TMC3    C2 4297   4.627   0.308  11.141 -0.5270 -0.3379 -0.0303
  285TMC3    C3 4298   0.034   0.312  11.128  0.2248  0.0947  0.4897
  285TMC3    C4 4299   4.617   0.528  11.219 -0.1783  0.0396  0.8771
  285TMC3    C5 4300   0.031   0.532  11.204  0.0344 -0.5843 -0.8001
  285TMC3    C6 4301   0.107   0.419  11.170  0.0641  0.3773 -0.4504
  285TMC3     C 4302   4.473   0.363  11.308  0.2809  0.5577 -0.3077
  285TMC3     O 4303   4.391   0.440  11.360  0.0524  0.2560  0.3580
  285TMC3     H 4304   4.569   0.223  11.107  0.7316 -1.9360  1.7684
  285TMC3    H1 4305   4.573   0.616  11.263  1.1874  1.2329 -0.1202
  285TMC3    H2 4306   0.215   0.416  11.179  0.2113 -1.1435 -2.8518
  285TMC3    C7 4307   0.102   0.651  11.262  0.4322 -0.6839 -0.4153
  285TMC3    C8 4308   0.102   0.187  11.100  0.0274  0.4144  0.2810
  285TMC3    O1 4309   0.040   0.755  11.247 -0.0800  0.5429  0.4107
  285TMC3    O2 4310   0.067   0.092  11.167 -0.3741  0.0140 -0.2489
  286MPD2     C 4311   4.554   2.532   0.939 -0.5390  0.0733 -0.0278
  286MPD2    C1 4312   4.516   2.547   1.065  0.0336 -0.2899  0.4253
  286MPD2    C2 4313   4.593   2.500   1.173 -0.6053 -0.3349  0.0126
  286MPD2    C3 4314   4.716   2.448   1.144 -0.3339  0.4486 -0.4783
  286MPD2    C4 4315   0.026   2.433   1.007 -0.5645 -0.4245  1.1864
  286MPD2    C5 4316   4.671   2.473   0.908 -0.1611  0.3079  0.2768
  286MPD2     H 4317   4.559   2.512   1.275  0.5321 -0.4048  0.4004
  286MPD2    H1 4318   0.123   2.394   0.979 -0.4236  0.3609  0.5734
  286MPD2    H2 4319   4.511   2.582   0.853  1.1433  0.0349 -0.8923
  286MPD2    H3 4320   4.701   2.471   0.804  1.3514  0.8026  0.6987
  286MPD2     N 4321   0.085   2.398   1.236  0.9670 -0.0042  0.4132
  286MPD2    H5 4322   0.169   2.360   1.193  0.2903 -1.7991  0.6679
  286MPD2    N1 4323   4.400   2.619   1.100 -0.0911  0.1864 -0.1907
  286MPD2    H7 4324   4.389   2.632   1.200 -2.0013 -0.6902 -0.2844
  287TMC3    C1 4325   0.194   2.363   1.442 -0.3768  0.2223  0.3433
  287TMC3    C2 4326   0.247   2.269   1.365 -0.1062  0.1759  0.0468
  287TMC3    C3 4327   0.380   2.244   1.378 -0.5930  0.2903  0.2797
  287TMC3    C4 4328   0.272   2.451   1.511 -0.3644 -0.1722  0.2233
  287TMC3    C5 4329   0.407   2.423   1.516 -0.3781 -0.4654 -0.2693
  287TMC3    C6 4330   0.463   2.324   1.445 -0.4821  0.1935  0.4142
  287TMC3     C 4331   0.088   2.428   1.372 -0.1266  0.5292  0.0847
  287TMC3     O 4332   0.018   2.506   1.435 -0.4705 -0.0110  0.6921
  287TMC3     H 4333   0.186   2.193   1.318 -1.1417  0.7806  0.4063
  287TMC3    H1 4334   0.220   2.539   1.544 -0.4821 -0.6837  1.4115
  287TMC3    H2 4335   0.562   2.289   1.471 -0.2070  1.9386  1.7021
  287TMC3    C7 4336   0.493   2.512   1.594  0.1640  0.2625 -0.0833
  287TMC3    C8 4337   0.432   2.152   1.278 -0.1998  0.4585  0.2866
  287TMC3    O1 4338   0.423   2.591   1.657 -0.3437 -0.3426 -0.1854
  287TMC3    O2 4339   0.353   2.076   1.226  0.1754  0.2736  0.7748
  288TMC3    C1 4340   2.609   2.827  14.855  0.2229 -0.6952 -0.1860
  288TMC3    C2 4341   2.526   2.834  14.973 -0.0120 -0.5650 -0.4778
  288TMC3    C3 4342   2.401   2.883  14.941 -0.4932  0.4200 -1.3585
  288TMC3    C4 4343   2.559   2.846  14.728 -0.1331 -0.2915 -0.0457
  288TMC3    C5 4344   2.446   2.918  14.721  1.0276  0.9264  0.6859
  288TMC3    C6 4345   2.363   2.938  14.824  0.4803 -0.3552 -0.3066
  288TMC3     C 4346   2.739   2.788  14.871  0.0148  0.9113  0.1520
  288TMC3     O 4347   2.797   2.746  14.778  0.2628  0.0722  0.5146
  288TMC3     H 4348   2.557   2.810  15.074  2.1737  3.0902 -0.2633
  288TMC3    H1 4349   2.621   2.834  14.640 -0.7858  0.2210 -0.5776
  288TMC3    H2 4350   2.275   3.001  14.815  0.2831 -0.4171  1.2949
  288TMC3    C7 4351   2.426   2.986  14.586 -0.3398 -0.5641  0.2807
  288TMC3    C8 4352   2.306   2.884  15.054  0.1846  0.3124 -0.6869
  288TMC3    O1 4353   2.522   3.003  14.514  0.6726 -0.2081 -0.5502
  288TMC3    O2 4354   2.353   2.900  15.167 -0.6343 -0.6277 -0.0662
  289MPD2     C 4355   1.948   2.081  14.489  0.0302 -0.2979  0.8276
  289MPD2    C1 4356   1.914   2.198  14.420  0.3461 -0.1882  0.6477
  289MPD2    C2 4357   1.802   2.196  14.340 -0.2273 -0.4460 -0.4245
  289MPD2    C3 4358   1.728   2.076  14.322  1.2595 -0.8096 -0.4368
  289MPD2    C4 4359   1.770   1.961  14.378  0.1211 -0.2994 -0.2830
  289MPD2    C5 4360   1.876   1.968  14.463  0.1426  0.7087 -0.3103
  289MPD2     H 4361   1.773   2.287  14.289 -2.7017  0.2356  2.2038
  289MPD2    H1 4362   1.717   1.867  14.367  1.7587 -1.1620 -0.9407
  289MPD2    H2 4363   2.026   2.083  14.564  2.1180 -1.0853 -1.3294
  289MPD2    H3 4364   1.898   1.881  14.524 -0.9198  1.0542  0.5475
  289MPD2     N 4365   1.617   2.088  14.237  0.2510  0.2852 -0.0637
  289MPD2    H5 4366   1.610   2.180  14.193  0.4173  0.6401  0.6543
  289MPD2    N1 4367   1.998   2.313  14.436  0.4017  0.8422  0.4341
  289MPD2    H7 4368   2.088   2.297  14.482  1.1670  0.6232 -1.1350
  290TMC3    C1 4369   1.430   2.041  14.115  0.7728  0.1866 -0.8765
  290TMC3    C2 4370   1.401   2.178  14.115  0.1770 -0.7163 -0.0971
  290TMC3    C3 4371   1.334   2.231  14.011  0.5254 -0.0779 -0.0644
  290TMC3    C4 4372   1.388   1.959  14.016 -0.1350 -0.2457  0.5582
  290TMC3    C5 4373   1.320   2.016  13.910  0.1758 -0.2138  1.0811
  290TMC3    C6 4374   1.293   2.147  13.903 -0.1023 -0.5863 -0.4470
  290TMC3     C 4375   1.529   1.995  14.207  0.0937 -0.5058 -0.2246
  290TMC3     O 4376   1.531   1.875  14.238 -0.1705 -0.0610 -0.2861
  290TMC3     H 4377   1.425   2.235  14.204  1.4971  0.3455 -1.1362
  290TMC3    H1 4378   1.437   1.863  14.010 -1.2466 -0.8434  0.9740
  290TMC3    H2 4379   1.245   2.193  13.817 -0.3854 -0.8421 -0.4255
  290TMC3    C7 4380   1.287   1.943  13.791  0.0529 -0.4103 -0.4783
  290TMC3    C8 4381   1.293   2.370  14.003 -0.3592  0.9200  0.8350
  290TMC3    O1 4382   1.259   1.995  13.686 -0.5013  0.3521 -0.2778
  290TMC3    O2 4383   1.195   2.387  13.934  0.9592 -0.0088  0.1033
  291MPD2     C 4384   1.079   2.054   0.252  0.1678  0.3106  0.6985
  291MPD2    C1 4385   1.149   1.973   0.343  0.3678 -0.3474  0.2689
  291MPD2    C2 4386   1.255   2.034   0.407  0.3660  0.0134  0.1790
  291MPD2    C3 4387   1.295   2.161   0.387  0.1975  0.3372  0.1692
  291MPD2    C4 4388   1.221   2.235   0.295 -0.0283  0.2300  0.5214
  291MPD2    C5 4389   1.114   2.185   0.232 -0.1253 -0.5530 -0.3157
  291MPD2     H 4390   1.302   1.973   0.484  0.7638  0.6529  0.4431
  291MPD2    H1 4391   1.242   2.340   0.282  1.6512 -0.0732  0.8510
  291MPD2    H2 4392   0.985   2.034   0.202  0.6476 -0.5716  0.1535
  291MPD2    H3 4393   1.036   2.247   0.189  0.4856  0.1099 -0.4603
  291MPD2     N 4394   1.402   2.235   0.451  0.6456  0.1764 -0.1636
  291MPD2    H5 4395   1.413   2.334   0.428  1.5474  0.4211  1.3584
  291MPD2    N1 4396   1.109   1.846   0.384 -0.3625 -0.5474 -0.4868
  291MPD2    H7 4397   1.170   1.806   0.454  2.3783  2.3607 -1.1832
  292TMC3    C1 4398   0.978   1.660   0.408  0.6326  0.1978 -0.1229
  292TMC3    C2 4399   1.039   1.648   0.532 -0.2155 -0.1392 -0.0510
  292TMC3    C3 4400   1.043   1.526   0.601 -0.4486 -0.4865  0.4579
  292TMC3    C4 4401   0.934   1.550   0.341 -0.3215  0.1294 -0.7315
  292TMC3    C5 4402   0.967   1.432   0.398 -0.0570  0.4275 -0.1884
  292TMC3    C6 4403   1.009   1.413   0.528  0.2332 -0.1920  0.0094
  292TMC3     C 4404   1.004   1.776   0.327  0.7876 -0.2363  0.4652
  292TMC3     O 4405   0.935   1.796   0.225 -0.3811 -0.5562  0.4885
  292TMC3     H 4406   1.051   1.740   0.590 -0.0960 -0.4089  0.3514
  292TMC3    H1 4407   0.914   1.562   0.235  2.0222 -0.5707 -1.2502
  292TMC3    H2 4408   1.009   1.316   0.577  0.6567  0.2485  0.8897
  292TMC3    C7 4409   0.959   1.310   0.312 -0.4484  0.5453  0.0416
  292TMC3    C8 4410   1.014   1.534   0.742  0.1854 -0.3984  0.3897
  292TMC3    O1 4411   1.017   1.213   0.360 -0.6410  0.8775  0.3936
  292TMC3    O2 4412   1.068   1.623   0.811  0.1321 -0.0683  0.1860
  293MPD2     C 4413   2.843   4.149  12.937  0.3237  0.2298 -0.2275
  293MPD2    C1 4414   2.758   4.040  12.963  0.7189 -0.5704 -0.3422
  293MPD2    C2 4415   2.719   4.016  13.096  0.7997 -0.4326  0.4092
  293MPD2    C3 4416   2.758   4.105  13.203 -0.2516  0.4515  0.5566
  293MPD2    C4 4417   2.834   4.219  13.166 -0.0736  0.2738  0.5846
  293MPD2    C5 4418   2.877   4.240  13.040  0.0926 -0.7177  0.8898
  293MPD2     H 4419   2.657   3.930  13.121 -0.1605  0.0264 -0.3605
  293MPD2    H1 4420   2.883   4.283  13.237  2.5347 -1.4130  0.2994
  293MPD2    H2 4421   2.896   4.164  12.844 -0.5931  0.3987 -0.7230
  293MPD2    H3 4422   2.947   4.321  13.024 -1.5282  0.4677 -0.1932
  293MPD2     N 4423   2.742   4.069  13.342 -0.3658 -0.3132  0.5710
  293MPD2    H5 4424   2.709   3.975  13.362  2.3604 -1.6233 -1.1660
  293MPD2    N1 4425   2.713   3.973  12.844  0.0753 -0.0939  0.0353
  293MPD2    H7 4426   2.726   4.020  12.755 -3.2347  0.0152 -0.4024
  294TMC3    C1 4427   2.611   3.808  12.707 -0.6754 -0.3179  0.6964
  294TMC3    C2 4428   2.582   3.670  12.699  0.0409  0.3513  0.6859
  294TMC3    C3 4429   2.543   3.631  12.570 -0.3444  0.6368 -0.0802
  294TMC3    C4 4430   2.619   3.896  12.598 -0.1004  0.1234  0.1389
  294TMC3    C5 4431   2.566   3.846  12.477  0.1624 -0.2049  0.2623
  294TMC3    C6 4432   2.526   3.714  12.468 -0.3719 -0.0294  0.2707
  294TMC3     C 4433   2.661   3.844  12.836  0.4575 -0.3997  1.0734
  294TMC3     O 4434   2.662   3.760  12.924  0.5406 -0.0111 -0.1765
  294TMC3     H 4435   2.598   3.604  12.784 -0.0385  0.3535  0.7025
  294TMC3    H1 4436   2.647   4.001  12.607  1.5674 -0.4028  1.1869
  294TMC3    H2 4437   2.475   3.682  12.378 -0.2469 -1.1108  0.5754
  294TMC3    C7 4438   2.526   3.933  12.374 -0.3660  0.2475  0.5532
  294TMC3    C8 4439   2.528   3.486  12.557  0.0249 -0.4015  0.3365
  294TMC3    O1 4440   2.487   4.044  12.410 -0.2317  0.0563  0.6255
  294TMC3    O2 4441   2.510   3.419  12.663 -0.3083  0.1095 -0.2113
  295MPD2     C 4442   3.991   1.449   0.875 -0.0980  0.4186  0.6579
  295MPD2    C1 4443   3.930   1.566   0.860  0.5405  0.1219 -0.4899
  295MPD2    C2 4444   3.868   1.622   0.970 -0.1956  0.1235  0.6232
  295MPD2    C3 4445   3.868   1.558   1.094 -0.2412 -0.4649  0.0416
  295MPD2    C4 4446   3.942   1.447   1.106  0.4757  0.2222  0.7038
  295MPD2    C5 4447   4.008   1.394   1.000  0.5092 -0.0675 -1.0738
  295MPD2     H 4448   3.820   1.718   0.957 -0.6314 -0.2436 -0.4864
  295MPD2    H1 4449   3.963   1.398   1.201  2.4761 -0.8937 -0.3134
  295MPD2    H2 4450   4.044   1.400   0.794 -0.8016  0.3744  0.2258
  295MPD2    H3 4451   4.068   1.305   1.013  0.8590  0.4922  1.2130
  295MPD2     N 4452   3.792   1.597   1.209  0.0776  0.6393 -0.3521
  295MPD2    H5 4453   3.786   1.525   1.280 -3.9339  0.3742 -0.9745
  295MPD2    N1 4454   3.934   1.636   0.739  0.4464 -0.0579  0.0948
  295MPD2    H7 4455   3.897   1.730   0.735  1.7123  0.5155  2.1503
  296TMC3    C1 4456   3.642   1.711   1.336  0.3326 -0.5649  0.5077
  296TMC3    C2 4457   3.687   1.676   1.464 -0.6647 -1.0960  0.4680
  296TMC3    C3 4458   3.588   1.658   1.560 -0.3583 -0.6015  0.0302
  296TMC3    C4 4459   3.509   1.741   1.316 -0.4051 -0.1181 -0.1418
  296TMC3    C5 4460   3.412   1.717   1.416 -0.2591  0.6852  0.0226
  296TMC3    C6 4461   3.458   1.685   1.538  0.1055  0.0880 -0.1252
  296TMC3     C 4462   3.719   1.714   1.214  0.5914  0.1451 -0.1656
  296TMC3     O 4463   3.695   1.796   1.127  0.3988 -0.1717  0.0369
  296TMC3     H 4464   3.793   1.665   1.482  0.0252 -0.2737 -3.1698
  296TMC3    H1 4465   3.476   1.767   1.216 -2.2368 -0.1489  0.4454
  296TMC3    H2 4466   3.394   1.693   1.625  1.6920  0.9070  0.9771
  296TMC3    C7 4467   3.268   1.745   1.389  0.4744 -0.0107 -0.0291
  296TMC3    C8 4468   3.610   1.594   1.690 -0.2132  0.3713  0.0574
  296TMC3    O1 4469   3.236   1.818   1.293 -0.0724 -0.2341 -0.1232
  296TMC3    O2 4470   3.534   1.592   1.784 -0.9440 -0.6179 -0.1227
  297MPD2     C 4471   0.969   3.542  16.487  0.3218 -0.3331 -0.6623
  297MPD2    C1 4472   0.999   3.597  16.359 -0.4831 -0.7195 -0.5595
  297MPD2    C2 4473   1.107   3.676  16.346  0.3707 -0.0618  0.1660
  297MPD2    C3 4474   1.178   3.721  16.459 -0.4415  0.0070 -0.3217
  297MPD2    C4 4475   1.150   3.669  16.586  0.4189 -0.2296 -0.6548
  297MPD2    C5 4476   1.055   3.574  16.590  0.0249 -0.3161  0.4417
  297MPD2     H 4477   1.131   3.725  16.253 -0.5728  2.5458  1.2869
  297MPD2    H1 4478   1.187   3.696  16.684  2.4378 -0.8211 -1.2575
  297MPD2    H2 4479   0.882   3.486  16.518  0.7048 -1.0171 -0.8110
  297MPD2    H3 4480   1.034   3.539  16.691  0.5079  0.7190  0.9065
  297MPD2     N 4481   1.281   3.822  16.449  0.0622  0.1531 -0.5067
  297MPD2    H5 4482   1.305   3.866  16.361 -1.3162 -0.8070 -1.3500
  297MPD2    N1 4483   0.901   3.593  16.262  0.0873  0.2624  0.7223
  297MPD2    H7 4484   0.918   3.635  16.171  1.6009 -0.2140  0.7836
  298TMC3    C1 4485   0.692   3.574  16.161  0.1784 -0.2908 -0.4494
  298TMC3    C2 4486   0.752   3.591  16.036 -0.4310  0.1015  0.2789
  298TMC3    C3 4487   0.665   3.641  15.938 -0.4435  0.1047 -0.2779
  298TMC3    C4 4488   0.565   3.610  16.187  0.0530 -0.0441  0.3439
  298TMC3    C5 4489   0.487   3.669  16.094  0.3593 -0.5346 -0.0549
  298TMC3    C6 4490   0.539   3.683  15.967 -0.2193 -1.0061  0.5871
  298TMC3     C 4491   0.771   3.549  16.280  0.6533 -0.4512  0.6409
  298TMC3     O 4492   0.714   3.510  16.379 -0.3128  0.4986  0.3859
  298TMC3     H 4493   0.853   3.553  16.023  0.5662  2.4290  1.2255
  298TMC3    H1 4494   0.531   3.625  16.289  0.2786 -1.7610  0.6636
  298TMC3    H2 4495   0.476   3.719  15.886 -1.1141 -0.6605  1.4370
  298TMC3    C7 4496   0.409   3.775  16.139  0.5983  0.6572  0.1529
  298TMC3    C8 4497   0.706   3.675  15.805 -0.1802  0.1855 -1.0131
  298TMC3    O1 4498   0.347   3.766  16.246 -0.2990 -0.5586  0.1933
  298TMC3    O2 4499   0.626   3.710  15.716 -0.3621  0.2878 -0.1558
  299MPD2     C 4500   1.464   4.036  10.165  0.5492  0.1041 -0.6949
  299MPD2    C1 4501   1.463   4.064  10.027  0.1693  0.6128 -0.1547
  299MPD2    C2 4502   1.349   4.039   9.950  0.3450 -0.2799 -0.1149
  299MPD2    C3 4503   1.242   3.983  10.015  0.6058  0.4419 -1.0189
  299MPD2    C4 4504   1.250   3.946  10.145  0.1924 -0.4375  1.2588
  299MPD2    C5 4505   1.354   3.977  10.220 -0.2823 -0.8632  0.3235
  299MPD2     H 4506   1.340   4.077   9.849  0.4826 -0.3902 -0.1678
  299MPD2    H1 4507   1.172   3.892  10.197 -0.6086 -0.8238 -0.3423
  299MPD2    H2 4508   1.554   4.051  10.223 -1.4083 -2.0932  2.9759
  299MPD2    H3 4509   1.358   3.948  10.324 -2.5913  0.2070  0.7116
  299MPD2     N 4510   1.112   3.962   9.961 -0.1962 -0.1261  0.0871
  299MPD2    H5 4511   1.038   3.922  10.018 -0.2732  2.3146  1.7149
  299MPD2    N1 4512   1.580   4.123   9.983  0.1833 -0.6371 -0.3078
  299MPD2    H7 4513   1.645   4.134  10.060 -0.6703 -0.9947  0.4693
  300TMC3    C1 4514   0.925   3.962   9.822  0.0478 -0.3909  0.6694
  300TMC3    C2 4515   0.859   4.077   9.785 -0.3569 -0.1651 -0.3450
  300TMC3    C3 4516   0.767   4.126   9.871 -0.3809  0.0748  0.0075
  300TMC3    C4 4517   0.884   3.889   9.935 -0.1528 -0.3921  0.0989
  300TMC3    C5 4518   0.781   3.940  10.013  0.0576 -0.1493  0.7624
  300TMC3    C6 4519   0.726   4.062   9.982  0.3251 -0.5852 -0.3613
  300TMC3     C 4520   1.064   3.997   9.837 -0.3809  0.7344 -0.3407
  300TMC3     O 4521   1.121   4.056   9.748 -0.1721 -0.3222 -0.3118
  300TMC3     H 4522   0.897   4.141   9.706 -1.7693  2.2795  0.9681
  300TMC3    H1 4523   0.934   3.795   9.952 -1.0131 -0.9828 -0.6272
  300TMC3    H2 4524   0.661   4.118  10.049  1.5900 -2.8960  2.8343
  300TMC3    C7 4525   0.821   3.926  10.149  0.0326 -0.0991  0.1649
  300TMC3    C8 4526   0.799   4.270   9.907  0.7455  0.4298 -0.5442
  300TMC3    O1 4527   0.929   3.871  10.168  0.0491 -0.4472 -0.2440
  300TMC3    O2 4528   0.804   4.301  10.027 -0.3261 -0.5878 -0.4877
  301MPD2     C 4529   2.366   0.049   1.615  0.5392  0.1847  0.2010
  301MPD2    C1 4530   2.370   0.137   1.513  0.2992  0.3907 -0.0537
  301MPD2    C2 4531   2.415   0.098   1.383  0.3844 -0.0131 -0.1568
  301MPD2    C3 4532   2.455   4.695   1.364  0.6108  0.1335 -0.5442
  301MPD2    C4 4533   2.448   4.609   1.463  0.4381 -0.0661 -0.3811
  301MPD2    C5 4534   2.412   4.647   1.589  0.5233  0.1794  0.3070
  301MPD2     H 4535   2.432   0.168   1.302 -4.0278 -0.3235 -1.3562
  301MPD2    H1 4536   2.484   4.508   1.445 -0.1933 -0.2496 -0.6093
  301MPD2    H2 4537   2.336   0.076   1.715 -1.5935 -1.0690 -0.1035
  301MPD2    H3 4538   2.406   4.577   1.671 -3.7719  0.0817 -0.0859
  301MPD2     N 4539   2.506   4.648   1.240  0.6691  0.2227 -0.0972
  301MPD2    H5 4540   2.528   4.550   1.230  0.4186  0.3601 -1.9944
  301MPD2    N1 4541   2.333   0.278   1.534 -0.1719  0.0213 -0.1201
  301MPD2    H7 4542   2.339   0.347   1.459 -0.8880  2.1870  1.8135
  302TMC3    C1 4543   2.557   4.648   1.013  0.2489  0.3852 -0.0910
  302TMC3    C2 4544   2.642   4.537   1.026  0.3301 -0.4568 -0.4246
  302TMC3    C3 4545   2.691   4.491   0.906 -0.0223  0.4765  0.4071
  302TMC3    C4 4546   2.527   4.705   0.888 -0.0751 -0.2394 -0.6774
  302TMC3    C5 4547   2.571   4.648   0.776  0.3640 -0.7654  0.0791
  302TMC3    C6 4548   2.658   4.545   0.786 -0.1812  0.3820  0.4321
  302TMC3     C 4549   2.517   0.000   1.128  0.0930 -0.2756 -0.6834
  302TMC3     O 4550   2.480   0.114   1.100 -0.1117 -0.0309 -0.0368
  302TMC3     H 4551   2.689   4.516   1.121 -0.7701  2.1709  0.7113
  302TMC3    H1 4552   2.454   0.060   0.878  0.1540 -0.0791 -1.0554
  302TMC3    H2 4553   2.685   4.496   0.692  1.2148  0.2779  0.8802
  302TMC3    C7 4554   2.507   4.684   0.652 -0.1347 -0.6483 -0.2034
  302TMC3    C8 4555   2.781   4.381   0.899  0.2354  0.7191  0.9998
  302TMC3    O1 4556   2.570   4.665   0.550  0.0499 -0.1193 -0.4390
  302TMC3    O2 4557   2.853   4.375   0.799  0.1033 -0.8940  0.0913
  303MPD2     C 4558   3.607   3.350  10.234 -0.2090 -0.2959 -0.1149
  303MPD2    C1 4559   3.477   3.338  10.276 -0.3171  0.0325 -0.8069
  303MPD2    C2 4560   3.380   3.386  10.191  0.1045 -0.0910  1.1121
  303MPD2    C3 4561   3.407   3.424  10.066  0.1428  0.0353 -0.3591
  303MPD2    C4 4562   3.533   3.431  10.016  0.7580 -0.1975 -0.4530
  303MPD2    C5 4563   3.630   3.393  10.101 -0.6174 -0.4010  0.5013
  303MPD2     H 4564   3.277   3.364  10.217 -0.0923 -1.8566 -1.1106
  303MPD2    H1 4565   3.566   3.449   9.914 -1.5313  0.3059 -1.1065
  303MPD2    H2 4566   3.689   3.309  10.292 -0.7563  0.1837  0.9803
  303MPD2    H3 4567   3.733   3.396  10.068 -0.2522 -2.9659  1.4140
  303MPD2     N 4568   3.309   3.454   9.975 -0.0986  0.1496 -0.0160
  303MPD2    H5 4569   3.336   3.488   9.883 -0.0099  0.2015  0.0294
  303MPD2    N1 4570   3.453   3.287  10.402  0.6179 -0.1759 -0.1150
  303MPD2    H7 4571   3.535   3.238  10.438  1.5253  0.6701 -1.0317
  304TMC3    C1 4572   3.351   3.230  10.619  0.4176  0.1601  0.4828
  304TMC3    C2 4573   3.250   3.262  10.702  0.1037 -0.0892 -0.1213
  304TMC3    C3 4574   3.191   3.173  10.790 -0.0461  0.3203  0.0457
  304TMC3    C4 4575   3.419   3.105  10.634 -0.4575  0.2413 -0.0747
  304TMC3    C5 4576   3.371   3.020  10.731  0.3173 -0.1725 -0.3177
  304TMC3    C6 4577   3.260   3.054  10.803  0.3861 -0.4777 -0.1311
  304TMC3     C 4578   3.346   3.293  10.486  0.2662  0.2300 -0.5160
  304TMC3     O 4579   3.249   3.360  10.452 -0.2807  0.3706 -0.9066
  304TMC3     H 4580   3.205   3.360  10.693 -0.7612 -0.1146  4.0168
  304TMC3    H1 4581   3.510   3.081  10.579  0.0708  0.5286  0.6701
  304TMC3    H2 4582   3.223   2.981  10.874  2.1262  1.1933  2.4819
  304TMC3    C7 4583   3.378   2.880  10.692 -0.6419 -0.1563  0.8602
  304TMC3    C8 4584   3.055   3.146  10.776 -0.4404 -0.0782  0.6766
  304TMC3    O1 4585   3.480   2.855  10.633 -0.3832 -0.3403  0.2321
  304TMC3    O2 4586   3.027   3.026  10.773  0.1591 -0.2050  0.1362
  305MPD2     C 4587   1.575   0.442  14.119 -0.3649  0.3796  0.4596
  305MPD2    C1 4588   1.700   0.484  14.077  0.7271 -0.1183  0.2635
  305MPD2    C2 4589   1.734   0.462  13.941 -0.7685  0.3665  0.6230
  305MPD2    C3 4590   1.637   0.425  13.849 -0.1382  0.1290  0.6273
  305MPD2    C4 4591   1.515   0.391  13.896  0.2454 -0.5613 -0.1098
  305MPD2    C5 4592   1.490   0.391  14.030  0.4986  0.3731 -0.7492
  305MPD2     H 4593   1.836   0.486  13.916 -0.6894  1.3459  1.8532
  305MPD2    H1 4594   1.440   0.362  13.824 -0.8554  1.6886  0.1299
  305MPD2    H2 4595   1.543   0.447  14.223  0.1660  1.1041  0.5901
  305MPD2    H3 4596   1.397   0.351  14.068 -1.5345  3.6897 -2.2831
  305MPD2     N 4597   1.658   0.402  13.706 -0.3040 -0.0492  0.3579
  305MPD2    H5 4598   1.577   0.371  13.653  1.6043 -0.9573 -2.0603
  305MPD2    N1 4599   1.778   0.528  14.184 -0.5153  0.2387 -0.2973
  305MPD2    H7 4600   1.727   0.536  14.272  2.8208  0.7309  1.6089
  306TMC3    C1 4601   1.979   0.573  14.309 -0.0438 -0.2037 -0.4836
  306TMC3    C2 4602   2.113   0.535  14.317  0.0141  0.0986 -0.4941
  306TMC3    C3 4603   2.173   0.518  14.436 -0.1702 -0.3260 -0.8465
  306TMC3    C4 4604   1.911   0.601  14.420  0.1747 -0.1214  0.6926
  306TMC3    C5 4605   1.975   0.595  14.542  0.4131  0.5628 -0.4743
  306TMC3    C6 4606   2.102   0.541  14.549 -0.2101 -0.2914  0.4413
  306TMC3     C 4607   1.911   0.558  14.179  0.4588 -0.5576 -0.1325
  306TMC3     O 4608   1.984   0.547  14.082 -0.1312  0.9802 -0.4364
  306TMC3     H 4609   2.161   0.495  14.228 -0.0658 -0.2580 -0.3783
  306TMC3    H1 4610   1.812   0.644  14.413 -0.1909 -1.3706 -1.7717
  306TMC3    H2 4611   2.155   0.536  14.643 -0.8776 -1.9717  0.7195
  306TMC3    C7 4612   1.942   0.706  14.631  0.6447 -0.6237  0.2928
  306TMC3    C8 4613   2.314   0.500  14.447 -0.7676 -0.1316 -0.2197
  306TMC3    O1 4614   1.833   0.760  14.611  0.4406 -0.1502  1.0675
  306TMC3    O2 4615   2.358   0.462  14.553 -0.0542  0.4793 -0.0255
  307MPD2     C 4616   4.532   2.841   0.531 -0.2447 -0.2560 -0.2185
  307MPD2    C1 4617   4.447   2.903   0.439  0.5343 -0.4159 -0.4418
  307MPD2    C2 4618   4.357   2.994   0.495 -0.5704 -0.3227  1.1340
  307MPD2    C3 4619   4.353   3.028   0.626  1.1486 -0.7513 -0.1422
  307MPD2    C4 4620   4.443   2.967   0.707 -0.3093 -0.0317  0.4239
  307MPD2    C5 4621   4.529   2.871   0.660  0.1186 -0.5090  0.0188
  307MPD2     H 4622   4.280   3.036   0.430  1.0108 -0.5405 -0.8736
  307MPD2    H1 4623   4.431   2.978   0.814  3.3546 -3.1251  1.1281
  307MPD2    H2 4624   4.611   2.773   0.502  0.7329  1.5744 -1.8125
  307MPD2    H3 4625   4.576   2.813   0.739 -0.1030  1.2377  1.4208
  307MPD2     N 4626   4.260   3.117   0.680 -0.3406  0.1412  0.4977
  307MPD2    H5 4627   4.235   3.116   0.779 -2.6278 -1.5530 -0.1133
  307MPD2    N1 4628   4.440   2.881   0.300  0.4465 -0.6026  0.0893
  307MPD2    H7 4629   4.383   2.943   0.245  0.3312 -0.2538  0.6115
  308TMC3    C1 4630   3.908   3.319   0.770  0.6005 -0.2217 -0.3867
  308TMC3    C2 4631   3.905   3.453   0.748  0.3051 -0.2387  0.0426
  308TMC3    C3 4632   4.007   3.519   0.686 -0.7610  0.0915  0.2467
  308TMC3    C4 4633   4.010   3.233   0.735 -0.0100 -0.7515  0.9692
  308TMC3    C5 4634   4.112   3.301   0.665  0.3489  0.4527  0.2808
  308TMC3    C6 4635   4.113   3.441   0.643 -0.3705  1.2812  0.0146
  308TMC3     C 4636   3.809   3.268   0.865 -0.1918 -0.4273  0.3956
  308TMC3     O 4637   3.843   3.159   0.913 -0.2168 -0.2423  0.7119
  308TMC3     H 4638   3.833   3.517   0.797 -2.2506 -1.0258 -2.7032
  308TMC3    H1 4639   4.020   3.126   0.751 -0.6624 -0.8769  0.5171
  308TMC3    H2 4640   4.204   3.476   0.596 -0.7358  0.4688 -1.2935
  308TMC3    C7 4641   4.222   3.228   0.607 -0.1470 -0.2368  0.8361
  308TMC3    C8 4642   4.010   3.662   0.672  0.4190 -0.0996  0.2714
  308TMC3    O1 4643   4.260   3.255   0.494 -0.0526  0.5385  0.3435
  308TMC3    O2 4644   3.946   3.737   0.747  0.1514 -0.1554 -0.2954
  309MPD2     C 4645   3.601   3.561  17.367 -0.4560  0.0759 -0.3651
  309MPD2    C1 4646   3.547   3.650  17.283 -0.2017  0.1488 -0.1428
  309MPD2    C2 4647   3.429   3.712  17.318 -0.0063 -0.7571  0.0106
  309MPD2    C3 4648   3.361   3.676  17.434 -0.8752  0.1471  0.5463
  309MPD2    C4 4649   3.411   3.577  17.512 -0.0325 -0.5365  0.5348
  309MPD2    C5 4650   3.527   3.522  17.478 -0.5840  0.1230 -0.2708
  309MPD2     H 4651   3.377   3.771  17.243  2.5690 -0.5431 -1.5989
  309MPD2    H1 4652   3.356   3.554  17.602 -1.3244 -0.0605 -0.1258
  309MPD2    H2 4653   3.701   3.521  17.353 -0.1617  0.2431  1.2224
  309MPD2    H3 4654   3.579   3.447  17.536 -0.6184 -0.6482 -1.2397
  309MPD2     N 4655   3.233   3.726  17.472  0.1255  0.4306  0.1577
  309MPD2    H5 4656   3.179   3.670  17.536  1.4643  0.1071  1.0016
  309MPD2    N1 4657   3.608   3.697  17.163  0.1982 -0.1897  0.0455
  309MPD2    H7 4658   3.558   3.773  17.118  2.0076  2.0209  1.7441
  310TMC3    C1 4659   3.774   3.737  17.005 -0.2129 -0.5339 -0.2021
  310TMC3    C2 4660   3.732   3.867  16.990  0.6949  0.8290  0.0543
  310TMC3    C3 4661   3.804   3.943  16.902  0.9034 -0.5924 -0.0496
  310TMC3    C4 4662   3.870   3.682  16.930 -0.0732  0.3763 -0.1025
  310TMC3    C5 4663   3.935   3.761  16.836  0.1865  0.6254  0.3881
  310TMC3    C6 4664   3.903   3.892  16.819 -0.2761  0.2233  0.3525
  310TMC3     C 4665   3.724   3.653  17.109  0.5128  0.2724 -0.5805
  310TMC3     O 4666   3.799   3.569  17.154 -0.0137  1.0596  0.5368
  310TMC3     H 4667   3.660   3.914  17.056  0.4667 -0.5306  0.7563
  310TMC3    H1 4668   3.890   3.576  16.933 -0.5054  0.3231  1.0672
  310TMC3    H2 4669   3.941   3.943  16.732 -1.8627 -0.3917 -0.7076
  310TMC3    C7 4670   4.028   3.690  16.754  0.5213  0.5355 -0.3999
  310TMC3    C8 4671   3.723   4.057  16.855  0.3274 -0.4770 -0.0937
  310TMC3    O1 4672   4.051   3.573  16.783  0.3232  0.3052  0.0372
  310TMC3    O2 4673   3.603   4.059  16.886  0.1081  0.4545 -0.2558
  311MPD2     C 4674   0.949   0.350  12.969 -0.1895 -0.5711 -0.7904
  311MPD2    C1 4675   0.926   0.458  12.884 -0.1414 -0.8066  1.0307
  311MPD2    C2 4676   0.797   0.500  12.857  0.7979  0.2545  0.3768
  311MPD2    C3 4677   0.691   0.426  12.906 -0.0511 -0.2404 -0.0417
  311MPD2    C4 4678   0.719   0.321  12.988 -0.1865 -0.0030 -0.1537
  311MPD2    C5 4679   0.844   0.288  13.021  0.2493  0.6970  0.3944
  311MPD2     H 4680   0.789   0.583  12.788  3.4247  0.0613 -0.1560
  311MPD2    H1 4681   0.637   0.264  13.028  0.6337 -1.4517 -0.5338
  311MPD2    H2 4682   1.047   0.324  13.007  0.5530 -0.5752 -2.6880
  311MPD2    H3 4683   0.850   0.211  13.096 -0.9974  0.1844 -0.0291
  311MPD2     N 4684   0.560   0.470  12.885  0.2801  0.7009 -0.8287
  311MPD2    H5 4685   0.544   0.557  12.835 -0.5822  0.7693 -0.4398
  311MPD2    N1 4686   1.035   0.527  12.831  0.9493 -0.0080  0.2017
  311MPD2    H7 4687   1.011   0.611  12.780  1.4801  0.9078  1.4576
  312TMC3    C1 4688   0.339   0.473  12.857  1.1816 -0.4631 -0.4249
  312TMC3    C2 4689   0.237   0.431  12.778  0.2121 -0.0602  0.6360
  312TMC3    C3 4690   0.129   0.502  12.762  0.7648  0.1059 -0.5075
  312TMC3    C4 4691   0.323   0.589  12.929  0.7375  0.2361  0.5151
  312TMC3    C5 4692   0.208   0.666  12.912 -0.0430 -0.0042 -0.7904
  312TMC3    C6 4693   0.106   0.627  12.822  0.4702 -0.4273  0.6089
  312TMC3     C 4694   0.451   0.389  12.889  0.2211 -0.2268  0.0605
  312TMC3     O 4695   0.441   0.267  12.903  0.1217  0.7778 -0.5484
  312TMC3     H 4696   0.261   0.343  12.719 -2.5020 -0.7174  0.4986
  312TMC3    H1 4697   0.393   0.619  13.006  0.9948  0.9450 -0.0021
  312TMC3    H2 4698   0.012   0.681  12.823 -0.2449 -1.6589  0.4262
  312TMC3    C7 4699   0.179   0.766  13.012 -0.9090 -0.2923 -0.4938
  312TMC3    C8 4700   0.015   0.439  12.710  0.4954  0.1434  0.5642
  312TMC3    O1 4701   0.089   0.845  12.982 -0.0483  0.4939 -0.0418
  312TMC3    O2 4702   0.028   0.318  12.678 -0.1544 -0.3466  0.1676
  313MPD2     C 4703   0.957   0.338  10.055 -0.0029 -0.4134  0.1650
  313MPD2    C1 4704   0.911   0.228  10.128 -0.2673  0.9892 -0.0457
  313MPD2    C2 4705   0.831   0.139  10.067 -0.2543 -0.3179 -0.1246
  313MPD2    C3 4706   0.780   0.162   9.937 -0.4706  0.5532  0.1911
  313MPD2    C4 4707   0.817   0.273   9.872 -0.4496 -0.0985  0.8400
  313MPD2    C5 4708   0.900   0.360   9.932  0.2724  0.0027  0.3551
  313MPD2     H 4709   0.806   0.051  10.124 -0.2181 -1.5262 -1.9882
  313MPD2    H1 4710   0.779   0.289   9.771 -1.1275  0.2960  1.1540
  313MPD2    H2 4711   1.017   0.419  10.094 -0.0313 -1.0768  1.5688
  313MPD2    H3 4712   0.911   0.453   9.878  2.1841  0.1602  1.0316
  313MPD2     N 4713   0.698   0.061   9.878 -0.7238  0.6661 -0.2481
  313MPD2    H5 4714   0.684   4.706   9.938  1.2823 -0.6685 -1.5547
  313MPD2    N1 4715   0.971   0.177  10.247  0.3309 -0.0460 -0.0109
  313MPD2    H7 4716   0.934   0.092  10.289  3.6131 -1.3041  0.3073
  314TMC3    C1 4717   1.049   0.185  10.465  0.4713  0.6906  0.7470
  314TMC3    C2 4718   1.084   0.276  10.553  0.0363  0.1429  0.2570
  314TMC3    C3 4719   1.006   0.287  10.666 -0.3696 -0.4338  0.3162
  314TMC3    C4 4720   0.949   0.095  10.480 -0.0934  0.3502  0.1442
  314TMC3    C5 4721   0.881   0.105  10.600  0.3018  0.1596  0.0564
  314TMC3    C6 4722   0.901   0.209  10.691 -0.5259  0.1876 -1.2236
  314TMC3     C 4723   1.050   0.247  10.332  0.1301 -0.4896  0.0760
  314TMC3     O 4724   1.100   0.359  10.319  0.4639  0.0843 -0.3664
  314TMC3     H 4725   1.175   0.328  10.527  0.5087  0.0198  1.6267
  314TMC3    H1 4726   0.924   0.017  10.409 -0.0453  1.4072 -1.0468
  314TMC3    H2 4727   0.852   0.206  10.787 -1.7894 -0.1208 -1.8739
  314TMC3    C7 4728   0.746   0.062  10.582  0.3000 -0.1416 -0.2702
  314TMC3    C8 4729   1.034   0.391  10.765  0.4419  0.0193  0.4822
  314TMC3    O1 4730   0.706   4.699  10.658  0.0392  0.1015  0.6227
  314TMC3    O2 4731   0.950   0.412  10.850  0.5268  0.3506  0.2899
  315MPD2     C 4732   4.485   3.612   0.002  0.2341  0.0547 -0.1386
  315MPD2    C1 4733   4.599   3.539   0.006 -0.0875 -0.5323  0.6760
  315MPD2    C2 4734   4.714   3.589  17.654  0.3681 -0.2222  0.4171
  315MPD2    C3 4735   4.715   3.719  17.600 -0.7003 -0.4498  0.8227
  315MPD2    C4 4736   4.597   3.793  17.597 -0.2251  0.7060  0.0720
  315MPD2    C5 4737   4.485   3.738  17.651  0.3259  1.1580  0.1636
  315MPD2     H 4738   0.079   3.529  17.649  0.5830  0.2649 -1.5321
  315MPD2    H1 4739   4.605   3.892  17.553 -0.7483  2.4949  3.9747
  315MPD2    H2 4740   4.386   3.581   0.034  0.8669 -0.5553  1.2267
  315MPD2    H3 4741   4.393   3.792  17.668  0.8009  2.0611 -0.1549
  315MPD2     N 4742   0.110   3.773  17.562  0.3556  0.0310  0.1673
  315MPD2    H5 4743   0.195   3.720  17.580 -0.3593 -0.9069  0.8062
  315MPD2    N1 4744   4.612   3.414   0.071 -0.1223 -0.0334  0.0611
  315MPD2    H7 4745   4.699   3.363   0.083  0.3579  0.6020 -0.6758
  316TMC3    C1 4746   0.286   3.937  17.520  0.1383 -1.0198 -0.1234
  316TMC3    C2 4747   0.363   3.895  17.625  0.0855 -0.6558 -0.1457
  316TMC3    C3 4748   0.489   3.948  17.628  0.0749  0.0977  0.4507
  316TMC3    C4 4749   0.327   4.024  17.414  0.1195  0.2934 -0.5175
  316TMC3    C5 4750   0.458   4.055  17.425  0.1517 -0.4951  0.8017
  316TMC3    C6 4751   0.538   4.027  17.530  0.3700  0.3003  0.0234
  316TMC3     C 4752   0.142   3.891  17.505  0.1225  1.2011  0.0588
  316TMC3     O 4753   0.069   3.958  17.434  0.0751  0.1904 -0.1394
  316TMC3     H 4754   0.309   3.837  17.698  0.3581  1.0217  1.3812
  316TMC3    H1 4755   0.271   4.048  17.325 -0.2968 -0.3297 -0.4254
  316TMC3    H2 4756   0.641   4.061  17.529  0.5047 -0.1791 -3.1976
  316TMC3    C7 4757   0.502   4.162  17.339 -0.3371  0.2019 -0.0582
  316TMC3    C8 4758   0.575   3.930   0.040  0.5585 -0.9411 -0.1088
  316TMC3    O1 4759   0.618   4.201  17.352  0.7324  0.9320  0.1226
  316TMC3    O2 4760   0.650   4.017   0.076  0.1588 -0.3342  0.3951
  317MPD2     C 4761   1.760   2.693  12.936 -1.1362  0.0220  0.3257
  317MPD2    C1 4762   1.836   2.619  12.845 -0.1179 -0.6768 -0.0476
  317MPD2    C2 4763   1.937   2.533  12.900 -0.2982 -0.3736  0.4929
  317MPD2    C3 4764   1.968   2.529  13.033  0.3118  0.1374 -0.5394
  317MPD2    C4 4765   1.883   2.591  13.122 -0.0644 -0.7428 -0.6513
  317MPD2    C5 4766   1.770   2.667  13.075  0.2288  0.2263  0.2614
  317MPD2     H 4767   2.007   2.478  12.838  0.4711  1.2225 -0.0463
  317MPD2    H1 4768   1.893   2.599  13.230  1.1484 -1.6586 -0.6905
  317MPD2    H2 4769   1.673   2.753  12.914  0.4181  1.7093 -1.1788
  317MPD2    H3 4770   1.698   2.713  13.142 -1.1300 -1.9908  0.3147
  317MPD2     N 4771   2.068   2.447  13.077  0.9676  0.1661 -0.4794
  317MPD2    H5 4772   2.104   2.389  13.002 -2.3450  0.1351 -2.0322
  317MPD2    N1 4773   1.804   2.622  12.706 -0.5729  0.9251  0.4383
  317MPD2    H7 4774   1.862   2.557  12.654 -1.4449  1.4367 -1.2004
  318TMC3    C1 4775   2.193   2.309  13.222 -0.1218  0.3839  0.5157
  318TMC3    C2 4776   2.165   2.193  13.153 -0.6808 -0.7594 -0.0422
  318TMC3    C3 4777   2.217   2.084  13.210  0.4050  0.3232 -0.7118
  318TMC3    C4 4778   2.274   2.322  13.326  0.1778  0.5037  0.0766
  318TMC3    C5 4779   2.333   2.209  13.379 -0.6154 -0.2201 -0.8099
  318TMC3    C6 4780   2.295   2.086  13.324 -0.0038  0.1200 -0.2867
  318TMC3     C 4781   2.111   2.425  13.204  0.9555  0.1021  0.5079
  318TMC3     O 4782   2.106   2.499  13.299 -0.2114  0.2826  0.3606
  318TMC3     H 4783   2.080   2.190  13.086 -1.3855  0.5669  0.7966
  318TMC3    H1 4784   2.309   2.418  13.363  0.9635  0.2774 -0.0705
  318TMC3    H2 4785   2.352   1.997  13.348 -0.0297  0.0887 -0.3433
  318TMC3    C7 4786   2.421   2.218  13.490  0.3616  0.1950  0.4621
  318TMC3    C8 4787   2.179   1.952  13.159 -0.2668  0.1360 -1.2649
  318TMC3    O1 4788   2.417   2.318  13.567 -0.5012  0.3342  0.0401
  318TMC3    O2 4789   2.224   1.855  13.215  0.0238  0.3133 -0.4237
  319MPD2     C 4790   3.214   3.342  16.874  0.6704  0.0562  0.7210
  319MPD2    C1 4791   3.126   3.241  16.910  0.5272 -0.0737  0.1027
  319MPD2    C2 4792   3.078   3.160  16.809  0.6960  0.1508  0.7285
  319MPD2    C3 4793   3.105   3.182  16.675 -0.3592  0.1587 -0.6985
  319MPD2    C4 4794   3.177   3.293  16.652 -0.1786  0.0615 -0.3101
  319MPD2    C5 4795   3.226   3.381  16.745 -0.1133 -0.1088  0.3740
  319MPD2     H 4796   3.017   3.077  16.842  1.2318 -0.2709  0.6526
  319MPD2    H1 4797   3.196   3.325  16.551  1.7641  1.2967  0.4411
  319MPD2    H2 4798   3.258   3.413  16.942  0.2799  1.3358 -0.3662
  319MPD2    H3 4799   3.293   3.459  16.710 -1.9346  1.5894  0.6967
  319MPD2     N 4800   3.048   3.107  16.571  0.0474 -0.5365  0.0731
  319MPD2    H5 4801   3.074   3.121  16.474  1.0222 -0.1999  0.3845
  319MPD2    N1 4802   3.073   3.232  17.043 -0.0349  0.2766 -0.2750
  319MPD2    H7 4803   3.017   3.150  17.065 -0.3982 -0.0574 -2.4720
  320TMC3    C1 4804   2.927   2.939  16.468  0.5563  0.2621  0.1789
  320TMC3    C2 4805   2.845   3.017  16.394  0.8117  0.3271 -0.1021
  320TMC3    C3 4806   2.729   2.963  16.334 -0.3247  0.2381  0.5264
  320TMC3    C4 4807   2.886   2.803  16.487  0.0608  0.3757 -0.4553
  320TMC3    C5 4808   2.773   2.757  16.427  0.3546  0.0151 -0.2511
  320TMC3    C6 4809   2.687   2.835  16.349 -0.0793  0.2507  0.2021
  320TMC3     C 4810   2.966   2.998  16.590 -0.2191 -0.3176 -0.5236
  320TMC3     O 4811   2.944   2.933  16.690 -0.1276  0.1144 -0.0154
  320TMC3     H 4812   2.869   3.122  16.389  0.1561  0.4001 -2.0777
  320TMC3    H1 4813   2.942   2.743  16.559  1.4704 -0.3201 -2.1430
  320TMC3    H2 4814   2.600   2.796  16.297  0.0102 -0.3716  0.5224
  320TMC3    C7 4815   2.768   2.610  16.411 -0.1296  0.6500 -0.1844
  320TMC3    C8 4816   2.659   3.057  16.244  0.3942 -0.1113 -0.2464
  320TMC3    O1 4817   2.875   2.552  16.431 -0.2880  0.2221 -0.6477
  320TMC3    O2 4818   2.701   3.172  16.248 -0.4658 -0.2983  0.0108
  321TMC3    C1 4819   3.030   3.271  17.269 -0.1591 -0.1273 -0.0081
  321TMC3    C2 4820   2.944   3.163  17.278 -0.3731  0.0049 -0.0836
  321TMC3    C3 4821   2.856   3.146  17.382  0.0067 -0.2735 -1.1097
  321TMC3    C4 4822   3.042   3.354  17.377  0.4696 -0.1520 -0.1744
  321TMC3    C5 4823   2.959   3.338  17.478  0.0207 -0.4286  0.6439
  321TMC3    C6 4824   2.861   3.240  17.483  0.5078  0.2067  0.3065
  321TMC3     C 4825   3.101   3.317  17.148  0.2597 -0.1233 -0.4559
  321TMC3     O 4826   3.185   3.406  17.153  0.2787  0.5080 -0.0766
  321TMC3     H 4827   2.911   3.109  17.190 -0.7568 -0.7765  0.5457
  321TMC3    H1 4828   3.123   3.426  17.379 -1.4356  2.0004 -0.7842
  321TMC3    H2 4829   2.779   3.250  17.553  0.2334 -0.0299  0.0190
  321TMC3    C7 4830   3.018   3.378  17.608  0.3115  0.3766 -0.4220
  321TMC3    C8 4831   2.872   3.024  17.452  0.8997 -0.6517  0.7125
  321TMC3    O1 4832   3.099   3.468  17.616  0.3698 -0.3838 -0.1301
  321TMC3    O2 4833   2.841   3.038  17.570 -0.1549 -0.0691  0.0113
  322MPD2     C 4834   1.485   4.176  14.452 -0.0325  0.4849 -0.5889
  322MPD2    C1 4835   1.569   4.170  14.559 -0.5079 -0.3265  0.3925
  322MPD2    C2 4836   1.618   4.048  14.600  0.9364 -0.8129  0.2705
  322MPD2    C3 4837   1.592   3.930  14.531 -0.4679 -0.2610  0.2212
  322MPD2    C4 4838   1.501   3.933  14.426  0.2607 -0.7534 -0.4403
  322MPD2    C5 4839   1.457   4.055  14.386 -0.3603 -0.2683  0.2497
  322MPD2     H 4840   1.677   4.048  14.691  1.4809 -0.2521 -0.0837
  322MPD2    H1 4841   1.479   3.844  14.368  0.2540  0.1203 -1.7818
  322MPD2    H2 4842   1.440   4.271  14.423  0.1565  0.3694 -1.2481
  322MPD2    H3 4843   1.388   4.063  14.302 -0.7577  0.4317  0.6428
  322MPD2     N 4844   1.662   3.816  14.565  0.4577 -0.1335 -0.0652
  322MPD2    H5 4845   1.712   3.823  14.653 -0.9877  0.3395  0.7107
  322MPD2    N1 4846   1.624   4.282  14.625 -0.4021  0.0317  0.7989
  322MPD2    H7 4847   1.699   4.263  14.690  0.0989  1.0386  0.5298
  323TMC3    C1 4848   1.682   4.512  14.667  0.4693  0.7242  0.2008
  323TMC3    C2 4849   1.752   4.602  14.593  0.0816 -0.2865  1.1282
  323TMC3    C3 4850   1.855   4.673  14.655 -0.2807 -0.5894  0.3135
  323TMC3    C4 4851   1.715   4.487  14.800 -0.0640  0.7816  0.5113
  323TMC3    C5 4852   1.819   4.548  14.859  0.6148  0.4914  0.1391
  323TMC3    C6 4853   1.887   4.643  14.784  0.1375  0.1060  0.6052
  323TMC3     C 4854   1.604   4.413  14.587 -0.2937  0.3723 -0.2705
  323TMC3     O 4855   1.535   4.460  14.498 -0.1421  0.4007  0.3953
  323TMC3     H 4856   1.741   4.608  14.486  1.5846  2.5853  1.1392
  323TMC3    H1 4857   1.668   4.409  14.859  1.1445 -0.4487 -0.1618
  323TMC3    H2 4858   1.977   4.684  14.830 -0.9027  0.0413  2.7132
  323TMC3    C7 4859   1.874   4.481  14.974 -0.5670 -0.3332  0.2862
  323TMC3    C8 4860   1.967   0.002  14.581 -0.5304 -0.1210  0.7629
  323TMC3    O1 4861   1.835   4.367  14.989 -0.3386  0.2523 -0.2116
  323TMC3    O2 4862   2.079   0.019  14.635  0.4426 -0.2012 -0.3795
  324MPD2     C 4863   3.528   0.976  14.483 -0.6221 -0.3673  0.0702
  324MPD2    C1 4864   3.520   1.107  14.448  0.2620 -0.9501  0.1447
  324MPD2    C2 4865   3.409   1.154  14.379 -0.6186 -0.4070 -0.5237
  324MPD2    C3 4866   3.301   1.080  14.361  0.8965  0.0454  0.7948
  324MPD2    C4 4867   3.310   0.949  14.392 -0.0015  0.1262  0.2517
  324MPD2    C5 4868   3.423   0.898  14.442 -0.1017  0.3123  0.3561
  324MPD2     H 4869   3.411   1.260  14.356 -3.9030 -0.2423  0.0213
  324MPD2    H1 4870   3.227   0.881  14.374  0.0239  0.8002 -2.4091
  324MPD2    H2 4871   3.620   0.933  14.521  0.2243  0.7255 -0.7316
  324MPD2    H3 4872   3.433   0.793  14.468  2.8266  0.4381 -0.3036
  324MPD2     N 4873   3.185   1.127  14.290  0.3798  0.4153  0.3434
  324MPD2    H5 4874   3.116   1.058  14.262  2.1774 -1.0243 -0.5160
  324MPD2    N1 4875   3.626   1.193  14.485  0.0805 -0.3994 -0.1941
  324MPD2    H7 4876   3.625   1.288  14.449 -1.3867 -0.1979  0.3946
  325TMC3    C1 4877   3.019   1.257  14.177  0.3085 -0.0651 -0.3320
  325TMC3    C2 4878   2.937   1.149  14.190  0.5835 -0.5748  0.8252
  325TMC3    C3 4879   2.803   1.150  14.138  0.1042  0.6596 -0.0550
  325TMC3    C4 4880   2.989   1.371  14.113 -0.5761  0.2349  1.4607
  325TMC3    C5 4881   2.863   1.373  14.065  0.2995 -0.1482 -0.9427
  325TMC3    C6 4882   2.766   1.273  14.083  0.5153  0.5406  0.1698
  325TMC3     C 4883   3.155   1.251  14.231  0.8754 -0.3596  0.1163
  325TMC3     O 4884   3.224   1.348  14.210 -0.5828 -0.2244 -0.5902
  325TMC3     H 4885   2.966   1.066  14.253  0.7920 -0.8253  0.3987
  325TMC3    H1 4886   3.056   1.447  14.076  1.2095 -0.5316  3.0988
  325TMC3    H2 4887   2.667   1.294  14.044  0.2735  0.2689  0.6316
  325TMC3    C7 4888   2.807   1.509  14.062 -0.0108 -0.2106 -0.8462
  325TMC3    C8 4889   2.728   1.029  14.115  0.5686 -0.3516 -0.3726
  325TMC3    O1 4890   2.877   1.605  14.030  0.7526  0.6146 -0.0570
  325TMC3    O2 4891   2.791   0.931  14.144 -0.1590  0.8209 -0.2283
  326MPD2     C 4892   4.298   2.321  10.923 -0.0747 -0.4081 -0.1901
  326MPD2    C1 4893   4.260   2.317  10.789  0.7628  0.4429 -0.0021
  326MPD2    C2 4894   4.355   2.360  10.700 -0.3874  0.8390  0.1807
  326MPD2    C3 4895   4.483   2.397  10.742  0.6999 -0.5598 -0.5836
  326MPD2    C4 4896   4.510   2.398  10.873 -0.4858 -0.0409  0.8878
  326MPD2    C5 4897   4.422   2.356  10.964 -0.2085  0.3197 -0.1101
  326MPD2     H 4898   4.319   2.359  10.598  0.1814 -1.0494 -0.0079
  326MPD2    H1 4899   4.610   2.423  10.907 -0.3391  0.9574 -0.2784
  326MPD2    H2 4900   4.221   2.297  10.996 -0.7437  1.6718 -0.2060
  326MPD2    H3 4901   4.448   2.353  11.070  1.9917  0.4360 -0.6491
  326MPD2     N 4902   4.588   2.428  10.655 -0.3655 -0.9381  0.2020
  326MPD2    H5 4903   4.683   2.444  10.689  0.1472 -0.7406 -1.3083
  326MPD2    N1 4904   4.129   2.270  10.754 -0.8838 -0.8492  0.0982
  326MPD2    H7 4905   4.108   2.273  10.655 -0.4077 -1.9208 -0.0321
  327TMC3    C1 4906   3.938   2.150  10.751  0.1071  0.5339 -0.3360
  327TMC3    C2 4907   3.838   2.234  10.703  0.1343  0.1300  0.0693
  327TMC3    C3 4908   3.824   2.233  10.575 -0.8849 -0.2810  0.3092
  327TMC3    C4 4909   4.009   2.074  10.664 -0.3407 -0.4071  0.6721
  327TMC3    C5 4910   3.994   2.081  10.530  0.3733  0.2265  0.0522
  327TMC3    C6 4911   3.906   2.165  10.480 -0.4213  0.6195  0.0832
  327TMC3     C 4912   4.032   2.212  10.834  0.3026 -0.6065  0.2905
  327TMC3     O 4913   4.031   2.175  10.951 -0.0009 -0.2259 -0.0890
  327TMC3     H 4914   3.794   2.313  10.763 -1.0964  0.9971 -1.9856
  327TMC3    H1 4915   4.084   2.013  10.713 -0.2512  0.5511  1.7276
  327TMC3    H2 4916   3.871   2.147  10.379  1.7990 -1.7365 -0.2554
  327TMC3    C7 4917   4.112   2.071  10.458  0.1304  0.6759  0.0974
  327TMC3    C8 4918   3.717   2.312  10.520 -0.3486 -0.4716  0.2737
  327TMC3    O1 4919   4.126   2.160  10.375 -0.4491  0.0373 -0.1372
  327TMC3    O2 4920   3.608   2.310  10.576  0.3547 -0.0948  0.2182
  328MPD2     C 4921   2.681   1.783  17.493 -0.3955 -0.7846 -0.8547
  328MPD2    C1 4922   2.552   1.725  17.475 -0.1058  0.4660  0.2546
  328MPD2    C2 4923   2.478   1.762  17.361 -0.0872  0.2953 -0.5966
  328MPD2    C3 4924   2.520   1.856  17.271 -0.6490  0.6128 -0.5970
  328MPD2    C4 4925   2.643   1.914  17.289  0.3904 -0.0087 -0.2985
  328MPD2    C5 4926   2.713   1.880  17.400  0.0905  0.5835  0.3409
  328MPD2     H 4927   2.388   1.708  17.331 -0.5589  0.0634  1.2527
  328MPD2    H1 4928   2.674   2.008  17.243 -1.6737  0.4041 -0.8811
  328MPD2    H2 4929   2.742   1.777  17.582 -0.9334 -2.0080 -0.5745
  328MPD2    H3 4930   2.807   1.933  17.413  1.9631 -2.0646 -2.3067
  328MPD2     N 4931   2.436   1.913  17.171 -0.2353 -0.0269 -0.4832
  328MPD2    H5 4932   2.485   1.981  17.114 -2.3405  1.1665 -0.8520
  328MPD2    N1 4933   2.509   1.631  17.573  0.8255 -0.2754 -0.0585
  328MPD2    H7 4934   2.563   1.618  17.658 -2.9626 -1.6435  2.1475
  329TMC3    C1 4935   2.348   1.513  17.698 -0.1677  0.6518 -0.2537
  329TMC3    C2 4936   2.371   1.601   0.103  0.2963 -0.3840 -0.0369
  329TMC3    C3 4937   2.283   1.592   0.206  0.3470  0.8189  0.2306
  329TMC3    C4 4938   2.242   1.428  17.697 -0.4599  0.0606  0.2729
  329TMC3    C5 4939   2.152   1.415   0.097 -0.1439  0.0843 -0.2123
  329TMC3    C6 4940   2.177   1.508   0.202  0.8626  0.5057 -0.1390
  329TMC3     C 4941   2.389   1.561  17.568  0.2574 -0.4527 -0.1196
  329TMC3     O 4942   2.330   1.522  17.468  0.0587 -0.6950  0.1160
  329TMC3     H 4943   2.420   1.697   0.109  0.1547 -0.1128 -3.1235
  329TMC3    H1 4944   2.221   1.383  17.600 -1.4029  0.9293  0.0703
  329TMC3    H2 4945   2.120   1.496   0.293  1.0316  1.1067  0.0433
  329TMC3    C7 4946   2.084   1.294   0.135  0.2908  0.6938  0.3054
  329TMC3    C8 4947   2.304   1.675   0.329  0.0080  0.1877  0.7078
  329TMC3    O1 4948   2.013   1.289   0.234  0.6910  0.0957  0.5821
  329TMC3    O2 4949   2.418   1.677   0.378 -0.0662 -0.2402 -0.9484
  330TMC3    C1 4950   0.653   1.237   9.975  0.6765  0.1333 -0.3442
  330TMC3    C2 4951   0.555   1.170   9.900  0.4508  0.3864  0.1956
  330TMC3    C3 4952   0.529   1.038   9.932 -0.0509  0.1042 -0.2694
  330TMC3    C4 4953   0.726   1.161  10.062 -0.2623  0.1556  0.3851
  330TMC3    C5 4954   0.708   1.025  10.077  0.2244 -0.0634  0.1806
  330TMC3    C6 4955   0.601   0.962  10.025  0.0944 -0.4584 -0.5141
  330TMC3     C 4956   0.678   1.377   9.992 -0.4496 -0.3723 -0.5819
  330TMC3     O 4957   0.693   1.416  10.108 -0.7730 -0.7160 -0.6778
  330TMC3     H 4958   0.494   1.209   9.820  0.4795  0.8832  0.4132
  330TMC3    H1 4959   0.816   1.199  10.109 -0.6448  2.8084 -1.0118
  330TMC3    H2 4960   0.588   0.856  10.040  2.5516 -0.5606  0.8441
  330TMC3    C7 4961   0.755   0.968  10.206 -0.6472  0.3686  0.1333
  330TMC3    C8 4962   0.458   0.962   9.834  0.2220 -0.9077  0.1218
  330TMC3    O1 4963   0.829   1.030  10.279  0.5910  0.1581  0.5241
  330TMC3    O2 4964   0.453   1.007   9.717 -0.0282 -0.2883  0.4194
  331MPD2     C 4965   3.590   0.999  12.879 -0.4719  0.1600 -0.1719
  331MPD2    C1 4966   3.607   0.990  12.745 -1.0619  0.1809  0.1609
  331MPD2    C2 4967   3.518   0.911  12.675 -0.1161  0.3356  0.8657
  331MPD2    C3 4968   3.417   0.839  12.736 -0.4861  0.5493  0.7237
  331MPD2    C4 4969   3.396   0.856  12.871  0.0929  0.3325 -0.2154
  331MPD2    C5 4970   3.484   0.943  12.938  0.3372 -0.0071 -0.0610
  331MPD2     H 4971   3.532   0.898  12.568  0.5227 -0.6442  1.0656
  331MPD2    H1 4972   3.321   0.811  12.936  1.7323 -0.2486  1.2866
  331MPD2    H2 4973   3.657   1.070  12.925 -1.1603 -0.9441  2.5388
  331MPD2    H3 4974   3.460   0.956  13.043  0.9551  0.5165  0.0175
  331MPD2     N 4975   3.347   0.752  12.648  0.0594 -0.1651 -0.2366
  331MPD2    H5 4976   3.383   0.744  12.553  3.0221 -1.0116  0.9595
  331MPD2    N1 4977   3.705   1.062  12.672  0.0953  0.4900 -0.8781
  331MPD2    H7 4978   3.743   1.142  12.723 -1.4898 -1.2147  2.9978
  332TMC3    C1 4979   3.214   0.568  12.574  0.5634 -0.1166  0.0028
  332TMC3    C2 4980   3.247   0.609  12.449  0.1606 -0.2899 -0.7857
  332TMC3    C3 4981   3.235   0.527  12.342  0.8109  0.7636 -0.3251
  332TMC3    C4 4982   3.175   0.439  12.598 -0.0549 -0.1533  0.0931
  332TMC3    C5 4983   3.183   0.353  12.488 -0.5339  0.5406 -0.2989
  332TMC3    C6 4984   3.206   0.393  12.359 -0.1413 -0.2877 -0.0505
  332TMC3     C 4985   3.260   0.652  12.690  0.1494  0.6333  0.0899
  332TMC3     O 4986   3.236   0.612  12.806  0.1880 -0.4177 -0.6419
  332TMC3     H 4987   3.276   0.709  12.418 -1.7855  1.7273  3.8256
  332TMC3    H1 4988   3.128   0.411  12.692  2.6307 -0.0997  1.4550
  332TMC3    H2 4989   3.212   0.321  12.278 -0.3737  0.0810 -0.3994
  332TMC3    C7 4990   3.213   0.210  12.527  0.1135  0.3787 -0.1488
  332TMC3    C8 4991   3.213   0.580  12.206 -0.4863  0.1640 -0.4760
  332TMC3    O1 4992   3.129   0.151  12.592 -0.2183 -0.0432 -0.3056
  332TMC3    O2 4993   3.273   0.681  12.181  0.4199 -0.2211 -0.0927
  333MPD2     C 4994   3.265   0.299  10.964 -0.1026 -0.4934  0.3933
  333MPD2    C1 4995   3.225   0.249  10.847  0.4871  0.4291  0.4521
  333MPD2    C2 4996   3.109   0.173  10.851 -0.2061 -1.1986 -0.5202
  333MPD2    C3 4997   3.045   0.145  10.977 -0.2434  0.0535 -0.3009
  333MPD2    C4 4998   3.101   0.205  11.093 -0.6977 -0.4683 -0.1137
  333MPD2    C5 4999   3.215   0.280  11.088  0.5730  0.8457 -0.1675
  333MPD2     H 5000   3.077   0.137  10.754 -0.6697 -0.0352 -0.8034
  333MPD2    H1 5001   3.064   0.191  11.194 -1.2918 -2.0829 -0.5419
  333MPD2    H2 5002   3.355   0.360  10.959  0.9328 -2.1455 -0.9362
  333MPD2    H3 5003   3.254   0.319  11.181  0.8144 -2.8674  1.2964
  333MPD2     N 5004   2.923   0.077  10.981  0.5781  0.4236  0.6468
  333MPD2    H5 5005   2.889   0.045  10.891  1.3655 -1.5239  1.0471
  333MPD2    N1 5006   3.313   0.251  10.737  0.3472  0.3772  0.0732
  333MPD2    H7 5007   3.405   0.292  10.750  0.5451 -0.0036 -0.1162
  334TMC3    C1 5008   3.385   0.247  10.520 -0.0685  0.0689 -0.4833
  334TMC3    C2 5009   3.506   0.217  10.580 -0.6645  0.5350  0.1090
  334TMC3    C3 5010   3.604   0.307  10.567  0.7193  0.7753 -0.0243
  334TMC3    C4 5011   3.367   0.360  10.445  0.3810  0.5745  0.0359
  334TMC3    C5 5012   3.476   0.446  10.443  0.4240 -0.7051 -0.1070
  334TMC3    C6 5013   3.598   0.424  10.498 -0.4528  0.3015 -0.1414
  334TMC3     C 5014   3.277   0.214  10.612 -0.5901 -0.1686  0.0099
  334TMC3     O 5015   3.181   0.157  10.563 -0.7318 -0.2072 -0.0768
  334TMC3     H 5016   3.512   0.118  10.623 -2.2545  0.4167  0.0567
  334TMC3    H1 5017   3.263   0.386  10.431  0.0465 -1.2192 -0.7997
  334TMC3    H2 5018   3.678   0.494  10.480  0.0158 -0.3790 -0.7010
  334TMC3    C7 5019   3.440   0.591  10.443 -0.0131 -0.8873 -0.2941
  334TMC3    C8 5020   3.742   0.251  10.587 -0.5159  0.9660 -0.5162
  334TMC3    O1 5021   3.500   0.660  10.524 -0.3411  0.0665  0.7153
  334TMC3    O2 5022   3.747   0.130  10.581 -0.1718  0.8271 -0.3601
  335TMC3    C1 5023   3.290   2.208  17.540  0.2699  0.2196 -0.3491
  335TMC3    C2 5024   3.226   2.153  17.428  0.4050 -0.2404 -0.1295
  335TMC3    C3 5025   3.298   2.145  17.311 -0.2706  0.4850  0.5737
  335TMC3    C4 5026   3.411   2.267  17.532 -0.2950  0.3926 -0.2033
  335TMC3    C5 5027   3.477   2.251  17.415  0.5603  0.3678 -0.2175
  335TMC3    C6 5028   3.426   2.193  17.301 -0.2787  0.4107 -0.3196
  335TMC3     C 5029   3.220   2.209  17.665 -0.6120  0.1131  0.1026
  335TMC3     O 5030   3.098   2.217  17.670 -0.3896 -0.1585 -0.0774
  335TMC3     H 5031   3.127   2.110  17.441 -0.1831  0.5445 -1.9020
  335TMC3    H1 5032   3.455   2.311  17.621  0.6511  1.6982 -1.3226
  335TMC3    H2 5033   3.483   2.192  17.209  0.7733 -1.0342  0.3339
  335TMC3    C7 5034   3.621   2.248  17.424  0.2291 -0.1048  0.5592
  335TMC3    C8 5035   3.245   2.070  17.195  0.1092 -0.3013 -0.4556
  335TMC3    O1 5036   3.679   2.204  17.323 -0.4912 -0.3427 -0.3207
  335TMC3    O2 5037   3.311   2.082  17.093 -0.5674 -0.2997 -0.3967
  336MPD2     C 5038   2.637   4.560  16.663  0.0617 -0.1352 -0.2288
  336MPD2    C1 5039   2.682   4.513  16.540 -0.7492  0.8447  0.3381
  336MPD2    C2 5040   2.771   4.409  16.548 -0.4241 -0.6532  0.4690
  336MPD2    C3 5041   2.799   4.337  16.664 -0.3043  0.6125 -0.2911
  336MPD2    C4 5042   2.752   4.388  16.782  0.1703  0.6460 -0.0264
  336MPD2    C5 5043   2.674   4.498  16.783  0.4777 -0.0869 -0.1744
  336MPD2     H 5044   2.819   4.376  16.457 -0.3348  0.9019 -0.0574
  336MPD2    H1 5045   2.769   4.332  16.873 -0.7078 -0.4313 -0.5188
  336MPD2    H2 5046   2.568   4.644  16.668 -0.8108 -1.0386  2.9492
  336MPD2    H3 5047   2.636   4.541  16.875 -1.0998  2.8437 -2.1808
  336MPD2     N 5048   2.887   4.220  16.669 -0.5522  0.2613 -0.0475
  336MPD2    H5 5049   2.904   4.175  16.758 -0.1547 -0.6072 -0.5688
  336MPD2    N1 5050   2.647   4.560  16.411 -0.8437  0.4857 -0.2065
  336MPD2    H7 5051   2.695   4.524  16.329 -1.1238 -3.4130  1.3601
  337TMC3    C1 5052   2.538   4.686  16.247  0.3854  0.0250 -0.3713
  337TMC3    C2 5053   2.412   4.716  16.204  0.3483 -0.3188 -0.6287
  337TMC3    C3 5054   2.402   0.011  16.069  0.4196  0.2596 -0.1806
  337TMC3    C4 5055   2.650   4.692  16.172 -0.0995 -0.4265 -0.4818
  337TMC3    C5 5056   2.633   4.718  16.036 -0.2986 -0.1015  0.4769
  337TMC3    C6 5057   2.510   0.015  15.985 -0.2347 -1.1721  0.6781
  337TMC3     C 5058   2.550   4.651  16.388  0.2364 -0.2543 -0.3390
  337TMC3     O 5059   2.471   4.695  16.466 -0.4741  0.3666 -0.1410
  337TMC3     H 5060   2.327   0.006  16.270  0.3459  1.4491 -1.0460
  337TMC3    H1 5061   2.745   4.665  16.216 -1.1298 -0.9729  1.4024
  337TMC3    H2 5062   2.496   0.056  15.886 -0.5132  3.7777  2.7711
  337TMC3    C7 5063   2.722   0.098  15.983  0.4619 -0.3730 -0.0783
  337TMC3    C8 5064   2.275   0.023  16.006 -0.0178  0.3380 -0.1034
  337TMC3    O1 5065   2.672   0.195  15.922 -0.2055 -0.7841  0.2449
  337TMC3    O2 5066   2.183   0.071  16.076  0.2936  0.4061  0.7653
  338MPD2     C 5067   2.570   3.872   1.156  0.2988  0.2696  0.0996
  338MPD2    C1 5068   2.566   3.834   1.026  0.3039  0.0526 -0.1484
  338MPD2    C2 5069   2.455   3.838   0.951 -0.5768 -0.2707  0.0689
  338MPD2    C3 5070   2.331   3.875   1.010  0.4484  0.5343 -0.1728
  338MPD2    C4 5071   2.329   3.911   1.139  0.1485 -0.5976  0.3484
  338MPD2    C5 5072   2.448   3.914   1.209 -0.7190  0.0494 -0.2467
  338MPD2     H 5073   2.457   3.797   0.851  0.7494  2.7934 -1.1609
  338MPD2    H1 5074   2.239   3.945   1.188  0.6256  0.8997  0.2026
  338MPD2    H2 5075   2.664   3.872   1.210  0.6197 -3.4302 -0.4447
  338MPD2    H3 5076   2.455   3.945   1.313 -0.1749 -0.8406 -0.0171
  338MPD2     N 5077   2.212   3.872   0.934 -0.2069  0.0945 -0.5374
  338MPD2    H5 5078   2.224   3.851   0.836 -0.7741 -0.8249 -0.4135
  338MPD2    N1 5079   2.674   3.776   0.962  0.7228 -0.0023 -0.1690
  338MPD2    H7 5080   2.666   3.746   0.865 -0.9560  0.2371 -0.1034
  339TMC3    C1 5081   1.983   3.840   0.884  0.5133 -0.1180  0.2702
  339TMC3    C2 5082   1.888   3.755   0.929 -0.3787 -0.0823 -0.2322
  339TMC3    C3 5083   1.821   3.680   0.835 -0.0776  0.5331 -0.2000
  339TMC3    C4 5084   2.026   3.841   0.756 -0.5368  0.2925  0.2074
  339TMC3    C5 5085   1.952   3.768   0.664 -0.1429  0.1193  0.0060
  339TMC3    C6 5086   1.850   3.682   0.700 -0.0534 -0.2258 -0.4400
  339TMC3     C 5087   2.084   3.879   0.979  0.7344 -0.4987  0.3932
  339TMC3     O 5088   2.042   3.869   1.093  0.1568  0.2944  0.3920
  339TMC3     H 5089   1.873   3.734   1.034  0.3778  0.6025  0.0170
  339TMC3    H1 5090   2.096   3.914   0.717 -0.3011  0.5799  1.1815
  339TMC3    H2 5091   1.809   3.613   0.627 -1.4166  1.3942 -1.2197
  339TMC3    C7 5092   2.004   3.757   0.530 -0.2656 -0.0539 -0.1226
  339TMC3    C8 5093   1.743   3.559   0.884 -0.4317 -0.4271 -0.0423
  339TMC3    O1 5094   1.943   3.792   0.429 -0.1893  0.5286  0.6766
  339TMC3    O2 5095   1.675   3.510   0.796  0.0614 -0.4192  0.8554
  340MPD2     C 5096   2.738   1.002  10.085  0.1325  0.0078  0.4715
  340MPD2    C1 5097   2.846   0.987  10.001  0.2517  0.2742 -0.7741
  340MPD2    C2 5098   2.932   1.095   9.985 -0.8870  0.4239 -0.4335
  340MPD2    C3 5099   2.917   1.211  10.059 -0.4338 -0.1049 -0.0821
  340MPD2    C4 5100   2.806   1.228  10.135 -0.0232  1.0511 -0.5110
  340MPD2    C5 5101   2.717   1.123  10.145  0.3677 -0.3066  0.3298
  340MPD2     H 5102   3.022   1.082   9.925 -0.0924  3.7752  0.0122
  340MPD2    H1 5103   2.792   1.310  10.205 -1.0470  1.0764 -0.7519
  340MPD2    H2 5104   2.658   0.930  10.090 -1.4475  1.8162  1.3266
  340MPD2    H3 5105   2.636   1.139  10.215 -0.2722  0.7391 -0.6504
  340MPD2     N 5106   3.025   1.307  10.070 -0.0963  0.2054  0.1186
  340MPD2    H5 5107   3.009   1.383  10.135  1.4097  0.4880  0.1596
  340MPD2    N1 5108   2.853   0.865   9.938 -0.3193 -0.5337 -0.8487
  340MPD2    H7 5109   2.775   0.801   9.956  0.0765 -1.0226 -0.8760
  341TMC3    C1 5110   2.957   0.676   9.836 -0.6776  0.5638 -0.1884
  341TMC3    C2 5111   2.834   0.616   9.834  0.0903 -0.3131 -0.5349
  341TMC3    C3 5112   2.840   0.482   9.832  0.9381  0.2747 -0.2939
  341TMC3    C4 5113   3.075   0.610   9.868  0.0940 -0.1142  0.7901
  341TMC3    C5 5114   3.075   0.479   9.884  0.4679 -0.0468 -0.1029
  341TMC3    C6 5115   2.957   0.414   9.869  0.0738 -0.6163 -0.4501
  341TMC3     C 5116   2.959   0.821   9.862 -0.4197  0.2369 -0.4054
  341TMC3     O 5117   3.065   0.875   9.834  0.0584  0.5583  0.8916
  341TMC3     H 5118   2.757   0.676   9.786  0.5665  1.7086  1.2197
  341TMC3    H1 5119   3.167   0.662   9.846 -1.2022  0.0128 -4.3929
  341TMC3    H2 5120   2.949   0.305   9.868 -1.1256 -0.5286 -0.2338
  341TMC3    C7 5121   3.190   0.432   9.958  0.1336  0.6289  0.3430
  341TMC3    C8 5122   2.776   0.408   9.726  0.1398  0.2334 -0.3515
  341TMC3    O1 5123   3.286   0.507   9.951 -0.2731 -0.2379  0.4821
  341TMC3    O2 5124   2.828   0.305   9.681 -0.1368  0.1055  0.3910
  342MPD2     C 5125   0.795   4.587   0.108  0.3760 -0.6839 -0.3524
  342MPD2    C1 5126   0.918   4.604   0.053  0.3552  0.8476 -0.6862
  342MPD2    C2 5127   0.974   0.008   0.045  0.1392 -0.2575  0.0211
  342MPD2    C3 5128   0.898   0.121   0.077 -0.2891  0.0531 -0.4581
  342MPD2    C4 5129   0.778   0.098   0.136  0.1682 -0.3857 -0.2868
  342MPD2    C5 5130   0.727   4.699   0.145  0.0872 -0.2770 -1.2492
  342MPD2     H 5131   1.065   0.026  17.692  1.2902  0.0104  1.9955
  342MPD2    H1 5132   0.710   0.176   0.170 -0.6671 -0.0378 -2.7394
  342MPD2    H2 5133   0.742   4.493   0.101 -0.1250 -0.2976 -1.6617
  342MPD2    H3 5134   0.626   4.693   0.186  0.1841  0.5423 -0.8917
  342MPD2     N 5135   0.943   0.251   0.066 -0.0822  0.0708  0.5412
  342MPD2    H5 5136   0.883   0.327   0.097 -2.0984 -1.7692  1.0908
  342MPD2    N1 5137   0.999   4.500  17.700 -0.7134 -0.0391 -0.5425
  342MPD2    H7 5138   1.075   4.530  17.639 -0.7191  0.7280 -0.1752
  343TMC3    C1 5139   1.058   4.289  17.612  0.0877  0.7222  0.6354
  343TMC3    C2 5140   1.188   4.333  17.609  0.4505 -0.0764  0.5284
  343TMC3    C3 5141   1.269   4.293  17.512 -0.6366 -0.0868 -0.3112
  343TMC3    C4 5142   1.021   4.181  17.546  1.1160  0.2996  0.3736
  343TMC3    C5 5143   1.107   4.132  17.456  0.6448 -0.2285  0.7466
  343TMC3    C6 5144   1.231   4.192  17.428  0.0264 -0.1943  0.2235
  343TMC3     C 5145   0.966   4.364  17.695 -0.2219 -0.0682  0.2245
  343TMC3     O 5146   0.866   4.312   0.036 -0.1346  0.0801  0.4134
  343TMC3     H 5147   1.226   4.414  17.670  0.2370 -0.3443  1.0141
  343TMC3    H1 5148   0.928   4.131  17.569  2.2899 -1.9772  0.1222
  343TMC3    H2 5149   1.296   4.153  17.352 -0.1589 -0.1525  0.0436
  343TMC3    C7 5150   1.060   4.019  17.382 -0.8296 -0.5075  0.0714
  343TMC3    C8 5151   1.403   4.350  17.505 -0.9180  0.3568  0.1422
  343TMC3    O1 5152   0.950   3.969  17.414 -0.2525  0.6072  0.5074
  343TMC3    O2 5153   1.407   4.470  17.532  0.4322  0.2513 -0.4339
  344MPD2     C 5154   1.694   0.157   9.802 -0.3285  0.0095 -0.4295
  344MPD2    C1 5155   1.809   0.116   9.863 -0.3210 -0.1708  0.3140
  344MPD2    C2 5156   1.899   0.208   9.916  0.3900 -0.9022 -0.2439
  344MPD2    C3 5157   1.870   0.347   9.901  0.5113  0.0100 -0.6682
  344MPD2    C4 5158   1.754   0.379   9.834 -0.0414  0.1019 -0.5886
  344MPD2    C5 5159   1.669   0.287   9.786  0.0919  0.0181 -0.5741
  344MPD2     H 5160   1.976   0.173   9.983  2.3701  1.3452 -1.3801
  344MPD2    H1 5161   1.734   0.485   9.822  0.6185  0.2429 -0.4412
  344MPD2    H2 5162   1.617   0.098   9.755 -0.5292 -1.6685  1.9747
  344MPD2    H3 5163   1.579   0.318   9.734  0.2277 -1.4409 -1.6592
  344MPD2     N 5164   1.929   0.455   9.972  0.1503 -0.3061  0.4272
  344MPD2    H5 5165   1.864   0.533   9.977 -0.2851 -0.6204 -0.2915
  344MPD2    N1 5166   1.843   4.702   9.873  0.5743  0.1761 -0.2421
  344MPD2    H7 5167   1.929   4.675   9.920 -0.6593 -2.1820  0.6950
  345TMC3    C1 5168   2.106   0.593  10.037  0.0883 -0.7230 -0.5114
  345TMC3    C2 5169   2.232   0.607  10.089 -0.3795 -0.6478  0.1416
  345TMC3    C3 5170   2.264   0.719  10.168  0.2232  0.5576  0.0228
  345TMC3    C4 5171   2.010   0.686  10.049  1.3407 -0.7352  0.1920
  345TMC3    C5 5172   2.037   0.787  10.132 -1.0004 -0.1101  0.1812
  345TMC3    C6 5173   2.159   0.798  10.191  0.3799 -0.1732  0.2908
  345TMC3     C 5174   2.061   0.462  10.002  0.2773 -0.1069 -0.1573
  345TMC3     O 5175   2.150   0.384   9.970 -0.0255  0.7453  0.8061
  345TMC3     H 5176   2.304   0.527  10.077 -0.6152 -1.0347  1.2691
  345TMC3    H1 5177   1.911   0.679  10.005  0.2188  1.1156  2.3694
  345TMC3    H2 5178   2.177   0.890  10.245 -1.8849 -0.6790  1.9201
  345TMC3    C7 5179   1.952   0.906  10.139 -0.7440  0.2488  0.5852
  345TMC3    C8 5180   2.399   0.756  10.205 -0.2605  0.7707 -0.5191
  345TMC3    O1 5181   1.994   1.007  10.190  0.5899  0.1667  0.0772
  345TMC3    O2 5182   2.407   0.853  10.283 -0.0384 -0.0783 -0.7276
  346MPD2     C 5183   1.654   1.527  13.902 -0.2777  0.8954 -0.0114
  346MPD2    C1 5184   1.790   1.512  13.909 -0.2289 -0.5640 -0.2810
  346MPD2    C2 5185   1.851   1.500  14.026  0.4460 -0.0421 -0.3714
  346MPD2    C3 5186   1.784   1.524  14.143  0.0625 -0.0691 -0.5673
  346MPD2    C4 5187   1.645   1.540  14.143  0.1655  0.3835 -0.0125
  346MPD2    C5 5188   1.579   1.547  14.016  0.3829 -0.2087  0.3754
  346MPD2     H 5189   1.956   1.474  14.036  0.5708  0.6093  0.0410
  346MPD2    H1 5190   1.592   1.564  14.234  2.1328  1.3103  0.8885
  346MPD2    H2 5191   1.598   1.547  13.811  0.6083 -1.8415 -1.1614
  346MPD2    H3 5192   1.473   1.563  14.000  1.2741  3.0420 -2.2926
  346MPD2     N 5193   1.864   1.545  14.257 -0.6920 -0.2601  0.1714
  346MPD2    H5 5194   1.965   1.535  14.248 -0.3692  0.4164  2.9198
  346MPD2    N1 5195   1.865   1.527  13.792  0.7071  0.3953  0.3507
  346MPD2    H7 5196   1.816   1.537  13.703 -1.0114 -1.9098  1.0263
  347TMC3    C1 5197   1.933   1.615  14.477 -0.1973  0.7407 -0.3784
  347TMC3    C2 5198   2.051   1.653  14.430  0.2819  0.4929  0.6803
  347TMC3    C3 5199   2.159   1.639  14.518  0.3582  0.3803 -0.3392
  347TMC3    C4 5200   1.906   1.580  14.604 -0.0376 -0.0893  0.3030
  347TMC3    C5 5201   2.017   1.571  14.691 -0.7515  0.1188  1.2514
  347TMC3    C6 5202   2.145   1.606  14.648  0.0301 -0.0456  0.8740
  347TMC3     C 5203   1.828   1.588  14.384  0.4371 -0.3854  0.1025
  347TMC3     O 5204   1.717   1.610  14.428  0.5991  0.4668  0.7740
  347TMC3     H 5205   2.067   1.674  14.325 -2.7993 -3.0011 -0.4937
  347TMC3    H1 5206   1.805   1.558  14.636 -0.1526 -0.5949 -0.4140
  347TMC3    H2 5207   2.232   1.604  14.712 -0.1746 -0.0311  1.1548
  347TMC3    C7 5208   2.008   1.484  14.807 -0.4305 -0.4050 -0.5842
  347TMC3    C8 5209   2.291   1.629  14.454  0.3774 -0.0745  0.7522
  347TMC3    O1 5210   1.904   1.419  14.813  0.0883  0.3122  0.3184
  347TMC3    O2 5211   2.377   1.564  14.512 -0.2247 -0.1051 -0.1569
  348MPD2     C 5212   0.154   1.139  12.233 -0.3509  0.2122  0.7683
  348MPD2    C1 5213   0.237   1.253  12.237  0.7664 -0.7621 -0.1814
  348MPD2    C2 5214   0.218   1.355  12.147 -0.7928  0.4452  0.4222
  348MPD2    C3 5215   0.125   1.348  12.048  0.3410 -0.4824  0.1823
  348MPD2    C4 5216   0.039   1.238  12.045  0.4185 -0.3153  0.3703
  348MPD2    C5 5217   0.058   1.134  12.141  0.6247  0.2130 -0.3154
  348MPD2     H 5218   0.289   1.437  12.147  0.2477 -0.4666  1.6077
  348MPD2    H1 5219   4.678   1.226  11.980  2.0422 -0.0637 -1.8309
  348MPD2    H2 5220   0.169   1.058  12.302  0.0395 -1.0717 -0.8337
  348MPD2    H3 5221   4.705   1.060  12.132 -0.6367  1.4928  0.0456
  348MPD2     N 5222   0.124   1.447  11.941  0.3610  0.3675  0.5038
  348MPD2    H5 5223   0.192   1.521  11.956 -0.0872  0.8290  0.2557
  348MPD2    N1 5224   0.358   1.252  12.310  0.0299 -0.1994  0.6417
  348MPD2    H7 5225   0.414   1.337  12.312  0.3302 -0.3205 -2.8322
  349TMC3    C1 5226   0.566   1.168  12.380 -0.0682 -0.3377  0.4162
  349TMC3    C2 5227   0.647   1.069  12.421  0.2435  0.2289 -0.3601
  349TMC3    C3 5228   0.765   1.042  12.354 -0.2700 -0.7040 -0.8907
  349TMC3    C4 5229   0.617   1.269  12.297 -0.5163 -0.0262 -0.3396
  349TMC3    C5 5230   0.739   1.251  12.238 -0.1516  0.3154  0.3907
  349TMC3    C6 5231   0.802   1.133  12.260 -0.4980 -0.6038  0.0083
  349TMC3     C 5232   0.418   1.153  12.381 -0.5585 -0.5436  0.2922
  349TMC3     O 5233   0.371   1.048  12.425  0.2547  0.5624 -0.0527
  349TMC3     H 5234   0.600   1.000  12.490  0.8675 -1.7630 -1.9145
  349TMC3    H1 5235   0.552   1.350  12.267  0.9666  0.8198 -1.2281
  349TMC3    H2 5236   0.892   1.115  12.202  0.7816  2.7017  0.9760
  349TMC3    C7 5237   0.751   1.307  12.104 -0.4313 -0.4869 -0.2588
  349TMC3    C8 5238   0.839   0.919  12.382  0.4304 -0.4528  0.1175
  349TMC3    O1 5239   0.768   1.235  12.005  0.0953  0.5274  0.5878
  349TMC3    O2 5240   0.783   0.833  12.449 -0.0455 -0.0410  0.3327
  350MPD2     C 5241   0.365   4.072   9.119  0.1186  0.2995 -0.1084
  350MPD2    C1 5242   0.291   4.049   9.234 -0.2266 -0.1801  0.3262
  350MPD2    C2 5243   0.310   4.138   9.340  0.3700  0.0976  0.0956
  350MPD2    C3 5244   0.400   4.241   9.327  0.5313 -0.1489 -0.0221
  350MPD2    C4 5245   0.485   4.259   9.211  0.0003 -0.2026  0.4895
  350MPD2    C5 5246   0.464   4.168   9.110 -0.6075 -0.1535 -0.7999
  350MPD2     H 5247   0.248   4.128   9.428  0.6864  0.4444  0.3547
  350MPD2    H1 5248   0.550   4.342   9.186  0.5136 -0.5243  0.7561
  350MPD2    H2 5249   0.352   4.017   9.027 -2.0007 -1.2849  1.1262
  350MPD2    H3 5250   0.521   4.186   9.019 -0.3500  1.0021 -0.4029
  350MPD2     N 5251   0.398   4.336   9.438  0.2513  0.4467 -0.1536
  350MPD2    H5 5252   0.329   4.325   9.511  0.4086  0.4927  0.0027
  350MPD2    N1 5253   0.199   3.946   9.253 -0.5814  0.1510 -0.2709
  350MPD2    H7 5254   0.133   3.945   9.329  0.5617  1.1523  0.7294
  351TMC3    C1 5255   0.089   3.740   9.215  0.4727 -0.1355  0.7358
  351TMC3    C2 5256   0.122   3.604   9.206 -0.0432  0.3031  0.2407
  351TMC3    C3 5257   0.027   3.511   9.244  0.2739 -0.1956  0.0729
  351TMC3    C4 5258   4.690   3.783   9.264 -0.0810  0.2731  0.2715
  351TMC3    C5 5259   4.602   3.679   9.296  0.1394  0.4114  0.1059
  351TMC3    C6 5260   4.626   3.545   9.279  0.4041 -0.1586 -0.6380
  351TMC3     C 5261   0.190   3.836   9.173 -0.2684  0.0753  0.1718
  351TMC3     O 5262   0.269   3.802   9.085  0.5904 -0.1099  0.1518
  351TMC3     H 5263   0.220   3.574   9.171 -0.1330 -1.3614  1.4140
  351TMC3    H1 5264   4.656   3.886   9.267  0.6587  0.4987  1.0466
  351TMC3    H2 5265   4.551   3.468   9.288 -1.6119  1.9325  0.2466
  351TMC3    C7 5266   4.475   3.722   9.343  0.0075  0.0302  0.3655
  351TMC3    C8 5267   0.060   3.374   9.220  0.1962  0.0837  0.0870
  351TMC3    O1 5268   4.452   3.841   9.346 -0.4961 -0.5216  0.1630
  351TMC3    O2 5269   0.144   3.352   9.135  0.0053 -0.1576  0.2471
  352MPD2     C 5270   2.683   1.098   1.497  0.3702  0.4284 -0.4879
  352MPD2    C1 5271   2.550   1.130   1.471  0.1286 -0.2162  0.1057
  352MPD2    C2 5272   2.451   1.036   1.488  0.9095  0.6359  0.1056
  352MPD2    C3 5273   2.485   0.908   1.528  0.2904  0.6138 -0.0432
  352MPD2    C4 5274   2.614   0.884   1.570  0.1998 -0.4707 -0.1202
  352MPD2    C5 5275   2.714   0.977   1.556  0.0829 -0.5104 -0.5817
  352MPD2     H 5276   2.347   1.063   1.476  1.4087  3.0783  1.1237
  352MPD2    H1 5277   2.644   0.787   1.609 -3.4757 -1.4012  0.3347
  352MPD2    H2 5278   2.770   1.157   1.469 -0.1630 -0.0009 -3.0179
  352MPD2    H3 5279   2.816   0.966   1.591 -0.2892 -0.3542  0.5440
  352MPD2     N 5280   2.404   0.794   1.541 -0.0726 -0.4068  0.2372
  352MPD2    H5 5281   2.439   0.712   1.588 -0.1892 -0.1148  0.8277
  352MPD2    N1 5282   2.532   1.254   1.410 -0.2531 -0.4540 -0.2624
  352MPD2    H7 5283   2.611   1.304   1.372  0.2431 -1.0119  0.0298
  353TMC3    C1 5284   2.201   0.672   1.532  0.5578 -0.6785  0.3748
  353TMC3    C2 5285   2.260   0.563   1.582 -0.4300  0.3269 -0.7616
  353TMC3    C3 5286   2.185   0.452   1.611  0.0526 -0.3783 -0.1054
  353TMC3    C4 5287   2.070   0.672   1.488 -0.3843 -0.2208 -0.9747
  353TMC3    C5 5288   1.997   0.560   1.519  0.0852 -0.9244  0.6349
  353TMC3    C6 5289   2.047   0.453   1.588  0.0642  0.3847  0.1090
  353TMC3     C 5290   2.273   0.791   1.505 -0.2410 -0.5454  0.2687
  353TMC3     O 5291   2.206   0.879   1.450  0.2306  1.5206  0.2543
  353TMC3     H 5292   2.367   0.557   1.599 -0.4556  1.4421 -0.2053
  353TMC3    H1 5293   2.024   0.753   1.432  0.1951  1.0867  0.4367
  353TMC3    H2 5294   1.998   0.357   1.589 -1.0582  0.9570 -0.0258
  353TMC3    C7 5295   1.861   0.552   1.456 -0.2914 -0.7769  0.3711
  353TMC3    C8 5296   2.253   0.323   1.640 -0.1986 -0.4919  0.4221
  353TMC3    O1 5297   1.823   0.643   1.378  0.4231  0.0081 -0.2027
  353TMC3    O2 5298   2.202   0.263   1.734  0.2004  0.0543 -0.1451
  354TMC3    C1 5299   0.039   2.455  13.004 -0.8031 -0.3045 -0.0853
  354TMC3    C2 5300   4.703   2.563  12.954  0.3814 -0.4423  0.4100
  354TMC3    C3 5301   0.008   2.589  12.825 -0.3772 -0.4061 -0.4465
  354TMC3    C4 5302   0.113   2.365  12.929  0.1565  0.2035  0.3679
  354TMC3    C5 5303   0.148   2.398  12.799  0.2406  0.1227  0.4987
  354TMC3    C6 5304   0.090   2.511  12.743 -0.8482 -0.2997  0.3435
  354TMC3     C 5305   4.723   2.407  13.135  0.1068 -0.2927  1.0232
  354TMC3     O 5306   4.705   2.290  13.148 -0.5964 -0.1151 -0.0496
  354TMC3     H 5307   4.630   2.623  13.008 -0.2070  0.4545 -1.3906
  354TMC3    H1 5308   0.168   2.283  12.971 -1.9416 -1.1743  0.4242
  354TMC3    H2 5309   0.093   2.542  12.639  0.3109 -0.7935  0.2255
  354TMC3    C7 5310   0.271   2.344  12.740 -0.0229 -0.0479  0.4318
  354TMC3    C8 5311   4.685   2.720  12.764 -0.5441 -0.0202 -0.3591
  354TMC3    O1 5312   0.303   2.237  12.779  0.1079 -0.2002  0.0771
  354TMC3    O2 5313   4.678   2.732  12.638 -0.7336  0.1373  0.3920
  355MPD2     C 5314   4.440   3.654  11.137 -0.2325  0.5769  0.2351
  355MPD2    C1 5315   4.542   3.589  11.070  0.1000 -0.2404 -0.5301
  355MPD2    C2 5316   4.653   3.538  11.136 -1.1806  0.0137 -0.0146
  355MPD2    C3 5317   4.673   3.574  11.269  0.6039  0.0136 -0.0830
  355MPD2    C4 5318   4.572   3.637  11.335  0.0415  0.4697 -0.3370
  355MPD2    C5 5319   4.456   3.677  11.270 -0.0340  0.2406  0.4583
  355MPD2     H 5320   4.722   3.472  11.085  0.1786  1.2456  0.2364
  355MPD2    H1 5321   4.567   3.649  11.443  0.8433 -1.1317 -0.1191
  355MPD2    H2 5322   4.358   3.700  11.083  2.3208  0.4257 -3.7242
  355MPD2    H3 5323   4.373   3.713  11.331  0.9479  1.2625  1.1834
  355MPD2     N 5324   0.078   3.565  11.336  0.2173  0.0529  0.1574
  355MPD2    H5 5325   0.075   3.620  11.422  0.0020 -0.9303  0.7877
  355MPD2    N1 5326   4.506   3.557  10.940 -0.4200  0.4485 -0.1104
  355MPD2    H7 5327   4.407   3.556  10.920 -0.3074 -0.2670 -0.6275
  356TMC3    C1 5328   0.302   3.551  11.343 -0.4864 -0.0217 -0.5413
  356TMC3    C2 5329   0.410   3.581  11.263 -0.5350 -0.3202 -0.6553
  356TMC3    C3 5330   0.507   3.658  11.311 -0.1244  1.0837  0.3731
  356TMC3    C4 5331   0.304   3.600  11.469 -0.3606  0.3578  0.0291
  356TMC3    C5 5332   0.402   3.682  11.514  0.0137 -0.0262  0.1589
  356TMC3    C6 5333   0.509   3.716  11.434  0.0191 -0.5232 -0.5213
  356TMC3     C 5334   0.186   3.509  11.277  0.2848  0.0580 -0.3741
  356TMC3     O 5335   0.204   3.446  11.175  0.0357  0.2803  0.2756
  356TMC3     H 5336   0.419   3.544  11.162  0.0997  2.8529 -1.7703
  356TMC3    H1 5337   0.220   3.583  11.535  1.7897 -2.2341  2.0366
  356TMC3    H2 5338   0.594   3.766  11.479  0.8672 -0.7010 -1.9425
  356TMC3    C7 5339   0.430   3.662  11.657  0.4660 -0.0063 -0.4423
  356TMC3    C8 5340   0.611   3.702  11.217  0.2962  0.1090  0.0748
  356TMC3    O1 5341   0.361   3.582  11.715 -0.0898  0.0171 -0.0348
  356TMC3    O2 5342   0.631   3.613  11.137 -0.3590 -0.0191  0.1861
  357MPD2     C 5343   3.999   2.506   0.817  0.2629  0.3941 -0.5638
  357MPD2    C1 5344   4.054   2.441   0.917  0.2751 -0.0405 -0.7513
  357MPD2    C2 5345   3.991   2.441   1.038 -0.3725  0.5315  0.1308
  357MPD2    C3 5346   3.876   2.509   1.061 -0.2315  0.0112 -0.2385
  357MPD2    C4 5347   3.816   2.569   0.954 -0.5737 -0.6961 -0.2230
  357MPD2    C5 5348   3.864   2.554   0.830 -0.3157 -0.7524  0.1593
  357MPD2     H 5349   4.045   2.392   1.119  0.3395  0.5716 -0.3181
  357MPD2    H1 5350   3.715   2.607   0.954 -0.3243 -0.0024 -1.8419
  357MPD2    H2 5351   4.043   2.505   0.718  0.4277  0.4194 -0.4914
  357MPD2    H3 5352   3.805   2.589   0.746 -1.2332  0.1411  1.1688
  357MPD2     N 5353   3.818   2.509   1.193  0.2020  0.2515  0.2558
  357MPD2    H5 5354   3.720   2.534   1.194  0.5183  1.5014  0.3251
  357MPD2    N1 5355   4.181   2.382   0.901 -0.0979  0.2622 -0.5061
  357MPD2    H7 5356   4.232   2.414   0.819  3.1755  1.4341  2.0358
  358TMC3    C1 5357   4.382   2.252   0.933  0.2827  0.5770  0.4918
  358TMC3    C2 5358   4.391   2.245   0.798  0.0924 -0.7143 -0.0504
  358TMC3    C3 5359   4.500   2.174   0.751  0.1789 -0.1547 -0.0506
  358TMC3    C4 5360   4.464   2.191   1.020  0.3511 -0.1188 -0.2173
  358TMC3    C5 5361   4.559   2.111   0.969  0.3842 -0.2957 -0.2220
  358TMC3    C6 5362   4.585   2.105   0.832 -0.4073 -0.7258 -0.1046
  358TMC3     C 5363   4.259   2.309   0.994  0.0555 -0.5740  0.4557
  358TMC3     O 5364   4.224   2.262   1.101 -0.0693 -0.1684 -0.1451
  358TMC3     H 5365   4.333   2.305   0.729 -1.4808 -3.0078 -0.7439
  358TMC3    H1 5366   4.458   2.189   1.128  2.0582  1.0041 -0.0894
  358TMC3    H2 5367   4.670   2.044   0.803  0.6061  0.8201 -0.3738
  358TMC3    C7 5368   4.630   2.029   1.074 -0.2118 -0.4464  0.6769
  358TMC3    C8 5369   4.528   2.180   0.607  0.2850 -1.0330  0.4322
  358TMC3    O1 5370   4.625   2.069   1.192 -0.1591  0.0621  0.3856
  358TMC3    O2 5371   4.436   2.205   0.533  0.3021 -0.0932  0.2469
  359MPD2     C 5372   0.056   1.428  12.456  0.2779 -0.0072 -0.7553
  359MPD2    C1 5373   4.690   1.459  12.359  0.2461  0.3521 -0.1368
  359MPD2    C2 5374   4.587   1.377  12.326  0.1514 -0.3528 -0.0250
  359MPD2    C3 5375   4.570   1.269  12.406 -0.3841  0.6543 -0.0348
  359MPD2    C4 5376   4.661   1.235  12.505  0.4468 -0.0687  0.2057
  359MPD2    C5 5377   0.047   1.311  12.525 -0.0506  0.5152 -0.4961
  359MPD2     H 5378   4.521   1.396  12.242  1.6274 -0.9877 -1.3240
  359MPD2    H1 5379   4.642   1.157  12.578  1.8542 -0.7725 -0.1670
  359MPD2    H2 5380   0.150   1.481  12.468  1.4650 -2.4291  0.5064
  359MPD2    H3 5381   0.118   1.277  12.599 -0.6439 -2.1205 -1.1447
  359MPD2     N 5382   4.460   1.181  12.383  0.0401 -0.1192  0.2976
  359MPD2    H5 5383   4.448   1.115  12.459  0.4417 -0.2602  0.2419
  359MPD2    N1 5384   4.701   1.580  12.283 -0.4335  0.1644 -0.3648
  359MPD2    H7 5385   4.633   1.589  12.209 -1.3078 -0.8748  0.3195
  360TMC3    C1 5386   0.044   1.782  12.193  0.4785  0.5432 -0.5087
  360TMC3    C2 5387   0.093   1.902  12.233 -0.5080 -0.4459  0.4256
  360TMC3    C3 5388   0.030   2.008  12.174 -0.1241 -0.2348 -0.1305
  360TMC3    C4 5389   4.683   1.748  12.092  0.2947 -0.3578  0.5775
  360TMC3    C5 5390   4.633   1.863  12.033 -0.6428  0.0914  0.9884
  360TMC3    C6 5391   4.657   1.991  12.084  0.7909  0.1989  0.1199
  360TMC3     C 5392   0.065   1.685  12.299  0.3599  0.2304 -0.1424
  360TMC3     O 5393   0.161   1.695  12.368  0.1005  0.2207  0.5650
  360TMC3     H 5394   0.139   1.928  12.327 -0.8428 -0.2676  0.5392
  360TMC3    H1 5395   4.660   1.649  12.055  0.2731  0.0666 -0.5440
  360TMC3    H2 5396   4.620   2.080  12.036 -0.8493 -0.7540 -0.3930
  360TMC3    C7 5397   4.555   1.862  11.904  0.1583 -0.4417 -0.6268
  360TMC3    C8 5398   0.124   2.113  12.152  0.0927 -0.0571  0.0392
  360TMC3    O1 5399   4.527   1.969  11.856  0.3110 -0.1329  0.5783
  360TMC3    O2 5400   0.077   2.209  12.093  0.6085  0.2313 -1.0743
  361MPD2     C 5401   2.065   0.827  17.288 -0.0456 -0.3129  0.5221
  361MPD2    C1 5402   2.035   0.703  17.235  0.0533  0.8275 -0.5924
  361MPD2    C2 5403   2.134   0.605  17.236  0.4392  0.2108  0.2394
  361MPD2    C3 5404   2.249   0.631  17.305 -0.3237 -0.3228 -0.2379
  361MPD2    C4 5405   2.283   0.756  17.347 -0.0942 -0.5521 -0.0163
  361MPD2    C5 5406   2.190   0.856  17.338  0.2253  0.1371  0.2862
  361MPD2     H 5407   2.118   0.506  17.197 -2.1611  0.9577 -0.5769
  361MPD2    H1 5408   2.384   0.783  17.374  0.1081 -2.7399  1.4423
  361MPD2    H2 5409   1.988   0.904  17.296 -1.4364 -1.7458  0.8328
  361MPD2    H3 5410   2.211   0.957  17.372  1.1536 -0.0569  0.2905
  361MPD2     N 5411   2.355   0.536  17.331  0.3481 -0.4778  0.3950
  361MPD2    H5 5412   2.422   0.571  17.399  1.0508  0.8891 -0.9849
  361MPD2    N1 5413   1.908   0.686  17.179  0.1051  0.2838  0.6608
  361MPD2    H7 5414   1.842   0.762  17.171 -2.2230 -1.8610 -0.7791
  362TMC3    C1 5415   1.731   0.561  17.092 -0.3820  0.0645  0.1651
  362TMC3    C2 5416   1.633   0.504  17.170  0.0893  0.0711  0.1995
  362TMC3    C3 5417   1.506   0.532  17.125  0.1836  0.0251  0.4572
  362TMC3    C4 5418   1.709   0.644  16.985 -0.0109  0.5088  0.1130
  362TMC3    C5 5419   1.580   0.655  16.942  0.5090 -0.5941 -0.2966
  362TMC3    C6 5420   1.478   0.595  17.011  0.6506 -0.2347  0.4373
  362TMC3     C 5421   1.860   0.560  17.150 -0.3401 -0.2718 -0.0851
  362TMC3     O 5422   1.904   0.445  17.166  0.0887  0.3298  0.3122
  362TMC3     H 5423   1.650   0.453  17.264 -0.8879 -0.8486 -0.1136
  362TMC3    H1 5424   1.788   0.713  16.955 -0.7877  1.7703  0.9530
  362TMC3    H2 5425   1.374   0.625  17.001  0.8336  0.4845  0.6783
  362TMC3    C7 5426   1.559   0.759  16.833  0.2580  0.3582 -0.1198
  362TMC3    C8 5427   1.404   0.529  17.230 -0.8427 -0.0491 -0.0504
  362TMC3    O1 5428   1.658   0.828  16.807 -0.2253 -0.2766  0.0780
  362TMC3    O2 5429   1.391   0.427  17.295  0.3662 -0.5476 -0.1730
  363TMC3    C1 5430   0.942   3.429   9.564  0.2333 -0.2502 -0.0168
  363TMC3    C2 5431   1.066   3.365   9.579  0.7078  0.0036  0.1731
  363TMC3    C3 5432   1.182   3.431   9.548  0.5619  0.4770  0.5009
  363TMC3    C4 5433   0.938   3.549   9.493  0.2697  0.1732  0.4110
  363TMC3    C5 5434   1.048   3.598   9.447  0.3915 -0.2119  0.1129
  363TMC3    C6 5435   1.173   3.542   9.474 -0.2683 -0.4294 -0.0771
  363TMC3     C 5436   0.822   3.357   9.604 -0.7873 -0.8712 -0.6036
  363TMC3     O 5437   0.836   3.235   9.626  0.6211  0.1200 -0.1386
  363TMC3     H 5438   1.060   3.265   9.622  2.2941  0.2742  1.0293
  363TMC3    H1 5439   0.841   3.595   9.475  0.0658  0.5636  2.4598
  363TMC3    H2 5440   1.260   3.587   9.428 -0.1319 -1.6264 -0.9593
  363TMC3    C7 5441   1.056   3.735   9.420 -0.2808 -0.6581 -0.1906
  363TMC3    C8 5442   1.316   3.394   9.582  0.4442 -0.3618 -0.6124
  363TMC3    O1 5443   1.167   3.783   9.416  0.2810 -0.2586 -0.2973
  363TMC3    O2 5444   1.411   3.468   9.552  0.6763  0.2382 -0.1554
  364MPD2     C 5445   3.554   2.683  10.187  0.2875 -0.8098 -0.8357
  364MPD2    C1 5446   3.684   2.647  10.153 -0.7396 -0.4948 -0.2053
  364MPD2    C2 5447   3.746   2.546  10.228 -0.9881  1.0478  0.9824
  364MPD2    C3 5448   3.685   2.482  10.337  0.1441  0.1013  0.0585
  364MPD2    C4 5449   3.553   2.511  10.356 -0.3018 -0.0307 -0.5285
  364MPD2    C5 5450   3.497   2.599  10.277 -0.7584  0.2815  0.3035
  364MPD2     H 5451   3.850   2.526  10.202 -1.3381  0.5547 -0.0474
  364MPD2    H1 5452   3.500   2.471  10.442  2.7473  3.0800  2.7746
  364MPD2    H2 5453   3.500   2.758  10.131 -0.3513  0.6386  1.7253
  364MPD2    H3 5454   3.396   2.626  10.306 -0.8232  0.9900 -0.5796
  364MPD2     N 5455   3.762   2.392  10.417  0.2486 -0.0200 -0.5864
  364MPD2    H5 5456   3.862   2.388  10.401  0.3905  0.6964  0.1454
  364MPD2    N1 5457   3.747   2.723  10.055 -0.1095  0.2607 -0.3578
  364MPD2    H7 5458   3.702   2.806  10.017  0.6039  0.7667 -0.0860
  365TMC3    C1 5459   3.923   2.824   9.962  0.4818  0.0331  0.0581
  365TMC3    C2 5460   4.031   2.799   9.885 -0.4655 -0.1021 -0.1904
  365TMC3    C3 5461   4.120   2.897   9.853  0.6376 -0.4728  0.0624
  365TMC3    C4 5462   3.917   2.940  10.032  0.3735  0.3834 -0.0690
  365TMC3    C5 5463   4.019   3.030  10.012  0.1941  0.4567 -0.2606
  365TMC3    C6 5464   4.122   3.012   9.924 -0.4175 -0.1911  0.2817
  365TMC3     C 5465   3.869   2.703  10.012  0.2574 -0.1003  0.1557
  365TMC3     O 5466   3.947   2.609  10.027 -0.1965  0.4593 -0.2428
  365TMC3     H 5467   4.035   2.703   9.834  0.4480  0.1113 -0.5133
  365TMC3    H1 5468   3.833   2.966  10.095 -0.9214 -0.9981 -1.2371
  365TMC3    H2 5469   4.209   3.076   9.928 -0.4412  0.0035 -2.5066
  365TMC3    C7 5470   4.025   3.152  10.088 -0.0569 -0.0598  0.1071
  365TMC3    C8 5471   4.255   2.853   9.827 -0.2718  0.1534 -0.0108
  365TMC3    O1 5472   4.103   3.237  10.048 -0.5187  0.2991 -0.0150
  365TMC3    O2 5473   4.332   2.927   9.767 -0.3984 -0.2228  0.2127
  366MPD2     C 5474   2.813   3.078  15.683 -0.4436  0.4081 -1.4272
  366MPD2    C1 5475   2.827   3.177  15.771 -0.0248  0.1578 -0.0094
  366MPD2    C2 5476   2.945   3.246  15.782 -0.2508  0.4690  0.4878
  366MPD2    C3 5477   3.063   3.225  15.706 -0.3299  0.9244  0.2346
  366MPD2    C4 5478   3.050   3.115  15.620 -0.4214 -0.0334 -0.2489
  366MPD2    C5 5479   2.924   3.053  15.607  0.2806 -0.7272 -0.0135
  366MPD2     H 5480   2.946   3.330  15.851 -0.5245  1.6017 -0.8951
  366MPD2    H1 5481   3.133   3.070  15.567 -1.6841 -1.2502 -1.1926
  366MPD2    H2 5482   2.721   3.026  15.658 -0.1072 -0.4247 -0.9005
  366MPD2    H3 5483   2.907   2.978  15.531 -0.0538 -1.2059  0.5351
  366MPD2     N 5484   3.158   3.328  15.706  0.3715  0.5913  0.5913
  366MPD2    H5 5485   3.146   3.403  15.773 -1.3470  0.5968  0.2569
  366MPD2    N1 5486   2.721   3.239  15.837 -0.9662 -0.4441  0.0685
  366MPD2    H7 5487   2.736   3.319  15.898 -2.6198 -0.7163  0.8449
  367TMC3    C1 5488   2.545   3.379  15.794 -0.5740  0.4151 -0.2448
  367TMC3    C2 5489   2.643   3.478  15.811 -0.1496 -0.4941 -0.1831
  367TMC3    C3 5490   2.646   3.590  15.744  1.0713 -0.4123  0.5616
  367TMC3    C4 5491   2.441   3.408  15.707  0.5057  0.4865 -0.5555
  367TMC3    C5 5492   2.442   3.536  15.648 -0.5648  0.3281 -0.3944
  367TMC3    C6 5493   2.540   3.631  15.665 -0.1096  0.0215  0.0544
  367TMC3     C 5494   2.594   3.248  15.778  0.1394 -0.1552 -0.3304
  367TMC3     O 5495   2.548   3.177  15.692 -0.0299  0.2175  0.4539
  367TMC3     H 5496   2.720   3.464  15.886  0.5578 -1.2880 -1.0542
  367TMC3    H1 5497   2.372   3.328  15.686 -0.0649  0.2266  2.3317
  367TMC3    H2 5498   2.543   3.716  15.599  1.4848  0.9071  1.2608
  367TMC3    C7 5499   2.313   3.592  15.602  1.1788 -0.0490 -0.2571
  367TMC3    C8 5500   2.733   3.693  15.793  0.2129  0.7457  0.2374
  367TMC3    O1 5501   2.319   3.715  15.593  0.6842  0.1397 -0.2766
  367TMC3    O2 5502   2.838   3.655  15.840 -0.1973  0.3363 -0.6266
  368MPD2     C 5503   3.834   1.073  13.607 -0.0884 -0.4960  0.4203
  368MPD2    C1 5504   3.848   1.143  13.489 -0.1720  0.1692 -0.0439
  368MPD2    C2 5505   3.966   1.212  13.464 -0.2662  0.0316 -0.3857
  368MPD2    C3 5506   4.068   1.215  13.565  0.1557  0.4562 -0.3304
  368MPD2    C4 5507   4.042   1.148  13.682 -0.6901  0.0076  0.1492
  368MPD2    C5 5508   3.930   1.082  13.707 -0.7931  0.0252 -0.2467
  368MPD2     H 5509   3.984   1.275  13.378  0.0501  0.2980 -0.1289
  368MPD2    H1 5510   4.122   1.145  13.755 -0.4728  0.1393 -0.0849
  368MPD2    H2 5511   3.746   1.016  13.631 -2.7688  4.3545  2.0874
  368MPD2    H3 5512   3.902   1.037  13.802  0.5869 -1.0897 -0.3594
  368MPD2     N 5513   4.195   1.266  13.540 -0.0301  0.1031  0.3327
  368MPD2    H5 5514   4.266   1.247  13.610  2.8609  1.7499 -2.2117
  368MPD2    N1 5515   3.743   1.148  13.389 -0.2502 -0.9798 -0.0129
  368MPD2    H7 5516   3.664   1.086  13.407 -2.0429  0.8862 -1.4305
  369TMC3    C1 5517   3.614   1.256  13.213  0.6517  0.7161  0.1422
  369TMC3    C2 5518   3.614   1.317  13.089 -1.1121  0.1716 -0.2501
  369TMC3    C3 5519   3.496   1.332  13.023  0.4181  0.0962 -0.5176
  369TMC3    C4 5520   3.498   1.206  13.270 -0.1785 -0.6146  0.4092
  369TMC3    C5 5521   3.382   1.236  13.205 -0.5688  0.2238 -1.0015
  369TMC3    C6 5522   3.378   1.306  13.086 -0.1566  0.2582 -0.8213
  369TMC3     C 5523   3.742   1.228  13.280  0.7366  0.1038 -0.1965
  369TMC3     O 5524   3.832   1.287  13.224  0.4166  0.1415 -0.2570
  369TMC3     H 5525   3.708   1.351  13.046  0.8159 -2.1658  2.1173
  369TMC3    H1 5526   3.487   1.163  13.369  1.2856 -0.3951  0.6647
  369TMC3    H2 5527   3.285   1.318  13.030 -1.8841 -0.1764  1.9654
  369TMC3    C7 5528   3.268   1.146  13.228  0.6011 -0.5632  0.6822
  369TMC3    C8 5529   3.487   1.402  12.900 -0.0380  0.2119  0.1540
  369TMC3    O1 5530   3.244   1.103  13.341  0.4296  0.3367  0.4076
  369TMC3    O2 5531   3.374   1.421  12.857  0.1643  0.0030  0.1197
  370TMC3    C1 5532   3.273   1.433  16.459  0.4495  0.0457  0.4198
  370TMC3    C2 5533   3.218   1.363  16.558  0.5764  0.3168  0.5675
  370TMC3    C3 5534   3.161   1.245  16.518  0.5945  0.1980 -0.5457
  370TMC3    C4 5535   3.259   1.405  16.322 -0.4970  0.5216  0.5810
  370TMC3    C5 5536   3.204   1.285  16.294 -0.1621  0.4904  0.0485
  370TMC3    C6 5537   3.151   1.202  16.390 -0.6709 -0.2693 -0.0284
  370TMC3     C 5538   3.362   1.547  16.512  0.4596  0.1478 -0.9282
  370TMC3     O 5539   3.364   1.564  16.633 -0.6032  1.2626  0.3842
  370TMC3     H 5540   3.223   1.394  16.662  1.8146  1.4112  0.1835
  370TMC3    H1 5541   3.309   1.459  16.242 -2.6170  0.8339 -0.5477
  370TMC3    H2 5542   3.092   1.113  16.372 -0.5563 -0.1379 -1.0759
  370TMC3    C7 5543   3.218   1.224  16.167 -0.3079  0.3884 -0.0582
  370TMC3    C8 5544   3.098   1.154  16.618 -0.8540  0.0844  0.5979
  370TMC3    O1 5545   3.202   1.288  16.066  0.7340  0.2232 -0.7604
  370TMC3    O2 5546   3.047   1.051  16.575 -0.4401 -0.6577  1.1725
  371TMC3    C1 5547   4.409   4.397  15.650 -0.1094  0.0820  0.6606
  371TMC3    C2 5548   4.383   4.413  15.783 -0.0503 -0.9106  0.2518
  371TMC3    C3 5549   4.334   4.533  15.828 -0.2942  0.6528  0.5043
  371TMC3    C4 5550   4.399   4.497  15.558 -0.4361  0.4836 -0.1263
  371TMC3    C5 5551   4.347   4.613  15.609  0.9350 -0.7665 -0.0571
  371TMC3    C6 5552   4.312   4.633  15.735  0.0363  0.7754 -0.6466
  371TMC3     C 5553   4.473   4.280  15.604 -0.0227  0.6721  0.7291
  371TMC3     O 5554   4.528   4.278  15.493  0.2252  0.2624  0.1112
  371TMC3     H 5555   4.417   4.342  15.857  1.8353 -0.5997 -0.3207
  371TMC3    H1 5556   4.415   4.487  15.451  1.6807 -0.7990  0.3170
  371TMC3    H2 5557   4.311   0.013  15.763 -1.2459  0.9806 -1.4509
  371TMC3    C7 5558   4.358   0.010  15.527 -0.7147  0.8611  0.3589
  371TMC3    C8 5559   4.265   4.528  15.954  0.1868  0.2899  0.1220
  371TMC3    O1 5560   4.304   0.111  15.572 -0.2019 -0.1730  0.0233
  371TMC3    O2 5561   4.294   4.430  16.026  0.6529  0.3566 -0.0747
  372MPD2     C 5562   3.403   1.062  13.634 -0.0905 -0.8641  0.5230
  372MPD2    C1 5563   3.494   1.052  13.737 -0.1625 -0.5772  0.1469
  372MPD2    C2 5564   3.519   0.931  13.798  0.2198 -0.2077 -0.1458
  372MPD2    C3 5565   3.459   0.811  13.752  0.2244  0.7297  0.0276
  372MPD2    C4 5566   3.369   0.821  13.652 -0.3016 -0.0330 -0.4423
  372MPD2    C5 5567   3.343   0.943  13.592  0.9808 -1.6927 -0.1411
  372MPD2     H 5568   3.583   0.933  13.886 -0.0694  1.6648  0.0144
  372MPD2    H1 5569   3.317   0.734  13.613  1.0108 -0.5792 -1.0021
  372MPD2    H2 5570   3.378   1.157  13.589 -1.2641 -2.2747 -1.7985
  372MPD2    H3 5571   3.273   0.958  13.510 -0.6717  0.5589  1.7022
  372MPD2     N 5572   3.493   0.687  13.814 -1.0936  0.0494  0.2314
  372MPD2    H5 5573   3.553   0.700  13.894 -0.4031  1.1529 -0.4768
  372MPD2    N1 5574   3.554   1.169  13.794  0.2034 -1.0511  0.3703
  372MPD2    H7 5575   3.617   1.154  13.872  1.0042 -0.2429 -0.1185
  373TMC3    C1 5576   3.476   0.456  13.868  0.2513  0.0522 -0.4429
  373TMC3    C2 5577   3.529   0.501  13.988  0.0319 -0.3767  0.7264
  373TMC3    C3 5578   3.624   0.423  14.045 -0.1874  0.2937  0.4167
  373TMC3    C4 5579   3.538   0.359  13.800  0.5538  0.0441  0.5069
  373TMC3    C5 5580   3.645   0.290  13.859 -0.5327  0.4946 -0.0313
  373TMC3    C6 5581   3.694   0.316  13.987 -0.0517  0.7177  0.0449
  373TMC3     C 5582   3.445   0.565  13.777  0.2307 -0.8656 -0.6575
  373TMC3     O 5583   3.378   0.532  13.677 -0.0589 -0.1354  0.5354
  373TMC3     H 5584   3.493   0.588  14.042 -0.8705  1.4004 -2.7570
  373TMC3    H1 5585   3.522   0.351  13.693  3.7618 -0.3487  0.0521
  373TMC3    H2 5586   3.768   0.260  14.043  1.9955  1.8863 -1.4898
  373TMC3    C7 5587   3.731   0.215  13.771 -0.0609  0.4710  0.7143
  373TMC3    C8 5588   3.666   0.451  14.181  1.0522 -0.0898 -0.7511
  373TMC3    O1 5589   3.691   0.185  13.659 -0.2491  0.1870 -0.3238
  373TMC3    O2 5590   3.775   0.409  14.223  0.1889  0.0175  0.1783
  374TMC3    C1 5591   4.651   0.804   9.908  0.5823  0.0479 -0.2708
  374TMC3    C2 5592   0.012   0.905   9.884  0.3620 -0.0480 -0.0536
  374TMC3    C3 5593   0.025   0.953   9.755 -0.6874 -0.1965  0.2106
  374TMC3    C4 5594   4.570   0.751   9.812 -0.6240 -0.6563 -0.8657
  374TMC3    C5 5595   4.575   0.804   9.689 -0.1090  0.0991 -0.9795
  374TMC3    C6 5596   4.666   0.899   9.657 -0.0499  0.1197  0.6632
  374TMC3     C 5597   4.645   0.759  10.049  0.0784  0.1579 -0.5492
  374TMC3     O 5598   4.689   0.840  10.126  0.0920 -0.5124  0.0433
  374TMC3     H 5599   0.070   0.939   9.968  0.0793  1.1508 -0.3370
  374TMC3    H1 5600   4.489   0.694   9.855 -1.0095  0.3525 -0.2468
  374TMC3    H2 5601   4.671   0.941   9.557 -0.8070 -0.8001  0.2433
  374TMC3    C7 5602   4.484   0.753   9.585  0.4220  0.4177  0.1206
  374TMC3    C8 5603   0.101   1.082   9.729  0.3028 -0.5206 -0.8289
  374TMC3    O1 5604   4.498   0.812   9.477 -0.0001  0.1126 -0.1330
  374TMC3    O2 5605   0.103   1.126   9.617  0.1354  0.0231  0.2296
  375MPD2     C 5606   0.136   1.663  17.331  0.3292 -0.6991  0.0971
  375MPD2    C1 5607   0.056   1.673  17.229 -0.3335  0.1428 -0.2577
  375MPD2    C2 5608   0.094   1.618  17.104  1.1547  0.8152 -0.0460
  375MPD2    C3 5609   0.215   1.559  17.088 -0.6794  0.5687 -0.7765
  375MPD2    C4 5610   0.303   1.556  17.194  0.4734  0.3086 -0.0659
  375MPD2    C5 5611   0.259   1.603  17.317 -0.3796 -0.0929  0.2352
  375MPD2     H 5612   0.029   1.629  17.018 -0.6406  0.1721  1.2210
  375MPD2    H1 5613   0.396   1.500  17.199 -0.0998 -0.6272  0.0852
  375MPD2    H2 5614   0.120   1.712  17.426  1.8065  0.8649 -0.4608
  375MPD2    H3 5615   0.318   1.598  17.408  1.0456 -1.3747 -0.7395
  375MPD2     N 5616   0.265   1.502  16.964  0.8677  0.0160  0.0669
  375MPD2    H5 5617   0.360   1.465  16.966  0.4945 -0.9294  0.3467
  375MPD2    N1 5618   4.664   1.754  17.237 -0.9867  0.2701 -0.7547
  375MPD2    H7 5619   4.618   1.774  17.149 -0.7363 -1.5165 -1.2852
  376TMC3    C1 5620   0.274   1.455  16.739 -0.2896  0.1391 -0.1446
  376TMC3    C2 5621   0.411   1.463  16.749  0.0122  0.4603  0.2743
  376TMC3    C3 5622   0.476   1.415  16.638 -0.7293 -0.8307  0.1436
  376TMC3    C4 5623   0.209   1.410  16.628 -0.2919  1.0299 -0.6457
  376TMC3    C5 5624   0.277   1.371  16.520 -0.6162 -0.1141  0.9854
  376TMC3    C6 5625   0.409   1.375  16.520  0.1034  0.2190  0.3435
  376TMC3     C 5626   0.194   1.494  16.849 -0.2052  0.1671 -0.3396
  376TMC3     O 5627   0.079   1.525  16.833 -0.5052 -0.5147  0.1318
  376TMC3     H 5628   0.466   1.513  16.828 -0.3380 -1.0941  1.4910
  376TMC3    H1 5629   0.103   1.428  16.609  0.1455  1.5497 -2.5253
  376TMC3    H2 5630   0.464   1.342  16.432  1.3549  3.6500 -0.1712
  376TMC3    C7 5631   0.205   1.344  16.392  0.4086 -0.5464 -0.4531
  376TMC3    C8 5632   0.617   1.434  16.629 -0.3274 -0.0406 -0.3670
  376TMC3    O1 5633   0.110   1.415  16.364 -0.0292  0.6502  0.5773
  376TMC3    O2 5634   0.660   1.462  16.519  0.5837  0.1178  0.0279
  377MPD2     C 5635   2.580   1.500  12.635 -0.1756  1.0319  0.1674
  377MPD2    C1 5636   2.695   1.419  12.641  0.7791 -1.4473 -0.1261
  377MPD2    C2 5637   2.730   1.358  12.756  0.5605  0.7801 -0.3834
  377MPD2    C3 5638   2.645   1.373  12.864  0.1166  0.5564  0.2466
  377MPD2    C4 5639   2.527   1.443  12.855 -0.8059 -0.2593 -0.3393
  377MPD2    C5 5640   2.494   1.507  12.746 -0.5342 -0.0385  1.2932
  377MPD2     H 5641   2.820   1.298  12.754 -1.3892 -2.1087 -1.6535
  377MPD2    H1 5642   2.462   1.454  12.941 -0.4655  0.7122 -0.2114
  377MPD2    H2 5643   2.551   1.567  12.554  0.7931  0.9351 -0.2594
  377MPD2    H3 5644   2.398   1.556  12.743  0.2086  1.3346 -0.5180
  377MPD2     N 5645   2.663   1.291  12.980  0.1525 -0.2612  0.1046
  377MPD2    H5 5646   2.590   1.291  13.050  1.0608  1.6679  1.0641
  377MPD2    N1 5647   2.771   1.399  12.523 -0.1756  0.3652 -0.1415
  377MPD2    H7 5648   2.726   1.429  12.437 -1.9967  3.6219  1.9274
  378TMC3    C1 5649   2.850   1.218  12.178 -0.1787  0.2796  0.0926
  378TMC3    C2 5650   2.819   1.271  12.302  0.3527  1.2763  0.5437
  378TMC3    C3 5651   2.928   1.306  12.379 -0.1614 -0.1268  0.4092
  378TMC3    C4 5652   2.981   1.213  12.130 -0.3040 -0.0392 -0.0295
  378TMC3    C5 5653   3.085   1.266  12.205  0.1274  0.0554 -0.0964
  378TMC3    C6 5654   3.056   1.301  12.333  0.4047 -0.3401 -0.1054
  378TMC3     C 5655   2.745   1.191  12.081 -1.0808  0.0969  0.1509
  378TMC3     O 5656   2.786   1.158  11.971 -0.2515 -0.2029  0.1101
  378TMC3     H 5657   2.715   1.278  12.333 -0.5590 -2.8888 -1.5430
  378TMC3    H1 5658   3.003   1.174  12.031 -0.8356 -1.8579  0.5700
  378TMC3    H2 5659   3.135   1.351  12.389  0.6187  1.0031 -1.5795
  378TMC3    C7 5660   3.190   1.347  12.140 -0.1579  0.6152 -0.4018
  378TMC3    C8 5661   2.901   1.353  12.516 -0.2396  0.5710 -0.0607
  378TMC3    O1 5662   3.245   1.438  12.202 -0.4060 -0.2589  0.1487
  378TMC3    O2 5663   2.990   1.350  12.600  0.1814  0.0828 -0.9703
  379MPD2     C 5664   3.744   4.416  16.495 -0.0784  0.1928 -0.0658
  379MPD2    C1 5665   3.652   4.315  16.512  0.0717 -1.1685 -0.6813
  379MPD2    C2 5666   3.647   4.241  16.635  0.2736  0.3035 -0.2968
  379MPD2    C3 5667   3.763   4.247  16.710 -0.0601  0.0048 -1.3211
  379MPD2    C4 5668   3.853   4.345  16.691  0.7120 -1.1967  0.2021
  379MPD2    C5 5669   3.839   4.437  16.597  1.0611 -0.4115  0.3441
  379MPD2     H 5670   3.566   4.173  16.660  0.4654 -0.1614 -0.9508
  379MPD2    H1 5671   3.948   4.351  16.743 -0.6692  0.9578  2.5045
  379MPD2    H2 5672   3.743   4.479  16.407  0.4197 -0.4696 -0.5449
  379MPD2    H3 5673   3.918   4.512  16.595 -1.1973  1.9647  0.1635
  379MPD2     N 5674   3.798   4.152  16.803  0.4335  0.3451 -0.2296
  379MPD2    H5 5675   3.897   4.160  16.825  0.3259  2.2469 -0.4227
  379MPD2    N1 5676   3.569   4.295  16.409  0.1328  0.1547 -0.1071
  379MPD2    H7 5677   3.606   4.319  16.317 -0.0085 -0.1177 -0.2325
  380TMC3    C1 5678   3.407   4.200  16.267 -0.0878 -0.1290 -0.4553
  380TMC3    C2 5679   3.503   4.184  16.171  0.2298  0.1562 -0.4858
  380TMC3    C3 5680   3.462   4.148  16.048  0.1208  0.0379  0.3335
  380TMC3    C4 5681   3.270   4.188  16.242 -0.0360  0.0815  0.4851
  380TMC3    C5 5682   3.236   4.155  16.115  0.0902 -0.6646 -0.8803
  380TMC3    C6 5683   3.323   4.146  16.014 -0.2572 -0.3645 -0.3575
  380TMC3     C 5684   3.458   4.218  16.400 -0.1468  0.0676 -0.1870
  380TMC3     O 5685   3.380   4.207  16.495 -0.0016  0.2273 -0.0629
  380TMC3     H 5686   3.608   4.182  16.200 -0.2056  0.3793  1.1060
  380TMC3    H1 5687   3.194   4.218  16.313  0.1056  0.4747  0.4664
  380TMC3    H2 5688   3.284   4.127  15.915  0.6340  1.4297 -1.0655
  380TMC3    C7 5689   3.093   4.170  16.080  0.5295  0.5572 -0.1941
  380TMC3    C8 5690   3.565   4.099  15.951 -0.4038  0.1199 -0.4533
  380TMC3    O1 5691   3.025   4.250  16.146  0.5149  0.6918  0.1796
  380TMC3    O2 5692   3.529   4.102  15.836  0.1780  0.0256  0.2393
  381TMC3    C1 5693   2.770   0.586  16.297  0.1688 -0.4402  0.7534
  381TMC3    C2 5694   2.897   0.617  16.320 -0.4801  0.3551 -0.0348
  381TMC3    C3 5695   2.921   0.701  16.424 -0.5187  0.7426 -0.8232
  381TMC3    C4 5696   2.659   0.621  16.370 -0.3221  0.2956 -0.1952
  381TMC3    C5 5697   2.687   0.699  16.481  0.2175 -0.0494  0.0503
  381TMC3    C6 5698   2.817   0.741  16.508 -0.1188  0.2960 -0.0457
  381TMC3     C 5699   2.744   0.543  16.162 -1.1771 -0.4032 -0.3633
  381TMC3     O 5700   2.634   0.496  16.148  0.2542 -0.3738  0.0516
  381TMC3     H 5701   2.978   0.566  16.268 -0.4157 -0.2285  0.6406
  381TMC3    H1 5702   2.557   0.590  16.353 -0.4725  0.1280  1.0258
  381TMC3    H2 5703   2.829   0.810  16.591 -1.0170 -0.6517  0.8781
  381TMC3    C7 5704   2.591   0.699  16.594  0.3403 -0.8460 -0.3123
  381TMC3    C8 5705   3.054   0.731  16.461 -0.4689  0.4820 -0.4522
  381TMC3    O1 5706   2.548   0.587  16.621 -0.2710 -0.3815  0.0566
  381TMC3    O2 5707   3.131   0.751  16.369  0.0431  0.4436 -0.1631
  382MPD2     C 5708   2.593   3.021  17.205  0.0733  0.3929 -0.2576
  382MPD2    C1 5709   2.521   3.003  17.322  0.4095 -0.2151  0.7250
  382MPD2    C2 5710   2.492   2.876  17.357 -0.6409 -0.2612  0.2119
  382MPD2    C3 5711   2.521   2.763  17.281 -0.2547 -0.7578  0.2258
  382MPD2    C4 5712   2.616   2.782  17.186  0.6948 -0.6827 -0.1973
  382MPD2    C5 5713   2.653   2.911  17.150  0.4573 -0.3984  0.4581
  382MPD2     H 5714   2.445   2.858  17.452  1.4427 -0.7241  1.1554
  382MPD2    H1 5715   2.664   2.697  17.139 -0.0320 -0.6894 -0.9179
  382MPD2    H2 5716   2.631   3.120  17.183  0.0716  0.4923  0.1856
  382MPD2    H3 5717   2.728   2.909  17.072 -0.5236  1.1039 -0.5058
  382MPD2     N 5718   2.488   2.629  17.305 -0.1358 -0.3151  0.2540
  382MPD2    H5 5719   2.536   2.556  17.252  0.7272 -0.2285  0.9101
  382MPD2    N1 5720   2.516   3.101  17.427  0.0176 -0.3134 -0.3994
  382MPD2    H7 5721   2.492   3.068  17.520 -0.1343  0.4599 -0.1617
  383TMC3    C1 5722   2.377   2.456  17.384  0.0066  0.5410  0.5589
  383TMC3    C2 5723   2.253   2.410  17.389 -0.5519  0.9827  0.8758
  383TMC3    C3 5724   2.235   2.271  17.407  0.0797  0.1982  0.7089
  383TMC3    C4 5725   2.486   2.380  17.409  1.1057 -0.2306 -0.5287
  383TMC3    C5 5726   2.464   2.246  17.438  0.1007 -0.2156  0.1844
  383TMC3    C6 5727   2.344   2.189  17.429  0.0998 -0.7964 -0.0684
  383TMC3     C 5728   2.396   2.595  17.403 -0.0345 -0.2717  0.1281
  383TMC3     O 5729   2.315   2.665  17.473  0.1109  0.2004  0.0873
  383TMC3     H 5730   2.167   2.474  17.398 -0.6518  1.0190 -0.2610
  383TMC3    H1 5731   2.583   2.426  17.428  1.0337  0.4068 -1.7069
  383TMC3    H2 5732   2.334   2.082  17.420 -0.4491 -0.6734 -0.8963
  383TMC3    C7 5733   2.572   2.191  17.515 -0.6566 -0.5472  0.1952
  383TMC3    C8 5734   2.110   2.215  17.365  0.2672  0.2663 -0.1970
  383TMC3    O1 5735   2.686   2.236  17.501  0.1009 -0.4388  0.1898
  383TMC3    O2 5736   2.037   2.305  17.319  0.2699 -0.4821 -0.0169
  384MPD2     C 5737   3.455   4.655  11.915  0.5482 -0.6653 -0.1889
  384MPD2    C1 5738   3.441   4.524  11.967 -0.5527 -0.6496 -0.1992
  384MPD2    C2 5739   3.452   4.417  11.880 -0.6651 -0.1304  0.3633
  384MPD2    C3 5740   3.481   4.427  11.752 -0.0676  0.2190  0.6943
  384MPD2    C4 5741   3.497   4.552  11.703 -0.0660 -0.7987  0.3749
  384MPD2    C5 5742   3.483   4.667  11.780  0.1318  0.1902  0.1798
  384MPD2     H 5743   3.423   4.321  11.922 -1.7394  1.0931  2.4667
  384MPD2    H1 5744   3.533   4.571  11.602  0.5778  2.4155  1.2135
  384MPD2    H2 5745   3.444   0.018  11.978  3.1443  0.4129 -1.2539
  384MPD2    H3 5746   3.513   0.031  11.725 -0.1521  0.5429  0.6039
  384MPD2     N 5747   3.504   4.317  11.661  0.8719  0.0500 -0.1984
  384MPD2    H5 5748   3.537   4.331  11.566 -2.4292  0.1005 -1.3214
  384MPD2    N1 5749   3.402   4.502  12.100 -0.8763  0.2568 -0.5097
  384MPD2    H7 5750   3.405   4.405  12.130  0.9830  0.4015 -0.2297
  385TMC3    C1 5751   3.511   4.077  11.611 -0.0580 -0.6108  0.4828
  385TMC3    C2 5752   3.641   4.066  11.574 -0.1209 -0.2113  0.2349
  385TMC3    C3 5753   3.690   3.940  11.567  0.4700  0.0698  0.1533
  385TMC3    C4 5754   3.440   3.970  11.658  0.3563  0.3067  0.5658
  385TMC3    C5 5755   3.502   3.848  11.659  0.2842  0.1486  0.6581
  385TMC3    C6 5756   3.627   3.829  11.607  0.4336  0.2864  0.1304
  385TMC3     C 5757   3.493   4.186  11.706  0.0380 -0.2073  0.6137
  385TMC3     O 5758   3.443   4.146  11.806 -0.3543 -0.3860  0.5744
  385TMC3     H 5759   3.701   4.152  11.549  2.0899 -0.7464  3.7386
  385TMC3    H1 5760   3.337   3.993  11.684  0.3348 -0.5105  1.2011
  385TMC3    H2 5761   3.684   3.740  11.630  0.0014 -0.0202  0.0144
  385TMC3    C7 5762   3.476   3.776  11.784  0.2131 -0.1750 -0.3978
  385TMC3    C8 5763   3.791   3.914  11.469  0.0792  0.3107 -0.0127
  385TMC3    O1 5764   3.490   3.656  11.790  0.2007  0.1854 -0.2668
  385TMC3    O2 5765   3.873   4.004  11.455 -0.5048  0.2444 -0.4438
  386TMC3    C1 5766   3.831   1.693  11.647  0.2868  0.2712 -0.0828
  386TMC3    C2 5767   3.821   1.637  11.524 -0.0578 -0.8120 -0.2322
  386TMC3    C3 5768   3.732   1.690  11.435  0.2461  0.8951 -0.1417
  386TMC3    C4 5769   3.758   1.799  11.681 -0.0321  0.5575  0.1835
  386TMC3    C5 5770   3.684   1.861  11.586  0.6937 -0.4513  0.0395
  386TMC3    C6 5771   3.655   1.794  11.470 -0.3286 -0.0664 -0.2237
  386TMC3     C 5772   3.924   1.628  11.743 -0.1109  0.1195 -0.0205
  386TMC3     O 5773   3.942   1.697  11.843  0.1634  0.0009 -0.4308
  386TMC3     H 5774   3.899   1.576  11.480 -0.4873 -1.8788  0.4921
  386TMC3    H1 5775   3.769   1.833  11.784 -1.2653 -0.1650  0.5478
  386TMC3    H2 5776   3.584   1.852  11.412  0.1179 -1.2201 -1.9425
  386TMC3    C7 5777   3.574   1.923  11.661  0.4813  0.4544 -1.2285
  386TMC3    C8 5778   3.670   1.601  11.337 -0.1081  0.2777  0.4538
  386TMC3    O1 5779   3.591   1.951  11.778 -0.2217 -0.4783 -0.6791
  386TMC3    O2 5780   3.622   1.655  11.239 -0.2510  0.4096 -0.5217
  387MPD2     C 5781   1.534   2.433  10.075  0.1560  0.2526 -0.1751
  387MPD2    C1 5782   1.647   2.386  10.131  0.2438 -0.3183  0.2082
  387MPD2    C2 5783   1.692   2.262  10.102  0.2558 -0.0336 -0.4877
  387MPD2    C3 5784   1.616   2.180  10.026 -0.2747 -0.1009  0.3851
  387MPD2    C4 5785   1.507   2.227   9.962 -0.3970  0.0319  0.2763
  387MPD2    C5 5786   1.467   2.356   9.985 -0.1901 -0.5224  0.1245
  387MPD2     H 5787   1.786   2.233  10.148 -0.4786 -0.3600  0.7936
  387MPD2    H1 5788   1.447   2.170   9.891 -0.3899 -1.6869  1.6505
  387MPD2    H2 5789   1.487   2.522  10.116 -3.2928 -1.1424 -1.0692
  387MPD2    H3 5790   1.379   2.408   9.950 -0.1020  1.0228  2.1673
  387MPD2     N 5791   1.666   2.042  10.021 -0.8834  0.2445 -0.4807
  387MPD2    H5 5792   1.754   2.030  10.069 -1.6404  2.2104  1.3829
  387MPD2    N1 5793   1.722   2.445  10.234 -0.3451 -0.2060 -0.5284
  387MPD2    H7 5794   1.789   2.387  10.284  1.6987  2.4058 -0.2302
  388TMC3    C1 5795   1.780   2.565  10.422  0.2699  0.7225  0.6085
  388TMC3    C2 5796   1.830   2.684  10.463  0.6251 -0.8393  0.0060
  388TMC3    C3 5797   1.892   2.685  10.582 -0.5462 -0.5941 -0.7044
  388TMC3    C4 5798   1.808   2.453  10.488  0.0117 -1.0021  0.3633
  388TMC3    C5 5799   1.890   2.455  10.601  0.4818 -0.6452 -0.4025
  388TMC3    C6 5800   1.940   2.572  10.648  0.6630  0.8884 -0.1572
  388TMC3     C 5801   1.698   2.564  10.302 -0.0792 -0.3156  0.8717
  388TMC3     O 5802   1.618   2.654  10.272  0.2707  0.3457  0.1381
  388TMC3     H 5803   1.813   2.768  10.396  0.8324 -0.1441  0.8324
  388TMC3    H1 5804   1.753   2.362  10.466  1.4585 -1.3291 -1.8569
  388TMC3    H2 5805   2.007   2.577  10.734  1.4449 -2.0472 -0.6006
  388TMC3    C7 5806   1.923   2.329  10.664  0.2795 -0.7092  0.5821
  388TMC3    C8 5807   1.876   2.809  10.657  0.7481 -0.0562  0.4439
  388TMC3    O1 5808   1.935   2.322  10.785  0.3852  0.2665 -0.3762
  388TMC3    O2 5809   1.849   2.915  10.594  0.1099  0.3552  0.1442
  389MPD2     C 5810   1.392   0.067  10.766 -0.2899  0.5695  0.3135
  389MPD2    C1 5811   1.308   4.723  10.688  0.6655  0.6555  0.3466
  389MPD2    C2 5812   1.190   4.674  10.732 -0.1552 -0.1315  0.1606
  389MPD2    C3 5813   1.147   4.694  10.864 -0.1336  0.8252  0.2628
  389MPD2    C4 5814   1.231   0.054  10.936  0.8933  0.3040  0.1024
  389MPD2    C5 5815   1.355   0.093  10.891  0.7313 -0.0760  0.4035
  389MPD2     H 5816   1.134   4.605  10.670 -1.0315 -1.2572  2.2052
  389MPD2    H1 5817   1.211   0.074  11.040  5.5402  0.8525  0.9009
  389MPD2    H2 5818   1.489   0.097  10.728  0.3617  0.4905  1.9103
  389MPD2    H3 5819   1.418   0.151  10.957 -0.3159 -0.6332  1.8924
  389MPD2     N 5820   1.027   4.647  10.913 -0.2904 -0.3176  0.3072
  389MPD2    H5 5821   1.001   4.683  11.004  2.1450  0.6097  0.6309
  389MPD2    N1 5822   1.359   4.710  10.558  0.7156  0.1842  0.3792
  389MPD2    H7 5823   1.452   0.022  10.542  0.9162 -0.4583  0.0537
  390TMC3    C1 5824   0.836   4.530  10.963  0.3425  0.2397  0.8704
  390TMC3    C2 5825   0.777   4.410  10.953 -1.0120  0.4058  0.4372
  390TMC3    C3 5826   0.690   4.370  11.059  0.2465 -0.4437 -0.7384
  390TMC3    C4 5827   0.805   4.622  11.059  0.2230 -0.4765  0.0807
  390TMC3    C5 5828   0.713   4.588  11.157  0.1308  0.5706  0.7109
  390TMC3    C6 5829   0.670   4.456  11.165 -0.7979 -0.1807  0.0987
  390TMC3     C 5830   0.948   4.544  10.867 -0.3080  0.7036 -0.3962
  390TMC3     O 5831   0.984   4.460  10.792 -1.2888 -0.2665  0.2763
  390TMC3     H 5832   0.807   4.348  10.870  0.3391 -0.9418  1.9397
  390TMC3    H1 5833   0.839   4.725  11.067 -1.9576  0.4483 -2.9005
  390TMC3    H2 5834   0.597   4.422  11.237  0.6650 -1.2087  1.1072
  390TMC3    C7 5835   0.740   4.667  11.275  0.1320 -0.5249  0.6265
  390TMC3    C8 5836   0.604   4.261  11.039  0.1456  0.6837  0.0679
  390TMC3    O1 5837   0.852   4.717  11.286 -0.2333 -0.3154 -0.2767
  390TMC3    O2 5838   0.602   4.225  10.923  0.8414 -0.0725 -0.8602
  391MPD2     C 5839   4.690   1.258  11.224  0.0931 -0.2280 -0.4245
  391MPD2    C1 5840   0.040   1.375  11.222  0.3806  0.3406 -1.0355
  391MPD2    C2 5841   0.108   1.420  11.108 -0.3052 -1.2452 -0.0800
  391MPD2    C3 5842   0.094   1.350  10.987 -0.0803  0.0128 -0.0124
  391MPD2    C4 5843   0.023   1.231  10.987 -0.0535  0.3856 -0.1761
  391MPD2    C5 5844   4.685   1.185  11.105 -0.2922  0.2209  0.1223
  391MPD2     H 5845   0.161   1.515  11.110 -0.5216 -1.1293  0.1025
  391MPD2    H1 5846   0.013   1.165  10.902  1.6397 -0.5328  0.3318
  391MPD2    H2 5847   4.644   1.219  11.314 -2.7621  0.4818 -1.5736
  391MPD2    H3 5848   4.639   1.086  11.101 -0.8151  0.4756 -0.1711
  391MPD2     N 5849   0.165   1.393  10.872  0.5278 -0.3654  0.0515
  391MPD2    H5 5850   0.253   1.443  10.878 -0.5185  1.1266  3.0289
  391MPD2    N1 5851   0.043   1.448  11.345 -0.1041  0.5955 -0.1130
  391MPD2    H7 5852   0.010   1.408  11.433 -0.3109  0.6468 -0.1672
  392TMC3    C1 5853   0.202   1.429  10.647  0.3712 -0.9837  0.7838
  392TMC3    C2 5854   0.184   1.383  10.523 -0.3973  0.4914 -0.4963
  392TMC3    C3 5855   0.249   1.454  10.422  0.3827  0.5337 -0.3603
  392TMC3    C4 5856   0.282   1.537  10.670  0.0699  0.0854 -0.1262
  392TMC3    C5 5857   0.350   1.602  10.572 -0.6781  0.2466  0.1196
  392TMC3    C6 5858   0.328   1.561  10.444  0.1442  0.2019  0.3186
  392TMC3     C 5859   0.120   1.372  10.748  0.4666 -0.2226 -0.3746
  392TMC3     O 5860   0.015   1.316  10.708  0.1536  0.3074  0.1692
  392TMC3     H 5861   0.150   1.280  10.512 -1.0948  0.4509  1.9194
  392TMC3    H1 5862   0.306   1.577  10.768  0.7244  0.2959 -0.3697
  392TMC3    H2 5863   0.383   1.613  10.366  0.5846 -0.8395 -0.0727
  392TMC3    C7 5864   0.448   1.704  10.607  0.0022  0.2607  0.0439
  392TMC3    C8 5865   0.239   1.394  10.296 -0.2723 -0.3771 -0.1406
  392TMC3    O1 5866   0.453   1.741  10.724 -0.2202  0.6889 -0.4019
  392TMC3    O2 5867   0.186   1.279  10.295  0.4682  0.2294  0.3499
  393TMC3    C1 5868   4.524   4.306  10.754 -0.0465  0.1198  0.7851
  393TMC3    C2 5869   4.462   4.216  10.667  0.6811 -0.3440 -0.5747
  393TMC3    C3 5870   4.508   4.213  10.542 -0.7427  0.1387 -0.2201
  393TMC3    C4 5871   4.629   4.388  10.718 -0.3270  0.1612 -0.6430
  393TMC3    C5 5872   4.671   4.374  10.590  0.6102 -0.1822  0.5061
  393TMC3    C6 5873   4.618   4.287  10.504  0.2532 -0.3514  0.0619
  393TMC3     C 5874   4.443   4.324  10.868  0.2795  0.7571 -0.1884
  393TMC3     O 5875   4.319   4.307  10.869  0.0490 -0.2653  0.1180
  393TMC3     H 5876   4.382   4.156  10.710 -0.9479  2.1482 -0.1127
  393TMC3    H1 5877   4.670   4.466  10.781  1.5130 -1.3729  0.0610
  393TMC3    H2 5878   4.664   4.263  10.409  0.4369 -3.5427  0.9607
  393TMC3    C7 5879   0.074   4.427  10.555 -0.1968 -0.0949  0.1246
  393TMC3    C8 5880   4.440   4.146  10.434  0.0276  0.3471 -0.0409
  393TMC3    O1 5881   0.159   4.440  10.641  0.5153  0.8710 -0.1808
  393TMC3    O2 5882   4.495   4.147  10.325 -0.4398 -0.0025  0.8880
  394TMC3    C1 5883   1.350   4.717  10.326  0.1918 -0.0236 -0.3609
  394TMC3    C2 5884   1.273   4.700  10.216 -0.0921 -0.1498 -0.2755
  394TMC3    C3 5885   1.294   0.062  10.116 -0.4813 -0.8462  0.0345
  394TMC3    C4 5886   1.459   0.073  10.337 -0.1497 -0.3881  0.5426
  394TMC3    C5 5887   1.473   0.157  10.227  0.1304 -0.4648  0.4681
  394TMC3    C6 5888   1.400   0.152  10.117  0.3644 -0.1025 -0.5450
  394TMC3     C 5889   1.286   4.675  10.446  0.1168  0.0111 -0.1527
  394TMC3     O 5890   1.183   4.606  10.452  0.4704 -0.2485  0.1246
  394TMC3     H 5891   1.172   4.663  10.233 -0.0750 -2.7906 -5.7384
  394TMC3    H1 5892   1.511   0.088  10.432  1.4325 -0.8777 -0.2383
  394TMC3    H2 5893   1.408   0.222  10.034 -0.6498  2.2434  1.3249
  394TMC3    C7 5894   1.558   0.266  10.244  0.2777 -0.0403 -0.1703
  394TMC3    C8 5895   1.219   0.043   9.991  0.1861 -0.8528  0.5544
  394TMC3    O1 5896   1.516   0.378  10.218  0.4361 -0.0461 -0.1174
  394TMC3    O2 5897   1.259   0.106   9.894 -0.2978  0.0847  0.0223
  395TMC3    C1 5898   0.718   1.602  15.029 -0.2274  0.4279  0.5636
  395TMC3    C2 5899   0.617   1.616  14.935  0.0768  1.2328  0.4633
  395TMC3    C3 5900   0.619   1.716  14.842  0.7596  0.5052  0.1545
  395TMC3    C4 5901   0.833   1.679  15.020  0.2053 -0.2965  0.6786
  395TMC3    C5 5902   0.830   1.785  14.928  0.0904  0.4698  0.0687
  395TMC3    C6 5903   0.720   1.808  14.853 -0.3152  0.3742  0.2973
  395TMC3     C 5904   0.689   1.572  15.165  0.2423 -0.3140  0.8139
  395TMC3     O 5905   0.765   1.607  15.249 -0.3604 -0.1630 -0.4255
  395TMC3     H 5906   0.528   1.555  14.938  2.6342 -2.4279  2.4592
  395TMC3    H1 5907   0.912   1.669  15.093  0.2456  1.5255  0.8794
  395TMC3    H2 5908   0.724   1.888  14.780 -1.7690 -0.1422 -0.3634
  395TMC3    C7 5909   0.939   1.885  14.933 -0.7903  0.2220 -0.5882
  395TMC3    C8 5910   0.502   1.744  14.756  0.1040 -0.0245  0.2996
  395TMC3    O1 5911   1.023   1.868  15.022 -0.1333 -0.1659  0.5389
  395TMC3    O2 5912   0.474   1.862  14.747  0.1541 -0.0513  0.5702
  396MPD2     C 5913   0.718   2.358  16.898  0.5805 -0.0074  0.4213
  396MPD2    C1 5914   0.804   2.439  16.969 -0.3536  0.1448  0.7723
  396MPD2    C2 5915   0.851   2.551  16.906 -0.1185 -0.6742  0.3154
  396MPD2    C3 5916   0.818   2.588  16.778 -0.3875 -0.0231 -0.3216
  396MPD2    C4 5917   0.748   2.496  16.700 -1.0019  0.1098  0.5431
  396MPD2    C5 5918   0.696   2.389  16.765 -0.9207 -0.4987  0.5608
  396MPD2     H 5919   0.914   2.623  16.956  1.8409 -2.3743  0.2928
  396MPD2    H1 5920   0.716   2.520  16.599 -0.9207  0.6679  0.6470
  396MPD2    H2 5921   0.676   2.270  16.945  0.0288 -0.8174 -1.6097
  396MPD2    H3 5922   0.616   2.341  16.710 -0.6979  0.2683 -0.4397
  396MPD2     N 5923   0.872   2.710  16.732  0.3153  0.3231 -0.5997
  396MPD2    H5 5924   0.923   2.772  16.793  0.9971 -0.6556 -0.1677
  396MPD2    N1 5925   0.830   2.410  17.106  0.1253 -0.2997 -0.4785
  396MPD2    H7 5926   0.794   2.321  17.142 -0.3164 -0.2566 -0.8150
  397TMC3    C1 5927   0.869   2.456  17.329 -0.6203  0.0176  0.3775
  397TMC3    C2 5928   0.985   2.401  17.377  0.0826 -0.2100  1.1799
  397TMC3    C3 5929   0.982   2.271  17.417  0.6010  0.3448  0.1036
  397TMC3    C4 5930   0.754   2.389  17.339 -0.0993  0.0723 -0.7592
  397TMC3    C5 5931   0.744   2.274  17.412 -0.6892  0.1353 -0.3408
  397TMC3    C6 5932   0.865   2.204  17.437  0.4539  0.5696  0.0250
  397TMC3     C 5933   0.891   2.494  17.193 -0.5154 -0.1938 -0.3972
  397TMC3     O 5934   0.960   2.598  17.183  0.4337 -0.0525  0.4750
  397TMC3     H 5935   1.068   2.453  17.332  0.1760  0.0738  1.6809
  397TMC3    H1 5936   0.666   2.425  17.286 -0.8601  0.1102  0.5274
  397TMC3    H2 5937   0.867   2.100  17.466  1.4938  0.3856 -0.7408
  397TMC3    C7 5938   0.621   2.196  17.407  0.2844  0.7724 -0.0662
  397TMC3    C8 5939   1.075   2.196  17.343 -0.0207 -0.2172 -0.1397
  397TMC3    O1 5940   0.542   2.221  17.315 -0.1149 -0.1417 -0.2989
  397TMC3    O2 5941   1.023   2.109  17.270  0.7181 -0.4300  0.2384
  398MPD2     C 5942   3.448   3.459   0.332 -0.7311 -0.6131  0.1493
  398MPD2    C1 5943   3.570   3.395   0.314 -0.4605  0.8527 -0.4487
  398MPD2    C2 5944   3.665   3.450   0.234  0.4696  0.3047  0.1057
  398MPD2    C3 5945   3.639   3.567   0.166 -0.0029 -0.3073 -0.5305
  398MPD2    C4 5946   3.515   3.631   0.176  0.4119  0.3386  0.2319
  398MPD2    C5 5947   3.420   3.577   0.264 -0.0788 -0.3492 -0.8426
  398MPD2     H 5948   3.752   3.388   0.215  0.3367 -0.0261  0.5831
  398MPD2    H1 5949   3.497   3.726   0.128 -0.3451  1.0114  1.8424
  398MPD2    H2 5950   3.364   3.417   0.387 -0.1588 -0.6235  1.0128
  398MPD2    H3 5951   3.322   3.624   0.264  0.8005  1.4985 -0.2074
  398MPD2     N 5952   3.743   3.614   0.076 -0.2414  0.0994  0.4550
  398MPD2    H5 5953   3.817   3.546   0.058 -2.0156 -2.0594  1.4043
  398MPD2    N1 5954   3.612   3.285   0.394 -0.2659  0.5115 -0.1448
  398MPD2    H7 5955   3.703   3.249   0.368 -1.3908 -1.2579 -1.6067
  399TMC3    C1 5956   3.621   3.120   0.566 -0.1553 -0.8737  0.0768
  399TMC3    C2 5957   3.746   3.094   0.526 -0.3011  0.4674  0.1644
  399TMC3    C3 5958   3.803   2.982   0.572  0.3557  0.1832  0.2302
  399TMC3    C4 5959   3.548   3.046   0.653 -0.8816 -0.5286  0.3025
  399TMC3    C5 5960   3.612   2.937   0.699 -0.1537 -0.8388  0.2595
  399TMC3    C6 5961   3.736   2.901   0.668  1.1134 -0.8014  0.9145
  399TMC3     C 5962   3.551   3.237   0.506 -0.3688  0.1374  0.6611
  399TMC3     O 5963   3.442   3.265   0.553  0.3434  0.2974 -0.6287
  399TMC3     H 5964   3.804   3.154   0.456  0.7190  1.5243  1.9237
  399TMC3    H1 5965   3.447   3.075   0.678 -0.7924 -1.0047  1.2064
  399TMC3    H2 5966   3.778   2.808   0.704  1.1516 -1.3932 -0.6438
  399TMC3    C7 5967   3.543   2.847   0.792 -0.5861  0.4497  0.5052
  399TMC3    C8 5968   3.914   2.932   0.497  1.0156  0.0522 -0.0599
  399TMC3    O1 5969   3.615   2.786   0.868  0.0425  0.2131  0.3759
  399TMC3    O2 5970   3.943   2.975   0.386  0.3009 -0.2372  0.5730
  400TMC3    C1 5971   2.227   1.969  17.063 -0.2725 -0.2586 -0.1636
  400TMC3    C2 5972   2.121   1.930  16.992 -0.5183  0.3117  0.1021
  400TMC3    C3 5973   2.060   2.032  16.913  0.7976 -0.4803  0.4854
  400TMC3    C4 5974   2.264   2.100  17.072  0.1808 -0.1818 -0.2906
  400TMC3    C5 5975   2.192   2.194  17.017  0.4503 -0.4709  0.1192
  400TMC3    C6 5976   2.086   2.161  16.938 -0.0003 -0.9801 -0.3275
  400TMC3     C 5977   2.308   1.873  17.140  0.7063  0.0262 -0.0093
  400TMC3     O 5978   2.254   1.770  17.176 -0.1387 -0.0929  0.0421
  400TMC3     H 5979   2.103   1.823  16.997 -0.7065  0.3343 -0.0540
  400TMC3    H1 5980   2.349   2.129  17.132 -0.8673 -0.3057  1.2449
  400TMC3    H2 5981   2.037   2.238  16.879 -1.7122 -1.5139  0.3936
  400TMC3    C7 5982   2.253   2.321  16.995 -0.3844  0.3078  0.2361
  400TMC3    C8 5983   1.936   2.008  16.829  0.6129 -0.0193  0.2257
  400TMC3    O1 5984   2.368   2.310  16.949 -0.1069 -0.3813  0.3186
  400TMC3    O2 5985   1.865   2.108  16.806 -0.2517 -0.5308  0.4141
  401MPD2     C 5986   4.577   0.885   0.744  0.0200 -0.4516  0.0092
  401MPD2    C1 5987   4.696   0.831   0.781 -0.3202 -0.2899 -0.2483
  401MPD2    C2 5988   4.723   0.703   0.763  0.0702  0.0259  0.2583
  401MPD2    C3 5989   4.626   0.625   0.695  0.2743  0.5084 -0.5138
  401MPD2    C4 5990   4.508   0.680   0.657 -0.3111 -0.6146  0.3862
  401MPD2    C5 5991   4.489   0.813   0.675 -0.5274  0.5104  0.1895
  401MPD2     H 5992   0.095   0.663   0.791 -0.1679  0.4308  1.6756
  401MPD2    H1 5993   4.426   0.618   0.623 -2.0704  2.5441 -1.1758
  401MPD2    H2 5994   4.558   0.992   0.745  0.9468 -0.2754 -1.3049
  401MPD2    H3 5995   4.397   0.856   0.639 -0.7584 -1.5413 -1.6404
  401MPD2     N 5996   4.651   0.482   0.676  0.1610 -0.0480 -0.0733
  401MPD2    H5 5997   0.015   0.439   0.700  0.8726  0.1131 -2.4631
  401MPD2    N1 5998   0.066   0.901   0.859 -0.8408 -0.4595 -0.1774
  401MPD2    H7 5999   0.144   0.849   0.896  0.1685 -0.2793 -2.0574
  402TMC3    C1 6000   4.640   0.268   0.627  1.2669  0.0362  0.1804
  402TMC3    C2 6001   4.624   0.179   0.730 -0.8735 -0.3262 -0.1576
  402TMC3    C3 6002   0.004   0.099   0.771 -0.1567 -0.0864 -0.5026
  402TMC3    C4 6003   0.037   0.290   0.572  0.7061  0.0940  0.1555
  402TMC3    C5 6004   0.141   0.207   0.602  0.6358 -0.1600 -0.2763
  402TMC3    C6 6005   0.124   0.114   0.708 -0.0999  0.1498 -0.1160
  402TMC3     C 6006   4.561   0.393   0.627  0.0507  0.0943 -0.2529
  402TMC3     O 6007   4.442   0.389   0.644 -0.6189 -0.0925 -0.3880
  402TMC3     H 6008   4.530   0.180   0.783  0.0444 -2.3015  1.4774
  402TMC3    H1 6009   0.043   0.367   0.495  0.4702  0.1881  0.2305
  402TMC3    H2 6010   0.205   0.046   0.733  0.5314 -0.3109 -3.4221
  402TMC3    C7 6011   0.267   0.236   0.541  0.7756  0.6083 -0.3542
  402TMC3    C8 6012   4.717   0.007   0.879  0.1404 -0.4997 -0.5204
  402TMC3    O1 6013   0.266   0.342   0.482  0.0888 -0.2545  0.3146
  402TMC3    O2 6014   0.102   4.690   0.920 -0.2273  0.5798 -0.3464
  403MPD2     C 6015   3.116   4.423  13.897 -0.0136  0.2318  0.0266
  403MPD2    C1 6016   3.110   4.288  13.893 -0.0874 -0.5186 -0.7884
  403MPD2    C2 6017   3.227   4.216  13.923 -0.0597 -1.2243  0.0554
  403MPD2    C3 6018   3.341   4.285  13.970  0.5250 -0.3504  0.3390
  403MPD2    C4 6019   3.341   4.422  13.971 -0.1476  0.2349  0.0245
  403MPD2    C5 6020   3.230   4.490  13.937 -0.1499 -0.5136 -0.4869
  403MPD2     H 6021   3.227   4.108  13.914 -0.1972 -1.0644 -1.9005
  403MPD2    H1 6022   3.426   4.483  13.999  0.3294 -0.3254 -0.2006
  403MPD2    H2 6023   3.034   4.488  13.870  0.3313  1.0167  0.8627
  403MPD2    H3 6024   3.225   4.598  13.939  0.5549 -0.4378 -3.0244
  403MPD2     N 6025   3.464   4.214  13.998 -0.0662 -0.1163  0.1152
  403MPD2    H5 6026   3.473   4.115  13.979 -0.5148  0.0374 -0.9122
  403MPD2    N1 6027   2.988   4.231  13.851 -0.5470  0.4805 -0.2718
  403MPD2    H7 6028   2.913   4.299  13.842  1.2827  2.2845 -1.7143
  404TMC3    C1 6029   2.839   4.053  13.798  0.3819  0.7621  0.7177
  404TMC3    C2 6030   2.831   3.923  13.797  0.4451 -0.5280  0.8345
  404TMC3    C3 6031   2.812   3.864  13.676  0.8427  0.9227 -0.3176
  404TMC3    C4 6032   2.803   4.131  13.688  0.2793 -0.1576 -0.1572
  404TMC3    C5 6033   2.769   4.070  13.568  0.5213  0.6912  0.7801
  404TMC3    C6 6034   2.787   3.930  13.558 -0.2679 -0.1830 -0.6368
  404TMC3     C 6035   2.965   4.096  13.852  0.1425  0.2278 -0.3229
  404TMC3     O 6036   3.047   4.007  13.871  0.1049 -0.0120 -0.8279
  404TMC3     H 6037   2.869   3.853  13.872  1.2592 -1.3642 -0.3495
  404TMC3    H1 6038   2.810   4.240  13.688  3.3825 -0.3598 -0.0299
  404TMC3    H2 6039   2.771   3.865  13.473  1.7000 -1.7132  0.1332
  404TMC3    C7 6040   2.775   4.151  13.447  0.7351  0.2495  0.3295
  404TMC3    C8 6041   2.870   3.730  13.649  0.6492  0.9315 -0.2521
  404TMC3    O1 6042   2.798   4.275  13.452  0.3350  0.0678 -0.0364
  404TMC3    O2 6043   2.934   3.704  13.547  0.2625  0.4383 -0.1286
  405MPD2     C 6044   3.966   3.888  15.102  0.4836 -0.0511  0.4809
  405MPD2    C1 6045   3.846   3.858  15.042  0.6283  0.2948 -0.1631
  405MPD2    C2 6046   3.825   3.881  14.904  0.2382  0.1471  0.1327
  405MPD2    C3 6047   3.928   3.940  14.829 -0.1287  0.3636 -0.2402
  405MPD2    C4 6048   4.047   3.968  14.895 -0.3951 -0.1997 -0.6419
  405MPD2    C5 6049   4.073   3.928  15.024 -0.6013  0.2980  0.0004
  405MPD2     H 6050   3.728   3.864  14.860  0.3638  1.2575 -0.5629
  405MPD2    H1 6051   4.130   4.014  14.843  0.8018 -1.0648  0.5059
  405MPD2    H2 6052   3.982   3.865  15.207 -1.2063 -1.7674  0.3684
  405MPD2    H3 6053   4.175   3.931  15.059  0.2019 -1.8648 -2.1892
  405MPD2     N 6054   3.901   3.975  14.691 -0.3994 -0.1876 -0.0200
  405MPD2    H5 6055   3.809   3.953  14.656 -0.8187  2.8891 -0.8534
  405MPD2    N1 6056   3.731   3.816  15.114 -0.1983  0.2193  0.0492
  405MPD2    H7 6057   3.646   3.822  15.059 -0.3614 -1.8702  0.0720
  406TMC3    C1 6058   3.803   4.326  14.457 -0.0332 -0.0879 -0.0418
  406TMC3    C2 6059   3.678   4.267  14.437 -0.0030 -0.4216 -0.2939
  406TMC3    C3 6060   3.662   4.138  14.456  0.3723  0.5358 -0.3376
  406TMC3    C4 6061   3.905   4.251  14.507  0.3545  0.9486  0.1946
  406TMC3    C5 6062   3.893   4.115  14.512 -0.0603 -0.6555  0.6706
  406TMC3    C6 6063   3.772   4.062  14.493  0.4771  0.1776 -0.1436
  406TMC3     C 6064   3.810   4.470  14.477  0.6951 -0.2262 -0.7241
  406TMC3     O 6065   3.923   4.521  14.460 -0.3408 -0.4243 -0.3154
  406TMC3     H 6066   3.590   4.325  14.410 -0.1856 -0.7570 -0.4071
  406TMC3    H1 6067   3.994   4.301  14.545  0.2235  0.5424  1.0450
  406TMC3    H2 6068   3.752   3.956  14.508  0.7691  0.0391 -0.7542
  406TMC3    C7 6069   3.976   4.055  14.612 -0.2912 -0.0711  0.1649
  406TMC3    C8 6070   3.524   4.084  14.448  0.2653 -1.1858  0.0115
  406TMC3    O1 6071   4.086   4.100  14.629  0.2916  0.0582 -0.7346
  406TMC3    O2 6072   3.440   4.143  14.386 -0.2480 -0.0098 -0.2239
  407MPD2     C 6073   1.045   1.423  10.108  0.2904 -0.0378  0.1254
  407MPD2    C1 6074   1.168   1.458  10.069 -0.1181 -0.0088 -0.6015
  407MPD2    C2 6075   1.244   1.548  10.143 -0.5061  0.8635 -0.3980
  407MPD2    C3 6076   1.187   1.611  10.255  0.5508  0.5934 -0.3837
  407MPD2    C4 6077   1.065   1.563  10.296 -0.4640 -0.6409  0.0507
  407MPD2    C5 6078   0.998   1.470  10.229  0.4309 -0.1709 -0.1409
  407MPD2     H 6079   1.336   1.585  10.100 -2.1166  2.2142 -2.7092
  407MPD2    H1 6080   1.012   1.604  10.381  1.0189  2.5754 -0.5591
  407MPD2    H2 6081   0.980   1.357  10.052 -1.3289  1.6129  0.0840
  407MPD2    H3 6082   0.905   1.432  10.270  1.2645 -1.9259  0.1346
  407MPD2     N 6083   1.246   1.704  10.343 -0.1044 -0.4474 -0.1383
  407MPD2    H5 6084   1.187   1.720  10.424  0.9983  1.0089  0.3828
  407MPD2    N1 6085   1.228   1.415   9.944 -0.1588 -0.2851  0.1430
  407MPD2    H7 6086   1.320   1.449   9.918  0.1668 -1.4241 -0.2311
  408TMC3    C1 6087   1.266   1.299   9.744  0.1126  0.5444 -0.1517
  408TMC3    C2 6088   1.242   1.185   9.678 -0.1088  0.4994 -0.0984
  408TMC3    C3 6089   1.313   1.174   9.564  0.2972 -0.2596  0.7271
  408TMC3    C4 6090   1.347   1.399   9.688  0.6101 -0.4092 -0.3143
  408TMC3    C5 6091   1.422   1.384   9.573  0.4827  0.0275  0.3457
  408TMC3    C6 6092   1.405   1.266   9.510 -0.0768  0.4109  0.4528
  408TMC3     C 6093   1.179   1.324   9.860  0.0059 -0.2345 -0.0538
  408TMC3     O 6094   1.083   1.245   9.864  0.5774  0.0843 -0.4648
  408TMC3     H 6095   1.174   1.110   9.718  0.0251  0.2812 -0.2783
  408TMC3    H1 6096   1.366   1.483   9.754  1.5053  0.6023 -1.8556
  408TMC3    H2 6097   1.466   1.243   9.424 -2.9697 -1.1572 -1.1837
  408TMC3    C7 6098   1.554   1.423   9.583  0.2316 -0.2118 -0.0181
  408TMC3    C8 6099   1.353   1.038   9.545  0.1144  0.0653  0.7929
  408TMC3    O1 6100   1.638   1.345   9.547 -0.3618  0.4185  0.1925
  408TMC3    O2 6101   1.272   0.946   9.558  0.4447  0.4583 -0.4307
  409MPD2     C 6102   0.792   1.647  17.080 -0.2633  0.3882 -0.5348
  409MPD2    C1 6103   0.906   1.611  17.138 -0.3058  0.0551  0.1752
  409MPD2    C2 6104   1.019   1.693  17.116  0.7036  0.9376  0.3257
  409MPD2    C3 6105   1.011   1.801  17.024  0.1024  0.1409  0.0889
  409MPD2    C4 6106   0.895   1.812  16.953  0.0587  0.3496  0.5624
  409MPD2    C5 6107   0.787   1.737  16.977  0.3097  0.5083 -0.1144
  409MPD2     H 6108   1.114   1.664  17.160  1.0068  1.2569 -0.1168
  409MPD2    H1 6109   0.879   1.888  16.878 -0.5550  2.8700  3.2737
  409MPD2    H2 6110   0.696   1.599  17.095 -0.1455  1.3117  3.3339
  409MPD2    H3 6111   0.695   1.759  16.925  0.2644  1.0151  0.1912
  409MPD2     N 6112   1.118   1.889  16.995  0.3000  0.5617 -0.4149
  409MPD2    H5 6113   1.106   1.955  16.918 -0.0686  1.9527  0.8303
  409MPD2    N1 6114   0.927   1.507  17.233 -0.3519 -0.3457  0.2645
  409MPD2    H7 6115   1.018   1.499  17.279  0.3834 -1.6782 -1.4159
  410TMC3    C1 6116   1.331   1.968  16.989  0.3042  0.3413 -0.1519
  410TMC3    C2 6117   1.448   2.006  17.052  0.3777 -0.7887 -0.4047
  410TMC3    C3 6118   1.541   2.088  16.992 -0.2768 -0.3647  0.4678
  410TMC3    C4 6119   1.322   1.985  16.853  0.6656  0.1821  0.4795
  410TMC3    C5 6120   1.420   2.060  16.788 -0.1339  0.3186 -0.2855
  410TMC3    C6 6121   1.534   2.108  16.852 -0.2513  0.0164 -0.5156
  410TMC3     C 6122   1.236   1.884  17.059 -0.9223 -0.0245 -0.2203
  410TMC3     O 6123   1.282   1.813  17.150  0.2202  0.0606  0.3775
  410TMC3     H 6124   1.466   1.962  17.150 -0.2875 -1.9130 -0.7902
  410TMC3    H1 6125   1.232   1.958  16.798  0.1195  1.4219  0.7669
  410TMC3    H2 6126   1.619   2.145  16.797 -0.4611  1.6383  0.2605
  410TMC3    C7 6127   1.379   2.102  16.656 -0.5238  0.2156  0.6809
  410TMC3    C8 6128   1.670   2.099  17.057 -0.0685 -0.4467 -0.3969
  410TMC3    O1 6129   1.282   2.052  16.608  0.1410  0.5271  0.1026
  410TMC3    O2 6130   1.716   2.211  17.052  0.0434  0.0933  0.3186
  411MPD2     C 6131   1.228   2.247  14.393 -0.3572  0.1980 -0.2474
  411MPD2    C1 6132   1.135   2.328  14.337  0.1183 -0.2151 -0.0178
  411MPD2    C2 6133   1.040   2.260  14.259 -0.4111  0.2324  0.0582
  411MPD2    C3 6134   1.031   2.125  14.246 -0.0645 -0.3069 -0.4827
  411MPD2    C4 6135   1.126   2.048  14.316 -0.3276  0.2847 -0.5389
  411MPD2    C5 6136   1.225   2.112  14.386 -0.3413  0.1176 -0.4755
  411MPD2     H 6137   0.970   2.324  14.207 -1.1766 -0.7041 -0.0686
  411MPD2    H1 6138   1.142   1.942  14.299  1.3825  0.3311  0.8404
  411MPD2    H2 6139   1.301   2.282  14.465  0.0537  0.8049 -0.9511
  411MPD2    H3 6140   1.304   2.054  14.433 -0.1152  0.7091 -0.1207
  411MPD2     N 6141   0.929   2.059  14.173 -0.5593 -0.4018 -0.1154
  411MPD2    H5 6142   0.936   1.958  14.168 -2.8057 -0.4264 -2.8419
  411MPD2    N1 6143   1.131   2.468  14.378 -0.3020  0.4912 -0.4037
  411MPD2    H7 6144   1.190   2.491  14.458 -0.0015  0.0362 -0.4881
  412TMC3    C1 6145   0.787   2.010  14.002  0.1547 -0.3319  0.3282
  412TMC3    C2 6146   0.857   1.894  13.976  0.2345 -0.2878 -0.6369
  412TMC3    C3 6147   0.782   1.802  13.909 -0.1109  1.0862 -0.3332
  412TMC3    C4 6148   0.656   2.027  13.961  0.1506  0.7065  0.0285
  412TMC3    C5 6149   0.574   1.926  13.912  0.4237  0.1421 -0.6606
  412TMC3    C6 6150   0.646   1.812  13.893  0.9457  0.2564  0.9135
  412TMC3     C 6151   0.837   2.117  14.089 -0.2564 -0.0367 -0.3959
  412TMC3     O 6152   0.799   2.233  14.071  0.6809  0.2463  0.3523
  412TMC3     H 6153   0.964   1.886  13.993  0.1543 -1.8850 -0.9081
  412TMC3    H1 6154   0.607   2.124  13.969 -3.7619 -1.0284 -2.9061
  412TMC3    H2 6155   0.600   1.723  13.849  0.9785  1.3703 -1.3442
  412TMC3    C7 6156   0.522   1.963  13.781  0.1415  0.6999  0.5992
  412TMC3    C8 6157   0.851   1.714  13.816 -0.3580 -0.2864 -0.1827
  412TMC3    O1 6158   0.557   1.889  13.690  0.3297  0.0582 -0.5142
  412TMC3    O2 6159   0.940   1.644  13.861  0.4139 -0.3481  0.4299
  413MPD2     C 6160   3.086   0.936  15.431  0.4230 -0.1980 -0.6530
  413MPD2    C1 6161   2.997   0.843  15.378 -0.2442 -0.0935 -0.7154
  413MPD2    C2 6162   3.027   0.709  15.390 -0.5609 -0.7429  0.6316
  413MPD2    C3 6163   3.143   0.670  15.456  0.1068 -0.3419  0.1506
  413MPD2    C4 6164   3.225   0.763  15.518 -0.1633  0.3862  0.0991
  413MPD2    C5 6165   3.194   0.898  15.499  1.3053  0.0880 -0.3319
  413MPD2     H 6166   2.959   0.632  15.356 -0.9273  0.5475 -1.5495
  413MPD2    H1 6167   3.320   0.741  15.564  0.1109  0.3794 -0.4675
  413MPD2    H2 6168   3.076   1.044  15.440 -0.2967 -0.4129  1.3315
  413MPD2    H3 6169   3.265   0.973  15.534 -0.7534  2.5116 -1.3918
  413MPD2     N 6170   3.181   0.536  15.456 -0.0977 -0.6906 -0.2428
  413MPD2    H5 6171   3.126   0.475  15.396 -2.4675  0.6635  0.5618
  413MPD2    N1 6172   2.871   0.899  15.333  0.1294 -0.0726 -0.4946
  413MPD2    H7 6173   2.866   1.001  15.335 -0.7069 -0.0785 -1.7066
  414TMC3    C1 6174   3.302   0.339  15.464  0.9962 -0.0771  0.4298
  414TMC3    C2 6175   3.388   0.254  15.530 -0.1799  0.7647 -0.1245
  414TMC3    C3 6176   3.398   0.130  15.474  0.2070 -0.2375 -0.0328
  414TMC3    C4 6177   3.255   0.310  15.339 -0.6836  0.0394  0.1971
  414TMC3    C5 6178   3.277   0.189  15.281 -0.5751 -0.6663  0.4276
  414TMC3    C6 6179   3.339   0.091  15.357  0.0897 -0.2569 -0.0054
  414TMC3     C 6180   3.288   0.478  15.516 -0.1789 -0.4882 -0.2562
  414TMC3     O 6181   3.363   0.511  15.607 -0.6941  0.0742 -0.0400
  414TMC3     H 6182   3.425   0.284  15.627 -1.3075 -0.6202  0.7253
  414TMC3    H1 6183   3.188   0.375  15.284  0.3540  0.8687 -0.0887
  414TMC3    H2 6184   3.343   4.713  15.324  1.0586 -0.5516  1.0556
  414TMC3    C7 6185   3.216   0.164  15.149 -0.4226 -0.2551 -0.5097
  414TMC3    C8 6186   3.492   0.032  15.519  0.4784  0.7536 -0.1348
  414TMC3    O1 6187   3.125   0.240  15.119  1.2671  0.3693  0.6789
  414TMC3    O2 6188   3.477   4.645  15.468 -0.5243  0.1466 -0.1076
  415TMC3    C1 6189   3.105   3.416   9.853 -0.0072  0.4821  0.7074
  415TMC3    C2 6190   3.160   3.481   9.747 -0.2969  0.0259  0.1391
  415TMC3    C3 6191   3.064   3.493   9.646  0.3117  0.0701  0.3257
  415TMC3    C4 6192   2.988   3.343   9.862 -0.1484 -0.3664 -0.0846
  415TMC3    C5 6193   2.902   3.360   9.757 -0.0361 -0.7507  0.1432
  415TMC3    C6 6194   2.936   3.446   9.654 -0.6281 -0.0066  0.4285
  415TMC3     C 6195   3.176   3.432   9.984 -0.1239 -0.3415 -0.1794
  415TMC3     O 6196   3.106   3.394  10.076 -0.1769  0.2236 -0.2107
  415TMC3     H 6197   3.255   3.531   9.737  0.4393 -1.0850  1.7052
  415TMC3    H1 6198   2.968   3.277   9.946  0.0909 -0.8987 -0.4420
  415TMC3    H2 6199   2.865   3.453   9.572  0.6011 -0.9773 -0.7171
  415TMC3    C7 6200   2.806   3.251   9.724 -0.9287 -0.3315 -0.7849
  415TMC3    C8 6201   3.099   3.567   9.524 -0.3558 -0.0647 -0.2456
  415TMC3    O1 6202   2.758   3.259   9.611  0.1316 -0.0592  0.3724
  415TMC3    O2 6203   3.008   3.633   9.473 -0.1311 -0.7263  0.7767
  416MPD2     C 6204   0.519   2.601  11.327  0.1895  0.2819 -0.1065
  416MPD2    C1 6205   0.399   2.630  11.268 -0.3832 -0.9623  0.5021
  416MPD2    C2 6206   0.317   2.526  11.230  0.5814  0.4890 -0.2221
  416MPD2    C3 6207   0.348   2.392  11.256 -0.6197  0.2712 -0.1204
  416MPD2    C4 6208   0.462   2.361  11.324  0.0190 -0.1073  0.0998
  416MPD2    C5 6209   0.547   2.464  11.357  0.0774 -0.7789  0.5834
  416MPD2     H 6210   0.217   2.545  11.191  2.3268  0.8284 -4.5026
  416MPD2    H1 6211   0.499   2.263  11.353  3.7780  1.3298  0.1115
  416MPD2    H2 6212   0.592   2.677  11.352  0.6013 -0.2117  0.1791
  416MPD2    H3 6213   0.643   2.440  11.401  0.9396 -0.9651 -1.4033
  416MPD2     N 6214   0.264   2.284  11.220  0.6216 -0.3267  0.1835
  416MPD2    H5 6215   0.285   2.198  11.270  0.4255 -0.1206  0.6236
  416MPD2    N1 6216   0.365   2.768  11.248  0.3834  0.2792  0.2935
  416MPD2    H7 6217   0.435   2.828  11.289 -0.6155  0.5706  1.5937
  417TMC3    C1 6218   0.225   2.959  11.198 -0.2791  0.0079 -0.1291
  417TMC3    C2 6219   0.242   3.022  11.315  0.1221  0.1020 -0.4651
  417TMC3    C3 6220   0.165   3.134  11.346 -0.5667 -0.3395  0.5340
  417TMC3    C4 6221   0.132   3.001  11.105 -0.4970 -0.3200 -0.7994
  417TMC3    C5 6222   0.047   3.108  11.144 -0.2648  0.2305 -0.1358
  417TMC3    C6 6223   0.067   3.176  11.259  0.3071 -0.0027  0.4106
  417TMC3     C 6224   0.249   2.816  11.181 -0.1875  0.5350 -0.1401
  417TMC3     O 6225   0.174   2.760  11.103 -0.1925 -0.5722  0.0723
  417TMC3     H 6226   0.310   2.981  11.389 -1.3817 -2.4963 -0.5368
  417TMC3    H1 6227   0.128   2.962  11.004  1.8775 -0.8051 -0.6925
  417TMC3    H2 6228   0.011   3.264  11.290 -0.5712  0.1803 -1.6822
  417TMC3    C7 6229   4.656   3.131  11.067  0.7190  0.4181  0.5558
  417TMC3    C8 6230   0.141   3.166  11.485  0.2531 -0.0693  0.3972
  417TMC3    O1 6231   4.612   3.247  11.076  0.6170 -0.1159 -0.1267
  417TMC3    O2 6232   0.027   3.200  11.510 -0.2760 -0.2123 -0.0178
  418TMC3    C1 6233   4.035   3.661  17.513 -0.6885  0.0300  0.4162
  418TMC3    C2 6234   3.906   3.655  17.559 -0.6993  0.0475 -0.2297
  418TMC3    C3 6235   3.855   3.756  17.626 -0.4432  0.0472  0.6902
  418TMC3    C4 6236   4.119   3.759  17.563  0.0900  0.5710  0.2144
  418TMC3    C5 6237   4.064   3.861  17.633  0.1417 -0.7420 -0.3180
  418TMC3    C6 6238   3.930   3.871  17.656  0.3074 -0.6366  0.2608
  418TMC3     C 6239   4.104   3.532  17.505  0.6911 -0.1197  0.5749
  418TMC3     O 6240   4.048   3.430  17.543  0.0922 -0.3179 -0.3791
  418TMC3     H 6241   3.838   3.572  17.545 -1.6210  1.1805 -2.4500
  418TMC3    H1 6242   4.226   3.752  17.550 -0.0941 -2.1310  0.2950
  418TMC3    H2 6243   3.880   3.948   0.011  1.3566  0.4149 -0.2301
  418TMC3    C7 6244   4.129   3.866   0.056  0.2450 -0.4537 -0.5487
  418TMC3    C8 6245   3.742   3.740   0.015  0.6599  0.3225  0.4876
  418TMC3    O1 6246   4.196   3.768   0.088  0.1715 -0.1050 -0.4451
  418TMC3    O2 6247   3.667   3.836   0.023 -0.0734  0.3950 -0.5489
  419MPD2     C 6248   2.179   2.701  12.062 -0.4366 -0.3493 -0.1141
  419MPD2    C1 6249   2.126   2.825  12.070 -0.0292 -0.5643 -0.2791
  419MPD2    C2 6250   2.072   2.879  12.177  0.5271  1.3215  0.5651
  419MPD2    C3 6251   2.095   2.816  12.305 -0.6517  0.0254  0.4854
  419MPD2    C4 6252   2.148   2.688  12.299  0.5456 -0.0651 -0.2671
  419MPD2    C5 6253   2.177   2.630  12.179  0.5253  0.2446  0.1097
  419MPD2     H 6254   2.029   2.979  12.175  1.8959  1.9117  0.5457
  419MPD2    H1 6255   2.161   2.623  12.385  0.0554 -2.1408 -1.7751
  419MPD2    H2 6256   2.230   2.658  11.977 -1.4111  0.5274 -1.1448
  419MPD2    H3 6257   2.224   2.533  12.166  0.6883  0.3483 -0.0802
  419MPD2     N 6258   2.047   2.875  12.421  0.5561 -0.2594 -0.0828
  419MPD2    H5 6259   2.012   2.969  12.405  0.9676 -0.1745 -0.4985
  419MPD2    N1 6260   2.132   2.916  11.965  0.0696 -0.3189 -0.2058
  419MPD2    H7 6261   2.090   3.007  11.984  0.4852  0.1340 -1.4541
  420TMC3    C1 6262   2.011   2.916  12.652 -0.3367 -0.5243 -0.2575
  420TMC3    C2 6263   1.891   2.976  12.633  0.5976 -0.1676 -0.3776
  420TMC3    C3 6264   1.837   3.049  12.737 -0.5627  0.4467  0.5581
  420TMC3    C4 6265   2.064   2.907  12.774 -0.4164  0.1052  0.9828
  420TMC3    C5 6266   2.009   2.973  12.879 -0.0966  0.3854  0.2295
  420TMC3    C6 6267   1.892   3.044  12.866  0.2757 -0.4275  0.0974
  420TMC3     C 6268   2.063   2.828  12.550  0.6731 -0.4135  0.2535
  420TMC3     O 6269   2.130   2.729  12.580 -0.3506 -0.1716  0.0194
  420TMC3     H 6270   1.844   2.959  12.537 -0.7037 -0.1367  0.2580
  420TMC3    H1 6271   2.153   2.847  12.790 -0.7211 -1.0564 -1.7862
  420TMC3    H2 6272   1.845   3.095  12.950  3.2725 -0.0873  1.5781
  420TMC3    C7 6273   2.064   2.947  13.017  0.6127 -0.6697 -0.3025
  420TMC3    C8 6274   1.700   3.083  12.713  0.3649 -0.3236  0.1363
  420TMC3    O1 6275   1.979   2.942  13.108  0.0202 -0.1861  0.4225
  420TMC3    O2 6276   1.661   3.072  12.600  0.2332 -0.8558  0.3488
  421TMC3    C1 6277   3.676   4.160  14.067 -0.4240  0.2496  0.3729
  421TMC3    C2 6278   3.797   4.199  14.124  0.0683 -0.5754  0.4938
  421TMC3    C3 6279   3.906   4.122  14.088  0.0297  0.0111  0.4396
  421TMC3    C4 6280   3.668   4.057  13.974  0.0548  0.4594  0.2318
  421TMC3    C5 6281   3.779   3.986  13.941 -0.0109 -0.3251 -0.5905
  421TMC3    C6 6282   3.898   4.019  14.006 -0.6191  0.1573  0.1680
  421TMC3     C 6283   3.576   4.266  14.059  0.0577 -0.5454  0.1446
  421TMC3     O 6284   3.588   4.371  14.120 -0.3344 -0.4927 -0.8962
  421TMC3     H 6285   3.808   4.287  14.186 -3.1090  0.9329 -1.1151
  421TMC3    H1 6286   3.575   4.021  13.931  0.7798 -0.3131 -0.6763
  421TMC3    H2 6287   3.993   3.972  13.981  0.3906  2.4417 -0.2647
  421TMC3    C7 6288   3.752   3.844  13.923  0.3394 -0.0124  0.1282
  421TMC3    C8 6289   4.033   4.133  14.166  0.4002  0.7869  0.2265
  421TMC3    O1 6290   3.643   3.810  13.882 -0.1749 -0.1388 -0.3091
  421TMC3    O2 6291   4.096   4.026  14.180  0.1861  0.2825 -0.1960
  422TMC3    C1 6292   1.480   0.656  12.770  0.8238 -0.2481  0.1095
  422TMC3    C2 6293   1.442   0.785  12.764 -0.1575  0.2845 -0.1381
  422TMC3    C3 6294   1.310   0.814  12.757 -0.2213 -0.2164 -0.4717
  422TMC3    C4 6295   1.391   0.553  12.777  0.3703  0.5169  0.1039
  422TMC3    C5 6296   1.258   0.584  12.781 -0.1114  0.5244  0.1176
  422TMC3    C6 6297   1.216   0.714  12.758  0.2916  0.5733 -0.4035
  422TMC3     C 6298   1.609   0.628  12.707 -0.4030 -0.2504 -0.1757
  422TMC3     O 6299   1.688   0.723  12.702 -0.1570 -0.4324  0.2774
  422TMC3     H 6300   1.518   0.862  12.769 -0.1723  0.2335  0.9325
  422TMC3    H1 6301   1.420   0.449  12.765 -0.1419  0.6168 -2.0018
  422TMC3    H2 6302   1.112   0.746  12.760  0.5242  1.1718  2.6244
  422TMC3    C7 6303   1.168   0.495  12.839 -0.3281  0.5018 -0.0500
  422TMC3    C8 6304   1.284   0.948  12.707  0.3294 -0.2995  0.3987
  422TMC3    O1 6305   1.223   0.389  12.876  0.0036 -0.1872  0.1411
  422TMC3    O2 6306   1.380   1.018  12.667  0.6701 -0.0204 -0.1983
  423MPD2     C 6307   2.861   1.618   0.892  0.0959  0.0795 -0.5986
  423MPD2    C1 6308   2.764   1.527   0.910  0.0397  0.1527  0.2589
  423MPD2    C2 6309   2.747   1.425   0.818  0.5625 -0.1842  0.0087
  423MPD2    C3 6310   2.848   1.399   0.726  0.1550 -0.5840  0.2340
  423MPD2    C4 6311   2.956   1.484   0.724  0.4006  0.4493 -0.2579
  423MPD2    C5 6312   2.957   1.597   0.799 -0.0648 -0.2200 -0.6227
  423MPD2     H 6313   2.662   1.360   0.838  0.9767 -0.6333  0.3064
  423MPD2    H1 6314   3.043   1.469   0.661  0.4678 -0.6225  0.0937
  423MPD2    H2 6315   2.865   1.703   0.960  1.4125  0.1535 -0.7713
  423MPD2    H3 6316   3.038   1.668   0.782 -0.1892 -0.1938 -1.0980
  423MPD2     N 6317   2.854   1.294   0.634  1.0505  0.6540  0.2395
  423MPD2    H5 6318   2.941   1.275   0.584  0.0800 -0.7305 -0.9224
  423MPD2    N1 6319   2.669   1.526   1.018 -0.2788  0.1071  0.9603
  423MPD2    H7 6320   2.600   1.452   1.014  0.6357 -0.7334  0.7098
  424TMC3    C1 6321   2.555   1.598   1.212  0.5446  0.1495  0.0716
  424TMC3    C2 6322   2.515   1.467   1.240  0.1161  0.5349  0.3957
  424TMC3    C3 6323   2.424   1.454   1.343  0.2317 -0.6246 -0.1323
  424TMC3    C4 6324   2.495   1.707   1.271 -0.2582  0.0553  0.6477
  424TMC3    C5 6325   2.402   1.684   1.365 -0.0943  0.4636 -0.1986
  424TMC3    C6 6326   2.355   1.558   1.404  0.3387  0.9368 -0.7641
  424TMC3     C 6327   2.662   1.625   1.122  0.1587  0.5516 -0.5201
  424TMC3     O 6328   2.732   1.724   1.135  0.1202  0.7307 -0.0884
  424TMC3     H 6329   2.557   1.381   1.188  1.6947  0.5696  1.5951
  424TMC3    H1 6330   2.527   1.803   1.232  2.1367 -0.6703  0.8305
  424TMC3    H2 6331   2.293   1.535   1.490  2.7188 -1.0823  0.4129
  424TMC3    C7 6332   2.323   1.798   1.404 -0.3361  0.3160  0.0952
  424TMC3    C8 6333   2.410   1.321   1.398  0.2347  0.3413 -0.2645
  424TMC3    O1 6334   2.342   1.902   1.345  0.0262  0.0410  0.5628
  424TMC3    O2 6335   2.296   1.288   1.434 -0.4019  0.8377 -0.5335
  425MPD2     C 6336   1.882   0.642  17.546  0.7182 -0.2118 -0.4296
  425MPD2    C1 6337   1.825   0.520  17.534 -0.3565 -0.1649  0.3891
  425MPD2    C2 6338   1.687   0.505  17.558 -0.5355  0.5899 -1.0370
  425MPD2    C3 6339   1.609   0.606  17.604  0.1315  0.2248 -1.4306
  425MPD2    C4 6340   1.665   0.734  17.609 -0.5514 -0.2096 -0.1229
  425MPD2    C5 6341   1.803   0.744  17.586  0.1889  0.2027 -0.2320
  425MPD2     H 6342   1.645   0.408  17.533 -1.2958  0.7398 -0.3440
  425MPD2    H1 6343   1.613   0.813  17.662 -0.9075 -0.7544  0.3346
  425MPD2    H2 6344   1.986   0.671  17.528  2.1202 -3.0342  3.2833
  425MPD2    H3 6345   1.849   0.841  17.599 -1.5633  0.7914  1.5914
  425MPD2     N 6346   1.471   0.584  17.620 -0.1835  0.1154  0.2414
  425MPD2    H5 6347   1.440   0.488  17.609  2.5022 -0.7208  0.0704
  425MPD2    N1 6348   1.905   0.406  17.497 -0.0664 -0.3977  0.6662
  425MPD2    H7 6349   1.860   0.325  17.456  0.6812 -0.2333 -0.4657
  426TMC3    C1 6350   2.079   0.248  17.515  0.0750  1.2259  0.4686
  426TMC3    C2 6351   2.047   0.212  17.387  0.2628 -0.4914  0.0674
  426TMC3    C3 6352   2.053   0.077  17.361 -0.5436 -0.2136 -0.5651
  426TMC3    C4 6353   2.082   0.155  17.617  0.1715 -0.2737 -0.2627
  426TMC3    C5 6354   2.083   0.024  17.587  0.1710  0.5130  0.5881
  426TMC3    C6 6355   2.087   4.710  17.455  0.0307  0.1913  0.2549
  426TMC3     C 6356   2.029   0.383  17.550 -0.3262 -0.5243 -0.0060
  426TMC3     O 6357   2.080   0.443  17.640 -0.4939 -0.7684  0.6330
  426TMC3     H 6358   2.044   0.289  17.311  2.7341  0.6636  1.1600
  426TMC3    H1 6359   2.101   0.195   0.014 -2.2802 -0.4236  0.2486
  426TMC3    H2 6360   2.091   4.603  17.436  0.7538  0.3012 -0.2538
  426TMC3    C7 6361   2.071   4.641  17.686  0.2204  0.0076  0.1962
  426TMC3    C8 6362   2.070   0.040  17.226  0.3498  1.0035 -0.0277
  426TMC3    O1 6363   2.105   4.526  17.648  0.0353 -0.0886 -0.4829
  426TMC3    O2 6364   2.115   4.654  17.206 -0.0132 -0.8300  0.4612
  427MPD2     C 6365   0.367   2.441  14.814 -0.1744  0.0380  0.8380
  427MPD2    C1 6366   0.368   2.469  14.950  0.7288  0.1211 -0.6536
  427MPD2    C2 6367   0.250   2.488  15.018 -0.0772  0.7360 -0.0718
  427MPD2    C3 6368   0.129   2.457  14.955 -0.2968  0.2500 -0.3737
  427MPD2    C4 6369   0.125   2.414  14.820 -0.0927 -0.1098  0.1920
  427MPD2    C5 6370   0.248   2.421  14.751  0.4085  0.0622 -0.5935
  427MPD2     H 6371   0.261   2.503  15.125  1.5619  0.2332 -0.1605
  427MPD2    H1 6372   0.033   2.384  14.770  0.3795  0.4249 -0.9845
  427MPD2    H2 6373   0.455   2.424  14.753 -0.3780  0.5285  0.3994
  427MPD2    H3 6374   0.241   2.388  14.647  0.6061 -2.2483  0.1273
  427MPD2     N 6375   0.007   2.469  15.027 -0.3948 -0.1472 -0.1293
  427MPD2    H5 6376   4.650   2.444  14.974 -0.8244 -1.6395  1.2374
  427MPD2    N1 6377   0.490   2.459  15.023 -0.0773 -0.9464 -0.3220
  427MPD2    H7 6378   0.488   2.474  15.124 -3.8672 -2.5695 -0.1423
  428TMC3    C1 6379   0.698   2.393  15.074 -0.4356 -0.2504  0.5727
  428TMC3    C2 6380   0.653   2.353  15.197  0.2439  1.2098 -0.4792
  428TMC3    C3 6381   0.746   2.297  15.284  0.0456  0.3945 -0.8922
  428TMC3    C4 6382   0.828   2.364  15.037 -0.2810  0.6611  0.6518
  428TMC3    C5 6383   0.921   2.316  15.132  0.1938  0.1915  0.6766
  428TMC3    C6 6384   0.875   2.282  15.253  0.1372  0.3710  0.4075
  428TMC3     C 6385   0.614   2.433  14.964  0.6101  0.5081 -0.0945
  428TMC3     O 6386   0.655   2.415  14.847 -0.5195 -0.1835  0.0080
  428TMC3     H 6387   0.550   2.352  15.228  0.1199 -0.8844 -0.8937
  428TMC3    H1 6388   0.864   2.391  14.939  0.4099 -0.8501  0.4989
  428TMC3    H2 6389   0.933   2.227  15.325  2.1142  1.9305  0.0006
  428TMC3    C7 6390   1.062   2.352  15.140 -0.0964  0.3709 -0.1607
  428TMC3    C8 6391   0.696   2.246  15.404 -0.0949  0.0391  0.7450
  428TMC3    O1 6392   1.129   2.292  15.228  0.5861 -0.3328 -0.3314
  428TMC3    O2 6393   0.726   2.131  15.432  0.1883 -0.2289 -0.3841
  429MPD2     C 6394   1.313   2.606  17.485 -0.1332 -0.3055 -0.0271
  429MPD2    C1 6395   1.430   2.591  17.558 -0.3430  0.1950 -0.2152
  429MPD2    C2 6396   1.521   2.692  17.551 -0.2891  0.4728  0.5761
  429MPD2    C3 6397   1.501   2.804  17.478  0.1225  0.3458 -0.4696
  429MPD2    C4 6398   1.381   2.823  17.407  0.3166 -0.5478  0.5097
  429MPD2    C5 6399   1.290   2.714  17.407 -0.1772  0.2781  0.3859
  429MPD2     H 6400   1.607   2.680  17.616  0.4468  2.0061 -0.1172
  429MPD2    H1 6401   1.360   2.907  17.343  0.7318 -1.4314 -0.7913
  429MPD2    H2 6402   1.226   2.541  17.491 -0.8083  0.3254 -2.9815
  429MPD2    H3 6403   1.199   2.722  17.348 -2.2461 -2.3006  3.2337
  429MPD2     N 6404   1.600   2.911  17.477 -0.4247 -0.1783  0.0298
  429MPD2    H5 6405   1.686   2.897  17.530 -0.7788 -0.2342  0.5952
  429MPD2    N1 6406   1.450   2.476  17.643 -0.1025 -0.1085  0.2391
  429MPD2    H7 6407   1.540   2.471  17.689  0.0655 -2.8455 -0.4152
  430TMC3    C1 6408   1.744   3.075  17.393  0.1556 -0.3417  0.4503
  430TMC3    C2 6409   1.748   3.182  17.304  0.1008 -0.1203 -0.1132
  430TMC3    C3 6410   1.838   3.177  17.195 -0.3558 -0.1022  0.3492
  430TMC3    C4 6411   1.836   2.978  17.380  0.2458 -0.3102 -0.7461
  430TMC3    C5 6412   1.927   2.979  17.276  0.3173 -0.2310  0.3933
  430TMC3    C6 6413   1.925   3.073  17.180 -0.4718  0.1230 -0.3777
  430TMC3     C 6414   1.604   3.022  17.405 -1.0661 -0.4860  0.2232
  430TMC3     O 6415   1.518   3.063  17.326  0.6427 -0.5007 -0.3109
  430TMC3     H 6416   1.678   3.265  17.302 -0.9306 -1.0199 -1.8127
  430TMC3    H1 6417   1.849   2.899  17.453 -2.1421 -2.4604 -2.6550
  430TMC3    H2 6418   1.967   3.051  17.083  2.2691  0.7978  0.6347
  430TMC3    C7 6419   2.000   2.861  17.254 -0.0330  0.4192 -0.1111
  430TMC3    C8 6420   1.776   3.202  17.070  0.2769 -0.6944 -0.1679
  430TMC3    O1 6421   1.955   2.758  17.304 -0.0608 -0.2094 -0.0165
  430TMC3    O2 6422   1.852   3.220  16.977 -0.6402 -0.1259 -0.0559
  431MPD2     C 6423   2.462   3.211  12.468 -0.2290 -0.1599 -0.0118
  431MPD2    C1 6424   2.473   3.321  12.383  0.6087  0.5859 -0.3180
  431MPD2    C2 6425   2.460   3.302  12.249  0.5145 -0.1229 -0.2506
  431MPD2    C3 6426   2.411   3.182  12.197 -0.2520  0.1041  0.3792
  431MPD2    C4 6427   2.381   3.077  12.283  0.7400  0.2152 -0.1628
  431MPD2    C5 6428   2.407   3.093  12.416 -0.4447  0.4913 -0.3744
  431MPD2     H 6429   2.479   3.387  12.185 -1.9422  1.8358  1.5937
  431MPD2    H1 6430   2.334   2.987  12.244 -1.5157  0.7902  1.2063
  431MPD2    H2 6431   2.482   3.217  12.574 -1.7183  0.7262  0.2236
  431MPD2    H3 6432   2.393   3.002  12.473 -2.7126  1.3916  0.4865
  431MPD2     N 6433   2.379   3.164  12.065 -0.1402 -0.1906  0.4970
  431MPD2    H5 6434   2.353   3.069  12.041 -0.1032  0.1042 -0.6900
  431MPD2    N1 6435   2.501   3.453  12.426 -0.1096  0.7590  0.3268
  431MPD2    H7 6436   2.514   3.521  12.352  0.3504  0.3886  0.0681
  432TMC3    C1 6437   2.348   3.204  11.841  0.6310 -0.0313  0.0634
  432TMC3    C2 6438   2.437   3.185  11.735 -0.1653  0.8556 -0.2572
  432TMC3    C3 6439   2.412   3.079  11.651 -0.1656  0.6900 -0.2728
  432TMC3    C4 6440   2.239   3.125  11.861 -0.4929 -0.3062  1.2977
  432TMC3    C5 6441   2.227   3.013  11.783 -0.3511 -0.5719 -0.5654
  432TMC3    C6 6442   2.308   2.994  11.671 -0.0612  0.2354  0.6237
  432TMC3     C 6443   2.413   3.249  11.963  0.0935  0.0161  0.8139
  432TMC3     O 6444   2.497   3.341  11.955  0.9493 -0.3536 -0.1632
  432TMC3     H 6445   2.533   3.235  11.735 -0.3394  1.1880  0.5758
  432TMC3    H1 6446   2.166   3.147  11.939  0.8415  0.5651  2.2901
  432TMC3    H2 6447   2.298   2.906  11.608 -1.2330 -1.1349  2.7197
  432TMC3    C7 6448   2.187   2.891  11.842 -0.0690 -0.2985 -0.1548
  432TMC3    C8 6449   2.508   3.026  11.559  0.4404 -0.3438 -0.2648
  432TMC3    O1 6450   2.233   2.785  11.797 -0.3676 -0.1081 -0.1360
  432TMC3    O2 6451   2.472   2.974  11.458  0.6625  0.6484 -0.3178
  433MPD2     C 6452   1.421   2.147  11.351  0.3725  0.2836  0.0283
  433MPD2    C1 6453   1.321   2.052  11.324  0.9843  0.5189  0.4264
  433MPD2    C2 6454   1.229   2.023  11.428 -0.1588  0.7716  0.0947
  433MPD2    C3 6455   1.225   2.096  11.543 -0.0629  0.2225  0.4141
  433MPD2    C4 6456   1.310   2.206  11.554 -0.6578  0.0643  0.1588
  433MPD2    C5 6457   1.404   2.224  11.459 -0.4440  1.0579  0.2641
  433MPD2     H 6458   1.152   1.946  11.421  0.0430  0.3366  2.9064
  433MPD2    H1 6459   1.318   2.255  11.650 -0.2189 -0.8252  0.5675
  433MPD2    H2 6460   1.511   2.158  11.292 -0.4509 -0.4308 -1.3627
  433MPD2    H3 6461   1.487   2.289  11.482  0.9945 -0.9548  0.7781
  433MPD2     N 6462   1.142   2.055  11.649 -0.4485 -0.3399 -0.3955
  433MPD2    H5 6463   1.097   1.965  11.639 -0.0193 -0.6766  0.7617
  433MPD2    N1 6464   1.333   1.979  11.207 -0.2410 -0.3516  0.5516
  433MPD2    H7 6465   1.423   1.975  11.161 -0.5573  2.2308 -0.2687
  434TMC3    C1 6466   1.286   1.798  11.075  0.2098 -0.1219 -0.4197
  434TMC3    C2 6467   1.361   1.702  11.143 -0.2105 -0.2361 -0.6497
  434TMC3    C3 6468   1.373   1.580  11.083  0.8843  1.0725  0.8169
  434TMC3    C4 6469   1.196   1.768  10.981  0.1182 -0.3945  0.6640
  434TMC3    C5 6470   1.200   1.641  10.928 -0.7511 -0.3929 -0.2128
  434TMC3    C6 6471   1.289   1.548  10.971 -0.6026 -0.2277  0.2162
  434TMC3     C 6472   1.233   1.892  11.174 -0.0188 -0.2143 -0.6836
  434TMC3     O 6473   1.113   1.894  11.191  0.3519 -0.1939  0.0903
  434TMC3     H 6474   1.418   1.729  11.231 -0.0935  1.8082 -1.3531
  434TMC3    H1 6475   1.134   1.844  10.936  0.9182  0.0865  0.3745
  434TMC3    H2 6476   1.295   1.450  10.924  0.8895  0.2715 -0.6504
  434TMC3    C7 6477   1.092   1.608  10.833  0.1824  0.0113 -0.2832
  434TMC3    C8 6478   1.436   1.477  11.163  0.3288  0.5188  0.3602
  434TMC3    O1 6479   0.997   1.688  10.838  0.3298  1.1725  0.2621
  434TMC3    O2 6480   1.436   1.492  11.287 -0.8547 -0.0560  0.7915
  435MPD2     C 6481   3.447   1.119  15.647 -0.3880 -0.2544  0.0733
  435MPD2    C1 6482   3.430   1.178  15.771 -0.0859  0.4618 -0.1061
  435MPD2    C2 6483   3.502   1.122  15.881  0.0375 -0.0460 -0.6973
  435MPD2    C3 6484   3.582   1.007  15.863 -0.4574  0.4029 -0.1647
  435MPD2    C4 6485   3.600   0.960  15.737  0.8605 -0.3587  0.4961
  435MPD2    C5 6486   3.530   1.016  15.632  0.4916  0.2662 -0.3241
  435MPD2     H 6487   3.483   1.164  15.980 -0.4750  1.6550 -1.5125
  435MPD2    H1 6488   3.657   0.870  15.717  2.4846  0.3168  2.1512
  435MPD2    H2 6489   3.410   1.165  15.556  2.2137  0.8193 -0.4345
  435MPD2    H3 6490   3.544   0.979  15.532  1.4770  1.6823 -0.7096
  435MPD2     N 6491   3.645   0.947  15.976  0.7563 -0.1165  0.2080
  435MPD2    H5 6492   3.627   0.987  16.067  2.8294 -1.2953  1.1382
  435MPD2    N1 6493   3.340   1.288  15.784 -1.0691 -0.2190  0.0428
  435MPD2    H7 6494   3.338   1.341  15.871 -0.7613 -1.9156  1.0818
  436TMC3    C1 6495   3.126   1.606  15.924 -0.2337 -0.3519 -0.7720
  436TMC3    C2 6496   3.217   1.520  15.869 -0.1231  0.6429  0.0891
  436TMC3    C3 6497   3.189   1.468  15.743 -0.1449 -0.0624 -0.4495
  436TMC3    C4 6498   3.023   1.655  15.850 -0.2670  0.3244 -0.5295
  436TMC3    C5 6499   3.002   1.607  15.722  0.6423  0.1387  0.1169
  436TMC3    C6 6500   3.084   1.512  15.666  0.7891  0.6685  0.6613
  436TMC3     C 6501   3.162   1.674  16.051 -0.1282  0.9856 -0.7056
  436TMC3     O 6502   3.275   1.649  16.096  0.3921 -0.1843  0.6888
  436TMC3     H 6503   3.299   1.483  15.929  0.3456  0.4756 -0.6545
  436TMC3    H1 6504   2.962   1.737  15.886 -1.2583  0.1302 -1.7738
  436TMC3    H2 6505   3.041   1.456  15.585  2.9132 -0.1250  0.0809
  436TMC3    C7 6506   2.949   1.708  15.637 -0.3633  0.0520  0.6805
  436TMC3    C8 6507   3.258   1.345  15.692 -0.0031  0.6706 -0.2096
  436TMC3    O1 6508   2.877   1.790  15.685  0.1620 -0.3499  0.0022
  436TMC3    O2 6509   3.236   1.309  15.578 -0.3541 -0.3491  0.1584
  437TMC3    C1 6510   1.444   4.345  12.463  0.3207  0.8343 -0.5079
  437TMC3    C2 6511   1.355   4.429  12.397  0.8737  0.0892  0.4827
  437TMC3    C3 6512   1.372   4.443  12.259 -0.2148 -0.3362  1.2339
  437TMC3    C4 6513   1.548   4.282  12.394  0.7406  0.0703  0.2207
  437TMC3    C5 6514   1.552   4.291  12.255 -0.1612  0.0403 -0.1040
  437TMC3    C6 6515   1.457   4.364  12.186  0.1884  0.5314  0.1127
  437TMC3     C 6516   1.403   4.272  12.581  0.1949 -0.4342  0.4613
  437TMC3     O 6517   1.278   4.274  12.596 -0.1275 -0.4208 -0.1934
  437TMC3     H 6518   1.266   4.454  12.453  0.6875 -0.3362  0.3799
  437TMC3    H1 6519   1.605   4.202  12.440 -1.2257 -0.6868  1.3215
  437TMC3    H2 6520   1.468   4.379  12.080 -0.9985 -1.2652 -0.2760
  437TMC3    C7 6521   1.681   4.264  12.197  0.0189  0.8665  0.2270
  437TMC3    C8 6522   1.254   4.468  12.183 -0.8089 -0.4301 -0.4654
  437TMC3    O1 6523   1.703   4.301  12.082 -0.0945  0.1751  0.4217
  437TMC3    O2 6524   1.235   4.388  12.089  0.0398  0.2042 -0.0516
  438MPD2     C 6525   4.374   4.218  16.438  0.2784 -0.1515  0.1123
  438MPD2    C1 6526   4.461   4.154  16.528  0.8080 -0.7067  0.2734
  438MPD2    C2 6527   4.477   4.211  16.652  0.0187 -0.2153  0.5002
  438MPD2    C3 6528   4.410   4.325  16.678  0.0108  0.3520  0.0528
  438MPD2    C4 6529   4.333   4.393  16.584 -0.7762 -0.4454 -0.1302
  438MPD2    C5 6530   4.308   4.335  16.464  0.1346 -0.2913  0.8518
  438MPD2     H 6531   4.542   4.165  16.726  2.1570  0.7275 -0.8208
  438MPD2    H1 6532   4.281   4.487  16.600 -1.9700 -1.4992  2.2178
  438MPD2    H2 6533   4.337   4.178  16.344 -0.5014  0.6430  0.0842
  438MPD2    H3 6534   4.243   4.372  16.386  1.7973  0.7452 -0.0341
  438MPD2     N 6535   4.418   4.401  16.797  0.4166  0.0635 -0.7479
  438MPD2    H5 6536   4.354   4.479  16.799  0.9355  0.4697  0.2030
  438MPD2    N1 6537   4.540   4.039  16.502 -0.3399 -0.4256  0.2671
  438MPD2    H7 6538   4.574   3.985  16.582  1.4187  0.1669 -0.0879
  439TMC3    C1 6539   4.636   3.874  16.358 -0.1706 -0.4839 -0.2783
  439TMC3    C2 6540   4.664   3.842  16.228 -0.0038  0.7148 -0.3023
  439TMC3    C3 6541   0.021   3.734  16.216  0.2731  0.2854  0.2736
  439TMC3    C4 6542   4.678   3.798  16.466  0.5871  0.3223 -0.0841
  439TMC3    C5 6543   0.028   3.688  16.451 -0.1651  0.1137  0.2519
  439TMC3    C6 6544   0.067   3.656  16.325 -0.4198 -0.2723  0.0131
  439TMC3     C 6545   4.554   3.992  16.372 -0.3934 -0.2679  0.3545
  439TMC3     O 6546   4.512   4.036  16.262 -0.0016  0.2905  0.1598
  439TMC3     H 6547   4.617   3.884  16.140 -0.8303  2.9500  1.2078
  439TMC3    H1 6548   4.644   3.816  16.567 -0.3149 -0.2092 -0.2925
  439TMC3    H2 6549   0.118   3.563  16.306 -1.1739 -1.1210  2.1607
  439TMC3    C7 6550   0.130   3.659  16.548 -0.4501  0.0264  0.4525
  439TMC3    C8 6551   0.082   3.707  16.088 -0.7511 -0.0110  0.4776
  439TMC3    O1 6552   0.095   3.584  16.638  0.1139 -0.4123  0.2373
  439TMC3    O2 6553   0.116   3.588  16.071 -0.6817 -0.3723 -0.5577
  440MPD2     C 6554   3.246   4.303  15.148 -0.3035 -0.2484  0.6829
  440MPD2    C1 6555   3.329   4.366  15.238  0.3272  0.4363 -0.1822
  440MPD2    C2 6556   3.461   4.329  15.242  0.1678  0.6338 -0.7937
  440MPD2    C3 6557   3.516   4.244  15.147  0.4791  0.2326  1.0374
  440MPD2    C4 6558   3.431   4.180  15.056  0.4753 -0.2014 -0.3244
  440MPD2    C5 6559   3.292   4.207  15.062 -0.0143  0.0829 -0.4903
  440MPD2     H 6560   3.515   4.376  15.323  0.5464 -1.2717  0.0563
  440MPD2    H1 6561   3.474   4.107  14.988 -1.0250 -0.5039 -0.9504
  440MPD2    H2 6562   3.140   4.328  15.150 -0.3138 -0.1917 -1.2338
  440MPD2    H3 6563   3.222   4.158  14.994 -0.9555  1.4834 -0.5369
  440MPD2     N 6564   3.648   4.204  15.154  0.1553 -0.2894  0.9251
  440MPD2    H5 6565   3.677   4.119  15.106  2.3556  0.8884  0.1640
  440MPD2    N1 6566   3.281   4.452  15.333 -0.7559  0.1170 -0.6308
  440MPD2    H7 6567   3.347   4.487  15.401 -2.0112  2.1260 -0.4249
  441TMC3    C1 6568   3.869   4.220  15.243 -0.6586 -0.1044 -0.4379
  441TMC3    C2 6569   3.966   4.307  15.272 -0.4058  0.0467 -0.5766
  441TMC3    C3 6570   4.041   4.278  15.383  0.1894 -0.4061  0.0456
  441TMC3    C4 6571   3.852   4.103  15.311 -0.1225 -0.1552  0.0569
  441TMC3    C5 6572   3.940   4.071  15.410 -0.5125  0.0466  0.4876
  441TMC3    C6 6573   4.040   4.157  15.443 -0.2682  0.0685 -0.6917
  441TMC3     C 6574   3.743   4.288  15.203 -0.0535 -0.6601  0.4314
  441TMC3     O 6575   3.738   4.403  15.238 -0.2452  0.4883 -0.1525
  441TMC3     H 6576   3.973   4.405  15.226  1.7787  0.4216  0.5696
  441TMC3    H1 6577   3.763   4.042  15.302 -1.5011  1.9028 -0.1921
  441TMC3    H2 6578   4.112   4.141  15.522 -2.0548  1.3209  1.2030
  441TMC3    C7 6579   3.872   4.017  15.527 -0.4464 -0.0876  0.3898
  441TMC3    C8 6580   4.032   4.385  15.481  0.1305 -0.4276 -1.0181
  441TMC3    O1 6581   3.762   4.069  15.535 -0.7268  0.1500  0.3785
  441TMC3    O2 6582   4.101   4.371  15.578 -0.4483 -0.7901 -0.5834
  442MPD2     C 6583   1.655   0.073  16.773  0.9236  0.1198 -0.4923
  442MPD2    C1 6584   1.545   0.012  16.818  0.1867 -0.0196  0.5208
  442MPD2    C2 6585   1.511   4.608  16.770 -0.0870  0.2285 -0.5691
  442MPD2    C3 6586   1.592   4.554  16.666 -0.4182 -0.0282 -0.5319
  442MPD2    C4 6587   1.702   4.626  16.623  0.4752  0.6764  0.4759
  442MPD2    C5 6588   1.732   0.025  16.674 -0.2450 -0.2255  0.3625
  442MPD2     H 6589   1.428   4.553  16.812  0.0655  1.0205  0.7887
  442MPD2    H1 6590   1.762   4.587  16.543  1.1828  2.0620  0.3244
  442MPD2    H2 6591   1.678   0.172  16.811  2.2316 -0.8626  1.3077
  442MPD2    H3 6592   1.817   0.080  16.634 -0.4312 -0.1396  0.0866
  442MPD2     N 6593   1.576   4.429  16.596 -0.1122 -0.5981  0.0458
  442MPD2    H5 6594   1.629   4.416  16.510 -1.8714  0.3197 -1.1909
  442MPD2    N1 6595   1.453   0.074  16.912  0.0909 -0.7223  0.0206
  442MPD2    H7 6596   1.379   0.013  16.948  0.6493 -1.1552  0.4300
  443TMC3    C1 6597   1.326   0.247  17.001  0.3553  0.0890 -0.3146
  443TMC3    C2 6598   1.242   0.342  16.950  0.0963  0.5265 -0.1070
  443TMC3    C3 6599   1.118   0.351  17.012  0.8060 -1.2858  0.0796
  443TMC3    C4 6600   1.299   0.166  17.101 -0.6785  0.2262 -0.2288
  443TMC3    C5 6601   1.184   0.183  17.166 -0.0229 -0.0922 -0.7885
  443TMC3    C6 6602   1.088   0.278  17.130 -0.1834  0.3664 -0.6824
  443TMC3     C 6603   1.440   0.213  16.921 -0.0644 -0.0741 -0.6596
  443TMC3     O 6604   1.481   0.306  16.853  0.2964 -0.0692  0.2649
  443TMC3     H 6605   1.266   0.385  16.853  2.3843 -1.5394 -0.4691
  443TMC3    H1 6606   1.371   0.091  17.131  0.8438  1.9065  0.2908
  443TMC3    H2 6607   0.993   0.300  17.177  0.4598 -1.4282  1.4286
  443TMC3    C7 6608   1.127   0.058  17.206 -0.1688 -0.0825  0.2857
  443TMC3    C8 6609   1.004   0.373  16.930 -0.1212 -0.5750 -0.6734
  443TMC3    O1 6610   1.198   4.684  17.204  0.0603  0.0937 -0.5754
  443TMC3    O2 6611   0.893   0.384  16.986  0.6242  0.5037 -0.0183
  444MPD2     C 6612   1.666   4.430  17.395 -0.0805 -0.3146 -0.2005
  444MPD2    C1 6613   1.634   4.302  17.425  0.1777 -0.6565 -0.1374
  444MPD2    C2 6614   1.721   4.197  17.405 -0.0719  0.3413  0.4117
  444MPD2    C3 6615   1.845   4.225  17.356 -0.4576 -0.1882  1.3555
  444MPD2    C4 6616   1.882   4.351  17.326 -0.3282  0.2765 -0.0723
  444MPD2    C5 6617   1.788   4.449  17.340  1.3496 -1.2305 -0.2287
  444MPD2     H 6618   1.703   4.092  17.426  0.6552 -0.1877 -1.6046
  444MPD2    H1 6619   1.973   4.379  17.274 -0.2833 -3.7614 -2.2124
  444MPD2    H2 6620   1.598   4.513  17.412 -1.0688 -1.4977  1.5592
  444MPD2    H3 6621   1.808   4.554  17.323  0.0172 -1.1048 -1.0092
  444MPD2     N 6622   1.924   4.112  17.326 -0.2767 -0.0883 -0.0774
  444MPD2    H5 6623   1.886   4.023  17.358  0.2333 -0.9052 -1.7789
  444MPD2    N1 6624   1.506   4.265  17.467 -0.2752 -0.6011 -0.6982
  444MPD2    H7 6625   1.478   4.168  17.475 -1.1641 -0.1252  1.8848
  445TMC3    C1 6626   2.093   3.976  17.251 -0.0600  0.0166  0.3768
  445TMC3    C2 6627   2.038   3.873  17.327 -0.0423  0.7593  0.6584
  445TMC3    C3 6628   2.101   3.752  17.324  0.2670 -0.2896 -0.2775
  445TMC3    C4 6629   2.194   3.955  17.154  0.0900 -1.0856 -0.6569
  445TMC3    C5 6630   2.259   3.836  17.169 -0.3320 -0.6144  0.0228
  445TMC3    C6 6631   2.214   3.734  17.248 -0.1813  0.2138 -0.1389
  445TMC3     C 6632   2.042   4.114  17.260  0.6362 -0.1532 -0.4479
  445TMC3     O 6633   2.089   4.204  17.195  0.4504  0.4149  0.6491
  445TMC3     H 6634   1.958   3.890  17.399  0.5786 -0.6735  1.6885
  445TMC3    H1 6635   2.231   4.040  17.097  0.9862  1.0534  3.0789
  445TMC3    H2 6636   2.270   3.642  17.252  0.0547  0.3768  0.3712
  445TMC3    C7 6637   2.397   3.821  17.108  0.7990  0.1922 -0.7669
  445TMC3    C8 6638   2.038   3.641  17.404 -0.5319  0.2697  0.3927
  445TMC3    O1 6639   2.424   3.895  17.016  0.2098 -0.0866  0.1707
  445TMC3    O2 6640   1.943   3.676  17.469  0.3209  0.2080 -0.0036
  446MPD2     C 6641   0.855   1.476  11.257  0.3067  0.2043  0.0141
  446MPD2    C1 6642   0.965   1.415  11.222  0.1028 -0.2802  0.1474
  446MPD2    C2 6643   1.091   1.451  11.276 -0.5473  0.0034  0.0138
  446MPD2    C3 6644   1.100   1.554  11.368  0.2665 -0.6644 -0.5639
  446MPD2    C4 6645   0.985   1.622  11.396 -0.4483  0.0590  0.3486
  446MPD2    C5 6646   0.864   1.586  11.341 -0.3091 -0.9466 -0.1866
  446MPD2     H 6647   1.171   1.384  11.247 -0.0687  0.0459  1.2064
  446MPD2    H1 6648   0.977   1.696  11.475 -4.0026  0.8666 -0.7580
  446MPD2    H2 6649   0.758   1.462  11.210  0.2855 -1.5304  0.5490
  446MPD2    H3 6650   0.779   1.644  11.376  0.8517  0.3336  0.5087
  446MPD2     N 6651   1.219   1.591  11.426  0.5576 -0.3446  0.1714
  446MPD2    H5 6652   1.296   1.534  11.391  1.4130  0.9187 -0.0028
  446MPD2    N1 6653   0.969   1.310  11.126 -0.6118 -0.1255 -0.1736
  446MPD2    H7 6654   1.048   1.247  11.136  1.0909  1.3847 -3.8079
  447TMC3    C1 6655   1.388   1.678  11.561  0.0542 -0.5229  0.0260
  447TMC3    C2 6656   1.468   1.778  11.517  0.0930 -0.0916  0.1500
  447TMC3    C3 6657   1.601   1.765  11.522  0.2341  0.3948 -0.5361
  447TMC3    C4 6658   1.428   1.571  11.624  0.2952  0.0117 -0.6852
  447TMC3    C5 6659   1.564   1.560  11.628  0.5872 -0.2275 -0.1869
  447TMC3    C6 6660   1.650   1.646  11.570  0.4015  0.1367 -0.3256
  447TMC3     C 6661   1.244   1.686  11.518 -0.8106 -0.0615 -0.4495
  447TMC3     O 6662   1.168   1.759  11.576 -0.2267 -0.7286  0.0684
  447TMC3     H 6663   1.429   1.855  11.452  1.8895  0.9320  0.2794
  447TMC3    H1 6664   1.360   1.490  11.647 -0.9821  0.7254 -1.9284
  447TMC3    H2 6665   1.757   1.644  11.590  0.2450  1.0077  0.5884
  447TMC3    C7 6666   1.624   1.433  11.647 -0.1461 -0.5249 -0.3743
  447TMC3    C8 6667   1.658   1.801  11.393  0.0658  0.0517  0.1792
  447TMC3    O1 6668   1.729   1.418  11.583 -0.2184 -0.4198  0.0684
  447TMC3    O2 6669   1.625   1.910  11.343 -0.4234  0.7127  0.2976
  448TMC3    C1 6670   4.438   0.792  16.872  0.0780 -0.1337 -0.1438
  448TMC3    C2 6671   4.419   0.670  16.809  1.1353 -0.2689  0.0847
  448TMC3    C3 6672   4.485   0.564  16.873 -0.5481  1.2865 -0.1924
  448TMC3    C4 6673   4.530   0.812  16.976 -0.4456  0.5901 -0.6369
  448TMC3    C5 6674   4.595   0.703  17.027  0.0526 -0.0923 -0.6688
  448TMC3    C6 6675   4.573   0.582  16.975 -0.6968 -0.6899  0.0538
  448TMC3     C 6676   4.374   0.903  16.808 -0.5489 -0.0157  0.3371
  448TMC3     O 6677   4.359   0.898  16.690 -0.0030 -0.3233 -0.2049
  448TMC3     H 6678   4.362   0.673  16.717  1.1244 -0.9372  0.0719
  448TMC3    H1 6679   4.555   0.909  17.016 -4.4023  1.6334 -0.6909
  448TMC3    H2 6680   4.627   0.500  17.022 -2.0006 -1.6688 -0.1708
  448TMC3    C7 6681   4.680   0.728  17.138 -0.7365 -0.9035  0.4996
  448TMC3    C8 6682   4.492   0.434  16.812 -0.2549  0.2830 -0.1210
  448TMC3    O1 6683   0.018   0.833  17.148  0.1459  0.1752 -0.0507
  448TMC3    O2 6684   4.567   0.349  16.863  0.2392 -0.4228  0.1692
  449MPD2     C 6685   1.267   3.808  13.929  0.3580 -0.1551 -0.5277
  449MPD2    C1 6686   1.132   3.839  13.909  0.4201  0.5668 -0.5824
  449MPD2    C2 6687   1.042   3.739  13.937  0.2346  0.2129 -0.2772
  449MPD2    C3 6688   1.079   3.617  13.985  0.0770  0.1926 -0.0313
  449MPD2    C4 6689   1.216   3.591  14.017 -0.0575  0.4307  0.4230
  449MPD2    C5 6690   1.302   3.688  13.971 -0.5159  0.5249  0.3752
  449MPD2     H 6691   0.937   3.761  13.921  0.2365 -1.1636 -2.0254
  449MPD2    H1 6692   1.260   3.503  14.062  0.5482 -0.4367 -1.8862
  449MPD2    H2 6693   1.342   3.882  13.905  1.3526 -0.9679  0.0934
  449MPD2    H3 6694   1.409   3.676  13.985 -0.3801  0.8630 -0.3688
  449MPD2     N 6695   0.979   3.515  14.004 -0.1969 -0.3038  0.0702
  449MPD2    H5 6696   0.886   3.533  13.967 -0.9016  1.0760  2.5411
  449MPD2    N1 6697   1.074   3.957  13.871 -0.1232  0.1168  0.3697
  449MPD2    H7 6698   0.973   3.953  13.860  0.0315 -0.1122 -1.0882
  450TMC3    C1 6699   1.047   4.169  13.790  0.1286  0.0152 -0.0273
  450TMC3    C2 6700   1.061   4.212  13.663 -0.0497  0.6043  0.1748
  450TMC3    C3 6701   0.947   4.220  13.587  0.3407 -0.4241  0.0732
  450TMC3    C4 6702   0.926   4.144  13.843 -0.1414  0.0678  0.3494
  450TMC3    C5 6703   0.811   4.148  13.764 -0.5227 -0.0121  0.0921
  450TMC3    C6 6704   0.824   4.181  13.637 -0.0665  0.2710  0.0766
  450TMC3     C 6705   1.139   4.072  13.831  0.5367 -0.0885 -0.0285
  450TMC3     O 6706   1.259   4.084  13.808 -0.3338 -0.0726  0.3266
  450TMC3     H 6707   1.161   4.221  13.623  1.3223 -2.8233  2.9178
  450TMC3    H1 6708   0.914   4.117  13.947  0.4321  0.9169  0.6356
  450TMC3    H2 6709   0.733   4.183  13.577  0.4338  2.0349 -0.6306
  450TMC3    C7 6710   0.724   4.038  13.793 -0.5468 -0.1597  0.3395
  450TMC3    C8 6711   0.956   4.238  13.442  0.1485  0.1090 -0.3994
  450TMC3    O1 6712   0.765   3.958  13.872 -0.7356  0.0580 -0.1433
  450TMC3    O2 6713   0.856   4.206  13.377 -0.1086  0.7481 -0.0720
  451MPD2     C 6714   2.032   2.274   1.997 -0.3573 -0.1815 -0.3258
  451MPD2    C1 6715   2.082   2.285   1.871  0.1255 -0.1831  0.0960
  451MPD2    C2 6716   2.189   2.206   1.824  0.5657  0.0966  0.1398
  451MPD2    C3 6717   2.231   2.100   1.904 -0.0270  0.0513 -0.1379
  451MPD2    C4 6718   2.186   2.094   2.036 -0.2684  0.0537  0.1052
  451MPD2    C5 6719   2.087   2.177   2.079 -0.3249  0.4566 -0.0630
  451MPD2     H 6720   2.239   2.207   1.728  1.9742 -0.9616  0.8518
  451MPD2    H1 6721   2.232   2.027   2.108 -0.5540 -1.4094 -1.0477
  451MPD2    H2 6722   1.940   2.317   2.034  0.1875  1.1271 -0.4944
  451MPD2    H3 6723   2.052   2.178   2.181 -1.5234  0.7994 -0.4758
  451MPD2     N 6724   2.333   2.010   1.863  0.1893  0.3863  0.6370
  451MPD2    H5 6725   2.346   1.932   1.926 -0.9808 -0.0639  0.3310
  451MPD2    N1 6726   2.029   2.393   1.794  0.6989  0.0203  0.1775
  451MPD2    H7 6727   1.967   2.457   1.842  0.8907 -1.5985  2.5774
  452TMC3    C1 6728   2.519   1.923   1.742 -0.1093  0.2892 -0.0823
  452TMC3    C2 6729   2.491   1.804   1.798 -0.6547  0.7293 -0.3681
  452TMC3    C3 6730   2.595   1.751   1.869  0.0316 -0.3008 -0.2450
  452TMC3    C4 6731   2.646   1.975   1.739 -0.7623 -0.3653 -0.8070
  452TMC3    C5 6732   2.755   1.913   1.796  0.0460 -0.6198  0.6934
  452TMC3    C6 6733   2.730   1.799   1.864  0.3224  0.9570  0.0048
  452TMC3     C 6734   2.421   2.029   1.754  0.2039 -0.0926  0.5195
  452TMC3     O 6735   2.439   2.134   1.697  0.1025  0.3395  0.1940
  452TMC3     H 6736   2.390   1.763   1.799 -1.7265  3.3046 -3.1280
  452TMC3    H1 6737   2.662   2.059   1.672  0.3145  0.2267  0.1945
  452TMC3    H2 6738   2.813   1.746   1.909 -0.2548 -0.9386 -1.1539
  452TMC3    C7 6739   2.882   1.953   1.758  0.4306 -0.1824 -0.3354
  452TMC3    C8 6740   2.572   1.624   1.938  0.6805  0.3073 -0.2752
  452TMC3    O1 6741   2.886   2.051   1.684  0.1748  0.0279  0.1033
  452TMC3    O2 6742   2.458   1.577   1.925  0.2844  0.0822 -0.6492
  453TMC3    C1 6743   3.334   0.328  11.868  0.4828 -0.0652 -0.9826
  453TMC3    C2 6744   3.268   0.272  11.973  0.7955 -0.1541  0.0661
  453TMC3    C3 6745   3.189   0.160  11.948 -0.9624  0.1513 -0.5020
  453TMC3    C4 6746   3.316   0.286  11.736  0.0748  0.2396  0.2490
  453TMC3    C5 6747   3.230   0.181  11.713 -0.1240 -0.0731  0.3889
  453TMC3    C6 6748   3.162   0.118  11.820  0.5699  0.0953  0.2315
  453TMC3     C 6749   3.431   0.432  11.889 -0.3104 -0.6342 -0.1312
  453TMC3     O 6750   3.475   0.495  11.795 -0.4479 -0.1430 -0.0187
  453TMC3     H 6751   3.281   0.305  12.075 -1.2763  2.7166 -0.5921
  453TMC3    H1 6752   3.360   0.334  11.650 -0.0384  0.2213  0.1810
  453TMC3    H2 6753   3.072   0.059  11.803  0.5610  0.3439 -0.5919
  453TMC3    C7 6754   3.222   0.121  11.583  0.4376 -0.0116 -0.2879
  453TMC3    C8 6755   3.116   0.099  12.056  0.2137  0.0490  0.1671
  453TMC3    O1 6756   3.265   0.185  11.484 -0.0861  0.4092  0.1400
  453TMC3    O2 6757   3.085   0.184  12.139 -0.4086 -0.1368  0.1435
  454MPD2     C 6758   2.613   3.999  16.271 -0.2685 -0.2119  0.4804
  454MPD2    C1 6759   2.507   4.043  16.186  0.5470  0.3074  0.1164
  454MPD2    C2 6760   2.441   4.156  16.231  0.5210 -0.3054 -0.9879
  454MPD2    C3 6761   2.468   4.219  16.354  0.5029 -0.8024 -0.3797
  454MPD2    C4 6762   2.562   4.166  16.442 -0.1790  0.1922 -0.2517
  454MPD2    C5 6763   2.635   4.059  16.397  0.3511  0.0576 -0.2186
  454MPD2     H 6764   2.353   4.185  16.174 -1.3187  0.6483  2.3268
  454MPD2    H1 6765   2.570   4.210  16.541  0.1144 -0.4203 -0.0030
  454MPD2    H2 6766   2.654   3.902  16.244 -0.0738  0.4536 -1.6174
  454MPD2    H3 6767   2.714   4.012  16.455  0.9155  0.5563 -0.5983
  454MPD2     N 6768   2.387   4.330  16.402  0.2727  0.0794  0.3000
  454MPD2    H5 6769   2.384   4.358  16.499 -2.2748  3.4998 -0.7546
  454MPD2    N1 6770   2.450   3.977  16.073 -0.1676  0.1064 -0.2626
  454MPD2    H7 6771   2.368   4.018  16.029 -2.5311 -1.5641  2.5509
  455TMC3    C1 6772   2.174   4.429  16.405  0.4948 -0.2614  1.1949
  455TMC3    C2 6773   2.201   4.470  16.534  0.9582  0.1333  0.0326
  455TMC3    C3 6774   2.110   4.419  16.634  0.1641 -0.5376  0.0098
  455TMC3    C4 6775   2.065   4.353  16.372 -0.5460  0.7772  0.2216
  455TMC3    C5 6776   1.994   4.296  16.477  0.0595 -0.7711  0.0332
  455TMC3    C6 6777   2.010   4.324  16.609  0.1495  1.0706 -0.4791
  455TMC3     C 6778   2.290   4.395  16.321 -0.5225  0.1272  0.1044
  455TMC3     O 6779   2.284   4.402  16.202 -0.2476  0.3010 -0.1978
  455TMC3     H 6780   2.285   4.532  16.562  0.6088  0.5177  0.2136
  455TMC3    H1 6781   2.065   4.321  16.269  0.1311 -0.9667  0.7615
  455TMC3    H2 6782   1.935   4.288  16.678  0.4265 -0.5986 -1.0469
  455TMC3    C7 6783   1.931   4.169  16.437 -0.5175  0.0933 -0.5784
  455TMC3    C8 6784   2.090   4.508  16.740 -0.1434 -0.0085 -0.0237
  455TMC3    O1 6785   1.969   4.130  16.325  0.0292 -0.4204 -0.2073
  455TMC3    O2 6786   2.040   4.461  16.842  0.8397  0.5599 -0.3276
  456MPD2     C 6787   0.356   4.095  15.967  0.4222 -0.9052 -0.2866
  456MPD2    C1 6788   0.354   4.012  16.072  1.0649  0.2195  0.1082
  456MPD2    C2 6789   0.276   4.054  16.184 -0.5021  0.3698 -0.2982
  456MPD2    C3 6790   0.216   4.179  16.186 -0.6048  0.7773 -0.4890
  456MPD2    C4 6791   0.221   4.254  16.071  0.0863 -0.8059 -0.2346
  456MPD2    C5 6792   0.286   4.214  15.960  0.0438  0.0319  0.1672
  456MPD2     H 6793   0.256   3.990  16.269 -1.2371 -0.3736 -1.0318
  456MPD2    H1 6794   0.188   4.357  16.076  0.5116 -0.6426 -0.8175
  456MPD2    H2 6795   0.415   4.068  15.880  0.6127 -0.5985 -0.2504
  456MPD2    H3 6796   0.288   4.259  15.861  2.1325  0.3943  0.3572
  456MPD2     N 6797   0.136   4.217  16.294  0.0417  0.4110 -0.3766
  456MPD2    H5 6798   0.133   4.152  16.372 -2.0428  1.4554  0.4062
  456MPD2    N1 6799   0.421   3.888  16.057 -1.0617  0.4846 -0.0720
  456MPD2    H7 6800   0.477   3.887  15.972  0.6391 -1.3476  1.0779
  457TMC3    C1 6801   0.033   4.374  16.433  0.2900 -0.1091 -0.1208
  457TMC3    C2 6802   4.689   4.495  16.451  0.0290  0.6976  0.5671
  457TMC3    C3 6803   4.706   4.560  16.570 -0.3998  0.2837  0.0804
  457TMC3    C4 6804   0.107   4.318  16.539 -0.0555  0.2321 -0.2781
  457TMC3    C5 6805   0.104   4.383  16.665 -0.2025 -0.9154 -0.2238
  457TMC3    C6 6806   0.047   4.506  16.680 -0.1072  0.2056 -0.5616
  457TMC3     C 6807   0.069   4.341  16.301  0.5053  0.5683  0.8072
  457TMC3     O 6808   0.054   4.430  16.222  0.0077  0.6334  0.7610
  457TMC3     H 6809   4.635   4.534  16.366  0.8429 -0.0135 -0.2770
  457TMC3    H1 6810   0.160   4.224  16.527 -0.1830  0.2554 -1.0308
  457TMC3    H2 6811   0.035   4.550  16.778  0.0375 -1.3545  0.1608
  457TMC3    C7 6812   0.191   4.335  16.772 -0.1870  0.4352  0.2219
  457TMC3    C8 6813   4.631   4.679  16.606 -0.2260  1.3339 -0.2068
  457TMC3    O1 6814   0.192   4.214  16.782  0.3728  0.1263  0.1524
  457TMC3    O2 6815   4.679   0.019  16.693 -0.1038  0.5610 -0.5453
  458MPD2     C 6816   2.179   4.184  12.229  0.5608  0.4474 -0.9991
  458MPD2    C1 6817   2.126   4.151  12.352 -0.1663  0.3589 -0.0629
  458MPD2    C2 6818   1.988   4.160  12.375 -0.0959  0.0992 -0.1183
  458MPD2    C3 6819   1.913   4.199  12.267 -0.4329 -0.8169 -0.0042
  458MPD2    C4 6820   1.968   4.219  12.140 -0.0206 -0.1140 -0.3653
  458MPD2    C5 6821   2.096   4.208  12.119  0.6284  0.1124  0.1706
  458MPD2     H 6822   1.932   4.141  12.465  0.2121 -0.0212  0.0489
  458MPD2    H1 6823   1.910   4.233  12.050  1.0207  1.3581 -0.8006
  458MPD2    H2 6824   2.284   4.207  12.211  1.2557 -2.3519 -0.5690
  458MPD2    H3 6825   2.141   4.241  12.026  1.6643 -2.2628 -0.1578
  458MPD2     N 6826   1.774   4.220  12.289  0.1133 -0.4251 -0.1320
  458MPD2    H5 6827   1.745   4.205  12.385 -0.5558 -0.3770 -0.3284
  458MPD2    N1 6828   2.213   4.126  12.456  0.3492  0.0207  0.6805
  458MPD2    H7 6829   2.314   4.131  12.448  0.2605  0.0809 -0.3913
  459TMC3    C1 6830   2.289   4.097  12.684  0.5702  0.3070 -0.0795
  459TMC3    C2 6831   2.389   4.189  12.665 -0.0201 -0.5448 -0.1932
  459TMC3    C3 6832   2.470   4.224  12.768 -0.1531 -0.2915  0.6354
  459TMC3    C4 6833   2.273   4.032  12.802 -0.1740 -1.1709  0.2582
  459TMC3    C5 6834   2.354   4.072  12.908 -0.3206 -0.5830  0.9677
  459TMC3    C6 6835   2.448   4.181  12.895 -0.1717  0.1980  0.6922
  459TMC3     C 6836   2.180   4.097  12.587  0.1156 -0.6792 -0.1513
  459TMC3     O 6837   2.070   4.070  12.637  0.3050 -0.3736  0.0239
  459TMC3     H 6838   2.401   4.227  12.564  2.2058 -2.0343 -0.4911
  459TMC3    H1 6839   2.190   3.963  12.805 -0.1761 -1.1749  0.0903
  459TMC3    H2 6840   2.506   4.212  12.981  2.2849 -2.2265 -0.0898
  459TMC3    C7 6841   2.359   3.974  13.017  0.6448 -0.8029 -0.1572
  459TMC3    C8 6842   2.594   4.287  12.730 -0.5514 -0.4714  0.0481
  459TMC3    O1 6843   2.329   3.857  12.992 -0.1675  0.2293 -0.3492
  459TMC3    O2 6844   2.653   4.267  12.626  0.7244  0.2277 -0.5426
  460MPD2     C 6845   1.792   1.555  11.153  0.3033 -0.2847  0.4180
  460MPD2    C1 6846   1.734   1.669  11.196  0.4685 -0.4389 -0.0781
  460MPD2    C2 6847   1.690   1.759  11.101 -0.2163 -0.2774 -0.5147
  460MPD2    C3 6848   1.681   1.717  10.964 -0.4503  0.2953 -0.0511
  460MPD2    C4 6849   1.751   1.606  10.932  0.3426  1.0671  0.3433
  460MPD2    C5 6850   1.818   1.531  11.020  0.0038  0.3875 -0.6136
  460MPD2     H 6851   1.645   1.853  11.128 -0.2971 -1.4423  3.3883
  460MPD2    H1 6852   1.763   1.568  10.831 -0.6827 -1.7150  1.2505
  460MPD2    H2 6853   1.842   1.496  11.229 -0.0267  1.1553  1.7436
  460MPD2    H3 6854   1.876   1.442  11.001 -0.1770 -0.0702  0.9815
  460MPD2     N 6855   1.602   1.789  10.872 -0.3086 -0.7025  0.6509
  460MPD2    H5 6856   1.569   1.884  10.890  2.0616 -0.2565  2.6097
  460MPD2    N1 6857   1.724   1.694  11.337  0.2719  0.1206 -1.1028
  460MPD2    H7 6858   1.744   1.614  11.397  0.4990  0.8657 -0.1742
  461TMC3    C1 6859   1.477   1.831  10.673 -0.3653 -0.0705  0.2817
  461TMC3    C2 6860   1.411   1.765  10.569 -0.0440 -0.3392 -0.1299
  461TMC3    C3 6861   1.416   1.836  10.454  0.6367  0.2939 -0.5743
  461TMC3    C4 6862   1.527   1.960  10.659  0.2109  0.3020 -0.1965
  461TMC3    C5 6863   1.534   2.019  10.540 -0.4455  0.5618 -0.9990
  461TMC3    C6 6864   1.480   1.956  10.436 -0.3357 -0.0923  0.1927
  461TMC3     C 6865   1.544   1.732  10.761  0.3431  0.1075 -0.3782
  461TMC3     O 6866   1.534   1.613  10.729  0.4710  0.4349 -0.1625
  461TMC3     H 6867   1.367   1.667  10.584 -0.7173  0.0994  0.7408
  461TMC3    H1 6868   1.582   1.995  10.746 -2.7050 -0.9431  2.1521
  461TMC3    H2 6869   1.461   2.010  10.344  1.0269 -1.7908 -1.0852
  461TMC3    C7 6870   1.548   2.157  10.534  1.0450 -0.2749 -0.5081
  461TMC3    C8 6871   1.369   1.766  10.331 -0.0616 -0.2322  0.6934
  461TMC3    O1 6872   1.546   2.208  10.423  0.3825  0.3512 -0.2965
  461TMC3    O2 6873   1.425   1.786  10.225 -0.0862 -0.4449 -0.7047
  462TMC3    C1 6874   1.676   2.493   0.546 -0.7979 -0.2962  0.3399
  462TMC3    C2 6875   1.801   2.447   0.567 -0.3938 -0.2426  0.2806
  462TMC3    C3 6876   1.814   2.314   0.585  0.4518  0.9207 -0.8663
  462TMC3    C4 6877   1.571   2.408   0.569 -0.4900  0.2566  0.3015
  462TMC3    C5 6878   1.588   2.274   0.591  0.2062 -0.0693 -0.3641
  462TMC3    C6 6879   1.712   2.219   0.588 -0.7059 -0.5397 -0.0206
  462TMC3     C 6880   1.650   2.630   0.513  0.9873  0.3959  0.5101
  462TMC3     O 6881   1.537   2.660   0.533 -0.0440 -0.3407  0.7178
  462TMC3     H 6882   1.890   2.509   0.574 -0.6701  0.1352  0.4518
  462TMC3    H1 6883   1.471   2.449   0.565 -1.3467 -1.9502 -0.8658
  462TMC3    H2 6884   1.731   2.119   0.625  0.5967 -0.4407 -0.4221
  462TMC3    C7 6885   1.474   2.185   0.555  0.6751  0.3397  0.4071
  462TMC3    C8 6886   1.949   2.260   0.591 -0.2169  0.1207 -0.8560
  462TMC3    O1 6887   1.473   2.073   0.608 -0.3461  0.4861 -0.0669
  462TMC3    O2 6888   2.025   2.318   0.667  0.2912  0.1037  0.2060
  463MPD2     C 6889   2.019   0.748   1.839 -0.1743  0.0437  0.0213
  463MPD2    C1 6890   2.005   0.879   1.803 -0.0541 -0.3388  0.3021
  463MPD2    C2 6891   2.110   0.968   1.814  0.8397 -0.1453  0.3380
  463MPD2    C3 6892   2.235   0.909   1.837 -0.2677 -0.2867 -0.5611
  463MPD2    C4 6893   2.249   0.778   1.876  0.3977 -0.1339  0.3051
  463MPD2    C5 6894   2.143   0.704   1.884  1.2377  0.7368  0.5042
  463MPD2     H 6895   2.094   1.070   1.778  1.3557 -0.1236  0.1651
  463MPD2    H1 6896   2.343   0.726   1.893  0.8654  0.1856 -1.2997
  463MPD2    H2 6897   1.939   0.676   1.834 -0.2313  0.1042  0.0714
  463MPD2    H3 6898   2.146   0.599   1.913  0.3788  0.8423  0.9817
  463MPD2     N 6899   2.349   0.985   1.838  0.1511  0.3165 -0.2661
  463MPD2    H5 6900   2.436   0.939   1.866  0.6920 -0.5190 -3.4012
  463MPD2    N1 6901   1.880   0.935   1.762 -0.4883  0.0081 -0.0697
  463MPD2    H7 6902   1.881   1.030   1.727  0.9393 -0.6548 -1.8099
  464TMC3    C1 6903   1.642   0.966   1.734  0.3002 -0.0341  0.3722
  464TMC3    C2 6904   1.662   1.093   1.674 -0.1997  0.5822  0.2283
  464TMC3    C3 6905   1.544   1.174   1.658  0.2460  0.3668 -0.4685
  464TMC3    C4 6906   1.519   0.923   1.750  0.0173 -0.9698 -0.5071
  464TMC3    C5 6907   1.411   0.997   1.715 -0.1070  0.3728 -0.0215
  464TMC3    C6 6908   1.419   1.126   1.679 -0.5662  1.2173  0.3596
  464TMC3     C 6909   1.753   0.880   1.772 -1.0989  0.0479 -0.5542
  464TMC3     O 6910   1.729   0.768   1.807 -0.4094 -0.4296  0.3548
  464TMC3     H 6911   1.755   1.130   1.635  0.7359 -1.5449  0.4641
  464TMC3    H1 6912   1.509   0.825   1.796  0.0335 -0.2485  1.0509
  464TMC3    H2 6913   1.334   1.182   1.642 -0.3022  0.7436 -0.9669
  464TMC3    C7 6914   1.284   0.946   1.753  0.4049 -0.0482 -0.2511
  464TMC3    C8 6915   1.568   1.308   1.609 -0.6147  0.1338  0.0803
  464TMC3    O1 6916   1.197   1.028   1.790 -0.7502  0.1518  0.3249
  464TMC3    O2 6917   1.683   1.344   1.575  0.4984 -0.1913 -0.2375
  465MPD2     C 6918   3.913   0.104  16.835 -0.0408  0.0096  0.4615
  465MPD2    C1 6919   3.842   0.010  16.905 -0.4146  0.5413 -0.2929
  465MPD2    C2 6920   3.736   4.675  16.838  0.4129 -0.1868  0.6627
  465MPD2    C3 6921   3.693   4.719  16.711 -0.5047  0.2145 -0.0142
  465MPD2    C4 6922   3.768   0.086  16.646 -0.9818  0.0460 -0.4699
  465MPD2    C5 6923   3.872   0.143  16.712 -1.3038 -0.4499  0.7516
  465MPD2     H 6924   3.682   4.595  16.887 -0.5539  0.8431  1.2794
  465MPD2    H1 6925   3.750   0.127  16.547  1.6983  0.6160 -0.7190
  465MPD2    H2 6926   3.999   0.151  16.880 -0.2384  2.2128 -1.4549
  465MPD2    H3 6927   3.927   0.220  16.658 -0.1408 -0.6262  1.6942
  465MPD2     N 6928   3.583   4.654  16.644 -0.0931 -0.4447  0.0721
  465MPD2    H5 6929   3.526   4.588  16.695 -1.2485  0.3986 -0.1066
  465MPD2    N1 6930   3.889   4.678  17.028 -0.2432 -0.2346 -0.7590
  465MPD2    H7 6931   3.845   4.590  17.053 -2.8589  1.2553 -0.1313
  466TMC3    C1 6932   3.238   4.491  16.605 -0.7172 -0.3370  0.4258
  466TMC3    C2 6933   3.135   4.573  16.558 -0.3918 -0.2808  0.2566
  466TMC3    C3 6934   3.178   4.674  16.483  0.0819  0.5188  0.2534
  466TMC3    C4 6935   3.366   4.510  16.575 -0.1107  0.8743 -0.3685
  466TMC3    C5 6936   3.406   4.608  16.488 -0.0028 -0.3123  0.4811
  466TMC3    C6 6937   3.309   4.693  16.440 -0.0217 -0.2337  0.2232
  466TMC3     C 6938   3.198   4.405  16.717 -0.3613 -0.1165  0.0478
  466TMC3     O 6939   3.101   4.444  16.788 -0.6642 -0.1271  0.9113
  466TMC3     H 6940   3.030   4.546  16.569 -0.2633 -0.8052  0.1920
  466TMC3    H1 6941   3.441   4.448  16.622 -0.7170 -1.0374 -1.9413
  466TMC3    H2 6942   3.332   0.068  16.406  2.0942 -1.0177 -0.6314
  466TMC3    C7 6943   3.532   4.680  16.518 -0.3496 -0.5715 -0.1223
  466TMC3    C8 6944   3.088   0.054  16.451  0.4083  0.1241 -0.5348
  466TMC3    O1 6945   3.577   0.029  16.432 -0.3628  0.0113 -0.2914
  466TMC3    O2 6946   3.115   0.115  16.343 -0.2612 -0.1649 -0.2624
  467TMC3    C1 6947   4.350   2.940  14.102 -0.2715 -0.0340 -0.0199
  467TMC3    C2 6948   4.278   2.994  13.999  0.0935 -0.2251 -0.2387
  467TMC3    C3 6949   4.145   2.961  13.988  0.0753 -0.1906 -0.6130
  467TMC3    C4 6950   4.287   2.878  14.209 -0.1911  0.5600 -0.6051
  467TMC3    C5 6951   4.153   2.854  14.197 -0.3904 -0.4097 -1.0760
  467TMC3    C6 6952   4.082   2.895  14.087  0.6853  0.1468 -0.6995
  467TMC3     C 6953   4.475   3.007  14.135  0.1365 -0.1911 -0.7023
  467TMC3     O 6954   4.504   3.015  14.256  0.8910 -0.0294  0.0327
  467TMC3     H 6955   4.330   3.046  13.919  0.4394 -1.6994 -0.9740
  467TMC3    H1 6956   4.337   2.836  14.296 -0.0038 -0.4856 -1.2119
  467TMC3    H2 6957   3.979   2.862  14.073  0.5184 -0.1002  1.0985
  467TMC3    C7 6958   4.094   2.780  14.301  0.2685  0.2645  0.5752
  467TMC3    C8 6959   4.078   3.030  13.886  0.5804  0.3020 -0.4245
  467TMC3    O1 6960   4.169   2.724  14.383 -0.3530 -0.4508 -0.0223
  467TMC3    O2 6961   4.145   3.050  13.786  0.1201  0.3717  0.5587
  468MPD2     C 6962   3.176   0.978  10.243  0.6184  0.6482 -0.3294
  468MPD2    C1 6963   3.269   0.965  10.346  1.0188  0.2442 -0.4702
  468MPD2    C2 6964   3.336   0.853  10.367 -0.2301 -0.3357  0.4738
  468MPD2    C3 6965   3.300   0.743  10.294 -0.4761  0.5540 -0.0721
  468MPD2    C4 6966   3.213   0.750  10.186  0.7455 -0.2756 -0.1738
  468MPD2    C5 6967   3.155   0.870  10.163 -0.1799  0.1814  0.1004
  468MPD2     H 6968   3.394   0.847  10.459  2.6189 -0.4164 -1.3402
  468MPD2    H1 6969   3.184   0.663  10.128  2.1004 -0.2735 -0.8626
  468MPD2    H2 6970   3.121   1.067  10.217 -0.4049  0.4873  1.2526
  468MPD2    H3 6971   3.094   0.888  10.075  1.5260 -4.0528 -1.9483
  468MPD2     N 6972   3.343   0.617  10.343 -0.4518 -0.2662  0.2490
  468MPD2    H5 6973   3.311   0.540  10.284  1.4422 -0.8665  0.0305
  468MPD2    N1 6974   3.308   1.071  10.423 -0.0940  0.4002  0.1113
  468MPD2    H7 6975   3.396   1.053  10.470  0.7889 -2.2620 -2.6032
  469TMC3    C1 6976   3.313   1.271  10.549  0.3142  0.1001 -0.4490
  469TMC3    C2 6977   3.386   1.210  10.643  0.1644  0.1506 -0.8601
  469TMC3    C3 6978   3.474   1.280  10.710  0.3073  0.2098 -0.4017
  469TMC3    C4 6979   3.310   1.408  10.530 -0.0951  0.4930  0.9473
  469TMC3    C5 6980   3.413   1.478  10.592  0.2084 -0.2916  0.3728
  469TMC3    C6 6981   3.489   1.415  10.684  0.2198 -0.0423  0.4559
  469TMC3     C 6982   3.249   1.196  10.438 -0.4666 -0.1498 -0.0932
  469TMC3     O 6983   3.156   1.245  10.377  0.4107  0.1173  1.0894
  469TMC3     H 6984   3.380   1.104  10.667  2.5110  0.3993  0.8202
  469TMC3    H1 6985   3.255   1.457  10.451  0.0422  1.4516  1.4465
  469TMC3    H2 6986   3.562   1.471  10.741  1.9559 -0.7468 -1.0870
  469TMC3    C7 6987   3.422   1.621  10.573 -0.2727 -0.8011 -0.0526
  469TMC3    C8 6988   3.521   1.212  10.835 -0.3248 -0.4075  0.1866
  469TMC3    O1 6989   3.324   1.674  10.523  0.5531 -0.0327  0.0959
  469TMC3    O2 6990   3.528   1.089  10.828  0.0792 -0.4827  0.1103
  470TMC3    C1 6991   0.781   1.885   1.191 -0.2725  0.2178  0.6051
  470TMC3    C2 6992   0.839   2.007   1.206 -0.6250  0.1360  0.5727
  470TMC3    C3 6993   0.823   2.073   1.323 -0.0390  0.1200  0.7093
  470TMC3    C4 6994   0.715   1.826   1.294 -0.6369 -0.3218 -0.0240
  470TMC3    C5 6995   0.691   1.895   1.408 -0.2194 -0.1335  0.7161
  470TMC3    C6 6996   0.753   2.016   1.429  0.1774  0.0221  0.1866
  470TMC3     C 6997   0.759   1.825   1.057  0.2161  0.2386 -0.0404
  470TMC3     O 6998   0.854   1.836   0.979 -0.3298  0.3431  0.3342
  470TMC3     H 6999   0.877   2.050   1.114 -0.0657 -2.3080 -0.3490
  470TMC3    H1 7000   0.670   1.729   1.277 -0.2285  0.2238 -4.2337
  470TMC3    H2 7001   0.732   2.066   1.523 -1.8056  0.1935 -0.3323
  470TMC3    C7 7002   0.587   1.859   1.500 -0.4472  0.2006 -0.6979
  470TMC3    C8 7003   0.861   2.219   1.342 -0.4006 -0.0819 -0.1322
  470TMC3    O1 7004   0.531   1.954   1.554 -0.2569  0.4590  0.4875
  470TMC3    O2 7005   0.807   2.278   1.431 -0.3307  0.5354 -0.5505
  471MPD2     C 7006   1.421   2.987  16.750  0.6426 -0.9301 -0.1532
  471MPD2    C1 7007   1.545   3.048  16.732  0.8322  0.2439  0.5579
  471MPD2    C2 7008   1.619   3.098  16.834 -0.0013  0.8624  0.5277
  471MPD2    C3 7009   1.566   3.111  16.960 -0.5492 -0.2795 -0.0622
  471MPD2    C4 7010   1.438   3.063  16.977 -0.1572 -0.0510  0.2174
  471MPD2    C5 7011   1.371   2.996  16.877 -0.2073 -0.1072 -0.3321
  471MPD2     H 7012   1.721   3.129  16.817  0.3234  0.1271  1.1440
  471MPD2    H1 7013   1.388   3.076  17.072  0.2952  1.5160  0.2395
  471MPD2    H2 7014   1.361   2.943  16.672 -1.0261 -0.7751  1.0371
  471MPD2    H3 7015   1.280   2.937  16.883 -1.1582  1.2667 -1.1417
  471MPD2     N 7016   1.643   3.161  17.070  0.4866  0.5707  0.2549
  471MPD2    H5 7017   1.605   3.155  17.164 -1.1722 -0.8029 -0.4971
  471MPD2    N1 7018   1.605   3.038  16.601  0.7210 -0.6048  0.0504
  471MPD2    H7 7019   1.705   3.052  16.592  0.1230  2.9007 -1.4376
  472TMC3    C1 7020   1.621   2.954  16.375  0.3655  0.6168 -0.4662
  472TMC3    C2 7021   1.560   2.970  16.253  0.1893  0.1413 -0.8696
  472TMC3    C3 7022   1.591   2.881  16.153 -0.3996 -0.3458 -0.5000
  472TMC3    C4 7023   1.703   2.851  16.410 -0.6195 -0.1200 -0.0220
  472TMC3    C5 7024   1.720   2.758  16.314 -0.3246  0.3161 -0.2293
  472TMC3    C6 7025   1.663   2.769  16.184 -0.1657  0.0723  0.4427
  472TMC3     C 7026   1.535   3.006  16.479  0.4889 -0.0208 -0.1480
  472TMC3     O 7027   1.416   3.001  16.455 -0.1796  0.1491  0.9337
  472TMC3     H 7028   1.489   3.051  16.241 -1.4991 -1.2611 -0.3786
  472TMC3    H1 7029   1.720   2.834  16.516  1.9072 -0.0495 -0.4100
  472TMC3    H2 7030   1.677   2.688  16.113 -0.4320 -1.2929  1.9248
  472TMC3    C7 7031   1.691   2.626  16.374  0.7868  0.8974 -0.1314
  472TMC3    C8 7032   1.473   2.847  16.073  0.7296  0.1903  0.5997
  472TMC3    O1 7033   1.727   2.595  16.485 -0.3816  0.2622  0.2134
  472TMC3    O2 7034   1.490   2.800  15.963  0.1356  0.6725  0.7936
  473MPD2     C 7035   1.014   0.390  13.848 -0.0538  0.1807  0.4227
  473MPD2    C1 7036   1.004   0.501  13.767 -0.9055  0.4473 -0.0912
  473MPD2    C2 7037   1.092   0.604  13.779 -0.1600 -0.9471  0.2308
  473MPD2    C3 7038   1.193   0.606  13.879  0.6522 -0.5123 -0.1771
  473MPD2    C4 7039   1.183   0.504  13.975 -0.1009  0.7464 -0.4789
  473MPD2    C5 7040   1.103   0.399  13.952 -0.4879  0.0446 -0.0840
  473MPD2     H 7041   1.075   0.685  13.709  0.5601 -1.8508 -0.9919
  473MPD2    H1 7042   1.243   0.495  14.064 -0.4919 -3.5089 -0.6668
  473MPD2    H2 7043   0.946   0.306  13.841 -2.0646  1.8980 -0.9413
  473MPD2    H3 7044   1.109   0.318  14.023 -1.8432  0.5423  0.5895
  473MPD2     N 7045   1.296   0.709  13.897  0.1667  0.3737  0.5238
  473MPD2    H5 7046   1.352   0.703  13.981 -0.1904  0.9017  0.7977
  473MPD2    N1 7047   0.906   0.524  13.670  0.5855 -0.6963 -0.4301
  473MPD2    H7 7048   0.901   0.621  13.640  1.6150 -0.0580  1.4792
  474TMC3    C1 7049   1.427   0.902  13.826 -0.5015 -0.5081 -1.1484
  474TMC3    C2 7050   1.422   1.006  13.733 -0.4950 -0.8977 -0.1718
  474TMC3    C3 7051   1.452   1.134  13.779 -0.5645 -0.5981 -0.2945
  474TMC3    C4 7052   1.461   0.923  13.956  0.1629  0.2539  0.6785
  474TMC3    C5 7053   1.497   1.047  13.997  0.3032  1.0577 -0.4577
  474TMC3    C6 7054   1.491   1.156  13.908  0.3613  0.5804  0.0911
  474TMC3     C 7055   1.331   0.796  13.796 -0.3020  0.1237 -0.0607
  474TMC3     O 7056   1.285   0.806  13.683  0.1045  0.4708 -0.2988
  474TMC3     H 7057   1.385   1.003  13.632 -0.5377  0.1421 -0.1826
  474TMC3    H1 7058   1.477   0.847  14.032 -0.5749 -1.7430 -1.1603
  474TMC3    H2 7059   1.530   1.255  13.929 -2.0431  1.3798  0.8810
  474TMC3    C7 7060   1.600   1.049  14.095  0.1908  0.6638 -0.3678
  474TMC3    C8 7061   1.413   1.232  13.679  0.1764 -0.1390  0.3552
  474TMC3    O1 7062   1.674   0.954  14.094 -0.3946  0.0982  0.2026
  474TMC3    O2 7063   1.438   1.209  13.560 -0.2184 -0.3902 -0.6297
  475MPD2     C 7064   0.443   4.384  10.205  0.9423  0.4209 -0.2166
  475MPD2    C1 7065   0.339   4.443  10.147  0.2953  0.5434  0.3252
  475MPD2    C2 7066   0.218   4.460  10.215  0.3713  0.7380  0.1518
  475MPD2    C3 7067   0.211   4.425  10.349  0.1169  0.7035 -0.3759
  475MPD2    C4 7068   0.320   4.367  10.406 -0.5028 -0.5064 -0.0693
  475MPD2    C5 7069   0.438   4.349  10.334 -0.0306  0.3165 -0.0186
  475MPD2     H 7070   0.138   4.506  10.158 -0.7288 -1.0765  0.2090
  475MPD2    H1 7071   0.319   4.341  10.512 -0.0122 -2.5421 -0.5588
  475MPD2    H2 7072   0.535   4.377  10.149  1.3870 -2.7689  0.9217
  475MPD2    H3 7073   0.519   4.301  10.387 -0.5554 -2.7377 -1.9514
  475MPD2     N 7074   0.089   4.447  10.416  0.6728 -0.2372  0.1860
  475MPD2    H5 7075   0.010   4.480  10.360  2.1132  1.3085 -0.9433
  475MPD2    N1 7076   0.337   4.490  10.014 -0.1463  0.5381 -0.1797
  475MPD2    H7 7077   0.286   4.577   9.998 -1.5212 -0.1313  0.5558
  476TMC3    C1 7078   0.422   4.521   9.803 -0.5679  0.5129 -0.2840
  476TMC3    C2 7079   0.429   4.449   9.693 -0.5434  0.4353  0.1237
  476TMC3    C3 7080   0.506   4.494   9.591 -0.2916  0.5606 -0.2993
  476TMC3    C4 7081   0.499   4.633   9.831  0.4582  0.1280 -0.1079
  476TMC3    C5 7082   0.576   4.671   9.721  0.3953  0.0974 -0.4165
  476TMC3    C6 7083   0.570   4.616   9.600  0.2649  0.4632 -0.2681
  476TMC3     C 7084   0.404   4.435   9.915  0.5284  0.0229  0.0102
  476TMC3     O 7085   0.459   4.327   9.920  0.3179 -0.1985  0.1208
  476TMC3     H 7086   0.367   4.361   9.689 -0.9491  0.7355 -0.2610
  476TMC3    H1 7087   0.494   4.680   9.928 -2.8072  0.9288 -0.6350
  476TMC3    H2 7088   0.618   4.667   9.517  1.4467 -0.7291 -0.3133
  476TMC3    C7 7089   0.667   0.054   9.745  0.8748 -0.0649  0.2000
  476TMC3    C8 7090   0.495   4.433   9.460  0.1968 -0.0982  0.2041
  476TMC3    O1 7091   0.698   0.116   9.642 -0.8262 -0.0366 -0.5891
  476TMC3    O2 7092   0.597   4.452   9.396 -0.5196 -0.3014  0.4448
  477MPD2     C 7093   1.913   0.659  11.558 -0.8029 -0.0840  0.1110
  477MPD2    C1 7094   1.880   0.679  11.693  0.1783  0.1534  0.5824
  477MPD2    C2 7095   1.957   0.621  11.795  0.1816  0.0941  0.6375
  477MPD2    C3 7096   2.060   0.542  11.761 -0.1522  0.1253 -0.4528
  477MPD2    C4 7097   2.087   0.514  11.633  0.5997  0.8136  0.3241
  477MPD2    C5 7098   2.012   0.572  11.533 -0.0224  0.3598 -0.2282
  477MPD2     H 7099   1.925   0.639  11.898  1.1843  1.8232  0.6318
  477MPD2    H1 7100   2.176   0.461  11.601  0.5326  1.2571 -0.6050
  477MPD2    H2 7101   1.861   0.708  11.477 -0.2614 -0.6716 -0.5917
  477MPD2    H3 7102   2.046   0.557  11.431 -2.0035  3.2484 -1.3096
  477MPD2     N 7103   2.129   0.477  11.873 -0.0354  0.4764 -0.1416
  477MPD2    H5 7104   2.102   0.502  11.967 -1.3289  0.0333 -0.4023
  477MPD2    N1 7105   1.774   0.774  11.712 -0.4761 -0.1483  0.5785
  477MPD2    H7 7106   1.732   0.792  11.622 -0.7246  1.5590  1.0346
  478TMC3    C1 7107   1.586   0.903  11.804  0.1697 -0.7648 -0.9096
  478TMC3    C2 7108   1.495   0.917  11.898  0.1617 -0.0298 -0.4975
  478TMC3    C3 7109   1.379   0.994  11.876 -1.0682  0.0238  0.4930
  478TMC3    C4 7110   1.564   0.945  11.679  0.0468  0.7024  1.0403
  478TMC3    C5 7111   1.450   1.030  11.663 -0.3266  0.1757  0.3757
  478TMC3    C6 7112   1.358   1.058  11.761 -0.2013 -0.5334  0.9626
  478TMC3     C 7113   1.710   0.820  11.830 -0.2404  0.2759 -0.4414
  478TMC3     O 7114   1.727   0.778  11.940  0.3321  0.0061  0.1195
  478TMC3     H 7115   1.516   0.881  11.998  0.9224  0.2656 -0.5507
  478TMC3    H1 7116   1.645   0.942  11.607  0.0347  1.3139  1.0011
  478TMC3    H2 7117   1.261   1.100  11.733 -0.8758 -0.8544  2.8381
  478TMC3    C7 7118   1.424   1.081  11.530 -0.0644  0.4855 -0.1031
  478TMC3    C8 7119   1.325   1.065  11.991  0.0713  0.7637  0.1348
  478TMC3    O1 7120   1.344   1.170  11.524 -0.2290  0.6867 -0.5782
  478TMC3    O2 7121   1.357   1.017  12.099  0.0475 -0.9275  0.0282
  479MPD2     C 7122   1.220   2.660  15.020 -0.2098 -0.1974 -0.3975
  479MPD2    C1 7123   1.189   2.570  15.116 -1.0964  0.0642  0.5742
  479MPD2    C2 7124   1.254   2.572  15.237  0.3927  0.0777 -0.2703
  479MPD2    C3 7125   1.343   2.678  15.256  0.3009 -0.0779  0.8510
  479MPD2    C4 7126   1.377   2.758  15.151  0.1890  0.0653  0.1451
  479MPD2    C5 7127   1.324   2.750  15.028  0.6774  0.8250  0.4498
  479MPD2     H 7128   1.232   2.498  15.313 -0.3115  0.5924  0.0288
  479MPD2    H1 7129   1.445   2.842  15.160  0.7760 -0.3136 -0.7615
  479MPD2    H2 7130   1.177   2.647  14.922 -1.3745  0.3631  0.0348
  479MPD2    H3 7131   1.359   2.807  14.943  0.4384 -1.2932 -1.0676
  479MPD2     N 7132   1.401   2.718  15.382  1.1187 -0.1972  0.6500
  479MPD2    H5 7133   1.485   2.775  15.380  1.0124 -0.0607 -0.4858
  479MPD2    N1 7134   1.093   2.473  15.079  0.5774 -0.1123  0.3560
  479MPD2    H7 7135   1.047   2.491  14.990  0.0125 -0.8730  0.4919
  480TMC3    C1 7136   1.093   2.487  15.678 -0.2180 -0.3846  0.0305
  480TMC3    C2 7137   0.980   2.523  15.618  0.0503  0.1336  0.3045
  480TMC3    C3 7138   0.991   2.610  15.513  0.0305 -0.1657 -0.0951
  480TMC3    C4 7139   1.216   2.527  15.640 -0.6692  0.3004  0.5682
  480TMC3    C5 7140   1.232   2.621  15.542 -0.5076  0.7359 -0.0679
  480TMC3    C6 7141   1.113   2.671  15.490 -0.4959  0.2906  0.0727
  480TMC3     C 7142   1.095   2.410  15.801 -0.4221  0.1803  0.6323
  480TMC3     O 7143   1.208   2.378  15.844 -0.3912  0.0593  0.0375
  480TMC3     H 7144   0.887   2.476  15.646 -0.2998  1.0428  0.6667
  480TMC3    H1 7145   1.299   2.473  15.684  0.7797  0.7646 -1.6141
  480TMC3    H2 7146   1.109   2.738  15.405 -1.4644 -0.6500 -0.6440
  480TMC3    C7 7147   1.371   2.671  15.508 -0.1786 -0.0251  0.0736
  480TMC3    C8 7148   0.873   2.637  15.428  0.0671 -0.0343 -0.8553
  480TMC3    O1 7149   1.445   2.686  15.604  0.2215 -0.1222 -0.2448
  480TMC3    O2 7150   0.766   2.607  15.479 -0.2485  0.6606  0.8096
  481MPD2     C 7151   2.650   2.431  14.011 -0.1999  0.1171 -0.4558
  481MPD2    C1 7152   2.520   2.424  14.058  0.0232  0.5176 -0.4343
  481MPD2    C2 7153   2.494   2.350  14.174  0.6511  0.0824 -0.3160
  481MPD2    C3 7154   2.597   2.262  14.220 -0.4163 -0.2864  0.7374
  481MPD2    C4 7155   2.717   2.267  14.167  0.0031  0.4312 -0.3310
  481MPD2    C5 7156   2.746   2.348  14.064 -0.9279 -0.3784  0.0477
  481MPD2     H 7157   2.395   2.349  14.218  1.1941 -0.5821  0.8732
  481MPD2    H1 7158   2.787   2.196  14.208 -2.3477 -2.1233 -0.7425
  481MPD2    H2 7159   2.675   2.481  13.918  2.6735 -1.4809 -0.5481
  481MPD2    H3 7160   2.846   2.337  14.024 -0.4467 -1.0547  1.4540
  481MPD2     N 7161   2.586   2.179  14.337 -0.5224 -0.5726  0.1412
  481MPD2    H5 7162   2.668   2.126  14.363 -0.1921 -0.1396 -0.0274
  481MPD2    N1 7163   2.418   2.496  13.986 -0.4163  0.0384  0.1563
  481MPD2    H7 7164   2.450   2.568  13.921 -2.2035  1.4279  0.8153
  482TMC3    C1 7165   2.201   2.531  13.887 -0.4906  0.9981 -0.2352
  482TMC3    C2 7166   2.094   2.460  13.844  0.6440  0.4258  0.0943
  482TMC3    C3 7167   2.046   2.461  13.713  0.0726 -0.0277 -0.2367
  482TMC3    C4 7168   2.264   2.620  13.795  0.0865  0.3337  0.2355
  482TMC3    C5 7169   2.218   2.611  13.663 -0.1623  0.8493 -0.1373
  482TMC3    C6 7170   2.111   2.537  13.623 -0.4372  0.3146  0.7715
  482TMC3     C 7171   2.283   2.463  13.983  1.0350  0.5797  0.8911
  482TMC3     O 7172   2.232   2.368  14.038  0.1935  0.0322  0.3012
  482TMC3     H 7173   2.050   2.390  13.915  0.4416  0.4727  0.0123
  482TMC3    H1 7174   2.352   2.680  13.816  0.4836 -0.8252  1.8672
  482TMC3    H2 7175   2.096   2.519  13.517  0.2435  2.7579  0.2620
  482TMC3    C7 7176   2.305   2.665  13.563 -0.0220 -0.8383 -0.4892
  482TMC3    C8 7177   1.987   2.342  13.661 -0.7470 -0.0556  0.1514
  482TMC3    O1 7178   2.423   2.687  13.601  0.1160 -0.2744 -0.6434
  482TMC3    O2 7179   2.017   2.248  13.728 -0.2747 -0.5275 -0.5011
  483TMC3    C1 7180   0.178   1.063   0.961 -0.3299  0.3001  0.2274
  483TMC3    C2 7181   0.243   1.182   0.934 -0.5963  0.3629 -0.7269
  483TMC3    C3 7182   0.342   1.213   1.022 -0.3499  0.1958 -0.5184
  483TMC3    C4 7183   0.195   0.986   1.063 -0.6628 -0.5073 -0.2950
  483TMC3    C5 7184   0.302   1.028   1.149 -0.1441 -0.7297  0.0305
  483TMC3    C6 7185   0.365   1.140   1.134 -1.4462  0.0989  0.0782
  483TMC3     C 7186   0.064   1.039   0.869  0.5557 -0.4594  0.4226
  483TMC3     O 7187   0.014   1.129   0.805  0.1490  0.3065 -0.2097
  483TMC3     H 7188   0.224   1.244   0.847 -1.8132 -0.6586 -1.1795
  483TMC3    H1 7189   0.130   0.908   1.099  1.6197 -0.3313  4.2338
  483TMC3    H2 7190   0.453   1.160   1.194 -1.8693  0.8767  0.4407
  483TMC3    C7 7191   0.380   0.946   1.239 -0.0978 -0.4110 -0.3219
  483TMC3    C8 7192   0.454   1.279   0.962  1.0315 -0.1731 -0.5568
  483TMC3    O1 7193   0.502   0.965   1.243  0.1798 -0.2015  0.1716
  483TMC3    O2 7194   0.469   1.260   0.845  0.2668  0.0525  0.0311
  484MPD2     C 7195   2.784   4.554  12.900  0.0843 -0.1252  0.4649
  484MPD2    C1 7196   2.761   4.466  12.803  0.4190  0.0794  0.0223
  484MPD2    C2 7197   2.845   4.461  12.692  0.1865  0.1060 -0.0228
  484MPD2    C3 7198   2.952   4.549  12.682  0.1736  0.2999 -0.1609
  484MPD2    C4 7199   2.969   4.643  12.780 -0.9699  0.3465 -0.1728
  484MPD2    C5 7200   2.886   4.648  12.888  0.2846  0.3719 -0.1241
  484MPD2     H 7201   2.834   4.390  12.612  1.3140 -0.1199  0.0207
  484MPD2    H1 7202   3.050   4.716  12.779  1.5002 -2.3317  3.0976
  484MPD2    H2 7203   2.714   4.544  12.982 -2.1036 -2.3313 -1.6729
  484MPD2    H3 7204   2.904   4.722  12.965 -0.9126 -0.3741  0.8764
  484MPD2     N 7205   3.048   4.532  12.577  0.0889 -0.2696  0.3092
  484MPD2    H5 7206   3.110   4.611  12.563  1.7191 -1.5609  0.1875
  484MPD2    N1 7207   2.640   4.385  12.821  0.5927  0.0918  0.0203
  484MPD2    H7 7208   2.589   4.396  12.909 -1.7187 -0.4739 -1.2328
  485TMC3    C1 7209   3.198   4.419  12.443 -0.0138 -1.2872 -0.3065
  485TMC3    C2 7210   3.267   4.296  12.439  0.3152  0.1065  0.0360
  485TMC3    C3 7211   3.387   4.294  12.378  0.1981 -0.0065  0.0705
  485TMC3    C4 7212   3.249   4.530  12.385  0.0203 -0.7722 -0.6547
  485TMC3    C5 7213   3.375   4.530  12.323  0.0268 -0.2083 -0.2111
  485TMC3    C6 7214   3.440   4.411  12.320 -0.3144 -0.2859  0.5864
  485TMC3     C 7215   3.071   4.408  12.511 -0.0173  0.6686  0.2475
  485TMC3     O 7216   3.026   4.298  12.537  0.1214  0.6711  0.8669
  485TMC3     H 7217   3.231   4.202  12.478  0.1097 -0.4616 -1.5458
  485TMC3    H1 7218   3.182   4.614  12.374  0.6035 -0.4424 -1.7304
  485TMC3    H2 7219   3.537   4.412  12.271  0.0759 -2.0238  1.3232
  485TMC3    C7 7220   3.387   4.595  12.199 -0.0770  0.1910 -0.8319
  485TMC3    C8 7221   3.398   4.185  12.279 -0.4743 -0.0051 -0.8577
  485TMC3    O1 7222   3.389   4.720  12.198 -0.1225 -0.2946  0.2165
  485TMC3    O2 7223   3.459   4.220  12.182 -1.3313 -0.0044 -0.4327
  486MPD2     C 7224   0.295   3.017  12.799  0.2808  0.3718 -0.0353
  486MPD2    C1 7225   0.374   3.101  12.723  0.6503  0.2608 -0.1539
  486MPD2    C2 7226   0.337   3.232  12.707 -0.0115 -0.6002  0.0764
  486MPD2    C3 7227   0.225   3.284  12.766 -0.2968 -0.1518  1.3210
  486MPD2    C4 7228   0.159   3.208  12.856 -0.3885  0.1963  0.2744
  486MPD2    C5 7229   0.195   3.078  12.874 -0.2568  0.0001 -0.0837
  486MPD2     H 7230   0.399   3.294  12.643  0.4456 -2.1136 -0.9389
  486MPD2    H1 7231   0.069   3.238  12.910 -1.6224  0.1891 -1.7700
  486MPD2    H2 7232   0.316   2.911  12.802 -0.1556  0.2118 -2.8863
  486MPD2    H3 7233   0.138   3.008  12.935 -0.1714 -0.0492 -0.0609
  486MPD2     N 7234   0.189   3.411  12.716 -0.2702  0.2321  0.3389
  486MPD2    H5 7235   0.243   3.439  12.635  0.6298 -0.9923  0.5050
  486MPD2    N1 7236   0.489   3.035  12.664 -0.1612  0.3796 -0.3511
  486MPD2    H7 7237   0.515   2.944  12.701  0.8996  1.4864  1.6271
  487TMC3    C1 7238   0.644   2.987  12.481 -0.1954  0.2850  0.5307
  487TMC3    C2 7239   0.637   2.958  12.347 -0.7578  0.1567  0.8949
  487TMC3    C3 7240   0.691   2.837  12.315 -0.4120 -0.6898 -0.2014
  487TMC3    C4 7241   0.737   2.934  12.572  0.1825 -0.2520 -0.9048
  487TMC3    C5 7242   0.822   2.834  12.512 -0.4117 -0.0360  0.9214
  487TMC3    C6 7243   0.806   2.794  12.385 -0.4698  0.2285 -0.0653
  487TMC3     C 7244   0.543   3.077  12.535 -0.0449 -0.3672  0.0556
  487TMC3     O 7245   0.497   3.155  12.457  0.1872 -0.4781 -0.2600
  487TMC3     H 7246   0.561   3.001  12.282  0.8352  1.3327 -0.1895
  487TMC3    H1 7247   0.736   2.967  12.675 -2.3455  2.2427 -1.7298
  487TMC3    H2 7248   0.859   2.704  12.356 -1.4776 -0.2268 -0.4874
  487TMC3    C7 7249   0.867   2.745  12.613  0.2660 -0.4230 -0.2276
  487TMC3    C8 7250   0.589   2.737  12.327 -0.0191  0.4608 -0.1557
  487TMC3    O1 7251   0.794   2.740  12.711  0.0737 -0.3394 -0.8140
  487TMC3    O2 7252   0.473   2.779  12.321  0.1288 -0.2595 -0.9139
  488MPD2     C 7253   1.097   4.141  16.258  0.1868  0.6257 -0.0286
  488MPD2    C1 7254   1.076   4.255  16.331 -0.6357 -0.5050  0.0507
  488MPD2    C2 7255   1.036   4.239  16.465  0.0014 -0.5058  0.2606
  488MPD2    C3 7256   1.001   4.119  16.520  0.1908  0.4291  0.5099
  488MPD2    C4 7257   1.004   4.010  16.431 -0.2004 -0.4731  0.2941
  488MPD2    C5 7258   1.063   4.017  16.307 -0.1928  0.3651 -0.9446
  488MPD2     H 7259   1.053   4.323  16.531 -1.3935 -2.5538  3.2241
  488MPD2    H1 7260   0.973   3.910  16.459 -3.1032  0.0588 -0.9693
  488MPD2    H2 7261   1.129   4.134  16.154  0.3075 -4.7810  0.3282
  488MPD2    H3 7262   1.066   3.926  16.247  2.1565  0.1887 -0.5419
  488MPD2     N 7263   0.959   4.120  16.656 -0.5145 -0.0213 -0.2147
  488MPD2    H5 7264   0.976   4.198  16.718 -2.0364  0.7927 -0.8267
  488MPD2    N1 7265   1.084   4.385  16.278 -0.8426  0.3608  0.2731
  488MPD2    H7 7266   1.056   4.462  16.339 -1.1204 -0.1608  0.8050
  489TMC3    C1 7267   0.885   4.041  16.871  0.2527  0.0698  0.0311
  489TMC3    C2 7268   0.945   4.140  16.942  0.9957 -0.1583  0.4098
  489TMC3    C3 7269   0.901   4.164  17.071  0.3201 -0.0179 -0.4642
  489TMC3    C4 7270   0.791   3.967  16.937  0.7968 -0.0880 -0.4286
  489TMC3    C5 7271   0.768   3.980  17.073  0.1669 -0.4938  0.0960
  489TMC3    C6 7272   0.818   4.090  17.145 -0.0196  0.2545  0.5814
  489TMC3     C 7273   0.904   4.018  16.730  0.3197 -0.1784 -0.0495
  489TMC3     O 7274   0.859   3.914  16.687  0.4033 -0.2226 -0.0695
  489TMC3     H 7275   1.013   4.215  16.901 -0.0836  0.1158 -0.8770
  489TMC3    H1 7276   0.735   3.899  16.873  1.0635  0.5717 -1.3612
  489TMC3    H2 7277   0.800   4.101  17.252 -2.5171 -2.4912  0.4300
  489TMC3    C7 7278   0.692   3.872  17.128  0.0346  0.2317  0.2133
  489TMC3    C8 7279   0.941   4.290  17.138  0.1034 -0.0970 -0.1637
  489TMC3    O1 7280   0.623   3.812  17.046 -0.0309  0.3363  0.1301
  489TMC3    O2 7281   1.039   4.347  17.088 -0.2853  0.2561 -0.4813
  490MPD2     C 7282   1.032   3.857   0.007  0.2035  0.3703  0.0251
  490MPD2    C1 7283   1.150   3.834  17.640  0.1816  0.2529 -0.6716
  490MPD2    C2 7284   1.261   3.917  17.669  0.4119  0.0678 -0.2080
  490MPD2    C3 7285   1.249   4.020   0.062  0.0579 -0.2729 -0.6347
  490MPD2    C4 7286   1.130   4.049   0.123  0.1506 -0.0309  0.6193
  490MPD2    C5 7287   1.025   3.967   0.093  0.1675 -0.4006  0.7765
  490MPD2     H 7288   1.356   3.900  17.619  0.1145 -2.7817  0.2047
  490MPD2    H1 7289   1.122   4.123   0.201  0.9612 -1.4822  2.0668
  490MPD2    H2 7290   0.938   3.806  17.689  0.1534  0.4477  0.0643
  490MPD2    H3 7291   0.934   3.993   0.145 -0.9644 -1.0135 -0.8921
  490MPD2     N 7292   1.354   4.099   0.106  0.2878 -0.6896 -0.3885
  490MPD2    H5 7293   1.337   4.158   0.187  4.7180 -0.2164  0.2303
  490MPD2    N1 7294   1.161   3.717  17.574 -0.4568  0.1822  0.4473
  490MPD2    H7 7295   1.082   3.655  17.589  1.0612 -1.8227  0.1064
  491TMC3    C1 7296   1.253   3.551  17.448 -0.1683 -0.5885 -0.5122
  491TMC3    C2 7297   1.209   3.457  17.532  0.1359  0.6611  0.0550
  491TMC3    C3 7298   1.216   3.324  17.488  0.2563  0.1213 -0.2001
  491TMC3    C4 7299   1.296   3.521  17.324 -0.6294  0.4026  0.0027
  491TMC3    C5 7300   1.298   3.388  17.287 -0.3569  0.1617 -0.1542
  491TMC3    C6 7301   1.253   3.290  17.362  0.7920 -0.1313 -0.1339
  491TMC3     C 7302   1.259   3.686  17.490 -0.3797  0.0138  0.3230
  491TMC3     O 7303   1.349   3.759  17.446 -0.1973 -0.0832 -0.2387
  491TMC3     H 7304   1.186   3.480  17.635  2.2462 -0.4624  0.7823
  491TMC3    H1 7305   1.326   3.601  17.258  1.0175  0.1146  0.3984
  491TMC3    H2 7306   1.255   3.188  17.326 -0.3996  0.0784 -0.7766
  491TMC3    C7 7307   1.274   3.354  17.149 -0.2952  0.2493 -0.0222
  491TMC3    C8 7308   1.148   3.229  17.574 -0.5030 -1.0765  1.1826
  491TMC3    O1 7309   1.180   3.279  17.134  0.0910  0.4849 -0.4078
  491TMC3    O2 7310   1.140   3.267  17.691  0.3035 -0.3157 -0.1101
  492MPD2     C 7311   2.106   4.456  10.406 -0.1698 -0.3175 -0.3603
  492MPD2    C1 7312   1.994   4.388  10.365  0.5585 -0.5332 -0.8054
  492MPD2    C2 7313   1.927   4.308  10.460  0.1535 -0.0845 -0.2482
  492MPD2    C3 7314   1.976   4.296  10.590  0.3845 -0.6756  0.5735
  492MPD2    C4 7315   2.096   4.352  10.619 -0.6677  0.4453  0.5666
  492MPD2    C5 7316   2.155   4.439  10.534 -0.4453  0.7535 -0.3262
  492MPD2     H 7317   1.834   4.261  10.431  0.6807 -1.0269 -0.4171
  492MPD2    H1 7318   2.135   4.349  10.720  0.7793  0.3437  0.0002
  492MPD2    H2 7319   2.162   4.518  10.337 -1.3742  1.2215  0.0411
  492MPD2    H3 7320   2.238   4.498  10.571 -0.0003 -1.5999  2.4097
  492MPD2     N 7321   1.912   4.235  10.696 -0.3988  0.0547  0.4267
  492MPD2    H5 7322   1.950   4.238  10.790 -2.1437  0.1766  1.1254
  492MPD2    N1 7323   1.965   4.381  10.227 -1.0512 -0.4832  0.0928
  492MPD2    H7 7324   2.010   4.443  10.161 -1.9241 -2.7995 -2.6643
  493TMC3    C1 7325   1.857   4.309  10.028 -0.9143 -0.5873  0.5437
  493TMC3    C2 7326   1.856   4.438   9.978 -0.6449  0.0914  0.0848
  493TMC3    C3 7327   1.791   4.461   9.860  0.1758  0.4842  0.1399
  493TMC3    C4 7328   1.805   4.207   9.958  0.3659 -0.1501 -0.3703
  493TMC3    C5 7329   1.728   4.234   9.850 -0.0548  0.3951 -0.2050
  493TMC3    C6 7330   1.722   4.357   9.795 -0.1060  0.4671  0.4063
  493TMC3     C 7331   1.884   4.286  10.167  0.7505  0.3807 -0.0284
  493TMC3     O 7332   1.837   4.179  10.208 -0.6926  0.6160 -0.5640
  493TMC3     H 7333   1.911   4.510  10.036 -0.0272 -0.6456  0.4203
  493TMC3    H1 7334   1.819   4.107   9.997  0.2482 -0.6113 -1.4875
  493TMC3    H2 7335   1.655   4.380   9.712  1.5129 -1.2356 -1.3585
  493TMC3    C7 7336   1.597   4.176   9.856  0.2783  0.4409 -0.6068
  493TMC3    C8 7337   1.758   4.601   9.822 -0.7873 -0.4539  0.0345
  493TMC3    O1 7338   1.518   4.173   9.758 -0.5248  0.2724 -0.0785
  493TMC3    O2 7339   1.655   4.607   9.759  0.0926  0.1798 -0.6204
  494TMC3    C1 7340   2.278   1.397   0.617 -0.3782 -0.5766  0.2918
  494TMC3    C2 7341   2.176   1.304   0.613 -0.5675  0.2321  0.4548
  494TMC3    C3 7342   2.180   1.208   0.513  0.4211 -0.1852  0.7066
  494TMC3    C4 7343   2.385   1.389   0.535 -0.7299  0.4494 -0.4299
  494TMC3    C5 7344   2.387   1.294   0.433  0.0754 -0.2461  0.1952
  494TMC3    C6 7345   2.285   1.203   0.420  0.4664 -0.5867  0.3634
  494TMC3     C 7346   2.269   1.495   0.725  0.8583 -1.0163 -0.2188
  494TMC3     O 7347   2.174   1.482   0.802  0.0218 -0.3918 -0.0750
  494TMC3     H 7348   2.092   1.301   0.682 -0.6816  1.0960  0.3539
  494TMC3    H1 7349   2.465   1.461   0.549 -0.3585  0.1758 -1.1564
  494TMC3    H2 7350   2.287   1.138   0.333  1.3339  0.2578 -0.2578
  494TMC3    C7 7351   2.490   1.304   0.324  0.1456 -0.6104  1.0812
  494TMC3    C8 7352   2.081   1.111   0.501 -0.2708 -0.1609 -0.2182
  494TMC3    O1 7353   2.448   1.265   0.217 -0.6471 -0.8213 -0.4442
  494TMC3    O2 7354   2.114   0.998   0.478 -0.0679 -0.0641 -0.5271
  495TMC3    C1 7355   1.038   2.680  14.420  0.6248 -0.4391  0.6579
  495TMC3    C2 7356   0.972   2.780  14.364 -0.0387  0.0016 -0.3635
  495TMC3    C3 7357   0.887   2.854  14.440  0.1894  0.8704 -0.2257
  495TMC3    C4 7358   1.028   2.651  14.554 -0.1831 -0.0668 -0.0927
  495TMC3    C5 7359   0.954   2.732  14.635 -0.1116 -0.4266  0.3281
  495TMC3    C6 7360   0.881   2.840  14.577 -0.1118 -0.3252 -0.5872
  495TMC3     C 7361   1.045   2.564  14.331 -0.1181 -0.2137  0.7043
  495TMC3     O 7362   0.956   2.560  14.246  0.6982 -0.1396 -0.3617
  495TMC3     H 7363   0.958   2.787  14.256  2.9804  0.1779 -0.7290
  495TMC3    H1 7364   1.081   2.571  14.604  2.3462  0.9269 -1.2330
  495TMC3    H2 7365   0.828   2.911  14.639  1.7504 -1.3980  2.2561
  495TMC3    C7 7366   0.924   2.695  14.772 -0.0614  0.4713  0.4346
  495TMC3    C8 7367   0.771   2.907  14.373 -0.1424  0.6849 -0.4450
  495TMC3    O1 7368   0.979   2.594  14.817 -0.3387  0.3447 -0.2744
  495TMC3    O2 7369   0.663   2.898  14.436 -0.2650  0.3647  0.7391
  496MPD2     C 7370   3.528   2.778  15.286  0.0537  0.5393 -0.6233
  496MPD2    C1 7371   3.468   2.691  15.370 -0.8033 -0.1812 -0.1754
  496MPD2    C2 7372   3.418   2.742  15.496 -0.2820  0.3974  0.1776
  496MPD2    C3 7373   3.444   2.873  15.537  0.2670 -0.1856  0.1901
  496MPD2    C4 7374   3.515   2.957  15.448 -0.4953  0.2519 -0.4720
  496MPD2    C5 7375   3.552   2.906  15.325  0.3495 -0.7983 -1.0974
  496MPD2     H 7376   3.360   2.675  15.560 -0.8674  0.7666  0.0345
  496MPD2    H1 7377   3.546   3.057  15.473 -1.2444  0.3835 -0.0720
  496MPD2    H2 7378   3.555   2.746  15.186 -0.3065 -1.3236 -0.1184
  496MPD2    H3 7379   3.602   2.965  15.249  0.2471 -0.0736 -0.5966
  496MPD2     N 7380   3.383   2.911  15.659  0.8044 -0.1794 -0.3622
  496MPD2    H5 7381   3.336   2.831  15.700  2.3355 -2.6462 -3.4304
  496MPD2    N1 7382   3.428   2.558  15.324  0.0824  0.1450 -0.1856
  496MPD2    H7 7383   3.465   2.527  15.235 -0.2019  0.0057 -0.2556
  497TMC3    C1 7384   3.336   3.041  15.853  0.5414  0.3897 -0.0211
  497TMC3    C2 7385   3.225   2.969  15.880 -0.4493  0.3302 -0.1616
  497TMC3    C3 7386   3.162   3.000  15.998  0.5471  0.5514  0.0543
  497TMC3    C4 7387   3.369   3.148  15.931  0.5442 -0.3746  1.0263
  497TMC3    C5 7388   3.298   3.182  16.042 -0.0061  0.1716 -0.0391
  497TMC3    C6 7389   3.198   3.104  16.083 -0.1399 -0.2849  0.3331
  497TMC3     C 7390   3.404   3.026  15.726 -0.6978  0.0763  0.2349
  497TMC3     O 7391   3.501   3.099  15.699  0.3822 -0.5613 -0.0409
  497TMC3     H 7392   3.196   2.876  15.831 -1.4095  0.7982 -0.4732
  497TMC3    H1 7393   3.443   3.219  15.895 -0.3316  0.0439  0.0297
  497TMC3    H2 7394   3.141   3.132  16.170  0.3222 -0.5140  0.7082
  497TMC3    C7 7395   3.372   3.271  16.128 -0.2812  0.3010 -0.0900
  497TMC3    C8 7396   3.040   2.924  16.043 -0.2647  0.4571 -0.3064
  497TMC3    O1 7397   3.370   3.387  16.090  0.1036  0.0562 -0.1943
  497TMC3    O2 7398   3.031   2.918  16.166  0.8439 -0.0861  0.0882
  498MPD2     C 7399   3.442   3.781   9.201 -0.1763  0.2310 -0.5865
  498MPD2    C1 7400   3.497   3.671   9.274 -0.1929  0.3781 -0.3613
  498MPD2    C2 7401   3.428   3.591   9.364  0.3891 -0.1784  0.5437
  498MPD2    C3 7402   3.293   3.624   9.384 -1.1858 -0.2229  0.3418
  498MPD2    C4 7403   3.230   3.718   9.302  0.1948  0.1776  0.2370
  498MPD2    C5 7404   3.306   3.792   9.210 -0.4691  0.1224  0.2348
  498MPD2     H 7405   3.471   3.506   9.417 -0.1624 -0.6100  0.2986
  498MPD2    H1 7406   3.124   3.739   9.301  0.0898 -0.4192 -1.8446
  498MPD2    H2 7407   3.492   3.850   9.135  0.5962  1.9024  1.7306
  498MPD2    H3 7408   3.257   3.867   9.148  0.5964 -1.5763 -2.6757
  498MPD2     N 7409   3.230   3.562   9.493 -0.3228  0.3524 -0.6755
  498MPD2    H5 7410   3.292   3.503   9.547 -1.3814 -1.1086 -1.0778
  498MPD2    N1 7411   3.637   3.637   9.254  0.4041 -0.2897 -0.5403
  498MPD2    H7 7412   3.671   3.555   9.302 -0.2431 -0.1670  0.1348
  499TMC3    C1 7413   3.844   3.646   9.148 -0.4907  0.4114  0.0303
  499TMC3    C2 7414   3.866   3.512   9.170 -0.0361  0.3799 -0.3403
  499TMC3    C3 7415   3.998   3.472   9.183  0.7502 -0.7475  0.1534
  499TMC3    C4 7416   3.953   3.727   9.112 -0.0335  0.4041  0.5695
  499TMC3    C5 7417   4.076   3.672   9.103  0.3809  0.7037  0.2831
  499TMC3    C6 7418   4.099   3.543   9.141  0.1841 -0.2042 -0.0079
  499TMC3     C 7419   3.727   3.718   9.187 -0.7534  0.1070  0.1967
  499TMC3     O 7420   3.722   3.836   9.152 -0.0931 -0.4767 -0.0357
  499TMC3     H 7421   3.789   3.442   9.201  0.2704 -0.9002 -2.4860
  499TMC3    H1 7422   3.943   3.834   9.103 -0.0763  0.3514  0.0145
  499TMC3    H2 7423   4.199   3.504   9.155  1.4261  2.6184 -1.0438
  499TMC3    C7 7424   4.192   3.759   9.083 -0.6816 -0.0334 -0.2471
  499TMC3    C8 7425   4.021   3.336   9.230 -0.2473  0.0053  0.0818
  499TMC3    O1 7426   4.180   3.879   9.111 -1.3320  0.2196  0.0317
  499TMC3    O2 7427   3.934   3.294   9.307 -0.2180  0.3600 -0.0594
  500MPD2     C 7428   1.050   0.870   9.886  0.9225  0.1927  0.0326
  500MPD2    C1 7429   0.989   0.805   9.987 -1.0381 -0.0922 -0.2221
  500MPD2    C2 7430   0.872   0.735   9.968 -0.5739 -0.0384 -0.2550
  500MPD2    C3 7431   0.816   0.724   9.843  0.4143 -0.1754  0.7005
  500MPD2    C4 7432   0.879   0.792   9.746  0.4626 -0.2876 -0.3456
  500MPD2    C5 7433   0.986   0.872   9.768 -0.0319 -0.1235  0.4081
  500MPD2     H 7434   0.833   0.695  10.061 -1.0647 -0.9272 -0.8428
  500MPD2    H1 7435   0.838   0.800   9.646 -0.2191 -0.6096 -0.0884
  500MPD2    H2 7436   1.141   0.924   9.910  1.7845 -1.8579  1.4169
  500MPD2    H3 7437   1.027   0.937   9.691 -0.8342 -0.4395 -0.2927
  500MPD2     N 7438   0.695   0.651   9.819  0.2586  0.1712 -0.0959
  500MPD2    H5 7439   0.663   0.638   9.723 -1.1796 -0.7220  0.5276
  500MPD2    N1 7440   1.045   0.802  10.116 -0.1306  0.1999  0.5191
  500MPD2    H7 7441   0.993   0.773  10.198  0.1401 -0.9121  0.3071
  501TMC3    C1 7442   1.195   0.819  10.275 -0.1636 -0.2917  0.1534
  501TMC3    C2 7443   1.117   0.903  10.348  0.1557  0.2145  0.4136
  501TMC3    C3 7444   1.139   0.914  10.480  0.3059 -0.0443 -0.3442
  501TMC3    C4 7445   1.286   0.733  10.326 -0.0866  1.2066  0.0577
  501TMC3    C5 7446   1.294   0.734  10.459 -0.9753  0.8610  0.6520
  501TMC3    C6 7447   1.230   0.830  10.538  0.9595 -0.1932 -0.2713
  501TMC3     C 7448   1.179   0.819  10.142 -0.2246 -0.1158  0.0047
  501TMC3     O 7449   1.274   0.809  10.068  0.1489 -0.3621  0.8006
  501TMC3     H 7450   1.077   0.985  10.290 -0.3653 -0.7670 -0.6270
  501TMC3    H1 7451   1.344   0.669  10.261 -0.8650  1.0511 -0.4789
  501TMC3    H2 7452   1.238   0.833  10.646 -4.5342 -1.9971  0.1814
  501TMC3    C7 7453   1.420   0.683  10.507 -0.6020  0.3809  0.2415
  501TMC3    C8 7454   1.094   1.028  10.562  0.1893 -0.1532 -0.1994
  501TMC3    O1 7455   1.473   0.589  10.449  0.1632 -0.2197 -0.0105
  501TMC3    O2 7456   1.145   1.043  10.673 -0.7815  0.1768 -0.0155
  502TMC3    C1 7457   0.469   3.103  14.691  0.3460  0.8615 -0.5625
  502TMC3    C2 7458   0.446   3.224  14.635  0.1200 -0.0124 -0.5944
  502TMC3    C3 7459   0.353   3.311  14.690 -0.0632  0.2643 -0.2453
  502TMC3    C4 7460   0.372   3.057  14.784 -0.7206 -0.2542  0.7706
  502TMC3    C5 7461   0.286   3.142  14.841  0.3702  0.3338  0.3663
  502TMC3    C6 7462   0.274   3.271  14.792  0.2473 -0.1231  0.0030
  502TMC3     C 7463   0.606   3.092  14.744  0.4205 -0.5758 -0.1371
  502TMC3     O 7464   0.693   3.127  14.669  0.0164 -0.5410 -0.2797
  502TMC3     H 7465   0.511   3.259  14.556  1.7880 -1.0212  0.3278
  502TMC3    H1 7466   0.383   2.957  14.824  0.7401 -1.2730 -2.1548
  502TMC3    H2 7467   0.207   3.342  14.839  1.6134  0.8658  0.4624
  502TMC3    C7 7468   0.251   3.127  14.977  0.1250 -0.8570  0.5364
  502TMC3    C8 7469   0.411   3.442  14.714 -0.1128 -0.1302  0.2987
  502TMC3    O1 7470   0.335   3.056  15.028  0.3975 -0.1553  0.1871
  502TMC3    O2 7471   0.344   3.529  14.757 -0.2905  0.2245  0.4887
  503MPD2     C 7472   2.489   4.413  17.162 -0.1285 -0.4754 -0.3418
  503MPD2    C1 7473   2.539   4.443  17.290  0.3933 -0.2423  0.2814
  503MPD2    C2 7474   2.593   4.344  17.366 -0.6940  0.1527  0.2229
  503MPD2    C3 7475   2.610   4.221  17.303 -0.5769 -0.6747  0.4557
  503MPD2    C4 7476   2.556   4.186  17.180 -0.1377 -0.3255 -0.3069
  503MPD2    C5 7477   2.491   4.284  17.111  0.2341 -0.8167 -0.2320
  503MPD2     H 7478   2.637   4.369  17.462  1.5494  0.4255 -0.8671
  503MPD2    H1 7479   2.583   4.092  17.131  0.4871 -0.0299 -0.5397
  503MPD2    H2 7480   2.447   4.479  17.087  1.9251  2.6225  1.2424
  503MPD2    H3 7481   2.451   4.274  17.011 -1.6311  1.4736  0.2942
  503MPD2     N 7482   2.678   4.123  17.377 -0.4373  0.4357 -0.3270
  503MPD2    H5 7483   2.702   4.152  17.471 -0.1848 -2.4167  0.4960
  503MPD2    N1 7484   2.536   4.575  17.340 -0.2780  0.9387  0.1232
  503MPD2    H7 7485   2.561   4.591  17.437  0.3418 -1.5189  0.3616
  504TMC3    C1 7486   2.815   3.943  17.412 -0.6648  0.7041 -0.1451
  504TMC3    C2 7487   2.761   3.886  17.529 -0.2792 -0.7616 -0.0272
  504TMC3    C3 7488   2.845   3.822  17.615 -0.5539 -0.6200 -0.4928
  504TMC3    C4 7489   2.942   3.924  17.383 -0.1948  0.2792 -0.2303
  504TMC3    C5 7490   3.022   3.843  17.462 -0.5230 -0.6372  0.7655
  504TMC3    C6 7491   2.976   3.792  17.581 -0.3584 -0.0917  0.2475
  504TMC3     C 7492   2.742   4.024  17.316 -0.3911 -0.3580  0.6203
  504TMC3     O 7493   2.786   4.021  17.204  0.7409  0.6989 -0.2848
  504TMC3     H 7494   2.657   3.891  17.558 -0.1239  2.1189 -0.0172
  504TMC3    H1 7495   2.974   3.962  17.287  0.6921  4.3333  1.7171
  504TMC3    H2 7496   3.033   3.728  17.647 -0.3917 -0.3400  0.0315
  504TMC3    C7 7497   3.161   3.821  17.402 -0.2662  0.5123  0.3245
  504TMC3    C8 7498   2.786   3.705  17.670 -0.2621  0.2928 -1.0074
  504TMC3    O1 7499   3.196   3.892  17.310  0.4231 -0.4017  0.4171
  504TMC3    O2 7500   2.724   3.630  17.602 -0.1060  0.0833  0.0397
  505MPD2     C 7501   2.651   3.267  10.481 -0.1143 -0.1154  0.5209
  505MPD2    C1 7502   2.695   3.145  10.531 -0.2022  0.1766  0.2243
  505MPD2    C2 7503   2.800   3.145  10.623  0.0702  0.1500 -0.6412
  505MPD2    C3 7504   2.877   3.257  10.642 -0.2039  0.3492 -0.0797
  505MPD2    C4 7505   2.843   3.370  10.581  0.1560  0.0364 -0.3182
  505MPD2    C5 7506   2.732   3.378  10.494  0.8779  0.1470  0.3740
  505MPD2     H 7507   2.820   3.055  10.679 -1.6182 -0.1977 -0.5920
  505MPD2    H1 7508   2.899   3.462  10.593 -1.0602  0.9187 -1.4073
  505MPD2    H2 7509   2.563   3.265  10.417 -0.5481 -0.7594  1.1327
  505MPD2    H3 7510   2.701   3.474  10.454 -0.3796 -0.2019  0.4933
  505MPD2     N 7511   2.985   3.255  10.735  0.3309  0.3674 -0.5518
  505MPD2    H5 7512   3.031   3.344  10.756 -0.4744  0.7943 -0.5998
  505MPD2    N1 7513   2.621   3.032  10.496 -0.4028  0.0959 -0.1548
  505MPD2    H7 7514   2.531   3.043  10.450 -0.9776 -2.3861  0.3890
  506TMC3    C1 7515   2.582   2.787  10.474  0.0544 -0.4483 -0.8056
  506TMC3    C2 7516   2.524   2.803  10.351 -0.0576 -0.0133 -0.5103
  506TMC3    C3 7517   2.540   2.695  10.268  0.3092 -0.4997  0.5815
  506TMC3    C4 7518   2.656   2.672  10.510 -0.4021  0.5344 -0.1218
  506TMC3    C5 7519   2.671   2.576  10.416 -0.7846  0.0045 -0.4750
  506TMC3    C6 7520   2.611   2.581  10.297  0.8422 -0.3852  0.0031
  506TMC3     C 7521   2.669   2.897  10.516 -0.3520  0.1800 -0.7263
  506TMC3     O 7522   2.785   2.875  10.545  0.0408  0.3193 -0.0096
  506TMC3     H 7523   2.477   2.897  10.323  1.6310 -0.0726 -3.4723
  506TMC3    H1 7524   2.682   2.663  10.615 -1.7307  0.3075  0.1942
  506TMC3    H2 7525   2.625   2.500  10.226 -1.1720 -0.2737 -0.5218
  506TMC3    C7 7526   2.807   2.525  10.420  0.1976  0.2418 -0.4192
  506TMC3    C8 7527   2.529   2.715  10.126  0.2682  0.0647 -0.8994
  506TMC3    O1 7528   2.835   2.437  10.342 -0.0361 -0.1338 -0.0555
  506TMC3    O2 7529   2.495   2.624  10.045  0.2424 -0.4121 -0.1238
  507TMC3    C1 7530   3.418   3.908  15.309 -0.2333 -0.1188  0.5088
  507TMC3    C2 7531   3.347   3.850  15.208 -0.2079  0.5744 -0.7340
  507TMC3    C3 7532   3.400   3.743  15.137  0.0401 -0.0247  0.1939
  507TMC3    C4 7533   3.545   3.862  15.347  0.4208 -0.0155 -0.2104
  507TMC3    C5 7534   3.590   3.757  15.275  0.2621  0.3184 -0.8539
  507TMC3    C6 7535   3.520   3.696  15.180 -0.9430  0.5001 -0.7798
  507TMC3     C 7536   3.348   4.005  15.393  0.7668 -0.0105  0.3391
  507TMC3     O 7537   3.407   4.042  15.497  0.1996  0.5205 -0.3225
  507TMC3     H 7538   3.249   3.885  15.176 -0.2601 -0.5608 -1.8083
  507TMC3    H1 7539   3.611   3.922  15.409  0.7289  0.9613 -1.4889
  507TMC3    H2 7540   3.562   3.606  15.137 -0.5413  0.6665 -0.7341
  507TMC3    C7 7541   3.729   3.772  15.240  0.4542  0.3648  0.1412
  507TMC3    C8 7542   3.405   3.763  14.993  0.0509  0.1088 -0.6513
  507TMC3    O1 7543   3.814   3.766  15.326  0.2538  0.5322  0.0444
  507TMC3    O2 7544   3.516   3.747  14.946 -0.0010  0.0107 -0.6231
  508MPD2     C 7545   0.284   1.109  16.132 -0.6956  0.3593 -0.1137
  508MPD2    C1 7546   0.234   1.225  16.181  0.3583 -0.2729 -0.0704
  508MPD2    C2 7547   0.165   1.313  16.106  0.7595 -0.1763 -0.1407
  508MPD2    C3 7548   0.138   1.287  15.975  0.3079 -0.3423 -0.1390
  508MPD2    C4 7549   0.169   1.159  15.928  0.4878  0.2855 -0.4671
  508MPD2    C5 7550   0.248   1.070  16.004 -0.1265  0.0099  1.0010
  508MPD2     H 7551   0.152   1.417  16.137 -0.4931 -0.8229  1.4982
  508MPD2    H1 7552   0.147   1.137  15.824  1.2913  1.8425 -0.9600
  508MPD2    H2 7553   0.341   1.032  16.183 -0.9642 -0.7727 -1.5256
  508MPD2    H3 7554   0.284   0.978  15.961  1.8379  0.8215  0.9322
  508MPD2     N 7555   0.077   1.389  15.896 -0.4718 -0.5391 -0.1138
  508MPD2    H5 7556   0.068   1.480  15.939  0.7729 -1.1258  1.3807
  508MPD2    N1 7557   0.267   1.248  16.321 -0.1611  0.0437 -0.6172
  508MPD2    H7 7558   0.332   1.185  16.367 -3.2555  0.3235  4.1120
  509TMC3    C1 7559   4.618   1.726  15.742 -1.4240 -0.3461 -0.5169
  509TMC3    C2 7560   4.716   1.788  15.677  0.2775 -0.3741  0.5341
  509TMC3    C3 7561   0.101   1.713  15.638  0.4505  0.6316 -0.0764
  509TMC3    C4 7562   4.625   1.589  15.770  0.3450 -0.0005 -0.0001
  509TMC3    C5 7563   0.003   1.518  15.716 -0.1411 -0.2399 -0.4768
  509TMC3    C6 7564   0.103   1.578  15.644 -0.4742  0.3327 -1.5188
  509TMC3     C 7565   4.501   1.796  15.777 -0.7995 -0.1606  0.0859
  509TMC3     O 7566   4.462   1.782  15.892 -0.2754  0.3616  0.6591
  509TMC3     H 7567   4.717   1.896  15.673  0.7032 -0.3642  0.8670
  509TMC3    H1 7568   4.539   1.550  15.822  1.1900 -1.2709  0.4349
  509TMC3    H2 7569   0.189   1.523  15.609  0.4704 -0.2968  1.7849
  509TMC3    C7 7570   0.045   1.381  15.761 -0.2743 -0.1229 -0.1759
  509TMC3    C8 7571   0.204   1.769  15.551 -0.0336 -0.0402 -0.5944
  509TMC3    O1 7572   0.085   1.307  15.679 -0.5007 -0.1837 -0.0494
  509TMC3    O2 7573   0.291   1.698  15.497  0.2325 -0.1492  0.0404
  510MPD2     C 7574   2.402   3.283  14.891  0.7637 -0.4327 -0.2285
  510MPD2    C1 7575   2.520   3.259  14.960  0.3913 -0.7936  0.0432
  510MPD2    C2 7576   2.636   3.258  14.888  0.3370  1.1156 -0.8032
  510MPD2    C3 7577   2.629   3.286  14.749 -0.1786  0.2582  0.3982
  510MPD2    C4 7578   2.507   3.313  14.686  0.0432 -0.3665 -0.8165
  510MPD2    C5 7579   2.393   3.302  14.755 -0.1346 -0.4426  0.2892
  510MPD2     H 7580   2.729   3.235  14.938 -1.3596  0.1124  1.9172
  510MPD2    H1 7581   2.503   3.325  14.578  0.1653  1.0301 -0.6629
  510MPD2    H2 7582   2.306   3.271  14.940 -0.1376 -0.7049 -2.0784
  510MPD2    H3 7583   2.301   3.313  14.698  0.9922  2.0353 -1.0508
  510MPD2     N 7584   2.752   3.279  14.677 -0.0614 -0.0303  0.9323
  510MPD2    H5 7585   2.835   3.239  14.719 -0.5728 -0.2373  1.7480
  510MPD2    N1 7586   2.510   3.223  15.099 -0.1226 -0.2715 -0.1693
  510MPD2    H7 7587   2.418   3.244  15.136 -0.4021  1.9287 -2.0724
  511TMC3    C1 7588   2.572   3.092  15.287  0.0191 -0.0315  0.1713
  511TMC3    C2 7589   2.446   3.112  15.333 -0.0096  0.2057 -0.5763
  511TMC3    C3 7590   2.403   3.034  15.438  0.2246  0.4921 -0.4936
  511TMC3    C4 7591   2.652   2.991  15.335 -0.2821 -0.3255 -0.6311
  511TMC3    C5 7592   2.604   2.903  15.434  0.5506  0.4211  0.1420
  511TMC3    C6 7593   2.473   2.922  15.480 -1.0365 -0.0512 -0.2400
  511TMC3     C 7594   2.609   3.150  15.161  0.2213  0.2357 -0.1381
  511TMC3     O 7595   2.713   3.112  15.114  0.4032 -0.2598 -0.3630
  511TMC3     H 7596   2.385   3.198  15.307  0.6639  0.6358 -0.7342
  511TMC3    H1 7597   2.752   2.982  15.293 -0.3089  2.1810 -1.2090
  511TMC3    H2 7598   2.427   2.852  15.549  0.2665  1.5483  2.2260
  511TMC3    C7 7599   2.656   2.768  15.411  0.1193  0.2374  0.3876
  511TMC3    C8 7600   2.286   3.088  15.503  0.7603  0.1335 -0.5174
  511TMC3    O1 7601   2.766   2.736  15.455  0.0291  0.3244 -0.4442
  511TMC3    O2 7602   2.264   3.207  15.513 -0.3578  0.2845  0.4282
  512TMC3    C1 7603   1.181   2.972  12.777  0.2452  0.1276 -0.7048
  512TMC3    C2 7604   1.193   2.929  12.908 -0.3186 -0.5889 -0.2431
  512TMC3    C3 7605   1.266   2.817  12.931 -0.2486 -0.0435 -0.2616
  512TMC3    C4 7606   1.241   2.905  12.677 -0.3675  0.1417 -0.3499
  512TMC3    C5 7607   1.314   2.797  12.707 -0.7717 -0.3918  0.2676
  512TMC3    C6 7608   1.326   2.748  12.833 -0.0280  0.2296  0.0253
  512TMC3     C 7609   1.096   3.085  12.748 -0.7151 -0.7718 -0.3003
  512TMC3     O 7610   1.062   3.139  12.850 -0.1631  0.6171  0.3136
  512TMC3     H 7611   1.147   2.977  12.994  0.9147  1.8539 -0.9346
  512TMC3    H1 7612   1.234   2.951  12.579  0.3867 -0.5616 -0.7245
  512TMC3    H2 7613   1.398   2.668  12.846  0.2742  0.8365  2.1076
  512TMC3    C7 7614   1.348   2.708  12.594  0.1341  0.4941  0.3827
  512TMC3    C8 7615   1.344   2.807  13.056  0.6194 -0.2684 -0.2960
  512TMC3    O1 7616   1.351   2.761  12.485 -0.0924  0.2894 -0.0445
  512TMC3    O2 7617   1.378   2.694  13.093  0.1383  0.2329  0.4567
  513MPD2     C 7618   3.190   2.548  13.316 -0.1472  0.0406  1.0652
  513MPD2    C1 7619   3.283   2.574  13.222 -0.1642  0.7880 -0.7348
  513MPD2    C2 7620   3.405   2.630  13.250 -0.4215 -0.1387 -0.4937
  513MPD2    C3 7621   3.444   2.659  13.378 -0.0257  0.8264 -0.1979
  513MPD2    C4 7622   3.353   2.630  13.479 -0.1415  0.6479 -0.0345
  513MPD2    C5 7623   3.233   2.574  13.445 -0.4490  0.0410 -0.1888
  513MPD2     H 7624   3.471   2.655  13.168  1.3505 -0.9470  0.6764
  513MPD2    H1 7625   3.377   2.640  13.584 -1.4323 -0.4650  0.3643
  513MPD2    H2 7626   3.094   2.502  13.295 -0.1074  0.6758 -0.5376
  513MPD2    H3 7627   3.157   2.558  13.520  1.7731 -0.2284  2.0092
  513MPD2     N 7628   3.567   2.729  13.396 -0.1793  0.1264  0.0943
  513MPD2    H5 7629   3.609   2.751  13.306  0.3638 -2.0878 -0.1728
  513MPD2    N1 7630   3.263   2.531  13.087  0.1858 -0.0474  0.1688
  513MPD2    H7 7631   3.328   2.553  13.012 -0.7445  2.4842  0.1325
  514TMC3    C1 7632   3.197   2.446  12.904  0.0423 -0.3661  0.1870
  514TMC3    C2 7633   3.120   2.464  12.798  0.5809  0.3139  0.7571
  514TMC3    C3 7634   3.178   2.463  12.671 -0.4460 -0.5121 -0.3828
  514TMC3    C4 7635   3.332   2.426  12.886 -0.5828  0.2678 -0.9231
  514TMC3    C5 7636   3.391   2.424  12.762  0.0191  0.5724  0.6481
  514TMC3    C6 7637   3.309   2.446  12.650  0.3108  0.3624 -0.5837
  514TMC3     C 7638   3.150   2.481  13.036 -0.0376  0.0515  0.4609
  514TMC3     O 7639   3.034   2.495  13.069 -0.7536 -0.6709 -0.4642
  514TMC3     H 7640   3.021   2.504  12.812 -0.4254 -2.4398  1.6305
  514TMC3    H1 7641   3.392   2.390  12.969 -1.7664  0.3430 -0.0509
  514TMC3    H2 7642   3.362   2.455  12.556  0.3172 -0.8881 -0.6982
  514TMC3    C7 7643   3.538   2.421  12.760  0.2301  0.7071  0.2152
  514TMC3    C8 7644   3.086   2.461  12.559  0.6998  0.6859 -1.0660
  514TMC3    O1 7645   3.592   2.321  12.722  0.5563 -0.2788 -0.6842
  514TMC3    O2 7646   2.968   2.442  12.573 -0.5458  0.4209 -0.4927
  515MPD2     C 7647   1.323   4.437  14.887 -0.0181 -0.4961  0.4981
  515MPD2    C1 7648   1.338   4.301  14.900  0.5819  0.6350 -0.1090
  515MPD2    C2 7649   1.424   4.252  14.993  0.1987 -0.2195  0.0298
  515MPD2    C3 7650   1.507   4.334  15.069 -0.0097 -0.3036  0.9343
  515MPD2    C4 7651   1.502   4.470  15.047 -0.5766 -0.0897 -0.3855
  515MPD2    C5 7652   1.410   4.519  14.962 -0.5119 -0.6260  0.2828
  515MPD2     H 7653   1.426   4.146  15.012  2.1825 -0.5006 -1.6922
  515MPD2    H1 7654   1.573   4.539  15.091 -0.6126  1.6942 -3.1707
  515MPD2    H2 7655   1.275   4.483  14.802 -1.6255  1.0005  2.2124
  515MPD2    H3 7656   1.415   4.627  14.959 -0.0902 -0.7290 -2.3530
  515MPD2     N 7657   1.601   4.294  15.164  0.2517 -0.2265 -0.3275
  515MPD2    H5 7658   1.661   4.368  15.199  2.0152 -1.0212 -1.7039
  515MPD2    N1 7659   1.268   4.197  14.819  0.0167 -0.1275 -0.8967
  515MPD2    H7 7660   1.281   4.100  14.845  2.0125  0.5944  0.7720
  516TMC3    C1 7661   1.145   4.109  14.643  0.6960 -0.2633 -0.7919
  516TMC3    C2 7662   1.063   4.130  14.531  0.2451 -0.2129 -0.2767
  516TMC3    C3 7663   1.021   4.018  14.463 -0.3502 -0.4219  0.0750
  516TMC3    C4 7664   1.181   3.977  14.679 -0.6892 -0.2357  0.0134
  516TMC3    C5 7665   1.120   3.870  14.612  0.3849  0.4626 -0.4642
  516TMC3    C6 7666   1.030   3.890  14.504 -0.1986 -0.3610  0.1677
  516TMC3     C 7667   1.201   4.226  14.710 -0.4594 -0.1969 -0.3296
  516TMC3     O 7668   1.168   4.329  14.655  0.2390 -0.3535 -0.3756
  516TMC3     H 7669   1.049   4.235  14.506  1.1803 -0.3458 -1.3930
  516TMC3    H1 7670   1.256   3.958  14.754  0.7954  0.2500 -1.3357
  516TMC3    H2 7671   0.967   3.809  14.466 -0.8996 -0.1057  0.7848
  516TMC3    C7 7672   1.155   3.736  14.661  0.9370 -0.6069 -0.2208
  516TMC3    C8 7673   0.905   4.040  14.377 -0.3727 -0.5974 -0.2555
  516TMC3    O1 7674   1.240   3.729  14.756 -0.0337  0.2143  0.4744
  516TMC3    O2 7675   0.800   3.978  14.398  0.1384 -0.5751  0.1649
  517MPD2     C 7676   0.745   1.000  17.663  0.1174 -0.8640  0.8341
  517MPD2    C1 7677   0.851   0.978   0.055 -0.0705 -0.6012  0.2667
  517MPD2    C2 7678   0.894   1.080   0.136  0.4236  0.9009 -0.1249
  517MPD2    C3 7679   0.831   1.209   0.125 -0.4615  0.0117 -0.1698
  517MPD2    C4 7680   0.722   1.226   0.041  0.3193 -0.4923  0.8446
  517MPD2    C5 7681   0.680   1.124  17.664 -0.6171  0.3405  0.6888
  517MPD2     H 7682   0.969   1.048   0.208  2.3017 -0.1070 -2.5249
  517MPD2    H1 7683   0.683   1.326   0.023 -1.0513 -1.2054 -0.1660
  517MPD2    H2 7684   0.721   0.924  17.590  0.7784  0.3577 -0.6522
  517MPD2    H3 7685   0.594   1.134  17.599 -0.5826  0.4385  0.6589
  517MPD2     N 7686   0.872   1.320   0.208 -0.6951 -0.3674 -0.4538
  517MPD2    H5 7687   0.824   1.410   0.201 -0.8431 -0.3492  0.7404
  517MPD2    N1 7688   0.927   0.858   0.062 -0.2572 -0.8368 -0.6249
  517MPD2    H7 7689   0.999   0.867   0.133  0.1581 -0.3856 -1.1037
  518TMC3    C1 7690   1.016   0.652   0.024 -0.1644 -0.0500 -0.1290
  518TMC3    C2 7691   0.986   0.520   0.027  0.0462  0.4527 -0.1104
  518TMC3    C3 7692   1.092   0.435   0.013 -0.3795 -0.5304 -0.0609
  518TMC3    C4 7693   1.146   0.706   0.003  0.0973  0.5902  0.0115
  518TMC3    C5 7694   1.247   0.615  17.672 -0.0342  0.3413  0.0293
  518TMC3    C6 7695   1.224   0.482  17.683 -0.0938 -0.3000  0.5062
  518TMC3     C 7696   0.900   0.736   0.008  0.1602 -1.2694  0.2753
  518TMC3     O 7697   0.797   0.701  17.658  0.7031 -0.2065 -0.5173
  518TMC3     H 7698   0.886   0.481   0.024  0.4789 -0.6636  0.1569
  518TMC3    H1 7699   1.159   0.809  17.675 -1.9543  0.8979  0.1438
  518TMC3    H2 7700   1.295   0.400  17.686 -0.7420 -0.9125 -0.9780
  518TMC3    C7 7701   1.378   0.668  17.671  0.3235 -0.0113  0.4061
  518TMC3    C8 7702   1.059   0.291   0.005  0.4469  0.1239 -0.0036
  518TMC3    O1 7703   1.383   0.792  17.688 -0.0823 -0.3973  0.1818
  518TMC3    O2 7704   1.142   0.227  17.641 -0.1948  0.4323 -0.5456
  519MPD2     C 7705   2.760   4.454  14.274  0.5519 -0.2199 -0.2035
  519MPD2    C1 7706   2.680   4.376  14.349  0.0483  0.6254  1.0503
  519MPD2    C2 7707   2.718   4.246  14.383 -0.1082 -0.2345  0.3653
  519MPD2    C3 7708   2.841   4.200  14.349  0.3934 -0.1904 -0.3031
  519MPD2    C4 7709   2.920   4.280  14.264  0.6133 -0.1834  1.3945
  519MPD2    C5 7710   2.875   4.404  14.226 -0.3422 -0.2522  0.6184
  519MPD2     H 7711   2.645   4.184  14.435 -3.4030  2.5510 -0.9464
  519MPD2    H1 7712   3.007   4.230  14.222  0.4013 -0.0876  0.8490
  519MPD2    H2 7713   2.729   4.550  14.234  2.2621  1.7173  3.1489
  519MPD2    H3 7714   2.937   4.458  14.155  1.1649  0.8236  2.7586
  519MPD2     N 7715   2.892   4.072  14.382 -0.8866  0.3880  0.0001
  519MPD2    H5 7716   2.978   4.036  14.342 -0.4120  0.1041  1.2930
  519MPD2    N1 7717   2.549   4.413  14.397  0.2844 -0.1177 -0.3887
  519MPD2    H7 7718   2.506   4.342  14.456 -0.9659 -0.5969 -1.8950
  520TMC3    C1 7719   2.849   3.851  14.415  0.1392  0.6748  0.7439
  520TMC3    C2 7720   2.757   3.825  14.319  0.3564  0.3219 -0.1813
  520TMC3    C3 7721   2.794   3.756  14.208  0.3970 -0.3163  0.8982
  520TMC3    C4 7722   2.984   3.826  14.387 -0.7322 -0.2154 -0.3646
  520TMC3    C5 7723   3.017   3.760  14.275 -0.6136  0.3600 -0.5159
  520TMC3    C6 7724   2.922   3.722  14.182  0.0209  0.3177 -0.1331
  520TMC3     C 7725   2.826   3.987  14.463  0.0897  0.2105 -1.2912
  520TMC3     O 7726   2.727   4.001  14.540  0.1632 -0.2927  0.2163
  520TMC3     H 7727   2.663   3.877  14.333  1.1186  1.6866 -0.1100
  520TMC3    H1 7728   3.061   3.859  14.456 -0.8356  1.1302 -0.8917
  520TMC3    H2 7729   2.949   3.680  14.085 -0.2473  2.7093 -1.2334
  520TMC3    C7 7730   3.110   3.655  14.304  0.0018 -0.0309  0.1167
  520TMC3    C8 7731   2.690   3.710  14.121 -0.0127  0.0384 -0.7691
  520TMC3    O1 7732   3.112   3.629  14.425 -0.5582  1.2640 -0.1091
  520TMC3    O2 7733   2.694   3.719  13.999 -0.1087 -0.1321 -0.2147
  521MPD2     C 7734   3.840   2.279   0.025  0.4361 -0.9077  0.4260
  521MPD2    C1 7735   3.810   2.264  17.597  0.6561 -0.5983 -0.1657
  521MPD2    C2 7736   3.909   2.221  17.507 -0.4548 -0.7521  0.3359
  521MPD2    C3 7737   4.037   2.206  17.545 -0.0507 -0.5588  0.0458
  521MPD2    C4 7738   4.069   2.236  17.678 -0.0695  0.5833 -1.0860
  521MPD2    C5 7739   3.975   2.267   0.066 -0.5078  0.5057  0.6666
  521MPD2     H 7740   3.876   2.218  17.404  0.5920 -3.1921  0.0708
  521MPD2    H1 7741   4.173   2.246   0.005  0.6486 -1.6305 -2.8606
  521MPD2    H2 7742   3.767   2.313   0.097 -0.7055  1.0329 -1.6376
  521MPD2    H3 7743   3.988   2.303   0.167 -4.0838 -2.0310  2.0049
  521MPD2     N 7744   4.133   2.155  17.454  0.2670  0.5274  0.1356
  521MPD2    H5 7745   4.100   2.138  17.359  1.8581  2.3533 -0.7432
  521MPD2    N1 7746   3.672   2.274  17.555  0.6703 -1.0233 -0.6327
  521MPD2    H7 7747   3.608   2.315  17.623 -1.0346 -2.1395 -1.5572
  522TMC3    C1 7748   4.321   2.038  17.370  0.2085  0.3849  0.5333
  522TMC3    C2 7749   4.425   1.961  17.410 -0.4226 -0.2380 -0.6026
  522TMC3    C3 7750   4.486   1.885  17.312 -0.0024  0.2496  0.2878
  522TMC3    C4 7751   4.277   2.044  17.239 -0.3125 -0.1165  0.1937
  522TMC3    C5 7752   4.337   1.968  17.143 -0.0811 -0.3162  0.4839
  522TMC3    C6 7753   4.440   1.881  17.180 -0.3800  0.4694 -0.4845
  522TMC3     C 7754   4.255   2.101  17.480  0.0432 -0.1280 -0.3600
  522TMC3     O 7755   4.301   2.072  17.591  0.3227 -0.0367  0.7214
  522TMC3     H 7756   4.454   1.949  17.513 -0.2657  1.0786 -0.4924
  522TMC3    H1 7757   4.199   2.114  17.213 -0.3083 -0.6402 -1.2383
  522TMC3    H2 7758   4.481   1.818  17.102 -0.5224 -0.0224 -0.1600
  522TMC3    C7 7759   4.292   1.972  17.008 -0.4033 -0.1534 -0.0210
  522TMC3    C8 7760   4.610   1.813  17.346 -0.6234 -0.0422  0.4633
  522TMC3    O1 7761   4.360   1.923  16.923  0.6746  0.0791 -0.1258
  522TMC3    O2 7762   4.652   1.824  17.463 -0.0063  0.2745  0.1669
  523MPD2     C 7763   1.628   2.394  10.801 -0.4610  0.3746 -1.3028
  523MPD2    C1 7764   1.571   2.350  10.684 -0.0233 -0.0801  0.1513
  523MPD2    C2 7765   1.505   2.441  10.608  0.3019  0.0708 -0.2931
  523MPD2    C3 7766   1.502   2.578  10.632 -0.1353  0.1852 -0.2985
  523MPD2    C4 7767   1.583   2.621  10.735 -0.4078 -0.2068 -0.0937
  523MPD2    C5 7768   1.641   2.529  10.822 -0.0391  0.1902 -0.3938
  523MPD2     H 7769   1.451   2.406  10.521  0.8656 -1.0208 -0.1949
  523MPD2    H1 7770   1.598   2.727  10.754 -2.0707  0.1951 -1.0113
  523MPD2    H2 7771   1.685   2.330  10.867 -1.2060  0.5671 -0.4751
  523MPD2    H3 7772   1.700   2.558  10.908 -0.1208 -0.7517 -0.0205
  523MPD2     N 7773   1.435   2.664  10.542  0.2171  0.0876  0.2851
  523MPD2    H5 7774   1.477   2.756  10.533 -0.7438  0.5907  0.8565
  523MPD2    N1 7775   1.562   2.209  10.657  0.1531 -0.0533 -0.5872
  523MPD2    H7 7776   1.559   2.146  10.736  0.2983  0.1688 -0.4027
  524TMC3    C1 7777   1.274   2.700  10.365 -0.0945 -0.8581  0.0694
  524TMC3    C2 7778   1.187   2.632  10.282  0.5842  0.8574 -0.8771
  524TMC3    C3 7779   1.176   2.675  10.153 -0.1912  0.3791 -0.0119
  524TMC3    C4 7780   1.355   2.803  10.321 -0.2740 -0.5120  0.5295
  524TMC3    C5 7781   1.337   2.842  10.195  0.5766 -0.1146 -0.0905
  524TMC3    C6 7782   1.249   2.780  10.105  0.0002  0.5889 -0.1130
  524TMC3     C 7783   1.320   2.625  10.480 -0.4204  0.1993  0.4918
  524TMC3     O 7784   1.247   2.530  10.510 -0.6136  0.2503 -0.3643
  524TMC3     H 7785   1.122   2.556  10.324 -0.5092  0.8697 -2.5342
  524TMC3    H1 7786   1.426   2.851  10.388 -0.1218 -0.3300  0.2333
  524TMC3    H2 7787   1.231   2.807  10.001 -0.5818 -0.7293 -0.3615
  524TMC3    C7 7788   1.427   2.937  10.137 -0.9546 -0.1205  0.5922
  524TMC3    C8 7789   1.128   2.586  10.043 -0.2420  0.7995  0.3718
  524TMC3    O1 7790   1.524   2.981  10.197  0.3440 -0.1030  0.4658
  524TMC3    O2 7791   1.108   2.632   9.932 -0.1779  0.0054 -0.2166
  525MPD2     C 7792   3.969   3.376  14.713  0.1504  0.9807 -0.2641
  525MPD2    C1 7793   4.102   3.361  14.736  0.2786  0.0997 -0.2643
  525MPD2    C2 7794   4.183   3.448  14.663  0.2026 -0.1658  0.4500
  525MPD2    C3 7795   4.138   3.558  14.594  0.2864  0.3139 -0.2621
  525MPD2    C4 7796   4.000   3.584  14.594  0.6291  0.0551 -0.2897
  525MPD2    C5 7797   3.921   3.491  14.648  0.2839 -0.2270  0.3557
  525MPD2     H 7798   4.288   3.430  14.677  0.1061 -2.1893 -1.5114
  525MPD2    H1 7799   3.977   3.674  14.539  1.4313  2.1640  2.8079
  525MPD2    H2 7800   3.897   3.304  14.750  1.7314  0.1795  1.2632
  525MPD2    H3 7801   3.818   3.486  14.613 -0.1479 -1.2292  1.8136
  525MPD2     N 7802   4.214   3.645  14.517 -0.3597  0.0005 -0.2843
  525MPD2    H5 7803   4.162   3.711  14.461  0.1325 -0.3812 -1.1803
  525MPD2    N1 7804   4.151   3.260  14.822 -0.7933 -0.5247  0.3236
  525MPD2    H7 7805   4.252   3.260  14.825 -0.7005 -1.7210 -2.1244
  526TMC3    C1 7806   4.155   3.105  14.999  0.7255  0.7083  0.0406
  526TMC3    C2 7807   4.089   3.064  15.116 -0.2852 -0.0637 -0.3370
  526TMC3    C3 7808   4.148   2.990  15.207  0.6897 -0.6820 -0.5722
  526TMC3    C4 7809   4.275   3.052  14.962 -0.4647 -0.7037  0.1827
  526TMC3    C5 7810   4.326   2.960  15.050 -0.0191  0.1076  0.1487
  526TMC3    C6 7811   4.265   2.934  15.170 -0.4873  0.1492 -0.2183
  526TMC3     C 7812   4.078   3.188  14.909 -0.1196 -0.1722  0.3323
  526TMC3     O 7813   3.957   3.184  14.928 -0.4372  0.2393 -0.0507
  526TMC3     H 7814   3.993   3.107  15.140 -0.1316  0.8475 -1.3944
  526TMC3    H1 7815   4.320   3.062  14.864  1.6047  1.1502  1.3164
  526TMC3    H2 7816   4.321   2.867  15.235 -0.5733 -0.2476 -0.5520
  526TMC3    C7 7817   4.466   2.914  15.041 -0.0635  0.0813  0.0563
  526TMC3    C8 7818   4.122   3.018  15.345 -0.5277  0.2836  0.3643
  526TMC3    O1 7819   4.506   2.841  15.129  0.1754 -0.1191 -1.0480
  526TMC3    O2 7820   4.207   2.970  15.426  0.4118 -0.6775  0.0374
  527MPD2     C 7821   1.928   2.005   1.646  0.5518 -0.4486 -0.3647
  527MPD2    C1 7822   1.913   1.867   1.644 -0.2372  0.4406  0.7533
  527MPD2    C2 7823   2.007   1.792   1.584 -0.2300 -0.5138  0.4435
  527MPD2    C3 7824   2.118   1.860   1.528  0.2900 -0.0398  0.1509
  527MPD2    C4 7825   2.123   1.998   1.506  0.1978  0.4881 -0.0890
  527MPD2    C5 7826   2.026   2.065   1.575  0.7702  0.4361  1.1291
  527MPD2     H 7827   1.988   1.686   1.582  0.7176 -0.6768 -0.2475
  527MPD2    H1 7828   2.215   2.045   1.472  0.7144 -0.3069  0.1986
  527MPD2    H2 7829   1.856   2.073   1.689  1.5050  1.3263 -1.5916
  527MPD2    H3 7830   2.035   2.173   1.566  1.5878  0.1491 -1.4761
  527MPD2     N 7831   2.225   1.768   1.495 -0.4553  0.1567  0.1853
  527MPD2    H5 7832   2.221   1.671   1.524  0.9650  0.1155  0.2579
  527MPD2    N1 7833   1.799   1.801   1.705  0.6613 -0.7799 -0.8096
  527MPD2    H7 7834   1.795   1.699   1.705  1.3225 -0.8315  2.7712
  528TMC3    C1 7835   1.607   1.770   1.831 -0.0948  0.1787  0.6310
  528TMC3    C2 7836   1.675   1.656   1.874 -0.6581 -0.4206 -0.2677
  528TMC3    C3 7837   1.591   1.574   1.940 -0.4192 -0.4740  0.2302
  528TMC3    C4 7838   1.480   1.811   1.853 -0.1511 -0.1746 -0.2071
  528TMC3    C5 7839   1.398   1.726   1.920  1.1945 -0.6175  0.1822
  528TMC3    C6 7840   1.454   1.600   1.952 -0.4876 -0.1181 -0.1341
  528TMC3     C 7841   1.695   1.866   1.774  0.2972  0.2898 -0.0140
  528TMC3     O 7842   1.661   1.978   1.762 -0.8910  0.3266 -0.4392
  528TMC3     H 7843   1.781   1.636   1.878 -0.6701 -0.4128  0.0790
  528TMC3    H1 7844   1.445   1.894   1.793  3.2232  2.1052  0.9877
  528TMC3    H2 7845   1.395   1.523   1.999 -0.6951  0.2608  0.2171
  528TMC3    C7 7846   1.256   1.736   1.889 -1.1362 -0.4517 -0.1955
  528TMC3    C8 7847   1.645   1.448   1.963  0.3557 -0.0479 -0.1302
  528TMC3    O1 7848   1.187   1.634   1.888  0.4187 -0.9468  0.2665
  528TMC3    O2 7849   1.767   1.446   1.972  0.2196  0.1232  0.0593
  529MPD2     C 7850   0.213   4.407   0.680  0.1160 -0.4129 -0.1802
  529MPD2    C1 7851   0.082   4.432   0.656  0.1246  0.1128 -0.0848
  529MPD2    C2 7852   0.040   4.515   0.549  0.4915 -0.0425 -0.2127
  529MPD2    C3 7853   0.137   4.571   0.470  0.8088  0.4047  0.1052
  529MPD2    C4 7854   0.272   4.530   0.477 -0.1853 -0.4374 -0.2524
  529MPD2    C5 7855   0.301   4.445   0.587  0.1550 -0.3705 -0.0644
  529MPD2     H 7856   4.657   4.519   0.541  0.3966 -2.4312  0.0281
  529MPD2    H1 7857   0.344   4.554   0.400 -0.3432  0.0993 -0.2384
  529MPD2    H2 7858   0.264   4.360   0.764 -1.4619 -1.5667  0.1277
  529MPD2    H3 7859   0.404   4.417   0.605  0.1873  0.3004  0.7751
  529MPD2     N 7860   0.106   4.672   0.374  0.3583  0.2219  1.2448
  529MPD2    H5 7861   0.170   4.699   0.299  0.1850  1.4042  1.5252
  529MPD2    N1 7862   4.699   4.383   0.729 -0.3313  0.7100  0.4108
  529MPD2    H7 7863   4.606   4.413   0.700  0.1438  0.1927 -1.6627
  530TMC3    C1 7864   4.574   4.304   0.903  0.7777 -0.6273 -0.2993
  530TMC3    C2 7865   4.564   4.230   1.017  0.1996 -0.5204  0.2365
  530TMC3    C3 7866   4.439   4.217   1.073 -0.2087 -0.0001 -0.3068
  530TMC3    C4 7867   4.458   4.358   0.844  0.0277 -0.1283 -0.0963
  530TMC3    C5 7868   4.336   4.344   0.905 -0.4832  0.1824  0.1612
  530TMC3    C6 7869   4.326   4.275   1.024 -0.1197 -0.0767 -0.3825
  530TMC3     C 7870   4.709   4.310   0.841 -0.5402 -0.0827 -0.4907
  530TMC3     O 7871   0.080   4.250   0.889 -0.5834  0.4285 -0.1930
  530TMC3     H 7872   4.654   4.200   1.069  0.5928 -1.1332 -0.7934
  530TMC3    H1 7873   4.456   4.414   0.751  1.8138  1.8275  1.0534
  530TMC3    H2 7874   4.231   4.260   1.075  0.0404 -0.6620 -0.2526
  530TMC3    C7 7875   4.216   4.389   0.837  0.5001 -1.2224  0.8297
  530TMC3    C8 7876   4.418   4.176   1.213 -0.1528  0.1129 -0.2055
  530TMC3    O1 7877   4.224   4.497   0.779 -0.3043  0.2558 -0.1604
  530TMC3    O2 7878   4.323   4.227   1.269 -0.2579 -0.3995 -0.2637
  531MPD2     C 7879   3.981   2.569  13.006  0.4177  0.5078  0.5829
  531MPD2    C1 7880   3.884   2.654  13.040  0.3254 -0.7836 -0.2384
  531MPD2    C2 7881   3.752   2.628  12.997 -0.3594 -0.1293  0.2957
  531MPD2    C3 7882   3.720   2.524  12.905 -0.5611 -0.1857  0.0483
  531MPD2    C4 7883   3.824   2.432  12.879 -0.7606  0.1370  0.3902
  531MPD2    C5 7884   3.951   2.458  12.930 -0.3888  0.5527  0.4913
  531MPD2     H 7885   3.668   2.685  13.034 -1.7852 -0.1720 -2.8148
  531MPD2    H1 7886   3.810   2.364  12.796 -1.7275  1.1223 -0.2567
  531MPD2    H2 7887   4.083   2.573  13.045  0.3271  0.5978  0.8079
  531MPD2    H3 7888   4.028   2.394  12.890 -0.3147  1.6280 -1.1076
  531MPD2     N 7889   3.585   2.515  12.852  0.2006 -0.1180  0.6955
  531MPD2    H5 7890   3.529   2.594  12.882 -0.2137 -0.1098 -0.1055
  531MPD2    N1 7891   3.925   2.763  13.123  0.1327  0.0168 -0.0137
  531MPD2    H7 7892   4.021   2.758  13.155 -0.5333 -2.1850  1.6790
  532TMC3    C1 7893   3.888   2.888  13.320 -0.3542 -0.4803 -0.3471
  532TMC3    C2 7894   3.778   2.892  13.406 -0.3417  0.2204 -0.0609
  532TMC3    C3 7895   3.764   2.800  13.506  0.1099  0.1528 -0.3723
  532TMC3    C4 7896   3.993   2.806  13.349  0.1528 -0.6349  0.5667
  532TMC3    C5 7897   3.976   2.714  13.447  0.0761 -0.1186  0.7175
  532TMC3    C6 7898   3.860   2.705  13.517 -0.2922 -0.8526 -0.2421
  532TMC3     C 7899   3.837   2.853  13.186 -0.7455 -0.1684  0.1115
  532TMC3     O 7900   3.714   2.861  13.171 -0.2058 -0.0366 -0.5292
  532TMC3     H 7901   3.698   2.960  13.380  0.6565  1.1249 -0.7911
  532TMC3    H1 7902   4.083   2.829  13.292  0.9013  0.7630  2.3100
  532TMC3    H2 7903   3.827   2.613  13.564 -0.1895 -2.1252 -2.6947
  532TMC3    C7 7904   4.060   2.600  13.437  0.2347  0.3186 -0.4233
  532TMC3    C8 7905   3.625   2.749  13.517 -0.0809 -0.0775 -0.0161
  532TMC3    O1 7906   4.179   2.630  13.426 -0.1732  0.6347  0.1269
  532TMC3    O2 7907   3.600   2.695  13.622 -0.2548  0.2220 -0.3866
  533TMC3    C1 7908   4.410   3.774  14.507 -0.3831 -0.4053 -0.1933
  533TMC3    C2 7909   4.540   3.779  14.462 -0.1611 -0.2079  0.3090
  533TMC3    C3 7910   4.626   3.848  14.536 -0.0136 -0.0499  0.0347
  533TMC3    C4 7911   4.376   3.852  14.614  0.2988  0.9438  1.1889
  533TMC3    C5 7912   4.464   3.920  14.694  0.1658 -0.0458 -1.0612
  533TMC3    C6 7913   4.595   3.915  14.654 -0.2454 -1.1647  0.1818
  533TMC3     C 7914   4.354   3.634  14.508 -0.4210  0.6749  0.0106
  533TMC3     O 7915   4.431   3.544  14.539  0.0389  0.3595 -0.6813
  533TMC3     H 7916   4.579   3.739  14.369  0.8427 -0.7523  0.9708
  533TMC3    H1 7917   4.279   3.837  14.661  0.0745  1.3474  0.8604
  533TMC3    H2 7918   4.664   3.981  14.704 -0.8677  0.4754 -1.1394
  533TMC3    C7 7919   4.444   3.908  14.833 -0.4746 -0.0272 -0.1371
  533TMC3    C8 7920   0.024   3.887  14.482  0.5615  0.2459  0.5582
  533TMC3    O1 7921   4.370   3.816  14.871  0.1753  0.2648 -0.2972
  533TMC3    O2 7922   0.121   3.870  14.556 -0.1646  0.0335 -0.0164
  534MPD2     C 7923   1.050   0.775   1.826  0.0629  0.3541 -0.2182
  534MPD2    C1 7924   1.171   0.720   1.782  0.1634 -0.2665 -0.6483
  534MPD2    C2 7925   1.194   0.584   1.775 -0.4020 -0.0770 -0.1603
  534MPD2    C3 7926   1.094   0.500   1.816  0.6168  0.4158 -0.0120
  534MPD2    C4 7927   0.980   0.551   1.859  0.3253 -0.3338  0.5135
  534MPD2    C5 7928   0.956   0.687   1.870  0.1660 -0.2410 -0.5345
  534MPD2     H 7929   1.293   0.552   1.745  0.2613  1.8935 -0.0824
  534MPD2    H1 7930   0.913   0.482   1.909 -1.9016  1.7893  0.4258
  534MPD2    H2 7931   1.032   0.882   1.821 -0.9428  0.1813 -0.1999
  534MPD2    H3 7932   0.865   0.727   1.912  1.8054  1.7020  1.2167
  534MPD2     N 7933   1.116   0.361   1.822  0.7740  0.6415  0.6119
  534MPD2    H5 7934   1.038   0.307   1.858  0.7452 -0.4904 -1.1764
  534MPD2    N1 7935   1.281   0.806   1.741 -0.4866 -0.3764 -0.2752
  534MPD2    H7 7936   1.353   0.750   1.697  1.9193  0.4258  2.6278
  535TMC3    C1 7937   1.217   0.153   1.802  0.4172 -0.0452 -0.2432
  535TMC3    C2 7938   1.091   0.094   1.785  0.1842  0.1795  0.0610
  535TMC3    C3 7939   1.081   4.694   1.734 -0.5736  0.2295 -0.4096
  535TMC3    C4 7940   1.328   0.081   1.783  0.1653 -0.1744  0.5600
  535TMC3    C5 7941   1.320   4.681   1.726  0.2689  0.3641  0.9357
  535TMC3    C6 7942   1.193   4.620   1.710 -0.3344  0.2699 -0.9872
  535TMC3     C 7943   1.230   0.302   1.789  0.8631  0.3090 -0.6448
  535TMC3     O 7944   1.317   0.342   1.712 -0.1627 -0.3444  0.2802
  535TMC3     H 7945   0.999   0.149   1.799  0.5025  0.4070  1.2791
  535TMC3    H1 7946   1.419   0.140   1.781  0.8118 -1.0680  2.6747
  535TMC3    H2 7947   1.182   4.517   1.678 -1.2764 -0.1268  0.6507
  535TMC3    C7 7948   1.438   4.626   1.658  0.3091  0.0642  0.0852
  535TMC3    C8 7949   0.959   4.619   1.757 -0.4714  0.2491 -0.2794
  535TMC3    O1 7950   1.422   4.531   1.585  0.0305  0.7155  0.3510
  535TMC3    O2 7951   0.949   4.513   1.696  0.1746 -0.0471  0.2291
  536MPD2     C 7952   1.112   3.308  16.059 -0.7013  0.4832  0.2929
  536MPD2    C1 7953   0.998   3.244  16.099  0.6215  0.6326 -0.0693
  536MPD2    C2 7954   0.891   3.251  16.012 -0.5749 -0.2363 -1.1220
  536MPD2    C3 7955   0.896   3.308  15.883  0.5573  0.4823 -0.2555
  536MPD2    C4 7956   1.013   3.380  15.848 -0.0796  0.2227 -0.0311
  536MPD2    C5 7957   1.112   3.374  15.940 -0.1861  0.2599  0.1663
  536MPD2     H 7958   0.799   3.226  16.065  1.2063 -1.4766  1.3618
  536MPD2    H1 7959   1.025   3.433  15.754  0.8188  1.4444  0.7770
  536MPD2    H2 7960   1.203   3.289  16.114  0.8686  0.8617 -2.1629
  536MPD2    H3 7961   1.209   3.418  15.916 -1.0365  1.4450 -1.1152
  536MPD2     N 7962   0.787   3.325  15.808  0.3314 -0.0349 -0.3478
  536MPD2    H5 7963   0.803   3.382  15.726  0.3234 -0.6430 -0.7718
  536MPD2    N1 7964   1.000   3.176  16.226  0.4616  0.3593 -0.3135
  536MPD2    H7 7965   1.088   3.184  16.276  0.3093 -1.4759  0.2621
  537TMC3    C1 7966   0.941   3.046  16.410 -0.1041  0.2215  0.1338
  537TMC3    C2 7967   0.971   3.145  16.501  0.1206 -0.2007 -0.1248
  537TMC3    C3 7968   0.973   3.106  16.634  0.3009  0.2829  0.4107
  537TMC3    C4 7969   0.915   2.923  16.449  0.5349 -0.7115 -0.0659
  537TMC3    C5 7970   0.913   2.885  16.580  1.2223  0.8885 -0.0392
  537TMC3    C6 7971   0.945   2.978  16.673 -0.0354  0.1810  0.3040
  537TMC3     C 7972   0.909   3.083  16.274 -0.1345 -0.9319 -0.0277
  537TMC3     O 7973   0.819   3.028  16.214 -0.6311  0.5713 -0.4461
  537TMC3     H 7974   0.972   3.249  16.471  0.6345 -1.0376 -2.9850
  537TMC3    H1 7975   0.874   2.855  16.376 -0.5225  0.4399 -0.5482
  537TMC3    H2 7976   0.929   2.970  16.780 -1.8908  0.0149  0.0198
  537TMC3    C7 7977   0.846   2.762  16.607  0.0485  0.4836  0.5667
  537TMC3    C8 7978   1.028   3.197  16.725 -0.2530 -0.9102  0.6657
  537TMC3    O1 7979   0.761   2.723  16.528 -0.7605  0.2527  0.1722
  537TMC3    O2 7980   0.993   3.197  16.840 -0.2810 -0.7793 -0.0881
  538TMC3    C1 7981   1.848   2.168  11.476 -0.3614 -0.0193 -0.4782
  538TMC3    C2 7982   1.899   2.050  11.429  0.1029 -0.6912 -0.1220
  538TMC3    C3 7983   1.924   2.036  11.295 -0.0423  0.5012 -0.2220
  538TMC3    C4 7984   1.806   2.261  11.387  0.5205 -0.1267  0.4204
  538TMC3    C5 7985   1.816   2.231  11.255 -0.0623  0.0034  0.4315
  538TMC3    C6 7986   1.884   2.123  11.202  0.2232 -0.0200 -0.4493
  538TMC3     C 7987   1.765   2.158  11.590 -1.2564  0.3983 -0.2250
  538TMC3     O 7988   1.704   2.259  11.622 -0.2005 -0.1962 -0.6204
  538TMC3     H 7989   1.934   1.975  11.498  0.3039 -1.8687 -1.4906
  538TMC3    H1 7990   1.729   2.334  11.408  2.1196  1.7320 -0.1920
  538TMC3    H2 7991   1.880   2.098  11.097  0.4844 -1.4502 -0.1114
  538TMC3    C7 7992   1.716   2.276  11.163 -0.7932  0.1910 -0.8970
  538TMC3    C8 7993   1.993   1.915  11.253  0.5646  0.4388 -0.6306
  538TMC3    O1 7994   1.678   2.198  11.076  0.7872  0.5930  0.1610
  538TMC3    O2 7995   2.020   1.839  11.342  0.0067  0.4340  0.4830
  539MPD2     C 7996   1.173   1.229  12.186  0.3485 -0.9069 -0.1295
  539MPD2    C1 7997   1.215   1.273  12.063 -0.0682 -0.7019 -0.3520
  539MPD2    C2 7998   1.171   1.394  12.016  0.0294  0.1828 -0.2918
  539MPD2    C3 7999   1.103   1.478  12.100  0.1078  0.0864 -0.4211
  539MPD2    C4 8000   1.066   1.441  12.223  0.4155 -0.0899  0.6017
  539MPD2    C5 8001   1.104   1.318  12.267 -0.0343 -0.5153  0.1942
  539MPD2     H 8002   1.194   1.429  11.916 -0.6263 -0.4681 -0.6693
  539MPD2    H1 8003   1.012   1.503  12.293 -0.0839 -0.0790  0.2058
  539MPD2    H2 8004   1.208   1.133  12.224  1.0555 -0.2657  0.8120
  539MPD2    H3 8005   1.083   1.288  12.369 -1.9628  0.0636 -0.0347
  539MPD2     N 8006   1.057   1.605  12.066  0.6669 -0.3980 -0.1123
  539MPD2    H5 8007   1.021   1.660  12.144  0.7020 -3.3952  1.9825
  539MPD2    N1 8008   1.261   1.187  11.965  0.0713  0.6820  0.6098
  539MPD2    H7 8009   1.247   1.208  11.867 -2.3056 -0.0642  0.7834
  540TMC3    C1 8010   1.040   1.819  11.959  0.5462  0.1231 -0.4612
  540TMC3    C2 8011   1.100   1.904  11.866 -0.0113  0.2460 -0.5075
  540TMC3    C3 8012   1.048   2.027  11.853  0.7313  0.1582  0.3922
  540TMC3    C4 8013   0.944   1.862  12.047  0.3132  0.1362 -0.0375
  540TMC3    C5 8014   0.900   1.998  12.034 -0.3843 -0.7849  0.0463
  540TMC3    C6 8015   0.947   2.080  11.934  0.4551  0.3669 -0.1098
  540TMC3     C 8016   1.087   1.678  11.949 -0.2407  0.0016 -0.5704
  540TMC3     O 8017   1.160   1.644  11.859 -0.3651  0.1935 -0.4228
  540TMC3     H 8018   1.195   1.872  11.824  0.5348 -1.4857  2.0668
  540TMC3    H1 8019   0.911   1.806  12.133  2.8615  0.7941  1.3809
  540TMC3    H2 8020   0.920   2.184  11.921 -2.3666 -0.3648 -0.1149
  540TMC3    C7 8021   0.784   2.041  12.117 -0.1994 -0.1188  0.1559
  540TMC3    C8 8022   1.110   2.119  11.766  0.3396 -0.2262  0.5215
  540TMC3    O1 8023   0.720   1.950  12.170  0.5239 -0.1050 -0.3243
  540TMC3    O2 8024   1.115   2.241  11.795  0.1090 -0.8251 -0.3221
  541MPD2     C 8025   4.579   3.013  12.953  0.5870  0.2163  0.8219
  541MPD2    C1 8026   4.623   2.945  12.840  0.2812  0.6515  0.4554
  541MPD2    C2 8027   4.616   3.012  12.722  0.1931 -0.4681  0.6357
  541MPD2    C3 8028   4.576   3.145  12.716 -0.6873  0.6550  0.5456
  541MPD2    C4 8029   4.537   3.215  12.833  0.0781  0.3462  1.1219
  541MPD2    C5 8030   4.526   3.142  12.945  0.4143 -1.0883  0.3714
  541MPD2     H 8031   4.650   2.959  12.633  1.0992  0.0148  0.6945
  541MPD2    H1 8032   4.499   3.317  12.826 -0.0614  0.2640  0.6814
  541MPD2    H2 8033   4.598   2.970  13.051  1.0771  1.9059  1.4871
  541MPD2    H3 8034   4.497   3.188  13.038  1.5054  1.5705 -0.6097
  541MPD2     N 8035   4.564   3.215  12.595  0.1677  0.6956  0.3799
  541MPD2    H5 8036   4.526   3.309  12.596  0.9824  1.0214  0.4595
  541MPD2    N1 8037   4.669   2.818  12.859  0.1181  0.2844 -0.4591
  541MPD2    H7 8038   4.704   2.807  12.954  0.3126 -0.6452 -0.6341
  542TMC3    C1 8039   4.573   3.250  12.367  0.0391 -0.4737  0.1211
  542TMC3    C2 8040   4.628   3.200  12.250 -0.6832  0.1468 -0.2429
  542TMC3    C3 8041   4.591   3.270  12.138  0.2665 -0.3121 -0.2523
  542TMC3    C4 8042   4.519   3.374  12.375  0.0384 -0.1726  0.9655
  542TMC3    C5 8043   4.486   3.436  12.259  0.7547 -0.1861 -0.1747
  542TMC3    C6 8044   4.518   3.388  12.135 -1.1476  0.0203  0.8806
  542TMC3     C 8045   4.615   3.174  12.478  0.1936  0.1922 -0.3456
  542TMC3     O 8046   4.702   3.089  12.463  0.8026  0.2569 -0.4679
  542TMC3     H 8047   4.661   3.097  12.248 -2.0646 -0.2743 -1.1908
  542TMC3    H1 8048   4.493   3.422  12.468 -2.5465 -0.9909  0.6644
  542TMC3    H2 8049   4.489   3.431  12.041  0.9207  0.1699  0.3169
  542TMC3    C7 8050   4.442   3.573  12.268  0.0806  0.6394  0.4876
  542TMC3    C8 8051   4.653   3.235  12.011 -0.4709 -0.1177  0.2288
  542TMC3    O1 8052   4.390   3.609  12.376 -0.4792 -0.0545 -0.2025
  542TMC3    O2 8053   4.593   3.237  11.906  0.5147  0.4324  1.0034
  543TMC3    C1 8054   4.509   4.461  17.017  0.1882  0.7000  0.1966
  543TMC3    C2 8055   4.379   4.452  17.069  0.0526  0.6052 -0.5287
  543TMC3    C3 8056   4.374   4.380  17.186 -0.2747  0.1796 -0.0299
  543TMC3    C4 8057   4.619   4.443  17.088 -0.1522 -0.4793 -0.4223
  543TMC3    C5 8058   4.604   4.371  17.210 -0.6180 -0.2824 -0.6316
  543TMC3    C6 8059   4.481   4.344  17.258  0.0015 -0.1258  0.2569
  543TMC3     C 8060   4.515   4.379  16.897  0.5258  0.6374  0.2298
  543TMC3     O 8061   4.610   4.299  16.900 -0.4463 -0.0974 -0.2084
  543TMC3     H 8062   4.287   4.473  17.017  0.3156  3.0995 -0.0276
  543TMC3    H1 8063   4.715   4.440  17.039  0.9373  2.0740  1.5722
  543TMC3    H2 8064   4.470   4.289  17.350  0.0914  1.9360  1.5028
  543TMC3    C7 8065   4.721   4.345  17.287 -0.5224  0.1107  0.5299
  543TMC3    C8 8066   4.245   4.312  17.217 -0.3375 -0.1537 -0.0038
  543TMC3    O1 8067   4.708   4.275  17.387 -0.5516  0.0093  0.2873
  543TMC3    O2 8068   4.149   4.383  17.199  0.3527  0.0375  0.1456
  544MPD2     C 8069   3.946   3.904  17.270  0.3841 -0.1881 -0.2682
  544MPD2    C1 8070   4.075   3.861  17.248 -0.3175  0.0396 -0.0115
  544MPD2    C2 8071   4.185   3.951  17.257 -0.4392 -0.1443  1.2127
  544MPD2    C3 8072   4.159   4.089  17.261  0.1700 -0.1796 -0.4955
  544MPD2    C4 8073   4.025   4.128  17.273 -1.1220  0.5956 -0.0847
  544MPD2    C5 8074   3.923   4.040  17.278 -0.3706  0.0148 -0.2636
  544MPD2     H 8075   4.286   3.911  17.254  0.3449  2.0146 -0.4902
  544MPD2    H1 8076   3.994   4.232  17.279 -1.6185  0.3062  2.2872
  544MPD2    H2 8077   3.864   3.833  17.264 -2.2553  3.0370 -1.9688
  544MPD2    H3 8078   3.821   4.073  17.289 -0.6016 -0.9154  0.3699
  544MPD2     N 8079   4.261   4.178  17.246 -0.6328 -0.2303 -0.4245
  544MPD2    H5 8080   4.350   4.134  17.228 -0.5292  0.0269 -0.5349
  544MPD2    N1 8081   4.095   3.727  17.208  0.4602  0.2398 -0.0750
  544MPD2    H7 8082   4.012   3.670  17.200 -0.4123  1.3269  1.3362
  545TMC3    C1 8083   4.200   3.553  17.091 -0.5264  0.0767  0.3474
  545TMC3    C2 8084   4.295   3.526  17.008 -0.5785 -0.7268 -0.6314
  545TMC3    C3 8085   4.326   3.392  16.984  0.0662  0.5548 -0.0803
  545TMC3    C4 8086   4.123   3.458  17.152 -0.3507  0.2542  0.6492
  545TMC3    C5 8087   4.151   3.327  17.131  0.0624  0.2955 -0.7272
  545TMC3    C6 8088   4.252   3.290  17.043 -0.1789  0.3772 -0.9335
  545TMC3     C 8089   4.204   3.690  17.138  0.3188  0.6863  0.9690
  545TMC3     O 8090   4.300   3.757  17.102 -0.1088  0.3709 -0.3630
  545TMC3     H 8091   4.363   3.604  16.975  0.8616 -1.1180  1.4350
  545TMC3    H1 8092   4.042   3.484  17.219  0.3531  0.2474  1.5150
  545TMC3    H2 8093   4.278   3.187  17.023  0.0189  0.0513  1.0592
  545TMC3    C7 8094   4.070   3.234  17.210  0.1849  0.2290 -0.3649
  545TMC3    C8 8095   4.432   3.367  16.883  0.4611 -0.2497  0.0184
  545TMC3    O1 8096   3.969   3.286  17.243  0.1054  0.3977  0.8751
  545TMC3    O2 8097   4.495   3.462  16.841 -0.1001 -0.2677 -0.0644
  546MPD2     C 8098   1.092   3.701  16.989  0.8635 -0.0541  0.1431
  546MPD2    C1 8099   1.024   3.683  17.106 -0.3256 -0.3285  0.2435
  546MPD2    C2 8100   1.035   3.782  17.206 -0.5764  0.9707 -0.3125
  546MPD2    C3 8101   1.122   3.885  17.179 -0.1640 -0.4340 -0.5280
  546MPD2    C4 8102   1.196   3.896  17.064  0.0315 -0.1230  0.0747
  546MPD2    C5 8103   1.185   3.804  16.970  0.3332  0.6345  0.6722
  546MPD2     H 8104   0.981   3.779  17.300  0.0856 -0.5349  0.0213
  546MPD2    H1 8105   1.264   3.977  17.038  3.2923 -2.6539  0.6575
  546MPD2    H2 8106   1.077   3.641  16.900  0.1211 -1.7531  1.4227
  546MPD2    H3 8107   1.244   3.808  16.879 -1.0579  2.2389 -0.1664
  546MPD2     N 8108   1.134   3.993  17.271  0.4663 -0.0203 -0.9422
  546MPD2    H5 8109   1.204   4.060  17.241  0.2665  0.7168  0.2032
  546MPD2    N1 8110   0.923   3.578  17.110  0.1834  0.0286  0.5479
  546MPD2    H7 8111   0.891   3.541  17.022  1.6155  0.1361 -0.0054
  547TMC3    C1 8112   0.744   3.456  17.191 -0.0066  1.1272 -0.3489
  547TMC3    C2 8113   0.681   3.506  17.081  0.0539  0.2441 -0.2211
  547TMC3    C3 8114   0.557   3.451  17.057 -0.3399 -0.4338  0.0203
  547TMC3    C4 8115   0.700   3.348  17.272  0.2989 -0.0638 -0.3752
  547TMC3    C5 8116   0.570   3.307  17.248  0.0110  0.2857 -0.0322
  547TMC3    C6 8117   0.499   3.365  17.146 -0.1808  0.6759  1.1416
  547TMC3     C 8118   0.872   3.521  17.219 -0.7561 -0.2443  0.5838
  547TMC3     O 8119   0.920   3.506  17.330 -0.0320 -0.6714 -0.1014
  547TMC3     H 8120   0.709   3.590  17.019  1.3821 -1.3433 -1.7660
  547TMC3    H1 8121   0.759   3.318  17.357  0.3985  1.4037  0.0732
  547TMC3    H2 8122   0.395   3.338  17.136  0.1169  0.1429 -0.4510
  547TMC3    C7 8123   0.495   3.252  17.355 -0.2862 -0.6061 -0.2369
  547TMC3    C8 8124   0.483   3.483  16.940  0.5638  0.8061 -0.6871
  547TMC3    O1 8125   0.371   3.250  17.356 -0.2449  0.7502 -0.1701
  547TMC3    O2 8126   0.366   3.479  16.941 -0.2639  0.1691 -0.2754
  548MPD2     C 8127   0.361   4.319  12.598  0.6187 -0.1003 -0.3204
  548MPD2    C1 8128   0.366   4.412  12.489 -0.6064 -0.1944  0.1420
  548MPD2    C2 8129   0.479   4.411  12.414  0.3446 -0.1219  0.5660
  548MPD2    C3 8130   0.592   4.337  12.454  0.1447  0.4245 -0.2736
  548MPD2    C4 8131   0.591   4.261  12.567 -0.7210 -0.8836 -0.7440
  548MPD2    C5 8132   0.467   4.248  12.628 -0.3488  0.2917 -0.1105
  548MPD2     H 8133   0.477   4.462  12.319 -0.5731 -0.9038  0.1622
  548MPD2    H1 8134   0.667   4.193  12.604  1.7807  1.2728 -1.9464
  548MPD2    H2 8135   0.270   4.318  12.657  0.5995 -0.2775 -0.3524
  548MPD2    H3 8136   0.475   4.190  12.720  0.6662  0.8305  0.1495
  548MPD2     N 8137   0.705   4.334  12.368 -0.1554 -0.1088 -0.3356
  548MPD2    H5 8138   0.699   4.385  12.281  1.5491  0.6492  0.0010
  548MPD2    N1 8139   0.241   4.472  12.466  0.2589  0.1864  0.3283
  548MPD2    H7 8140   0.160   4.460  12.527 -0.8996  2.9347 -0.6563
  549TMC3    C1 8141   0.081   4.612  12.361  0.5284  0.3343  0.1241
  549TMC3    C2 8142   0.057   4.725  12.291 -0.0747  0.1547  0.7208
  549TMC3    C3 8143   4.651   0.026  12.257 -0.2434  0.5378  0.0101
  549TMC3    C4 8144   4.709   4.528  12.397  0.7889 -0.3835  0.2223
  549TMC3    C5 8145   4.578   4.560  12.368  0.1425 -0.2060  0.2970
  549TMC3    C6 8146   4.550   4.673  12.298  0.3427  0.2476 -0.0129
  549TMC3     C 8147   0.220   4.565  12.374 -0.1918 -0.1610  0.2140
  549TMC3     O 8148   0.303   4.614  12.299  0.5914  0.3069 -0.2928
  549TMC3     H 8149   0.143   0.048  12.245  0.0614  1.5309  2.4186
  549TMC3    H1 8150   0.004   4.437  12.453  0.5467 -0.6509 -0.1204
  549TMC3    H2 8151   4.446   4.702  12.286  0.1101 -0.4952  0.1853
  549TMC3    C7 8152   4.466   4.471  12.404 -0.5345  0.6785 -0.4626
  549TMC3    C8 8153   4.607   0.156  12.218 -0.1109  0.3597 -0.5087
  549TMC3    O1 8154   4.368   4.478  12.329  0.2104  0.8794  0.5953
  549TMC3    O2 8155   4.503   0.156  12.149  0.1639 -0.1862  0.0151
  550TMC3    C1 8156   3.830   3.076  12.757  0.0218 -0.7381  0.2029
  550TMC3    C2 8157   3.762   3.098  12.878  0.1530 -0.3784 -0.0063
  550TMC3    C3 8158   3.705   3.218  12.898 -0.5134  0.2174 -0.2422
  550TMC3    C4 8159   3.844   3.177  12.664 -0.4805 -0.4717  0.3182
  550TMC3    C5 8160   3.788   3.300  12.694  0.0492  0.3772 -0.0634
  550TMC3    C6 8161   3.716   3.331  12.809 -0.1722  0.2129  0.1652
  550TMC3     C 8162   3.860   2.937  12.735 -0.3553  0.3600  0.2268
  550TMC3     O 8163   3.916   2.886  12.833 -0.3172 -0.8382 -0.0671
  550TMC3     H 8164   3.774   3.026  12.958  0.6694 -2.1456 -1.6667
  550TMC3    H1 8165   3.928   3.169  12.596 -0.2998 -0.0736  0.4924
  550TMC3    H2 8166   3.661   3.424  12.822  0.0619  0.4029 -0.2025
  550TMC3    C7 8167   3.774   3.393  12.583  0.5620  1.3966  0.3930
  550TMC3    C8 8168   3.589   3.230  12.985  0.1547  0.2732 -0.0393
  550TMC3    O1 8169   3.760   3.513  12.601 -0.0147 -0.4294 -0.5332
  550TMC3    O2 8170   3.544   3.345  12.994 -0.1477 -0.3580  0.1097
  551TMC3    C1 8171   1.648   0.364  13.299  0.5679  0.0504  0.6142
  551TMC3    C2 8172   1.764   0.353  13.230  0.3012 -0.1274 -0.3399
  551TMC3    C3 8173   1.882   0.379  13.295  0.2513 -0.3355  0.1302
  551TMC3    C4 8174   1.648   0.376  13.439  0.2636  0.4473  0.8084
  551TMC3    C5 8175   1.770   0.394  13.496 -0.1670 -0.3605  0.6607
  551TMC3    C6 8176   1.890   0.402  13.428 -0.3872 -0.2905  0.8672
  551TMC3     C 8177   1.529   0.318  13.229  0.6424 -0.3870  0.0478
  551TMC3     O 8178   1.528   0.346  13.107 -0.2666 -0.1567  0.1886
  551TMC3     H 8179   1.757   0.363  13.122  1.4326  1.4901 -0.2602
  551TMC3    H1 8180   1.556   0.399  13.490 -0.6667 -2.1250  0.2596
  551TMC3    H2 8181   1.986   0.414  13.476  0.3591  2.4362 -1.3909
  551TMC3    C7 8182   1.780   0.419  13.642  0.1377  0.1239 -0.2975
  551TMC3    C8 8183   2.001   0.361  13.223  1.0823 -0.4830  1.0930
  551TMC3    O1 8184   1.887   0.445  13.692  0.3859  0.3330 -0.1832
  551TMC3    O2 8185   1.993   0.282  13.134  0.2129  0.1258  0.7028
  552MPD2     C 8186   3.242   2.525  13.838 -0.5651 -0.4640 -0.5547
  552MPD2    C1 8187   3.243   2.400  13.908 -0.8321  0.3421  0.1809
  552MPD2    C2 8188   3.342   2.381  14.001  0.0465  0.5842 -0.8248
  552MPD2    C3 8189   3.442   2.477  14.019 -0.4446 -0.7766 -0.4881
  552MPD2    C4 8190   3.435   2.600  13.958 -0.0658 -0.4711 -0.0775
  552MPD2    C5 8191   3.339   2.617  13.864 -0.6349 -0.1870  0.2888
  552MPD2     H 8192   3.355   2.287  14.053  2.5138 -0.9732 -4.2345
  552MPD2    H1 8193   3.514   2.671  13.983 -0.9069  0.8563 -1.2118
  552MPD2    H2 8194   3.184   2.544  13.749  1.2156  1.5292 -1.2760
  552MPD2    H3 8195   3.342   2.699  13.793 -1.0832 -1.0336 -0.7112
  552MPD2     N 8196   3.559   2.459  14.092  0.0913 -0.4952 -0.8260
  552MPD2    H5 8197   3.626   2.535  14.081  1.8693 -1.9634 -0.1526
  552MPD2    N1 8198   3.160   2.293  13.878 -0.0043  0.9399 -0.2839
  552MPD2    H7 8199   3.159   2.219  13.947  1.4660  0.5365 -0.7046
  553TMC3    C1 8200   3.118   2.129  13.715 -0.0037 -0.3505  1.0507
  553TMC3    C2 8201   3.071   2.100  13.589 -0.3152  0.4022  0.8524
  553TMC3    C3 8202   3.125   1.994  13.526 -1.0115  0.3341  0.1656
  553TMC3    C4 8203   3.215   2.051  13.772  0.1496  0.0186 -0.3717
  553TMC3    C5 8204   3.263   1.947  13.704  0.6433 -0.3546 -0.4043
  553TMC3    C6 8205   3.205   1.909  13.589  0.0749 -0.4440 -0.9777
  553TMC3     C 8206   3.108   2.268  13.751  0.3916  0.1312 -0.5545
  553TMC3     O 8207   3.096   2.341  13.654 -0.0668  0.5940 -0.4055
  553TMC3     H 8208   3.005   2.175  13.548 -0.7328 -0.4152  0.0528
  553TMC3    H1 8209   3.269   2.088  13.858 -2.8875 -1.9683  2.4013
  553TMC3    H2 8210   3.221   1.808  13.554  2.6644 -0.9762  1.7353
  553TMC3    C7 8211   3.402   1.961  13.698 -0.9626  0.1429 -0.1940
  553TMC3    C8 8212   3.172   2.017  13.389  0.0595  0.1219  0.1351
  553TMC3    O1 8213   3.457   2.025  13.785  0.1237 -0.6973  0.0475
  553TMC3    O2 8214   3.257   1.934  13.362  0.1841 -0.4324 -0.3754
  554TMC3    C1 8215   0.061   1.560  11.738  0.5070 -0.4038  0.0336
  554TMC3    C2 8216   0.045   1.527  11.604 -0.5797  0.4871  0.0249
  554TMC3    C3 8217   0.109   1.604  11.504  0.5123  0.3392  0.3961
  554TMC3    C4 8218   0.145   1.663  11.776 -0.3619 -0.2105  0.0238
  554TMC3    C5 8219   0.199   1.740  11.676  0.6667 -0.1036  0.5337
  554TMC3    C6 8220   0.186   1.708  11.538  0.3818 -0.6512  0.0928
  554TMC3     C 8221   0.033   1.454  11.835 -0.3696 -0.5645 -0.0866
  554TMC3     O 8222   4.652   1.394  11.813  0.0044  0.4496  0.3851
  554TMC3     H 8223   4.698   1.451  11.577 -0.1026 -0.1200  0.4579
  554TMC3    H1 8224   0.163   1.688  11.880 -0.6328  2.7606 -0.6211
  554TMC3    H2 8225   0.215   1.782  11.464 -0.0726 -0.8082 -0.2449
  554TMC3    C7 8226   0.275   1.858  11.713 -0.4379 -0.8287 -0.4375
  554TMC3    C8 8227   0.103   1.573  11.367 -0.5873 -0.4916  0.5338
  554TMC3    O1 8228   0.235   1.918  11.812 -0.0699  0.1084  0.1717
  554TMC3    O2 8229   0.158   1.651  11.288  0.5436 -0.0227  0.3771
  555TMC3    C1 8230   4.551   0.849  15.200  0.7538 -0.5826  0.4684
  555TMC3    C2 8231   4.489   0.943  15.271 -0.4031  0.1024 -0.1234
  555TMC3    C3 8232   4.439   0.903  15.391 -0.2098  0.4470 -0.0318
  555TMC3    C4 8233   4.553   0.716  15.228  0.5555 -0.1029 -0.0319
  555TMC3    C5 8234   4.489   0.677  15.345 -0.1671  0.1398 -0.4268
  555TMC3    C6 8235   4.430   0.773  15.425  0.3150  0.3249  0.2065
  555TMC3     C 8236   4.572   0.880  15.058 -0.5467  0.2707 -0.4909
  555TMC3     O 8237   4.641   0.809  14.989  0.0075  0.1907  0.4420
  555TMC3     H 8238   4.509   1.049  15.257 -1.4594  0.3849  0.5674
  555TMC3    H1 8239   4.611   0.655  15.159 -0.4973 -1.2381  0.0827
  555TMC3    H2 8240   4.396   0.744  15.524 -0.5812 -0.3452 -0.3003
  555TMC3    C7 8241   4.478   0.536  15.373 -0.7191 -0.2251  0.1628
  555TMC3    C8 8242   4.387   1.010  15.473  0.4975  0.4318 -0.0415
  555TMC3    O1 8243   4.407   0.503  15.466  0.7489 -0.5672  0.2654
  555TMC3    O2 8244   4.329   1.109  15.427 -0.6948 -0.5321  0.2303
  556MPD2     C 8245   2.190   2.668  10.467  0.9045 -0.1614  0.0766
  556MPD2    C1 8246   2.259   2.606  10.568 -0.4796  0.0269 -0.6160
  556MPD2    C2 8247   2.307   2.472  10.554  0.1848 -1.0477  0.0827
  556MPD2    C3 8248   2.289   2.401  10.435  0.2662 -0.1471  0.1556
  556MPD2    C4 8249   2.226   2.475  10.330  0.1188  0.2259 -0.2683
  556MPD2    C5 8250   2.172   2.602  10.351  0.0480  1.0235 -0.1600
  556MPD2     H 8251   2.337   2.417  10.642 -3.9967 -3.6052 -0.1127
  556MPD2    H1 8252   2.224   2.437  10.228 -0.5020  2.7346 -1.1994
  556MPD2    H2 8253   2.152   2.769  10.481 -1.5256 -1.1041  0.3161
  556MPD2    H3 8254   2.120   2.647  10.267 -0.0935  2.4862  0.7220
  556MPD2     N 8255   2.327   2.267  10.430 -0.7959  0.0208 -0.1632
  556MPD2    H5 8256   2.376   2.240  10.515  2.7817  0.7919 -1.9694
  556MPD2    N1 8257   2.280   2.670  10.688  0.1028 -0.0092  0.1516
  556MPD2    H7 8258   2.303   2.609  10.765  0.0401  0.1353  0.2844
  557TMC3    C1 8259   2.359   2.042  10.363 -0.3138  0.0517 -0.4121
  557TMC3    C2 8260   2.321   1.950  10.271  0.0636 -0.3800  0.3015
  557TMC3    C3 8261   2.269   1.833  10.311 -0.6453 -0.1981 -0.1513
  557TMC3    C4 8262   2.352   2.006  10.493  0.8313 -0.2911 -0.6195
  557TMC3    C5 8263   2.298   1.892  10.530  0.2517 -0.3042 -0.6192
  557TMC3    C6 8264   2.245   1.808  10.437  0.4728 -0.0816  0.7943
  557TMC3     C 8265   2.317   2.174  10.326 -0.1512 -0.4812 -0.2913
  557TMC3     O 8266   2.252   2.191  10.222  0.2192  0.0287 -0.2250
  557TMC3     H 8267   2.311   1.984  10.169 -2.0717  0.8074  0.9244
  557TMC3    H1 8268   2.365   2.083  10.568 -0.3820  0.5651 -1.2828
  557TMC3    H2 8269   2.197   1.717  10.471 -1.8224  0.5023 -0.9246
  557TMC3    C7 8270   2.247   1.894  10.665 -0.0045 -0.4370  0.2972
  557TMC3    C8 8271   2.171   1.776  10.218  0.6453 -0.1382  0.7839
  557TMC3    O1 8272   2.231   2.003  10.711  0.5999  0.1103 -0.0594
  557TMC3    O2 8273   2.081   1.855  10.184 -0.0668 -0.5957 -0.2021
  558TMC3    C1 8274   0.524   0.487   9.862 -0.2004 -0.3746  0.3576
  558TMC3    C2 8275   0.463   0.403   9.952 -0.7129 -0.1069  0.7825
  558TMC3    C3 8276   0.391   0.294   9.901  0.2530  0.0288 -0.5147
  558TMC3    C4 8277   0.521   0.463   9.729  0.7653  0.2125  0.5397
  558TMC3    C5 8278   0.457   0.356   9.681  0.1750  0.1159  0.3306
  558TMC3    C6 8279   0.381   0.279   9.763 -0.0538  0.2367  0.8759
  558TMC3     C 8280   0.617   0.581   9.914  0.6853 -0.3096  0.0864
  558TMC3     O 8281   0.632   0.592  10.034 -0.3142  0.3411 -0.1428
  558TMC3     H 8282   0.448   0.442  10.052 -2.4283  0.5458  0.2707
  558TMC3    H1 8283   0.587   0.515   9.660  0.1100 -1.0924 -1.0782
  558TMC3    H2 8284   0.325   0.195   9.722  2.7876 -1.4576  0.4687
  558TMC3    C7 8285   0.500   0.315   9.549  0.9109 -0.1793 -0.1525
  558TMC3    C8 8286   0.377   0.187   9.990  0.2175 -0.4073  0.7062
  558TMC3    O1 8287   0.603   0.370   9.506 -0.4314  0.3774  0.1623
  558TMC3    O2 8288   0.283   0.109   9.972  0.5017 -0.0728 -0.1044
  559MPD2     C 8289   0.157   0.959  10.543  0.6386  0.0586 -0.2190
  559MPD2    C1 8290   0.168   0.899  10.665 -0.3683 -0.0986 -0.2363
  559MPD2    C2 8291   0.290   0.886  10.725  0.0682  0.2250 -0.3687
  559MPD2    C3 8292   0.404   0.938  10.667 -0.1115 -0.0049  0.1719
  559MPD2    C4 8293   0.393   0.992  10.543 -0.0958  0.0082 -0.0053
  559MPD2    C5 8294   0.272   1.010  10.484  1.9392 -0.0595 -0.2470
  559MPD2     H 8295   0.305   0.863  10.830 -0.0960 -0.1114 -0.4174
  559MPD2    H1 8296   0.481   1.022  10.488  0.1927 -2.0612 -0.6365
  559MPD2    H2 8297   0.064   0.981  10.493  0.9142 -0.4386 -0.9432
  559MPD2    H3 8298   0.271   1.062  10.389  0.6172  0.0427 -0.1778
  559MPD2     N 8299   0.519   0.939  10.747 -0.3347 -0.9324 -0.5146
  559MPD2    H5 8300   0.492   0.903  10.838  2.6908 -1.6471  0.1161
  559MPD2    N1 8301   0.051   0.854  10.730 -0.3404 -0.1843 -0.7726
  559MPD2    H7 8302   4.688   0.883  10.688 -0.9585  0.2729  0.8277
  560TMC3    C1 8303   0.716   1.030  10.847 -0.1409  0.8344  0.1140
  560TMC3    C2 8304   0.734   0.925  10.928 -0.0408 -0.3000  0.1378
  560TMC3    C3 8305   0.833   0.929  11.022  0.3845  0.2181  0.1516
  560TMC3    C4 8306   0.779   1.148  10.869  0.0932  0.4117  0.7737
  560TMC3    C5 8307   0.855   1.161  10.980 -0.6453 -0.1399  0.1758
  560TMC3    C6 8308   0.891   1.051  11.055  0.0092  0.0295 -0.2055
  560TMC3     C 8309   0.637   1.009  10.724 -0.2114  0.2699 -0.5493
  560TMC3     O 8310   0.660   1.086  10.634  0.1864  0.2734 -0.1537
  560TMC3     H 8311   0.686   0.830  10.907 -0.6265  0.3341 -1.3948
  560TMC3    H1 8312   0.753   1.219  10.792  0.5014  0.0205  0.2740
  560TMC3    H2 8313   0.961   1.052  11.138  0.9052  0.8825 -0.9711
  560TMC3    C7 8314   0.865   1.295  11.037  0.0630 -0.2153  0.2653
  560TMC3    C8 8315   0.913   0.807  11.013  0.3976 -0.0626 -0.5379
  560TMC3    O1 8316   0.776   1.374  11.001  0.9630  0.4650 -0.0396
  560TMC3    O2 8317   0.851   0.702  10.996 -0.3251 -0.1185 -0.3612
  561TMC3    C1 8318   2.736   4.429  11.005 -0.8767  0.2652 -0.4110
  561TMC3    C2 8319   2.679   4.389  11.123  0.5771  0.3147  0.0669
  561TMC3    C3 8320   2.658   4.489  11.210 -0.0650  0.3367  0.7605
  561TMC3    C4 8321   2.772   4.562  10.973 -0.1088  0.1062 -0.1140
  561TMC3    C5 8322   2.756   4.654  11.075  1.0910  0.1960 -0.3994
  561TMC3    C6 8323   2.695   4.619  11.194  0.0525 -0.3231  0.8155
  561TMC3     C 8324   2.702   4.338  10.896  0.2423 -0.4088 -0.6944
  561TMC3     O 8325   2.669   4.225  10.928  0.4266 -0.1078  0.6755
  561TMC3     H 8326   2.638   4.289  11.137 -0.7442  0.9801  0.8760
  561TMC3    H1 8327   2.823   4.585  10.880  2.1898 -0.6943  0.9275
  561TMC3    H2 8328   2.699   4.691  11.276  0.2773 -0.5773  1.0292
  561TMC3    C7 8329   2.844   0.042  11.090 -0.3128  0.4152 -0.3433
  561TMC3    C8 8330   2.647   4.444  11.351  0.0872  0.6284 -0.3196
  561TMC3    O1 8331   2.841   0.104  11.197 -0.0337 -0.5131  1.3155
  561TMC3    O2 8332   2.648   4.323  11.374 -0.3947 -0.8991 -0.0807
  562TMC3    C1 8333   3.939   1.316  16.058  0.0032  0.3789  0.1778
  562TMC3    C2 8334   3.825   1.375  16.008  0.0646 -0.3442 -0.1135
  562TMC3    C3 8335   3.791   1.329  15.887 -0.9348 -0.3170 -0.3002
  562TMC3    C4 8336   4.015   1.215  16.002 -0.2869  0.1585  0.6245
  562TMC3    C5 8337   3.958   1.171  15.884 -0.1503  0.4600 -0.8044
  562TMC3    C6 8338   3.845   1.221  15.831  0.8577 -0.5309  0.0835
  562TMC3     C 8339   4.019   1.388  16.156  0.5063 -0.1477 -0.2582
  562TMC3     O 8340   4.135   1.350  16.174 -0.1112  0.4846 -0.3022
  562TMC3     H 8341   3.782   1.468  16.045  0.2826 -0.5195  0.5746
  562TMC3    H1 8342   4.110   1.173  16.035  0.1218  0.4141 -0.2352
  562TMC3    H2 8343   3.812   1.184  15.735  0.9807  0.2864 -0.2724
  562TMC3    C7 8344   4.022   1.063  15.808  0.0826 -0.3828 -0.2681
  562TMC3    C8 8345   3.692   1.404  15.821  0.0838  0.6959 -0.3989
  562TMC3    O1 8346   4.019   1.084  15.689 -0.3031  0.1553 -0.1296
  562TMC3    O2 8347   3.612   1.475  15.885  0.1167  0.0122 -0.1298
  563MPD2     C 8348   2.253   2.394  15.664  0.7406 -0.7859  0.1059
  563MPD2    C1 8349   2.242   2.322  15.785  0.4220  0.1417 -0.0774
  563MPD2    C2 8350   2.363   2.256  15.833  0.3478 -0.4651 -0.0154
  563MPD2    C3 8351   2.475   2.257  15.748 -0.3848  0.6074 -0.5538
  563MPD2    C4 8352   2.473   2.314  15.624 -0.3267  0.1894 -0.3329
  563MPD2    C5 8353   2.369   2.391  15.590  0.0667  0.2576 -0.2704
  563MPD2     H 8354   2.366   2.200  15.926 -0.2251  1.8783  1.4101
  563MPD2    H1 8355   2.562   2.327  15.563  0.4192 -0.7493  0.5518
  563MPD2    H2 8356   2.165   2.448  15.628  1.3257  1.1264  1.5613
  563MPD2    H3 8357   2.380   2.451  15.500  1.0854  0.6162  0.0927
  563MPD2     N 8358   2.596   2.191  15.797  0.4513  0.4061  0.5664
  563MPD2    H5 8359   2.579   2.133  15.879  2.3067  0.6313  1.1062
  563MPD2    N1 8360   2.118   2.333  15.849 -0.1296 -0.0685 -0.4242
  563MPD2    H7 8361   2.040   2.372  15.797  1.1365  2.5325 -0.3753
  564TMC3    C1 8362   1.959   2.316  16.012  0.1467  0.2638 -0.2203
  564TMC3    C2 8363   1.868   2.228  15.952 -0.6905 -0.0592  0.1374
  564TMC3    C3 8364   1.764   2.180  16.034  0.3752 -0.5640 -0.2662
  564TMC3    C4 8365   1.954   2.349  16.145 -0.4337 -0.2588 -0.0238
  564TMC3    C5 8366   1.850   2.302  16.224  0.5161  0.8967 -0.0169
  564TMC3    C6 8367   1.751   2.229  16.165 -0.4497 -0.0835 -0.2549
  564TMC3     C 8368   2.098   2.300  15.978 -0.3685 -0.2090  0.4414
  564TMC3     O 8369   2.184   2.272  16.064 -0.1401  0.4192  0.2744
  564TMC3     H 8370   1.900   2.178  15.861 -0.6226  0.3034 -0.0389
  564TMC3    H1 8371   2.043   2.392  16.189 -0.2924 -1.3004  0.7166
  564TMC3    H2 8372   1.668   2.206  16.231 -0.4479  2.8099  0.7887
  564TMC3    C7 8373   1.903   2.230  16.337 -0.5370  0.2001 -0.0224
  564TMC3    C8 8374   1.720   2.039  16.019  0.1941 -0.2884  0.3986
  564TMC3    O1 8375   1.963   2.292  16.422  0.1175  0.5095  0.0681
  564TMC3    O2 8376   1.670   1.990  16.117  0.5483  0.0110 -0.1702
  565TMC3    C1 8377   2.673   4.080   9.770  0.0774 -0.2841 -0.1720
  565TMC3    C2 8378   2.583   3.989   9.830 -0.0992  0.9070 -0.0887
  565TMC3    C3 8379   2.462   3.973   9.766 -0.4371 -0.0071 -0.5730
  565TMC3    C4 8380   2.627   4.162   9.670 -0.0168  0.8270  0.5296
  565TMC3    C5 8381   2.504   4.155   9.620 -0.1230 -0.4178  0.1133
  565TMC3    C6 8382   2.417   4.057   9.668 -0.5022  0.2040 -0.1728
  565TMC3     C 8383   2.781   4.134   9.851  0.1261  0.6236  0.5520
  565TMC3     O 8384   2.876   4.198   9.807  0.5797  0.1212  0.4335
  565TMC3     H 8385   2.611   3.925   9.913  1.5311 -0.6955 -1.8897
  565TMC3    H1 8386   2.698   4.232   9.627  0.3294 -0.5461 -1.1318
  565TMC3    H2 8387   2.310   4.076   9.661 -0.2678  0.9111 -2.0058
  565TMC3    C7 8388   2.438   4.289   9.602  0.1537  0.4476  0.0746
  565TMC3    C8 8389   2.376   3.863   9.817 -0.0566  0.1812 -0.2755
  565TMC3    O1 8390   2.317   4.293   9.577  0.5684 -0.2294  0.1481
  565TMC3    O2 8391   2.376   3.829   9.935  0.0897  0.2960  0.2339
  566MPD2     C 8392   3.581   0.615  14.657 -0.1979 -0.2917  0.2894
  566MPD2    C1 8393   3.696   0.619  14.578  0.0038  0.0285 -0.2481
  566MPD2    C2 8394   3.685   0.581  14.446  0.3885 -0.0387  0.6150
  566MPD2    C3 8395   3.569   0.526  14.398 -0.5208  0.1308 -0.1917
  566MPD2    C4 8396   3.451   0.540  14.474 -0.1782 -0.8629 -0.8355
  566MPD2    C5 8397   3.460   0.577  14.603  0.2964  0.4875 -0.0229
  566MPD2     H 8398   3.769   0.586  14.379  0.4475 -0.3036  0.6707
  566MPD2    H1 8399   3.350   0.531  14.435 -0.5907  1.9509 -0.4218
  566MPD2    H2 8400   3.590   0.645  14.761  0.8933 -2.5804  0.8576
  566MPD2    H3 8401   3.374   0.589  14.667  0.9929 -2.0782  1.3819
  566MPD2     N 8402   3.560   0.485  14.265 -0.0571 -0.0761  0.6534
  566MPD2    H5 8403   3.464   0.484  14.233  0.3555  1.2569 -0.6305
  566MPD2    N1 8404   3.824   0.662  14.610  0.5714 -0.3307  0.3530
  566MPD2    H7 8405   3.899   0.659  14.542 -0.0385 -1.0371 -0.2771
  567TMC3    C1 8406   3.965   0.814  14.702 -0.1029  0.0174  0.7470
  567TMC3    C2 8407   3.964   0.877  14.582  0.6653  0.6680  0.2436
  567TMC3    C3 8408   4.081   0.934  14.533  0.0008  0.1503  0.6581
  567TMC3    C4 8409   4.089   0.791  14.773 -0.3326 -0.2789  0.0094
  567TMC3    C5 8410   4.203   0.831  14.712 -0.0501 -1.1855 -0.1690
  567TMC3    C6 8411   4.205   0.905  14.596  0.8232  0.3066  0.2380
  567TMC3     C 8412   3.853   0.729  14.731 -0.0210 -0.0825  0.1046
  567TMC3     O 8413   3.777   0.756  14.827 -0.3113 -0.6622  0.2272
  567TMC3     H 8414   3.873   0.883  14.524  0.7212  1.1110  0.2044
  567TMC3    H1 8415   4.073   0.740  14.868 -1.8933 -1.4509 -0.8865
  567TMC3    H2 8416   4.300   0.913  14.545 -0.1835  1.7013 -1.4059
  567TMC3    C7 8417   4.318   0.747  14.728 -0.5159 -0.4907  0.1648
  567TMC3    C8 8418   4.071   0.984  14.386  0.6256 -0.2400 -0.2709
  567TMC3    O1 8419   4.392   0.728  14.634  0.5303  0.7341 -0.2977
  567TMC3    O2 8420   3.957   0.976  14.335  0.8910 -0.4420  0.1219
  568MPD2     C 8421   1.268   0.805  16.599 -0.3075  0.4848  0.4435
  568MPD2    C1 8422   1.391   0.830  16.660  0.1826 -0.5974  0.3276
  568MPD2    C2 8423   1.475   0.921  16.596  0.2664  0.2431  0.2994
  568MPD2    C3 8424   1.434   0.978  16.478 -0.7050 -0.7301  0.6694
  568MPD2    C4 8425   1.310   0.957  16.416 -0.1104  0.2629 -0.4619
  568MPD2    C5 8426   1.229   0.876  16.480  0.1994  0.2566  0.2344
  568MPD2     H 8427   1.574   0.939  16.638  0.3966 -1.5635  0.7867
  568MPD2    H1 8428   1.282   0.993  16.318 -2.6480 -2.0567 -0.5811
  568MPD2    H2 8429   1.191   0.745  16.645 -0.8769  1.0069  0.1582
  568MPD2    H3 8430   1.127   0.863  16.446  0.3706 -0.8875  0.1517
  568MPD2     N 8431   1.524   1.070  16.422 -0.1699 -0.6263 -0.5354
  568MPD2    H5 8432   1.612   1.080  16.471  0.7912 -0.0153 -2.3604
  568MPD2    N1 8433   1.437   0.752  16.776 -0.3033 -0.1185 -0.6939
  568MPD2    H7 8434   1.366   0.692  16.818  0.2519 -0.3145 -0.0354
  569TMC3    C1 8435   1.616   1.211  16.275  0.0611  0.3427 -0.3605
  569TMC3    C2 8436   1.663   1.294  16.371  0.1047  0.6622 -0.3191
  569TMC3    C3 8437   1.758   1.381  16.331 -0.2802  0.3739 -0.0746
  569TMC3    C4 8438   1.664   1.212  16.147  0.3217 -0.4066 -0.2039
  569TMC3    C5 8439   1.755   1.304  16.107 -0.3231 -0.3048 -0.3745
  569TMC3    C6 8440   1.814   1.386  16.204 -0.0474 -0.8919 -0.0945
  569TMC3     C 8441   1.506   1.131  16.303  0.1286  0.2401 -0.4931
  569TMC3     O 8442   1.423   1.121  16.212 -0.1100 -0.5063  0.8385
  569TMC3     H 8443   1.614   1.311  16.466 -0.4219 -1.4212 -0.2310
  569TMC3    H1 8444   1.604   1.162  16.072  1.9755 -0.5403 -1.4407
  569TMC3    H2 8445   1.888   1.462  16.184 -1.0472  0.4399  1.2749
  569TMC3    C7 8446   1.732   1.368  15.987 -0.4418 -0.1811 -0.9675
  569TMC3    C8 8447   1.715   1.512  16.365 -0.5199  0.1192 -0.5774
  569TMC3    O1 8448   1.729   1.307  15.880 -0.4606  0.4798 -0.1444
  569TMC3    O2 8449   1.669   1.579  16.277  0.2092  0.3629 -0.1101
  570TMC3    C1 8450   1.125   4.561  16.120 -0.1321  0.0436  0.2444
  570TMC3    C2 8451   1.228   4.590  16.036  0.6027 -0.4737  0.2100
  570TMC3    C3 8452   1.274   4.721  16.038 -0.5172  0.1434 -0.1532
  570TMC3    C4 8453   1.074   4.656  16.208 -0.1204 -0.1195 -0.2980
  570TMC3    C5 8454   1.122   0.059  16.210  0.7578 -0.5918  0.6621
  570TMC3    C6 8455   1.226   0.090  16.123  0.8764 -0.5605 -0.2176
  570TMC3     C 8456   1.109   4.417  16.147 -0.3990  0.0983  0.4400
  570TMC3     O 8457   1.132   4.348  16.050 -0.5889 -0.6324  0.1990
  570TMC3     H 8458   1.270   4.509  15.977 -2.1075 -1.8845  0.1778
  570TMC3    H1 8459   0.984   4.634  16.264 -0.0375  1.5549  0.4828
  570TMC3    H2 8460   1.265   0.191  16.131 -3.4204  1.2755 -2.9698
  570TMC3    C7 8461   1.093   0.138  16.320 -0.1990  0.0418 -0.7008
  570TMC3    C8 8462   1.370   0.037  15.935 -0.9447 -0.3281  0.6707
  570TMC3    O1 8463   1.190   0.204  16.356  0.0551 -0.5449 -0.4851
  570TMC3    O2 8464   1.426   0.147  15.945 -0.2053 -0.2193  0.5292
  571MPD2     C 8465   3.155   1.443   0.276  0.7981  0.5255 -0.4097
  571MPD2    C1 8466   3.269   1.369   0.229  0.2571  0.2464  0.4391
  571MPD2    C2 8467   3.391   1.425   0.249 -0.5328 -0.2362  0.8822
  571MPD2    C3 8468   3.408   1.536   0.335  0.5081  0.3563  0.0112
  571MPD2    C4 8469   3.292   1.594   0.384  0.4754 -0.0786 -0.1711
  571MPD2    C5 8470   3.172   1.553   0.354  0.7569  0.5051 -0.1555
  571MPD2     H 8471   3.474   1.375   0.199 -1.1618 -0.1313 -0.2819
  571MPD2    H1 8472   3.301   1.690   0.434  0.0382 -1.3172  2.2544
  571MPD2    H2 8473   3.055   1.420   0.242  0.5246 -0.9245  1.3756
  571MPD2    H3 8474   3.087   1.616   0.378 -1.1689 -2.1244 -0.0287
  571MPD2     N 8475   3.538   1.600   0.353 -0.0946 -0.0356 -0.2252
  571MPD2    H5 8476   3.542   1.692   0.396  0.2689 -0.4978  0.7167
  571MPD2    N1 8477   3.246   1.249   0.154 -0.0091 -0.5762  0.7593
  571MPD2    H7 8478   3.148   1.224   0.161  0.1623 -1.3455  0.4035
  572TMC3    C1 8479   3.765   1.629   0.331  0.0419  0.2051  0.2860
  572TMC3    C2 8480   3.858   1.577   0.415 -0.0446 -0.3703  0.2605
  572TMC3    C3 8481   3.933   1.658   0.496  0.4120  1.1540  0.3132
  572TMC3    C4 8482   3.737   1.765   0.329 -0.5505 -0.1339 -0.1385
  572TMC3    C5 8483   3.799   1.842   0.416 -0.5758 -0.8980 -0.3543
  572TMC3    C6 8484   3.897   1.794   0.502  0.6000 -0.3522  0.2726
  572TMC3     C 8485   3.651   1.541   0.311  0.5155  0.4519  0.3013
  572TMC3     O 8486   3.676   1.420   0.298  0.7186 -0.2607 -0.1800
  572TMC3     H 8487   3.898   1.478   0.395  1.3602 -0.2323  2.3509
  572TMC3    H1 8488   3.664   1.810   0.263  0.0687 -1.4277 -1.6977
  572TMC3    H2 8489   3.956   1.858   0.565  0.6375  0.3693 -0.4922
  572TMC3    C7 8490   3.759   1.983   0.402  0.1980 -0.0385  0.5213
  572TMC3    C8 8491   3.967   1.581   0.617 -0.2679  0.1205  0.2489
  572TMC3    O1 8492   3.648   1.998   0.356  0.3550 -0.1354  0.8418
  572TMC3    O2 8493   4.011   1.470   0.586 -0.6330  0.0741  0.2636
  573MPD2     C 8494   0.114   2.160   0.426 -0.8540 -0.0197  0.5165
  573MPD2    C1 8495   4.706   2.173   0.444 -0.0986 -0.1418 -0.1201
  573MPD2    C2 8496   4.631   2.231   0.339  0.2198 -1.1273  0.9490
  573MPD2    C3 8497   4.687   2.226   0.212  0.2183  0.7830 -0.1455
  573MPD2    C4 8498   0.095   2.196   0.194 -0.3275 -0.4771 -0.0029
  573MPD2    C5 8499   0.171   2.162   0.302 -0.0212  0.1385  0.0375
  573MPD2     H 8500   4.527   2.262   0.350  1.0471  1.7816  0.3021
  573MPD2    H1 8501   0.141   2.213   0.097  2.6489 -0.4670  1.4133
  573MPD2    H2 8502   0.182   2.147   0.510  0.1407 -1.0708 -0.4434
  573MPD2    H3 8503   0.276   2.136   0.295 -0.5686 -1.3556 -2.3851
  573MPD2     N 8504   4.623   2.271   0.095 -0.5321 -0.4709  0.2084
  573MPD2    H5 8505   4.675   2.273   0.008  0.2975  0.7938  0.7363
  573MPD2    N1 8506   4.662   2.163   0.576  0.2133  0.0287  0.0913
  573MPD2    H7 8507   0.004   2.130   0.645  2.1916  0.6880 -1.5188
  574TMC3    C1 8508   4.464   2.366  17.655  0.3226  0.4255 -0.6530
  574TMC3    C2 8509   4.353   2.447  17.650  0.5277 -0.5317  0.4568
  574TMC3    C3 8510   4.311   2.491  17.528 -0.6976 -0.1591  1.5772
  574TMC3    C4 8511   4.528   2.323  17.542  0.3729  0.1312 -0.0970
  574TMC3    C5 8512   4.480   2.365  17.426 -0.6358  0.1769  0.1230
  574TMC3    C6 8513   4.382   2.463  17.412  0.0918  0.5063  0.0470
  574TMC3     C 8514   4.495   2.318   0.088  0.4930 -0.8029  0.2851
  574TMC3     O 8515   4.416   2.347   0.176 -0.3385  0.0341 -0.7451
  574TMC3     H 8516   4.292   2.457   0.037 -1.4910 -1.5603 -0.8199
  574TMC3    H1 8517   4.598   2.241  17.556 -1.6658 -2.1159 -3.0487
  574TMC3    H2 8518   4.327   2.487  17.322 -1.3306  0.1041  0.7911
  574TMC3    C7 8519   4.523   2.302  17.299  0.1483 -0.5179 -0.2413
  574TMC3    C8 8520   4.206   2.596  17.526 -0.0257  0.6677  0.0973
  574TMC3    O1 8521   4.459   2.323  17.196  0.8421 -0.1294 -0.7380
  574TMC3    O2 8522   4.152   2.606  17.635 -0.1374 -0.4596  0.0410
  575TMC3    C1 8523   1.965   3.320  10.404  0.3190  0.3413  0.0310
  575TMC3    C2 8524   1.917   3.199  10.364  0.6297 -0.2554 -0.2112
  575TMC3    C3 8525   1.927   3.175  10.230  0.1203 -0.5372 -0.2154
  575TMC3    C4 8526   1.999   3.418  10.318  0.6539 -0.7982  0.7689
  575TMC3    C5 8527   1.982   3.401  10.182  0.0654  0.5671 -0.1402
  575TMC3    C6 8528   1.962   3.274  10.137  0.0640  0.4011  0.1096
  575TMC3     C 8529   1.987   3.336  10.550 -0.1163 -0.5198  0.5878
  575TMC3     O 8530   1.933   3.254  10.621 -0.1781 -0.2571 -0.5830
  575TMC3     H 8531   1.880   3.125  10.434 -1.4585 -0.4006 -1.4529
  575TMC3    H1 8532   2.045   3.510  10.354  3.1290 -1.9411  0.5356
  575TMC3    H2 8533   2.008   3.247  10.043  0.0279 -2.3379  0.9013
  575TMC3    C7 8534   2.060   3.492  10.098 -0.4001 -0.3805  0.3189
  575TMC3    C8 8535   1.876   3.047  10.183 -0.0746  0.8854  1.1928
  575TMC3    O1 8536   2.164   3.542  10.138 -0.8473  1.1018  0.0639
  575TMC3    O2 8537   1.847   2.968  10.267  0.2414 -0.3597 -0.1910
  576MPD2     C 8538   1.980   0.153  12.520  0.0086 -0.0181 -0.3309
  576MPD2    C1 8539   2.048   0.268  12.490 -0.3690  0.7970  0.8889
  576MPD2    C2 8540   2.037   0.383  12.560 -0.4855  0.5451 -0.1478
  576MPD2    C3 8541   1.962   0.386  12.679 -0.3887  0.0813  0.2572
  576MPD2    C4 8542   1.886   0.274  12.706 -1.0077  0.5433 -0.5584
  576MPD2    C5 8543   1.898   0.165  12.634 -0.0160  0.4201 -0.5387
  576MPD2     H 8544   2.094   0.471  12.533 -2.0808  0.9579 -2.1386
  576MPD2    H1 8545   1.843   0.258  12.805 -1.4103  3.0703 -0.3299
  576MPD2    H2 8546   1.987   0.059  12.468 -0.5869 -0.4673  0.3958
  576MPD2    H3 8547   1.845   0.077  12.669 -0.5378  0.2557 -1.7405
  576MPD2     N 8548   1.976   0.500  12.762  0.4047 -0.1980  0.0587
  576MPD2    H5 8549   2.060   0.554  12.745 -0.1557  0.4764 -0.5964
  576MPD2    N1 8550   2.115   0.282  12.369 -0.3028  0.1209  0.0586
  576MPD2    H7 8551   2.154   0.374  12.348  2.1372 -0.8616  0.2447
  577TMC3    C1 8552   2.241   0.209  12.187  0.1841 -0.5913 -0.1548
  577TMC3    C2 8553   2.332   0.114  12.162  0.0645 -0.3496  0.5523
  577TMC3    C3 8554   2.382   0.111  12.036 -0.1305  0.1195  0.0141
  577TMC3    C4 8555   2.192   0.294  12.090  0.3808  0.3124  0.0851
  577TMC3    C5 8556   2.249   0.291  11.959 -0.5021 -0.6718  0.3224
  577TMC3    C6 8557   2.349   0.201  11.936  0.0837 -0.3331  0.5886
  577TMC3     C 8558   2.165   0.176  12.302 -0.4749  0.7273 -0.2119
  577TMC3     O 8559   2.158   0.056  12.323 -0.0791 -0.3781 -0.3821
  577TMC3     H 8560   2.368   0.049  12.241 -2.4661 -0.4836  1.5966
  577TMC3    H1 8561   2.113   0.362  12.119 -0.3990 -0.1771 -0.8730
  577TMC3    H2 8562   2.407   0.204  11.844 -2.2255  1.1054 -0.8287
  577TMC3    C7 8563   2.227   0.382  11.858 -0.0280  0.4423 -0.0478
  577TMC3    C8 8564   2.453   4.718  12.001 -0.3787  0.1516 -0.5536
  577TMC3    O1 8565   2.257   0.329  11.752  0.6594  0.8758  0.4390
  577TMC3    O2 8566   2.493   4.641  12.089 -0.0114  0.0257 -0.1185
  578MPD2     C 8567   4.434   4.616   1.092  0.1888  0.2911  0.6860
  578MPD2    C1 8568   4.566   4.623   1.047  0.3204 -0.2072  0.9584
  578MPD2    C2 8569   4.664   4.568   1.132  0.1087 -1.0072 -0.1293
  578MPD2    C3 8570   4.633   4.515   1.256  0.4246  0.5856  0.0672
  578MPD2    C4 8571   4.502   4.494   1.289 -0.8256 -0.4383 -0.0911
  578MPD2    C5 8572   4.403   4.544   1.206 -0.0227 -0.4428  1.1620
  578MPD2     H 8573   0.044   4.572   1.105 -0.1393  0.8145 -0.8569
  578MPD2    H1 8574   4.475   4.439   1.378  0.1923 -0.0208  0.4772
  578MPD2    H2 8575   4.352   4.665   1.039  0.6984  0.4357  0.0325
  578MPD2    H3 8576   4.296   4.547   1.222 -0.4431 -1.2099 -1.5344
  578MPD2     N 8577   0.014   4.476   1.340  0.5552 -0.4409  0.4165
  578MPD2    H5 8578   0.105   4.462   1.297 -0.8063 -0.0222 -2.5455
  578MPD2    N1 8579   4.592   4.703   0.933 -0.2698  0.3838 -0.2813
  578MPD2    H7 8580   4.511   0.011   0.881 -1.6438  0.4153  1.8781
  579TMC3    C1 8581   0.116   4.359   1.515 -0.4106 -0.8262 -0.0078
  579TMC3    C2 8582   0.159   4.382   1.639  0.6244  0.7313  0.0919
  579TMC3    C3 8583   0.281   4.341   1.670  0.7304  0.2676  0.0053
  579TMC3    C4 8584   0.189   4.298   1.417 -0.2701  0.7266 -0.7158
  579TMC3    C5 8585   0.306   4.247   1.458  0.5933 -0.0422  0.3202
  579TMC3    C6 8586   0.362   4.272   1.580  0.3314  0.7126 -0.7120
  579TMC3     C 8587   4.724   4.431   1.471  0.8355 -0.3654  0.9570
  579TMC3     O 8588   4.657   4.470   1.560 -0.0432 -0.2617  0.7836
  579TMC3     H 8589   0.106   4.447   1.708 -3.0989 -2.7394  0.5563
  579TMC3    H1 8590   0.134   4.265   1.329  3.1321  3.4520 -3.8617
  579TMC3    H2 8591   0.463   4.240   1.604  0.5003  3.2022  1.9454
  579TMC3    C7 8592   0.369   4.142   1.382  0.3417  0.0377 -0.3329
  579TMC3    C8 8593   0.331   4.409   1.791 -0.4239 -0.1864  0.1223
  579TMC3    O1 8594   0.471   4.088   1.427  0.3210  0.2559  0.5829
  579TMC3    O2 8595   0.251   4.449   1.878 -0.0677 -0.3216  0.3173
  580TMC3    C1 8596   0.051   4.632  11.935 -0.6127  0.5279  0.8953
  580TMC3    C2 8597   0.163   4.691  11.889 -0.4064 -0.4052 -0.6055
  580TMC3    C3 8598   0.273   4.626  11.937 -0.2997  0.1329  0.4049
  580TMC3    C4 8599   0.046   4.524  12.020  0.4396  0.2464  0.3586
  580TMC3    C5 8600   0.160   4.457  12.048 -1.2569 -0.1047  0.5154
  580TMC3    C6 8601   0.275   4.521  12.021 -0.8265  0.4138 -0.6471
  580TMC3     C 8602   4.643   4.668  11.885  0.0027  0.5221  0.6592
  580TMC3     O 8603   4.543   4.626  11.941 -0.4805 -0.4873  0.3175
  580TMC3     H 8604   0.174   0.053  11.825 -0.9821 -0.5898 -0.9590
  580TMC3    H1 8605   4.678   4.473  12.040  0.6690 -0.1615  0.3723
  580TMC3    H2 8606   0.371   4.481  12.053 -0.8405  2.5856  2.1466
  580TMC3    C7 8607   0.148   4.323  12.111  0.0411  0.5743 -0.0534
  580TMC3    C8 8608   0.403   4.678  11.911  0.0058 -0.7447  0.2440
  580TMC3    O1 8609   0.038   4.280  12.153 -0.3594 -0.4990 -0.0317
  580TMC3    O2 8610   0.488   4.684  11.998  0.6750 -0.7004 -0.2361
  581MPD2     C 8611   2.818   3.402  15.447 -0.0406  1.1449  0.3742
  581MPD2    C1 8612   2.845   3.525  15.405 -0.2576  1.2890 -0.3692
  581MPD2    C2 8613   2.752   3.602  15.342  0.0654  0.2101 -0.6110
  581MPD2    C3 8614   2.623   3.553  15.325 -0.1106 -0.0361 -0.5014
  581MPD2    C4 8615   2.599   3.426  15.362  0.2100  0.1751 -0.2901
  581MPD2    C5 8616   2.695   3.358  15.432  0.3178  1.0899 -0.7335
  581MPD2     H 8617   2.773   3.703  15.308 -0.2806  0.7721  0.8531
  581MPD2    H1 8618   2.497   3.389  15.364  1.1284 -2.3082  1.1226
  581MPD2    H2 8619   2.890   3.331  15.486 -2.2569 -0.6973  1.0995
  581MPD2    H3 8620   2.671   3.264  15.482 -2.2936  0.8097 -2.5055
  581MPD2     N 8621   2.514   3.638  15.279 -0.1811 -0.2519 -0.1225
  581MPD2    H5 8622   2.529   3.738  15.272 -0.7516 -0.2064 -0.6909
  581MPD2    N1 8623   2.981   3.559  15.418 -0.1608 -0.4319  1.1559
  581MPD2    H7 8624   3.038   3.481  15.449  0.8269  0.2035  0.9288
  582TMC3    C1 8625   3.176   3.676  15.460  0.3895  0.1094 -0.3272
  582TMC3    C2 8626   3.186   3.754  15.571  0.0433  0.9377  0.6171
  582TMC3    C3 8627   3.244   3.701  15.678  0.0201  0.5189 -0.2470
  582TMC3    C4 8628   3.220   3.547  15.461  0.0985  0.2778 -0.6620
  582TMC3    C5 8629   3.259   3.493  15.576 -0.4919 -0.0712  0.6938
  582TMC3    C6 8630   3.276   3.569  15.691 -1.1601  0.4387  0.5628
  582TMC3     C 8631   3.042   3.683  15.400 -0.2391  0.3566 -0.5538
  582TMC3     O 8632   2.987   3.792  15.386 -0.1219 -0.1900 -0.2596
  582TMC3     H 8633   3.147   3.855  15.574  0.6842  1.1905  0.2944
  582TMC3    H1 8634   3.214   3.487  15.371 -0.4613 -0.2803 -0.2515
  582TMC3    H2 8635   3.315   3.531  15.784 -1.2486  0.7224  0.7144
  582TMC3    C7 8636   3.233   3.353  15.594  0.2059  0.3133 -0.4731
  582TMC3    C8 8637   3.255   3.775  15.805  0.1968 -0.0029  0.0428
  582TMC3    O1 8638   3.230   3.290  15.489  0.2699  0.4236 -0.3511
  582TMC3    O2 8639   3.186   3.872  15.825 -0.3318 -0.2533  0.2883
  583MPD2     C 8640   2.469   0.738  16.862 -0.2519 -0.8601  1.1157
  583MPD2    C1 8641   2.538   0.833  16.792  0.2089 -0.0184 -0.7783
  583MPD2    C2 8642   2.561   0.949  16.858 -0.1807  0.4407 -0.2450
  583MPD2    C3 8643   2.516   0.976  16.981 -0.4019  0.1790 -0.0637
  583MPD2    C4 8644   2.443   0.881  17.053 -0.0457 -0.1677 -0.2408
  583MPD2    C5 8645   2.425   0.755  16.993 -0.3350 -0.2744 -0.2751
  583MPD2     H 8646   2.621   1.018  16.799  0.3915  0.4113  0.2999
  583MPD2    H1 8647   2.399   0.885  17.151 -2.4748 -1.2885 -1.2946
  583MPD2    H2 8648   2.437   0.650  16.808  1.5817 -1.1539  0.5022
  583MPD2    H3 8649   2.366   0.675  17.037 -0.9638 -0.2198 -1.0063
  583MPD2     N 8650   2.550   1.099  17.037 -0.3298  0.0017  0.7190
  583MPD2    H5 8651   2.598   1.167  16.978  1.5793 -1.8666  0.0988
  583MPD2    N1 8652   2.594   0.814  16.667 -0.0003 -0.4180 -0.9499
  583MPD2    H7 8653   2.651   0.888  16.628  0.2104 -1.0456 -1.8393
  584TMC3    C1 8654   2.599   1.239  17.207 -0.3368  0.3202  0.2471
  584TMC3    C2 8655   2.631   1.345  17.126  0.4636  0.3608  0.8850
  584TMC3    C3 8656   2.690   1.451  17.185 -0.4148 -0.1527 -0.2541
  584TMC3    C4 8657   2.619   1.235  17.336 -0.3358  0.5604  0.4796
  584TMC3    C5 8658   2.681   1.341  17.393 -0.0899 -0.1658  0.2342
  584TMC3    C6 8659   2.720   1.452  17.322 -0.1785  0.3417  0.4818
  584TMC3     C 8660   2.511   1.141  17.163 -0.0548  0.4804  0.7241
  584TMC3     O 8661   2.457   1.079  17.251  0.1818 -0.6912 -0.3560
  584TMC3     H 8662   2.595   1.342  17.024  1.4771 -1.8835  0.5941
  584TMC3    H1 8663   2.618   1.146  17.397 -1.1963  1.7093  2.1485
  584TMC3    H2 8664   2.746   1.548  17.366  2.3795 -0.5147  0.8478
  584TMC3    C7 8665   2.677   1.340  17.535  0.7764  0.0644  0.3221
  584TMC3    C8 8666   2.732   1.560  17.103  0.0943  1.1326 -0.0197
  584TMC3    O1 8667   2.590   1.271  17.579  0.2127 -0.5059  0.0692
  584TMC3    O2 8668   2.705   1.559  16.984 -0.8434  0.5406  0.4521
  585MPD2     C 8669   1.492   4.259   0.951  0.5790 -0.5172  0.8154
  585MPD2    C1 8670   1.623   4.240   0.911 -1.0523 -0.2306 -0.0216
  585MPD2    C2 8671   1.641   4.209   0.779 -0.0337  1.3907  0.2440
  585MPD2    C3 8672   1.533   4.187   0.696 -0.2074 -0.2879  0.6313
  585MPD2    C4 8673   1.400   4.200   0.738  0.0860 -0.4545  0.0710
  585MPD2    C5 8674   1.385   4.224   0.871 -0.9784  0.2770 -0.4598
  585MPD2     H 8675   1.742   4.214   0.738  0.2088 -0.8199  0.5599
  585MPD2    H1 8676   1.313   4.180   0.677 -0.3669  2.5596 -0.2432
  585MPD2    H2 8677   1.461   4.283   1.052  0.9561 -0.6200  0.9553
  585MPD2    H3 8678   1.286   4.227   0.916 -0.8345  4.0470 -0.4482
  585MPD2     N 8679   1.547   4.149   0.560  0.2488  0.1530 -0.1528
  585MPD2    H5 8680   1.466   4.158   0.500  0.6436  1.9410 -0.4286
  585MPD2    N1 8681   1.727   4.258   1.008 -0.9302 -0.3241 -0.3572
  585MPD2    H7 8682   1.706   4.290   1.102  1.2920  0.8057 -0.2485
  586TMC3    C1 8683   1.658   4.118   0.352  0.0745 -0.1988 -0.4969
  586TMC3    C2 8684   1.783   4.087   0.301  0.7964  0.3254 -0.0871
  586TMC3    C3 8685   1.801   4.099   0.169  0.3106 -0.2947  0.1026
  586TMC3    C4 8686   1.548   4.144   0.275  0.4244  0.3505  0.0950
  586TMC3    C5 8687   1.579   4.158   0.138  0.3395  0.3026 -0.8625
  586TMC3    C6 8688   1.707   4.142   0.081 -0.3932  0.0502  0.5016
  586TMC3     C 8689   1.658   4.102   0.497  1.1440  0.5586 -0.2462
  586TMC3     O 8690   1.759   4.082   0.560 -0.1935  0.2124  0.2289
  586TMC3     H 8691   1.865   4.071   0.369  0.4077 -0.9408  0.0794
  586TMC3    H1 8692   1.448   4.155   0.316  0.4724  0.0193  0.3020
  586TMC3    H2 8693   1.735   4.147  17.679 -0.9260 -0.8413  0.3206
  586TMC3    C7 8694   1.481   4.090   0.056  0.0514  0.4738 -0.6839
  586TMC3    C8 8695   1.915   4.028   0.116  0.1541  0.4387  0.3135
  586TMC3    O1 8696   1.523   4.041  17.651  0.2790  1.4584  0.5309
  586TMC3    O2 8697   1.939   3.920   0.168  0.6063  0.3541  0.0525
  587TMC3    C1 8698   4.495   3.041  16.544 -0.6106 -0.5125  0.1098
  587TMC3    C2 8699   4.488   3.180  16.547 -0.2863  0.7522 -0.6612
  587TMC3    C3 8700   4.557   3.252  16.454  0.6627 -0.8080  0.3671
  587TMC3    C4 8701   4.575   2.975  16.454 -0.7181 -0.0195 -0.7859
  587TMC3    C5 8702   4.644   3.046  16.361  0.1604  0.3285 -0.4379
  587TMC3    C6 8703   4.643   3.182  16.366 -0.5908 -0.0722  0.3238
  587TMC3     C 8704   4.450   2.961  16.659 -0.3654 -0.1122  0.6362
  587TMC3     O 8705   4.506   2.851  16.673 -0.2766  0.0849  0.0735
  587TMC3     H 8706   4.429   3.227  16.624  1.9306  0.9011  0.9515
  587TMC3    H1 8707   4.581   2.867  16.458 -2.8823 -0.1221 -0.1460
  587TMC3    H2 8708   4.692   3.239  16.287  0.6496 -0.7963  0.5667
  587TMC3    C7 8709   0.029   2.987  16.283  0.1408  0.1270 -0.7044
  587TMC3    C8 8710   4.520   3.390  16.420 -0.3734  0.1418  0.2773
  587TMC3    O1 8711   0.131   3.049  16.264 -0.5553 -0.0209 -0.6775
  587TMC3    O2 8712   4.586   3.449  16.337 -0.1408  0.2399  0.2455
  588TMC3    C1 8713   1.662   1.810  10.044 -0.1348 -0.0037 -0.0025
  588TMC3    C2 8714   1.628   1.692   9.987  0.8303  0.0602 -0.0518
  588TMC3    C3 8715   1.636   1.587  10.068 -0.4234  0.2902  0.3222
  588TMC3    C4 8716   1.723   1.821  10.163 -0.2188 -0.1075 -0.5789
  588TMC3    C5 8717   1.720   1.706  10.241 -0.2620  0.4241  0.1825
  588TMC3    C6 8718   1.681   1.586  10.193  0.4792  0.9656  0.9254
  588TMC3     C 8719   1.609   1.928   9.975 -0.6984  0.2582 -0.1018
  588TMC3     O 8720   1.504   1.922   9.916  0.1710  0.2667  0.5732
  588TMC3     H 8721   1.590   1.679   9.887 -2.2804 -2.4877  1.4529
  588TMC3    H1 8722   1.734   1.921  10.205 -0.5395 -0.1969 -0.2818
  588TMC3    H2 8723   1.667   1.499  10.254  2.8461 -0.5580 -0.6981
  588TMC3    C7 8724   1.775   1.709  10.372 -0.0041  0.1673 -0.0636
  588TMC3    C8 8725   1.590   1.463  10.010 -0.1851  0.2950  0.1733
  588TMC3    O1 8726   1.736   1.633  10.459 -0.3857  0.3260  0.1190
  588TMC3    O2 8727   1.506   1.472   9.923  0.5826  0.4582 -0.2243
  589TMC3    C1 8728   0.770   3.095   1.530  0.1669  0.0025  0.1426
  589TMC3    C2 8729   0.883   3.118   1.604  0.1056 -0.3871 -0.0750
  589TMC3    C3 8730   0.981   3.026   1.612 -1.1818  0.5231 -0.0972
  589TMC3    C4 8731   0.754   2.979   1.459 -0.2575 -0.3666  0.7109
  589TMC3    C5 8732   0.850   2.880   1.471  0.1402 -0.0984 -0.1845
  589TMC3    C6 8733   0.969   2.907   1.541 -0.0512 -0.1374 -0.0583
  589TMC3     C 8734   0.659   3.184   1.539  0.0225  0.0231 -0.3447
  589TMC3     O 8735   0.548   3.147   1.500  0.1243 -0.1202  0.0708
  589TMC3     H 8736   0.898   3.207   1.665 -1.0929 -0.5205  0.4178
  589TMC3    H1 8737   0.661   2.965   1.404 -0.7190 -0.7667  1.6018
  589TMC3    H2 8738   1.050   2.835   1.535 -2.8183 -3.0890 -2.1441
  589TMC3    C7 8739   0.847   2.762   1.385  0.0742  0.3464 -0.3928
  589TMC3    C8 8740   1.075   3.026   1.723  0.1751  0.5346  0.3109
  589TMC3    O1 8741   0.747   2.698   1.375  0.3007 -0.0487  0.4166
  589TMC3    O2 8742   1.034   3.073   1.831  0.0424  0.0972 -0.4085
  590MPD2     C 8743   0.884   1.381  16.876 -0.3188 -0.1053  0.2331
  590MPD2    C1 8744   0.825   1.424  16.756 -0.2754  0.5461  0.3264
  590MPD2    C2 8745   0.902   1.493  16.662 -1.2172 -1.2345 -0.4953
  590MPD2    C3 8746   1.040   1.522  16.685 -0.0820  0.5039 -0.0602
  590MPD2    C4 8747   1.096   1.479  16.803 -0.8828 -0.0060 -0.0998
  590MPD2    C5 8748   1.016   1.414  16.897  0.3350  0.3681  0.8459
  590MPD2     H 8749   0.854   1.536  16.575 -0.1781  0.8374 -0.0502
  590MPD2    H1 8750   1.202   1.481  16.826 -0.6128  0.0311 -1.3224
  590MPD2    H2 8751   0.829   1.328  16.953  1.4453 -1.7705  0.3228
  590MPD2    H3 8752   1.064   1.374  16.986 -0.4929  0.8104  1.5002
  590MPD2     N 8753   1.103   1.599  16.592 -0.6361  0.5266 -0.1475
  590MPD2    H5 8754   1.041   1.647  16.527  0.7870  1.1648 -1.0501
  590MPD2    N1 8755   0.684   1.404  16.741 -0.1588  0.3214  0.0873
  590MPD2    H7 8756   0.627   1.357  16.810  0.1306 -2.4196 -1.5690
  591TMC3    C1 8757   1.252   1.696  16.452  0.1124  0.7144 -0.1505
  591TMC3    C2 8758   1.329   1.654  16.349  0.8466  0.0598  0.0098
  591TMC3    C3 8759   1.319   1.725  16.231  0.1137  0.2385 -0.5386
  591TMC3    C4 8760   1.158   1.793  16.431  0.7058 -1.5817 -0.5474
  591TMC3    C5 8761   1.150   1.859  16.314  0.9653 -0.1248  0.1116
  591TMC3    C6 8762   1.228   1.824  16.208  0.3166  0.1959 -0.4267
  591TMC3     C 8763   1.239   1.606  16.568  0.3554 -0.3976 -0.7651
  591TMC3     O 8764   1.340   1.553  16.614  0.3461  0.6204  0.4576
  591TMC3     H 8765   1.376   1.557  16.363 -1.1533 -0.8487  0.4903
  591TMC3    H1 8766   1.092   1.836  16.506  0.6381 -1.3909 -0.7160
  591TMC3    H2 8767   1.209   1.865  16.110 -0.7977  0.7887  0.0383
  591TMC3    C7 8768   1.052   1.955  16.296 -0.2730  0.2270 -0.4649
  591TMC3    C8 8769   1.374   1.649  16.114 -0.2293  0.0196 -0.4241
  591TMC3    O1 8770   0.962   1.948  16.379 -0.3638 -0.2721  0.0172
  591TMC3    O2 8771   1.368   1.527  16.104  0.0194  0.2363  0.1633
  592MPD2     C 8772   0.957   4.011  11.009 -0.5413  0.1193  1.2360
  592MPD2    C1 8773   0.913   4.074  11.119  0.7805  0.4984 -0.0171
  592MPD2    C2 8774   0.812   4.014  11.199 -0.3910  0.0563 -0.4044
  592MPD2    C3 8775   0.761   3.894  11.151 -0.2879  0.0365  0.3411
  592MPD2    C4 8776   0.801   3.838  11.032 -0.1506  0.3579 -0.0255
  592MPD2    C5 8777   0.906   3.897  10.963  0.2324  0.3668  0.7709
  592MPD2     H 8778   0.799   4.051  11.300  1.9691 -0.1443 -0.0315
  592MPD2    H1 8779   0.752   3.748  10.998 -0.2184  1.1165 -1.8939
  592MPD2    H2 8780   1.037   4.054  10.949 -0.1729 -1.5878  0.5087
  592MPD2    H3 8781   0.942   3.858  10.869  2.2169  3.0517  0.4235
  592MPD2     N 8782   0.658   3.830  11.230 -0.4117 -0.0370  0.2808
  592MPD2    H5 8783   0.616   3.891  11.299 -0.7240 -0.5846  0.5803
  592MPD2    N1 8784   0.971   4.198  11.143 -0.2560  0.0102 -0.4213
  592MPD2    H7 8785   1.043   4.230  11.080  1.0747  0.9321  1.5574
  593TMC3    C1 8786   1.050   4.380  11.282  0.6411  0.7178 -0.2404
  593TMC3    C2 8787   1.039   4.443  11.407 -0.3111 -0.5979 -0.1282
  593TMC3    C3 8788   1.141   4.527  11.446  0.9662  0.0254 -0.4901
  593TMC3    C4 8789   1.159   4.392  11.198  0.3471 -0.8350 -0.0550
  593TMC3    C5 8790   1.260   4.474  11.252 -0.7608 -0.2164  0.0844
  593TMC3    C6 8791   1.252   4.542  11.371 -0.3056  0.2762 -0.3272
  593TMC3     C 8792   0.952   4.274  11.259  0.3402  0.9344  0.6839
  593TMC3     O 8793   0.864   4.258  11.345  0.0713  0.0688 -0.4077
  593TMC3     H 8794   0.957   4.430  11.477  0.9782  1.3078  1.7498
  593TMC3    H1 8795   1.152   4.335  11.106  0.5077 -1.1165  0.1071
  593TMC3    H2 8796   1.333   4.612  11.389  0.2194 -0.0520 -1.4137
  593TMC3    C7 8797   1.356   4.525  11.156 -0.1365 -0.3012  0.4620
  593TMC3    C8 8798   1.124   4.608  11.565 -0.0452  1.0674 -1.0736
  593TMC3    O1 8799   1.428   4.618  11.182  0.1546  0.0231 -0.5394
  593TMC3    O2 8800   1.016   4.620  11.620  0.0001 -0.6200 -0.1566
  594MPD2     C 8801   4.124   2.594  13.853  0.0718 -0.2241  0.1643
  594MPD2    C1 8802   4.149   2.543  13.977 -0.0325 -0.5890  0.7850
  594MPD2    C2 8803   4.278   2.551  14.023  0.0091 -0.8109 -0.5573
  594MPD2    C3 8804   4.370   2.620  13.953  0.7174 -0.4281  0.2214
  594MPD2    C4 8805   4.344   2.665  13.824  0.6789  0.1267  0.2943
  594MPD2    C5 8806   4.219   2.650  13.772 -0.5628  0.5345 -0.1173
  594MPD2     H 8807   4.321   2.514  14.115 -1.5756  1.2610  1.0346
  594MPD2    H1 8808   4.414   2.721  13.763  0.1807  1.8874  1.3518
  594MPD2    H2 8809   4.023   2.588  13.814 -0.1334 -0.5459  0.7396
  594MPD2    H3 8810   4.201   2.701  13.678  2.3164 -2.4522 -2.2680
  594MPD2     N 8811   4.491   2.628  14.020 -0.1064 -0.2280 -0.3453
  594MPD2    H5 8812   4.501   2.581  14.110 -0.7876  0.3076  0.0132
  594MPD2    N1 8813   4.040   2.493  14.051 -0.1050 -0.2764 -0.0818
  594MPD2    H7 8814   3.951   2.505  14.004 -0.9614 -3.5943  0.6692
  595TMC3    C1 8815   0.193   2.762  14.153  0.4370  0.1709 -0.1862
  595TMC3    C2 8816   0.106   2.733  14.045  0.4883  0.1974  0.1636
  595TMC3    C3 8817   4.701   2.724  14.072  0.9019 -0.7182  0.7259
  595TMC3    C4 8818   0.150   2.771  14.281 -0.4130  0.5699 -0.4588
  595TMC3    C5 8819   0.013   2.766  14.304  0.5038 -1.1217 -0.2272
  595TMC3    C6 8820   4.650   2.738  14.200  0.5133 -0.0567 -0.1220
  595TMC3     C 8821   0.333   2.758  14.142 -0.2109 -0.0617 -0.1766
  595TMC3     O 8822   0.392   2.706  14.234 -0.3665 -0.2624 -0.5518
  595TMC3     H 8823   0.145   2.724  13.944  1.1221  2.2195  0.2372
  595TMC3    H1 8824   0.215   2.809  14.359 -0.3835 -1.0004  0.2913
  595TMC3    H2 8825   4.546   2.732  14.228 -0.1460  1.8894 -2.1434
  595TMC3    C7 8826   4.683   2.782  14.441  0.1945  0.2333  0.5944
  595TMC3    C8 8827   4.600   2.700  13.973  0.2173 -0.8005 -0.7584
  595TMC3    O1 8828   4.559   2.792  14.456 -0.7172 -0.2114  0.1149
  595TMC3    O2 8829   4.621   2.740  13.863 -0.3255 -0.1263 -0.0949
  596MPD2     C 8830   3.066   0.410  16.795  0.3771 -0.5905  0.7022
  596MPD2    C1 8831   3.203   0.401  16.812  0.0048  0.7255  0.2480
  596MPD2    C2 8832   3.283   0.371  16.699 -0.7215  0.0069  0.2491
  596MPD2    C3 8833   3.221   0.372  16.576 -0.4231  0.4210  0.1647
  596MPD2    C4 8834   3.088   0.412  16.562  0.4298 -0.3020  0.9163
  596MPD2    C5 8835   3.018   0.428  16.672 -0.7535 -0.1501  0.6895
  596MPD2     H 8836   3.383   0.335  16.717  0.0112  1.8896 -0.0940
  596MPD2    H1 8837   3.039   0.419  16.466  1.4733 -0.5744  0.3614
  596MPD2    H2 8838   3.000   0.416  16.881 -1.4166 -3.5603 -0.4509
  596MPD2    H3 8839   2.912   0.448  16.661 -0.3312  1.7069  0.0224
  596MPD2     N 8840   3.301   0.358  16.457  0.2625 -0.4833 -0.1912
  596MPD2    H5 8841   3.251   0.365  16.368  0.8273  0.9560 -0.3960
  596MPD2    N1 8842   3.257   0.383  16.946 -0.0192 -0.0027  0.6098
  596MPD2    H7 8843   3.358   0.383  16.958  0.0196 -0.2394  0.2661
  597TMC3    C1 8844   3.252   0.497  17.148 -0.0668  0.1021 -0.0922
  597TMC3    C2 8845   3.374   0.544  17.110  0.2959  0.1589  0.2531
  597TMC3    C3 8846   3.414   0.673  17.140 -0.2211  0.4942  0.0057
  597TMC3    C4 8847   3.168   0.573  17.224  0.1545  0.0022  0.2898
  597TMC3    C5 8848   3.212   0.699  17.258 -0.1354  0.3640 -0.4125
  597TMC3    C6 8849   3.333   0.752  17.217  0.3525  0.2487 -0.1914
  597TMC3     C 8850   3.185   0.403  17.060 -0.6618 -0.6246 -0.3000
  597TMC3     O 8851   3.069   0.368  17.090 -0.4804  0.8647 -0.5168
  597TMC3     H 8852   3.440   0.488  17.044 -1.5723 -1.8867  0.1068
  597TMC3    H1 8853   3.070   0.537  17.250 -0.0398  1.9224  2.1699
  597TMC3    H2 8854   3.358   0.854  17.247 -0.3442  0.1633  0.6701
  597TMC3    C7 8855   3.121   0.782  17.337 -0.7547  0.3448  1.5780
  597TMC3    C8 8856   3.544   0.722  17.103 -0.7012  0.2429  0.8079
  597TMC3    O1 8857   3.033   0.715  17.395  0.0451 -0.1205 -0.0528
  597TMC3    O2 8858   3.634   0.641  17.087 -1.0342  0.1302  0.0062
  598TMC3    C1 8859   2.109   2.098  15.533  0.4079 -0.0870  0.0021
  598TMC3    C2 8860   2.007   2.153  15.462  0.5689  0.0107 -0.1082
  598TMC3    C3 8861   2.028   2.176  15.324 -0.2865  0.2753  0.4291
  598TMC3    C4 8862   2.233   2.094  15.480  0.6868  0.2629  0.9027
  598TMC3    C5 8863   2.251   2.123  15.347 -0.1514 -0.2125 -0.6734
  598TMC3    C6 8864   2.145   2.161  15.262 -0.4113 -0.5513 -0.0955
  598TMC3     C 8865   2.081   2.026  15.655  0.5974 -0.0110 -0.7654
  598TMC3     O 8866   1.964   2.023  15.686  0.2990 -0.7516 -0.2678
  598TMC3     H 8867   1.905   2.150  15.500  0.5000 -1.3842 -0.3928
  598TMC3    H1 8868   2.321   2.079  15.540  0.0439 -0.1596  1.7294
  598TMC3    H2 8869   2.159   2.166  15.155 -1.3791  0.5797 -0.1633
  598TMC3    C7 8870   2.390   2.148  15.311  0.2825  0.0346  0.2474
  598TMC3    C8 8871   1.918   2.122  15.247  1.2067  0.4175 -0.1792
  598TMC3    O1 8872   2.485   2.097  15.374  0.3354 -0.0879  0.0458
  598TMC3    O2 8873   1.907   2.167  15.136 -0.3593 -0.3332  0.1143
  599MPD2     C 8874   1.972   4.252  15.878  0.1938 -0.0388 -0.1138
  599MPD2    C1 8875   1.965   4.136  15.949  0.1154 -0.0530  0.0763
  599MPD2    C2 8876   1.855   4.109  16.037 -0.1969  0.0103 -0.4083
  599MPD2    C3 8877   1.762   4.218  16.063 -0.2612  0.2075 -0.2914
  599MPD2    C4 8878   1.781   4.339  16.003  0.0817 -0.3133 -0.3373
  599MPD2    C5 8879   1.882   4.347  15.916 -0.5861  0.0574  0.1471
  599MPD2     H 8880   1.842   4.017  16.094 -3.1435  0.5328 -0.2232
  599MPD2    H1 8881   1.721   4.428  16.008  0.6048 -0.0273  0.7371
  599MPD2    H2 8882   2.057   4.275  15.814  0.8564  2.5440  1.6981
  599MPD2    H3 8883   1.905   4.447  15.883  1.3439  0.3188  2.2475
  599MPD2     N 8884   1.656   4.201  16.152 -0.5431 -0.1495  0.2129
  599MPD2    H5 8885   1.610   4.289  16.172  1.1907  0.2943  2.2706
  599MPD2    N1 8886   2.064   4.040  15.919 -0.1274  0.4593 -0.2938
  599MPD2    H7 8887   2.152   4.076  15.884  0.1586 -0.4267 -0.5132
  600TMC3    C1 8888   1.539   4.103  16.341  0.5282  0.1536  0.9401
  600TMC3    C2 8889   1.470   3.993  16.375  0.3328 -0.7170 -0.0821
  600TMC3    C3 8890   1.408   4.002  16.497  0.0582 -0.1310 -0.0887
  600TMC3    C4 8891   1.536   4.227  16.409  0.1074  0.1285  0.2964
  600TMC3    C5 8892   1.476   4.226  16.532  0.2525  0.0039  0.2227
  600TMC3    C6 8893   1.416   4.109  16.576  0.1353  0.0979 -0.3671
  600TMC3     C 8894   1.629   4.086  16.222  0.1986  0.6091  0.5394
  600TMC3     O 8895   1.639   3.972  16.181 -0.0636  0.0760 -0.4130
  600TMC3     H 8896   1.480   3.897  16.326  2.1899 -0.9150  0.6648
  600TMC3    H1 8897   1.601   4.308  16.377 -0.0798  0.7435  1.4615
  600TMC3    H2 8898   1.352   4.109  16.664 -0.1600  0.9873 -0.5766
  600TMC3    C7 8899   1.475   4.341  16.623  0.5183 -0.0099 -0.2460
  600TMC3    C8 8900   1.344   3.884  16.552  0.2182 -0.2602  0.4081
  600TMC3    O1 8901   1.408   4.336  16.724  0.6406 -0.4869  0.0986
  600TMC3    O2 8902   1.338   3.869  16.674  0.8277 -0.5665 -0.1691
  601MPD2     C 8903   3.794   2.499   0.468 -0.8905  0.5165 -0.2281
  601MPD2    C1 8904   3.685   2.411   0.446 -0.3143  1.1325  0.7583
  601MPD2    C2 8905   3.701   2.271   0.436  0.3266  0.2581 -1.1062
  601MPD2    C3 8906   3.825   2.211   0.443 -0.1610  0.5510  0.0140
  601MPD2    C4 8907   3.934   2.296   0.470  0.6543  0.5142 -0.0815
  601MPD2    C5 8908   3.917   2.435   0.478 -0.0897 -0.2155 -0.1028
  601MPD2     H 8909   3.611   2.213   0.422  1.1902 -0.9453 -1.7155
  601MPD2    H1 8910   4.035   2.258   0.478  0.1858 -1.4415 -3.2737
  601MPD2    H2 8911   3.785   2.606   0.484  3.9845  0.8644  0.2637
  601MPD2    H3 8912   4.002   2.499   0.495 -0.1965  0.2029 -1.1603
  601MPD2     N 8913   3.852   2.072   0.431 -0.3540 -0.3974  0.6069
  601MPD2    H5 8914   3.947   2.042   0.447 -0.3598 -0.6533  0.1567
  601MPD2    N1 8915   3.553   2.457   0.434  0.5586 -0.1111 -0.2199
  601MPD2    H7 8916   3.480   2.391   0.407  0.6301 -0.3691  0.2226
  602TMC3    C1 8917   3.374   2.622   0.420 -0.0463 -0.6221  0.3860
  602TMC3    C2 8918   3.312   2.728   0.478 -0.5202 -0.8323  0.1820
  602TMC3    C3 8919   3.201   2.770   0.422  0.4471 -0.3230  0.0363
  602TMC3    C4 8920   3.328   2.556   0.309 -0.3493  0.0267  1.0146
  602TMC3    C5 8921   3.200   2.597   0.263  0.4596 -0.4835 -0.5719
  602TMC3    C6 8922   3.135   2.708   0.318  0.2931  0.2888  0.2815
  602TMC3     C 8923   3.507   2.586   0.462  0.0296  0.3444 -0.0608
  602TMC3     O 8924   3.565   2.680   0.519 -0.1602 -0.3363 -0.2248
  602TMC3     H 8925   3.359   2.773   0.566 -0.7920 -1.7002  0.7645
  602TMC3    H1 8926   3.361   2.458   0.276 -0.1434  0.3306  0.3383
  602TMC3    H2 8927   3.032   2.724   0.286 -0.6241 -1.9583  2.1263
  602TMC3    C7 8928   3.179   2.565   0.118 -0.2506 -0.5396  0.2181
  602TMC3    C8 8929   3.172   2.909   0.440  0.3287  0.7888 -0.0999
  602TMC3    O1 8930   3.264   2.504   0.064 -0.6539 -0.1155  0.1957
  602TMC3    O2 8931   3.223   2.969   0.534  0.1920 -0.1572 -0.4781
  603TMC3    C1 8932   1.560   3.553  10.873 -0.0443 -0.3462  0.2505
  603TMC3    C2 8933   1.606   3.564  11.000 -0.6444 -0.2874  0.5950
  603TMC3    C3 8934   1.726   3.635  11.005 -0.1712  1.3843  0.1712
  603TMC3    C4 8935   1.623   3.599  10.763  0.6517  0.0494 -0.0519
  603TMC3    C5 8936   1.739   3.668  10.774 -0.1670 -0.1817 -0.0583
  603TMC3    C6 8937   1.789   3.693  10.901  0.4062 -0.6124  0.3212
  603TMC3     C 8938   1.437   3.466  10.854  1.3067 -0.0680  0.4129
  603TMC3     O 8939   1.425   3.377  10.938  1.1587 -0.1797 -0.4739
  603TMC3     H 8940   1.537   3.530  11.076 -0.3456  0.3270  1.1375
  603TMC3    H1 8941   1.574   3.597  10.666 -0.3430  0.5264  0.4468
  603TMC3    H2 8942   1.888   3.731  10.925 -1.1420  2.1709  2.3431
  603TMC3    C7 8943   1.799   3.733  10.665  0.6414 -0.7856 -0.8515
  603TMC3    C8 8944   1.782   3.659  11.132 -0.0045  0.0268 -0.3065
  603TMC3    O1 8945   1.882   3.817  10.696 -0.3261  0.1170 -0.0003
  603TMC3    O2 8946   1.739   3.585  11.219  0.4109  0.1556 -0.1936
  604MPD2     C 8947   3.072   1.969  16.456 -0.0041 -0.2921 -0.5043
  604MPD2    C1 8948   2.952   1.914  16.417 -0.4364  0.3487  0.2017
  604MPD2    C2 8949   2.943   1.832  16.306  0.0443 -0.3041 -0.1339
  604MPD2    C3 8950   3.060   1.810  16.231 -0.3320 -0.3876  0.2034
  604MPD2    C4 8951   3.182   1.856  16.284  0.3466 -0.1287  0.3150
  604MPD2    C5 8952   3.188   1.922  16.398 -0.1737  0.0655 -0.1214
  604MPD2     H 8953   2.850   1.787  16.273 -0.4942 -1.9358  3.6107
  604MPD2    H1 8954   3.275   1.839  16.231 -1.1853 -1.3364 -2.0180
  604MPD2    H2 8955   3.083   2.044  16.534 -1.3650 -2.6060  1.9464
  604MPD2    H3 8956   3.282   1.966  16.431 -0.9227  1.6299 -0.0615
  604MPD2     N 8957   3.052   1.731  16.111  0.6807  0.3927  0.4741
  604MPD2    H5 8958   2.959   1.715  16.074  0.9712  1.3242 -0.6455
  604MPD2    N1 8959   2.848   1.949  16.506 -0.2190 -0.5131 -0.1087
  604MPD2    H7 8960   2.860   2.014  16.583 -1.6015  0.0366 -0.3641
  605TMC3    C1 8961   2.633   1.955  16.607  0.0806  0.0686  0.2727
  605TMC3    C2 8962   2.691   1.998  16.727  0.1783 -0.5938 -0.0966
  605TMC3    C3 8963   2.603   2.036  16.826  0.3543 -0.1762 -0.3183
  605TMC3    C4 8964   2.503   1.946  16.578  0.1178  0.6246  0.2484
  605TMC3    C5 8965   2.425   2.007  16.668 -0.2117  0.3390  0.0624
  605TMC3    C6 8966   2.476   2.053  16.791  0.1102 -0.0176  0.4026
  605TMC3     C 8967   2.721   1.896  16.506  0.1075 -0.7414 -0.3358
  605TMC3     O 8968   2.666   1.824  16.426 -0.2595  0.6511 -0.2850
  605TMC3     H 8969   2.791   1.970  16.758  0.6443  2.5507  1.2663
  605TMC3    H1 8970   2.472   1.920  16.477 -1.7968 -2.1901  1.5544
  605TMC3    H2 8971   2.406   2.090  16.865 -0.0971 -1.1470  0.7698
  605TMC3    C7 8972   2.284   2.022  16.636  0.0270  0.2594 -0.5768
  605TMC3    C8 8973   2.660   2.111  16.940  0.0602  0.4989 -0.2280
  605TMC3    O1 8974   2.227   2.124  16.667  0.1403  0.5469  0.6237
  605TMC3    O2 8975   2.596   2.117  17.043  0.1941 -0.1340  0.2191
  606TMC3    C1 8976   3.941   0.400  17.073  0.0539  0.3033 -0.4746
  606TMC3    C2 8977   3.996   0.384  17.201 -0.6998  0.6567  0.1099
  606TMC3    C3 8978   3.915   0.323  17.301 -0.2457 -0.0904 -0.0916
  606TMC3    C4 8979   3.808   0.367  17.054 -0.5175  0.1423  1.0825
  606TMC3    C5 8980   3.734   0.297  17.145  0.0351 -1.2028 -0.5409
  606TMC3    C6 8981   3.784   0.279  17.271 -0.5917 -0.1609 -0.6252
  606TMC3     C 8982   4.016   0.473  16.971  0.1862  0.4584  0.2643
  606TMC3     O 8983   4.137   0.466  16.969  0.0569 -0.3025 -0.9081
  606TMC3     H 8984   4.096   0.421  17.220 -0.0688 -0.1661 -1.5347
  606TMC3    H1 8985   3.765   0.375  16.954  2.3010  2.3001  0.0449
  606TMC3    H2 8986   3.724   0.230  17.347  2.9904 -4.6851 -0.6687
  606TMC3    C7 8987   3.620   0.227  17.092  0.2918 -0.2984 -0.0617
  606TMC3    C8 8988   3.984   0.270  17.420  0.2783  0.5915  0.2879
  606TMC3    O1 8989   3.563   0.289  17.002 -0.5963  0.3143 -0.1299
  606TMC3    O2 8990   4.098   0.318  17.422  0.0856 -0.4301 -0.3050
  607MPD2     C 8991   1.239   3.708  10.985 -0.5877 -0.4427 -0.2544
  607MPD2    C1 8992   1.299   3.792  11.073  0.3177 -0.0672 -0.2865
  607MPD2    C2 8993   1.239   3.812  11.198 -0.2380 -0.0507 -0.2919
  607MPD2    C3 8994   1.122   3.755  11.237  0.3311  0.0189  0.5729
  607MPD2    C4 8995   1.066   3.662  11.151  0.0069  0.6955 -0.2627
  607MPD2    C5 8996   1.132   3.635  11.030 -0.0978  0.6940  0.2479
  607MPD2     H 8997   1.287   3.877  11.270  1.2204  0.5268 -1.7722
  607MPD2    H1 8998   0.981   3.597  11.171  1.2872 -0.7021  0.5693
  607MPD2    H2 8999   1.284   3.675  10.892 -1.0318  0.3779 -0.7487
  607MPD2    H3 9000   1.087   3.556  10.972 -1.3400  0.4193  1.5638
  607MPD2     N 9001   1.076   3.799  11.362 -0.3305  0.3339  0.3547
  607MPD2    H5 9002   1.131   3.871  11.407 -1.5223  1.5817 -0.1825
  607MPD2    N1 9003   1.423   3.854  11.058  0.0748  0.0615 -0.5749
  607MPD2    H7 9004   1.466   3.887  11.144 -2.6299  0.8711  0.4665
  608TMC3    C1 9005   1.591   3.989  10.935  0.0911  0.1928 -0.0919
  608TMC3    C2 9006   1.618   4.056  11.045  0.3129 -0.6662 -0.0985
  608TMC3    C3 9007   1.683   4.176  11.035  0.2314  0.4803 -0.2173
  608TMC3    C4 9008   1.647   4.025  10.813  0.2670 -0.1053  0.4711
  608TMC3    C5 9009   1.732   4.134  10.809  0.1246  0.4626  0.2676
  608TMC3    C6 9010   1.746   4.212  10.922  0.0672  0.0182 -1.0540
  608TMC3     C 9011   1.484   3.882  10.932  0.0779  0.4267  0.0356
  608TMC3     O 9012   1.452   3.828  10.825  0.5695  0.1198  0.1988
  608TMC3     H 9013   1.563   4.028  11.135  0.0742  1.0828  0.2990
  608TMC3    H1 9014   1.651   3.961  10.725 -0.5492 -0.1385  0.4573
  608TMC3    H2 9015   1.790   4.311  10.913  1.1502 -0.4993 -1.3957
  608TMC3    C7 9016   1.792   4.166  10.682  0.1094 -0.3737 -1.0071
  608TMC3    C8 9017   1.677   4.262  11.150 -0.5742  0.4358  0.2727
  608TMC3    O1 9018   1.734   4.123  10.586  0.2765 -0.1699 -0.0373
  608TMC3    O2 9019   1.764   4.349  11.162 -0.2350 -0.1153 -0.1272
  609TMC3    C1 9020   0.049   2.387   9.307  0.2726 -0.0753  0.0285
  609TMC3    C2 9021   0.092   2.498   9.241 -0.2960  0.8308  0.5618
  609TMC3    C3 9022   0.222   2.541   9.260 -0.8373 -0.0707  0.4116
  609TMC3    C4 9023   0.121   2.338   9.410 -0.7657  0.2578 -0.3277
  609TMC3    C5 9024   0.248   2.381   9.419  0.4086 -0.1788  0.3551
  609TMC3    C6 9025   0.301   2.486   9.350  0.3577 -0.3572 -0.1960
  609TMC3     C 9026   4.633   2.365   9.325  0.0393 -0.1269 -0.0387
  609TMC3     O 9027   4.602   2.266   9.392  0.0776  0.4266 -0.3959
  609TMC3     H 9028   0.021   2.548   9.175  0.6929  2.0057  0.4043
  609TMC3    H1 9029   0.087   2.258   9.475 -1.8871  1.1095  0.1374
  609TMC3    H2 9030   0.406   2.513   9.355  0.3674 -0.9181  2.3331
  609TMC3    C7 9031   0.337   2.320   9.516  0.5114  0.3565 -0.0348
  609TMC3    C8 9032   0.265   2.634   9.165  0.1625 -0.1166 -0.6137
  609TMC3    O1 9033   0.427   2.393   9.550 -0.3269  0.0960  0.5121
  609TMC3    O2 9034   0.177   2.679   9.094  0.1130  0.0223  0.2685
  610TMC3    C1 9035   1.153   3.657  12.305 -0.2024 -0.1693 -1.2021
  610TMC3    C2 9036   1.256   3.699  12.220  0.5840  0.0698 -0.7120
  610TMC3    C3 9037   1.370   3.616  12.219  0.2700  0.0530  0.7696
  610TMC3    C4 9038   1.171   3.550  12.395 -0.3661  0.0997  0.9186
  610TMC3    C5 9039   1.286   3.484  12.382  0.3489 -0.4380 -0.6164
  610TMC3    C6 9040   1.383   3.503  12.294  0.1558  0.0789 -0.2276
  610TMC3     C 9041   1.033   3.733  12.311 -0.3898  0.3476 -0.3026
  610TMC3     O 9042   1.011   3.801  12.212 -0.1442 -0.5140 -0.1572
  610TMC3     H 9043   1.254   3.786  12.156 -0.8191  1.1942  0.9092
  610TMC3    H1 9044   1.100   3.515  12.470  0.3938  1.2074  2.1521
  610TMC3    H2 9045   1.474   3.443  12.291 -0.9140 -1.4906 -1.1976
  610TMC3    C7 9046   1.323   3.376  12.469 -0.3672  0.5076  0.0033
  610TMC3    C8 9047   1.492   3.657  12.151 -0.1976  0.0186  0.0376
  610TMC3    O1 9048   1.384   3.282  12.420 -0.1115 -0.5970 -0.5648
  610TMC3    O2 9049   1.590   3.584  12.158 -0.4424 -0.0422 -1.0059
  611MPD2     C 9050   1.006   3.292  10.069 -0.9461 -0.3421 -0.4229
  611MPD2    C1 9051   0.957   3.391   9.987  0.4926 -0.3709  0.3684
  611MPD2    C2 9052   1.044   3.476   9.924  0.1280 -0.2419  0.1494
  611MPD2    C3 9053   1.187   3.475   9.949 -0.1461 -0.5479 -0.7262
  611MPD2    C4 9054   1.226   3.381  10.033 -0.3330 -0.0498 -0.2834
  611MPD2    C5 9055   1.143   3.285  10.084  0.4399  0.6583  0.0215
  611MPD2     H 9056   1.000   3.560   9.873 -2.1306 -1.8382 -0.5034
  611MPD2    H1 9057   1.330   3.385  10.064 -0.8625  1.9338  1.2451
  611MPD2    H2 9058   0.946   3.232  10.136 -0.8570  4.1171  3.7119
  611MPD2    H3 9059   1.177   3.214  10.158  2.8139  1.1126 -0.6564
  611MPD2     N 9060   1.284   3.563   9.895 -0.1929 -0.1089 -0.3955
  611MPD2    H5 9061   1.378   3.542   9.928 -0.5204 -0.3902  0.3532
  611MPD2    N1 9062   0.816   3.400   9.982 -0.4832  0.3780  0.1695
  611MPD2    H7 9063   0.762   3.331  10.035 -1.6017  0.5707 -0.7159
  612TMC3    C1 9064   1.391   3.738   9.787 -0.2366 -0.1145  0.0352
  612TMC3    C2 9065   1.489   3.730   9.879 -0.2269 -0.1347 -0.0349
  612TMC3    C3 9066   1.616   3.748   9.836 -0.1527 -0.5709  1.1133
  612TMC3    C4 9067   1.407   3.771   9.659  0.1291 -0.3197  0.1325
  612TMC3    C5 9068   1.538   3.779   9.620 -0.1938  0.4329  0.3224
  612TMC3    C6 9069   1.645   3.771   9.699 -0.3684  0.3509 -0.0186
  612TMC3     C 9070   1.260   3.673   9.815  0.4188 -0.4746  0.5042
  612TMC3     O 9071   1.154   3.701   9.754  0.3016  0.3873  0.0069
  612TMC3     H 9072   1.460   3.749   9.982 -0.8894 -1.3897  0.0217
  612TMC3    H1 9073   1.327   3.743   9.592 -0.2360  1.3406 -0.1096
  612TMC3    H2 9074   1.743   3.760   9.653 -0.8093  3.0820 -1.5865
  612TMC3    C7 9075   1.565   3.763   9.482 -0.7487 -0.4321 -0.6661
  612TMC3    C8 9076   1.722   3.787   9.932  0.7792  0.2449 -0.2403
  612TMC3    O1 9077   1.662   3.693   9.456  0.5313  0.0409  0.2261
  612TMC3    O2 9078   1.803   3.866   9.892 -0.1540 -1.0900  0.6170
  613MPD2     C 9079   0.112   0.825  16.808 -0.7435 -0.0347 -0.3753
  613MPD2    C1 9080   0.007   0.866  16.727  0.1476  0.0134  0.2720
  613MPD2    C2 9081   4.673   0.780  16.634 -0.2349 -0.2545 -0.5246
  613MPD2    C3 9082   4.719   0.645  16.632  0.4862  0.3970 -0.1475
  613MPD2    C4 9083   0.108   0.608  16.705  0.2947 -0.3019  0.6017
  613MPD2    C5 9084   0.166   0.698  16.797 -0.8575  0.6891  0.2982
  613MPD2     H 9085   4.579   0.810  16.588 -1.3157  0.4707  2.1316
  613MPD2    H1 9086   0.166   0.521  16.676 -0.7054 -0.8174  0.1638
  613MPD2    H2 9087   0.158   0.893  16.879 -0.0493 -2.0453  1.0764
  613MPD2    H3 9088   0.247   0.658  16.858  1.1824  2.2349 -1.3951
  613MPD2     N 9089   4.670   0.550  16.540  0.1349 -0.2525 -0.7465
  613MPD2    H5 9090   4.718   0.461  16.531  2.6764  1.1081 -0.5107
  613MPD2    N1 9091   4.701   0.999  16.747  0.2033  0.0812 -0.2631
  613MPD2    H7 9092   0.010   1.045  16.830 -0.6885 -1.7799  1.1264
  614TMC3    C1 9093   4.664   1.050  16.502 -0.2374  0.3862  0.0978
  614TMC3    C2 9094   0.050   0.988  16.452  0.4147  0.4788 -0.7401
  614TMC3    C3 9095   0.059   0.949  16.321  1.0554  0.4988 -0.0373
  614TMC3    C4 9096   4.592   1.122  16.414 -0.0465  0.1234 -0.5005
  614TMC3    C5 9097   4.603   1.087  16.279  0.4510 -0.1051 -0.6759
  614TMC3    C6 9098   4.699   1.001  16.228  0.5407  0.4598  0.1994
  614TMC3     C 9099   4.645   1.084  16.648  0.2215 -0.1302 -0.2800
  614TMC3     O 9100   4.609   1.198  16.668 -0.0810 -0.3613 -0.6422
  614TMC3     H 9101   0.129   0.956  16.518 -0.8026  0.6975  0.8147
  614TMC3    H1 9102   4.515   1.193  16.445  0.7285 -0.4446  2.6864
  614TMC3    H2 9103   4.722   0.973  16.125  2.2076  2.8576 -0.0942
  614TMC3    C7 9104   4.519   1.156  16.178  0.1731 -0.1309 -0.2210
  614TMC3    C8 9105   0.102   0.809  16.296 -0.1574 -0.6285 -0.7079
  614TMC3    O1 9106   4.484   1.272  16.203 -0.0796 -0.5545 -0.0403
  614TMC3    O2 9107   0.024   0.746  16.228  0.3135  0.4421 -0.2240
  615MPD2     C 9108   4.216   2.301  16.293 -0.3952 -0.7972 -0.2503
  615MPD2    C1 9109   4.281   2.179  16.314 -0.3896 -0.8126 -0.1206
  615MPD2    C2 9110   4.224   2.070  16.246  0.1125 -0.0616  0.9747
  615MPD2    C3 9111   4.113   2.079  16.163  0.2360  0.2493  0.2167
  615MPD2    C4 9112   4.057   2.205  16.138  0.5423  0.1190  0.6705
  615MPD2    C5 9113   4.114   2.311  16.207 -0.0670 -0.2068  0.6872
  615MPD2     H 9114   4.272   1.977  16.273  1.9047 -0.0158 -2.0341
  615MPD2    H1 9115   3.966   2.211  16.079  1.3890  0.3511 -0.6019
  615MPD2    H2 9116   4.249   2.397  16.330 -0.2004 -0.6883 -0.7108
  615MPD2    H3 9117   4.072   2.409  16.186 -1.1574 -0.7270  0.4421
  615MPD2     N 9118   4.048   1.963  16.107  0.1525  0.1733  0.6180
  615MPD2    H5 9119   3.961   1.988  16.060 -0.0241 -0.2146  0.7460
  615MPD2    N1 9120   4.411   2.167  16.382 -1.0019  0.6638 -0.4301
  615MPD2    H7 9121   4.450   2.074  16.394 -1.2838  0.6998  0.7537
  616TMC3    C1 9122   4.598   2.231  16.507 -0.1553  0.0178 -0.5083
  616TMC3    C2 9123   4.660   2.108  16.479 -0.3212 -0.3277  0.2137
  616TMC3    C3 9124   0.047   2.082  16.554  0.1472 -0.2712  0.5515
  616TMC3    C4 9125   4.645   2.320  16.599  0.8224  0.2148 -0.0017
  616TMC3    C5 9126   0.019   2.280  16.679  0.1697  0.0508  0.7192
  616TMC3    C6 9127   0.085   2.160  16.660 -0.4626 -0.2158  0.3252
  616TMC3     C 9128   4.484   2.270  16.429  0.1332 -0.4701 -0.5513
  616TMC3     O 9129   4.460   2.389  16.426 -0.5821 -0.5781 -0.9307
  616TMC3     H 9130   4.638   2.049  16.391  0.0313 -0.6853  0.3608
  616TMC3    H1 9131   4.592   2.409  16.629  0.6046  0.1204 -0.1059
  616TMC3    H2 9132   0.157   2.121  16.732 -0.1461  1.3926  0.8705
  616TMC3    C7 9133   0.058   2.381  16.774  0.1458  0.6199 -0.4522
  616TMC3    C8 9134   0.136   1.972  16.534  0.0067  1.1943 -0.1340
  616TMC3    O1 9135   4.699   2.465  16.809 -0.7624  0.1028  0.3100
  616TMC3    O2 9136   0.096   1.872  16.478 -0.3086  0.1858  1.2482
  617MPD2     C 9137   2.121   0.220  14.142  0.4144 -0.2225  0.0081
  617MPD2    C1 9138   2.198   0.182  14.255 -0.1360 -0.4323 -0.8203
  617MPD2    C2 9139   2.131   0.139  14.367 -0.2663 -0.1523  0.4725
  617MPD2    C3 9140   1.989   0.129  14.367 -0.1289 -0.4023 -0.0318
  617MPD2    C4 9141   1.916   0.180  14.253  0.7431  0.6648  0.5064
  617MPD2    C5 9142   1.984   0.206  14.140 -0.9656  0.1102 -0.2102
  617MPD2     H 9143   2.186   0.096  14.451  1.3796 -2.3623 -1.7410
  617MPD2    H1 9144   1.811   0.171  14.228  0.6668  1.5392  0.5141
  617MPD2    H2 9145   2.165   0.248  14.046 -0.6883  0.0383 -0.4215
  617MPD2    H3 9146   1.931   0.235  14.050 -0.1094 -1.9551 -1.3710
  617MPD2     N 9147   1.916   0.059  14.461 -0.3665 -0.8818 -0.3846
  617MPD2    H5 9148   1.816   0.053  14.446 -0.8823  0.7037  2.3593
  617MPD2    N1 9149   2.338   0.189  14.247  0.9807  0.6789 -0.4575
  617MPD2    H7 9150   2.370   0.217  14.154 -1.4139 -1.3967 -1.8856
  618TMC3    C1 9151   2.568   0.186  14.295  0.2784 -0.0128 -0.4792
  618TMC3    C2 9152   2.669   0.130  14.374  0.9890  0.8540  0.5971
  618TMC3    C3 9153   2.791   0.112  14.312 -0.3759 -0.0401  0.2381
  618TMC3    C4 9154   2.596   0.226  14.167  0.5904  0.2521 -0.3510
  618TMC3    C5 9155   2.718   0.199  14.105 -0.0912 -0.1411 -0.7151
  618TMC3    C6 9156   2.819   0.135  14.177  0.5655 -0.2350  0.0222
  618TMC3     C 9157   2.431   0.156  14.335  0.7830  0.9652  0.2033
  618TMC3     O 9158   2.418   0.127  14.452 -0.2891  0.1356 -0.2331
  618TMC3     H 9159   2.642   0.097  14.474 -0.2338 -0.1828 -0.0742
  618TMC3    H1 9160   2.526   0.272  14.098  0.6733  0.5885 -0.2076
  618TMC3    H2 9161   2.913   0.108  14.131  1.6984  3.2032  0.2849
  618TMC3    C7 9162   2.744   0.253  13.974 -0.1350 -0.3658  0.2147
  618TMC3    C8 9163   2.882   0.027  14.376  0.2402  0.0484  0.5283
  618TMC3    O1 9164   2.666   0.338  13.929 -0.5833 -0.3363 -0.5668
  618TMC3    O2 9165   2.837   4.679  14.464  0.0233  0.9789  0.1785
  619MPD2     C 9166   3.760   1.608  13.268 -0.1215  0.2124  0.1699
  619MPD2    C1 9167   3.654   1.632  13.188 -0.1592 -0.0929 -0.6144
  619MPD2    C2 9168   3.527   1.600  13.240 -0.2525  1.1495  0.1919
  619MPD2    C3 9169   3.511   1.538  13.365 -0.2934 -0.2109 -0.6170
  619MPD2    C4 9170   3.618   1.516  13.440 -0.9870  0.4786 -0.8962
  619MPD2    C5 9171   3.744   1.545  13.384  0.7056 -0.3068  0.1853
  619MPD2     H 9172   3.443   1.619  13.175 -0.7856  0.9958  0.8388
  619MPD2    H1 9173   3.619   1.469  13.538  0.4461 -1.1644 -1.7215
  619MPD2    H2 9174   3.864   1.631  13.246 -0.0398 -0.2072  0.1223
  619MPD2    H3 9175   3.827   1.528  13.451  3.1008  1.5132 -2.3122
  619MPD2     N 9176   3.387   1.499  13.426  0.1578 -0.0961 -0.2099
  619MPD2    H5 9177   3.401   1.453  13.515 -5.0659 -1.2247  0.0431
  619MPD2    N1 9178   3.657   1.701  13.062  0.4535 -0.6951 -0.3795
  619MPD2    H7 9179   3.566   1.718  13.018  0.9283  1.1257 -0.6633
  620TMC3    C1 9180   3.753   1.821  12.874  0.3903 -0.3124  0.5445
  620TMC3    C2 9181   3.625   1.880  12.877  0.5934  0.9902 -0.0866
  620TMC3    C3 9182   3.620   2.014  12.882  0.4360 -0.1257  0.5877
  620TMC3    C4 9183   3.866   1.894  12.860 -0.0873  0.1721  0.0819
  620TMC3    C5 9184   3.849   2.026  12.878  0.0933 -0.7071 -0.2688
  620TMC3    C6 9185   3.733   2.089  12.891  0.6474 -0.3035  1.0493
  620TMC3     C 9186   3.774   1.733  12.989  0.5576  0.9147  0.1316
  620TMC3     O 9187   3.889   1.699  13.020  0.0451 -1.0568 -0.2433
  620TMC3     H 9188   3.533   1.821  12.871  0.6520  0.9486 -0.5693
  620TMC3    H1 9189   3.961   1.843  12.872  0.3136  0.7937 -0.4503
  620TMC3    H2 9190   3.718   2.193  12.915  0.4552 -0.7902  2.9992
  620TMC3    C7 9191   3.962   2.091  12.943 -0.2084 -1.0220  0.4449
  620TMC3    C8 9192   3.508   2.076  12.947  0.4958  0.3925 -0.6578
  620TMC3    O1 9193   4.072   2.047  12.904  0.1971  0.5497 -0.1598
  620TMC3    O2 9194   3.534   2.162  13.035 -0.5014  0.1171 -0.3417
  621MPD2     C 9195   3.815   1.577  10.501  0.1743  0.1995 -0.1890
  621MPD2    C1 9196   3.951   1.560  10.523  0.2620  0.2578 -0.0728
  621MPD2    C2 9197   4.043   1.634  10.454  0.4258  0.0764  0.2481
  621MPD2    C3 9198   4.004   1.725  10.357 -1.2498 -0.4842  0.4034
  621MPD2    C4 9199   3.869   1.747  10.340 -0.2385  0.6346  0.6591
  621MPD2    C5 9200   3.775   1.680  10.419  0.5181  0.4679  0.4711
  621MPD2     H 9201   4.146   1.601  10.464  0.4645 -0.1295 -0.8663
  621MPD2    H1 9202   3.836   1.820  10.267 -0.1756  1.1684  1.1606
  621MPD2    H2 9203   3.738   1.530  10.561  0.7929 -1.5464 -0.7289
  621MPD2    H3 9204   3.669   1.704  10.422  0.4865  0.3105  0.6240
  621MPD2     N 9205   4.105   1.785  10.277  0.1115 -0.8079  0.1434
  621MPD2    H5 9206   4.200   1.778  10.313  0.3981 -1.0289 -0.6417
  621MPD2    N1 9207   4.003   1.460  10.605 -0.4088 -0.0236  1.0488
  621MPD2    H7 9208   4.099   1.471  10.634  0.7596 -2.2829 -2.0942
  622TMC3    C1 9209   3.993   1.249  10.735 -0.3820 -0.3848  0.2847
  622TMC3    C2 9210   3.898   1.162  10.785  0.7528  0.8392 -0.9271
  622TMC3    C3 9211   3.932   1.026  10.777  0.0953 -0.2670  0.2667
  622TMC3    C4 9212   4.124   1.218  10.696  0.2640 -0.7575 -0.3314
  622TMC3    C5 9213   4.151   1.083  10.703  0.1208 -0.1084  0.6453
  622TMC3    C6 9214   4.058   0.991  10.745 -0.3592 -0.2755 -0.4949
  622TMC3     C 9215   3.926   1.356  10.660 -0.5087 -0.0940 -0.0666
  622TMC3     O 9216   3.809   1.324  10.642 -0.6623  0.1671  0.2610
  622TMC3     H 9217   3.806   1.196  10.829  0.2717  0.6703 -1.7870
  622TMC3    H1 9218   4.184   1.286  10.636  0.0046  0.2841  0.5979
  622TMC3    H2 9219   4.087   0.887  10.759  1.2760  0.0871 -1.2418
  622TMC3    C7 9220   4.227   1.039  10.584 -0.4127 -0.1905  0.0150
  622TMC3    C8 9221   3.852   0.950  10.688  0.4012 -0.0344 -0.3954
  622TMC3    O1 9222   4.301   1.118  10.531 -0.1601  0.1069  0.3324
  622TMC3    O2 9223   3.883   0.837  10.659 -0.0797 -0.0840 -0.0101
  623MPD2     C 9224   3.343   2.482  15.998  0.1006 -0.8556 -0.2942
  623MPD2    C1 9225   3.261   2.404  16.076 -0.1278  0.8310  0.3721
  623MPD2    C2 9226   3.290   2.393  16.214  0.1921 -0.3684 -0.4810
  623MPD2    C3 9227   3.399   2.459  16.265 -0.1337 -0.5644 -0.0707
  623MPD2    C4 9228   3.469   2.546  16.189 -0.9571  0.4853  0.0752
  623MPD2    C5 9229   3.441   2.555  16.056 -0.3374  0.3510 -0.9025
  623MPD2     H 9230   3.240   2.319  16.275  1.1951  0.1817  0.9881
  623MPD2    H1 9231   3.549   2.605  16.233  0.2409  0.1978 -1.7067
  623MPD2    H2 9232   3.313   2.488  15.894 -1.2645 -1.3733  0.0843
  623MPD2    H3 9233   3.508   2.613  15.993  1.6864 -0.1838  0.7516
  623MPD2     N 9234   3.426   2.444  16.404 -0.0098  0.1910 -0.5497
  623MPD2    H5 9235   3.366   2.379  16.454 -0.5222  0.2278 -1.1161
  623MPD2    N1 9236   3.158   2.335  16.005  0.4634  0.2061  0.5724
  623MPD2    H7 9237   3.152   2.336  15.903 -1.2195  1.1918  0.6737
  624TMC3    C1 9238   3.612   2.352  16.794 -0.3790 -0.0674  0.2361
  624TMC3    C2 9239   3.487   2.334  16.846  0.6644  0.2183  0.4114
  624TMC3    C3 9240   3.382   2.401  16.799 -0.3375  0.0150 -0.2212
  624TMC3    C4 9241   3.629   2.415  16.674 -0.0423  0.1854 -0.1213
  624TMC3    C5 9242   3.517   2.470  16.619 -0.3609 -0.1816  0.1376
  624TMC3    C6 9243   3.395   2.466  16.678  0.7816 -0.8669 -0.0243
  624TMC3     C 9244   3.723   2.277  16.841  0.3348 -0.4907  0.2309
  624TMC3     O 9245   3.719   2.252  16.959 -0.3209 -0.7762  0.4024
  624TMC3     H 9246   3.476   2.265  16.928  0.5088 -0.6449 -0.3335
  624TMC3    H1 9247   3.724   2.438  16.626 -0.5510 -0.3731 -1.4026
  624TMC3    H2 9248   3.313   2.524  16.636  1.0995 -0.1449  0.3396
  624TMC3    C7 9249   3.533   2.494  16.476 -0.5696  0.0742  0.0449
  624TMC3    C8 9250   3.242   2.369  16.835  0.1674  0.1274  0.1622
  624TMC3    O1 9251   3.634   2.545  16.437 -0.4136  0.0819 -0.1835
  624TMC3    O2 9252   3.168   2.359  16.738  0.1163  0.0308 -0.0898
  625MPD2     C 9253   3.343   3.238   1.054  0.2883  0.5648 -0.8091
  625MPD2    C1 9254   3.337   3.321   0.948 -0.1131  0.2208 -0.7024
  625MPD2    C2 9255   3.449   3.336   0.871 -0.3167 -0.0654  0.2815
  625MPD2    C3 9256   3.566   3.275   0.913 -0.1239  0.7697 -0.0810
  625MPD2    C4 9257   3.566   3.190   1.023 -0.9672 -0.6637  0.5572
  625MPD2    C5 9258   3.454   3.163   1.085 -1.0354  0.0501  0.0327
  625MPD2     H 9259   3.445   3.403   0.786 -1.5901 -1.0299 -0.4201
  625MPD2    H1 9260   3.659   3.160   1.070 -1.0822  0.6408  1.6099
  625MPD2    H2 9261   3.252   3.217   1.109 -0.1522 -0.8605 -2.0671
  625MPD2    H3 9262   3.463   3.098   1.172 -1.0832  0.4205  0.3131
  625MPD2     N 9263   3.684   3.322   0.844  0.5308 -0.8000  0.6805
  625MPD2    H5 9264   3.673   3.407   0.789 -0.7220 -0.2218  1.8261
  625MPD2    N1 9265   3.218   3.385   0.908 -0.6881  0.2753  0.1380
  625MPD2    H7 9266   3.230   3.437   0.822 -1.1018 -0.3739 -0.3179
  626TMC3    C1 9267   3.019   3.474   0.918  0.2413  0.1583 -0.4504
  626TMC3    C2 9268   3.025   3.501   0.781 -0.3465  0.7929  0.3827
  626TMC3    C3 9269   2.966   3.620   0.738  0.1339 -0.2906  0.2630
  626TMC3    C4 9270   2.946   3.559   0.995 -0.2376 -0.3768  0.2605
  626TMC3    C5 9271   2.872   3.667   0.941  0.4906 -0.1942 -0.5370
  626TMC3    C6 9272   2.894   3.701   0.811  0.6152 -0.1474  0.4021
  626TMC3     C 9273   3.097   3.376   0.971 -0.9766  0.1808 -0.7593
  626TMC3     O 9274   3.065   3.314   1.071  0.6013  0.3477 -0.5328
  626TMC3     H 9275   3.077   3.442   0.706 -0.2035  3.1862 -1.3755
  626TMC3    H1 9276   2.925   3.517   1.093 -1.6792  0.2918  0.2346
  626TMC3    H2 9277   2.841   3.779   0.757  2.2683  1.3071  0.8558
  626TMC3    C7 9278   2.789   3.737   1.026 -0.0713  0.0672  0.5011
  626TMC3    C8 9279   2.939   3.638   0.598  0.2258 -0.3183 -0.1942
  626TMC3    O1 9280   2.828   3.733   1.145 -0.2721 -0.2293 -0.3260
  626TMC3    O2 9281   2.957   3.752   0.561  0.1153  0.0099 -0.0674
  627MPD2     C 9282   1.707   3.622  14.940 -0.1122 -0.2839 -0.6346
  627MPD2    C1 9283   1.826   3.553  14.945  0.1892 -0.1046  0.2391
  627MPD2    C2 9284   1.843   3.447  14.862  0.1067  0.1304  0.4023
  627MPD2    C3 9285   1.742   3.397  14.778  0.6516 -0.2327 -0.5067
  627MPD2    C4 9286   1.622   3.463  14.781  0.2135  0.4725  0.6681
  627MPD2    C5 9287   1.602   3.575  14.862 -0.4413  0.3757 -0.1644
  627MPD2     H 9288   1.934   3.390  14.875  0.2519  0.0176 -1.0315
  627MPD2    H1 9289   1.534   3.442  14.720  1.0373  1.1901 -0.7648
  627MPD2    H2 9290   1.686   3.708  15.002  1.7897 -1.4031  1.5719
  627MPD2    H3 9291   1.508   3.628  14.868 -0.2003  0.8611 -0.6848
  627MPD2     N 9292   1.770   3.287  14.695 -0.2607 -0.1809  0.3680
  627MPD2    H5 9293   1.868   3.264  14.691 -0.6981 -1.9594 -0.2418
  627MPD2    N1 9294   1.936   3.599  15.028 -0.3330 -0.2882  0.3928
  627MPD2    H7 9295   2.018   3.540  15.035 -1.5871 -2.3550 -2.3617
  628TMC3    C1 9296   2.080   3.753  15.143 -0.0493 -0.0559 -0.1904
  628TMC3    C2 9297   2.178   3.658  15.156 -0.0169 -0.0724 -0.6725
  628TMC3    C3 9298   2.295   3.693  15.217  0.1005  0.2288  0.2505
  628TMC3    C4 9299   2.094   3.880  15.196 -0.1133  0.1694  0.2197
  628TMC3    C5 9300   2.214   3.906  15.260 -0.3898  0.6807  0.7024
  628TMC3    C6 9301   2.318   3.819  15.272  0.5834 -0.3119  0.3144
  628TMC3     C 9302   1.947   3.723  15.087  0.4770 -0.2549 -0.7756
  628TMC3     O 9303   1.863   3.814  15.086  0.1004  1.0518  0.3306
  628TMC3     H 9304   2.167   3.557  15.117  0.9465  0.5686 -2.5626
  628TMC3    H1 9305   2.012   3.951  15.194 -0.9096 -0.7236  1.2720
  628TMC3    H2 9306   2.416   3.853  15.302  0.4601  0.3709 -0.0506
  628TMC3    C7 9307   2.252   4.047  15.292  0.2938 -0.0044  0.3726
  628TMC3    C8 9308   2.391   3.589  15.244  0.2755  0.8856  0.0043
  628TMC3    O1 9309   2.362   4.070  15.336  0.2465  0.5928  0.4795
  628TMC3    O2 9310   2.354   3.476  15.216  0.2010  0.2539  0.9174
  629MPD2     C 9311   0.636   1.837  16.523 -0.2432 -0.2176 -0.7267
  629MPD2    C1 9312   0.625   1.972  16.530 -0.6952  0.1071  0.6518
  629MPD2    C2 9313   0.502   2.034  16.548  0.3409  0.4219 -0.6586
  629MPD2    C3 9314   0.386   1.958  16.541 -0.0736  0.2390 -0.8628
  629MPD2    C4 9315   0.398   1.819  16.533 -0.0573 -0.0201 -0.4659
  629MPD2    C5 9316   0.523   1.758  16.525 -0.5138  0.9423 -0.2880
  629MPD2     H 9317   0.489   2.141  16.547  1.6396  0.5673 -1.5398
  629MPD2    H1 9318   0.321   1.748  16.506  0.4854 -0.0016 -2.0817
  629MPD2    H2 9319   0.731   1.792  16.497 -0.0950 -0.8550  0.9592
  629MPD2    H3 9320   0.533   1.654  16.496 -0.5506  0.4189  1.6194
  629MPD2     N 9321   0.262   2.028  16.554  0.4797  0.4534  0.2051
  629MPD2    H5 9322   0.270   2.128  16.570 -1.2009  0.3642  1.5899
  629MPD2    N1 9323   0.743   2.045  16.511 -0.0121 -0.0568  0.0717
  629MPD2    H7 9324   0.822   1.982  16.504 -0.6755 -1.1286  2.0109
  630TMC3    C1 9325   0.898   2.215  16.519 -0.7571 -0.2916  0.5361
  630TMC3    C2 9326   0.931   2.332  16.459  0.3987  1.0951 -0.3497
  630TMC3    C3 9327   1.033   2.409  16.511  0.7099 -0.1962 -0.0494
  630TMC3    C4 9328   0.959   2.177  16.641  0.9044  1.0512 -0.0869
  630TMC3    C5 9329   1.056   2.266  16.696  0.7290  0.3502 -0.0949
  630TMC3    C6 9330   1.104   2.376  16.621  0.1768  0.2175 -0.2239
  630TMC3     C 9331   0.764   2.173  16.495  0.1178  0.3201  0.1585
  630TMC3     O 9332   0.679   2.258  16.472 -0.5625 -0.0649  0.1163
  630TMC3     H 9333   0.864   2.384  16.391 -0.0062  0.3483 -0.5238
  630TMC3    H1 9334   0.912   2.098  16.699  2.9984 -0.5951 -0.6369
  630TMC3    H2 9335   1.187   2.441  16.649  0.5230 -0.2589 -0.1532
  630TMC3    C7 9336   1.110   2.231  16.820 -0.5580 -0.4056  0.4594
  630TMC3    C8 9337   1.057   2.544  16.457  0.0508 -0.1320  0.4943
  630TMC3    O1 9338   1.057   2.139  16.886 -0.5180  0.1736 -0.7052
  630TMC3    O2 9339   1.136   2.608  16.526 -0.3563  0.5371 -0.1460
  631MPD2     C 9340   3.231   1.976  15.755 -0.5511 -0.1599  0.4649
  631MPD2    C1 9341   3.305   1.949  15.641  0.6973  0.1497 -0.0724
  631MPD2    C2 9342   3.432   1.893  15.661  0.0684  0.9274  0.3721
  631MPD2    C3 9343   3.478   1.870  15.794 -0.2628  0.0721  0.8849
  631MPD2    C4 9344   3.395   1.890  15.904 -0.1130  0.2273 -0.4112
  631MPD2    C5 9345   3.273   1.942  15.884 -0.3975  0.3359 -0.4370
  631MPD2     H 9346   3.506   1.884  15.583  0.0553 -0.7320  0.5462
  631MPD2    H1 9347   3.426   1.869  16.006  1.8890 -3.9905 -1.8704
  631MPD2    H2 9348   3.132   2.018  15.741 -0.5488 -0.0384  0.8028
  631MPD2    H3 9349   3.203   1.974  15.960 -0.1927 -0.7671  0.2168
  631MPD2     N 9350   3.608   1.814  15.812 -0.4469  0.1101  0.4589
  631MPD2    H5 9351   3.661   1.788  15.730  0.0472 -1.7844  1.3887
  631MPD2    N1 9352   3.255   1.982  15.518 -0.0924  1.3565 -0.0249
  631MPD2    H7 9353   3.167   2.033  15.523 -1.1997 -0.8078  2.4575
  632TMC3    C1 9354   3.311   2.105  15.326 -0.5732 -0.4020 -0.5621
  632TMC3    C2 9355   3.345   2.218  15.394 -0.3297 -0.1212 -0.2629
  632TMC3    C3 9356   3.376   2.326  15.322 -0.1387  0.1788 -0.5434
  632TMC3    C4 9357   3.326   2.095  15.194 -0.1722  0.0837  0.6591
  632TMC3    C5 9358   3.342   2.206  15.119 -0.1943  0.3846  0.0111
  632TMC3    C6 9359   3.374   2.323  15.184 -0.7155 -0.0362  0.4605
  632TMC3     C 9360   3.323   1.974  15.399 -0.6727  0.4930 -0.3509
  632TMC3     O 9361   3.425   1.911  15.371 -0.3798  0.1497  0.0394
  632TMC3     H 9362   3.381   2.203  15.495  1.5997  0.8051 -0.8100
  632TMC3    H1 9363   3.313   2.006  15.133 -0.3213  1.2040 -0.9219
  632TMC3    H2 9364   3.398   2.409  15.124  1.1789 -0.2737  0.8724
  632TMC3    C7 9365   3.347   2.211  14.977  0.2082 -0.5750 -0.1841
  632TMC3    C8 9366   3.380   2.447  15.399 -0.4147  0.1885  0.4198
  632TMC3    O1 9367   3.371   2.322  14.927  0.4463  0.1060 -0.2053
  632TMC3    O2 9368   3.338   2.448  15.513 -0.0264 -0.2470  0.3853
  633MPD2     C 9369   2.834   0.323  17.568  0.1216  0.0643 -0.2639
  633MPD2    C1 9370   2.836   0.253  17.446 -0.8137 -0.0285 -0.8223
  633MPD2    C2 9371   2.857   0.117  17.443  0.4533  0.3470 -0.4834
  633MPD2    C3 9372   2.894   0.050  17.562 -0.4536 -0.1563  0.9879
  633MPD2    C4 9373   2.898   0.118  17.677  0.5254 -0.6429  0.0344
  633MPD2    C5 9374   2.858   0.251  17.686  0.7901  0.4759  0.4302
  633MPD2     H 9375   2.837   0.062  17.352 -2.8843  0.0995  0.4100
  633MPD2    H1 9376   2.931   0.071   0.066  1.1604  1.2645  0.7860
  633MPD2    H2 9377   2.805   0.426  17.581  0.0085 -0.1936  1.5116
  633MPD2    H3 9378   2.858   0.293   0.084 -3.0149 -3.5767  2.1356
  633MPD2     N 9379   2.932   4.640  17.569 -0.4265 -0.0308  0.2631
  633MPD2    H5 9380   2.960   4.602  17.658  0.5115  1.0368  0.4225
  633MPD2    N1 9381   2.812   0.312  17.325 -0.8417 -0.3181  0.6671
  633MPD2    H7 9382   2.819   0.248  17.246 -0.0294 -1.4977  1.6924
  634TMC3    C1 9383   2.760   0.485  17.168  0.1488  0.2447  0.2448
  634TMC3    C2 9384   2.705   0.394  17.087  0.6623 -0.4625  0.1426
  634TMC3    C3 9385   2.702   0.425  16.950  0.2599 -0.0606  0.1984
  634TMC3    C4 9386   2.810   0.598  17.120  0.3129  0.0122 -0.6471
  634TMC3    C5 9387   2.802   0.627  16.986 -0.4636  0.1081  0.4110
  634TMC3    C6 9388   2.757   0.539  16.893  0.2553  0.6171 -0.3544
  634TMC3     C 9389   2.786   0.448  17.304 -0.3209 -0.6944 -1.5174
  634TMC3     O 9390   2.781   0.536  17.390 -0.4173 -0.2695 -0.3312
  634TMC3     H 9391   2.673   0.295  17.116  2.6682 -0.7991  1.2215
  634TMC3    H1 9392   2.838   0.679  17.186 -0.6091  0.1664 -0.4343
  634TMC3    H2 9393   2.757   0.555  16.786  0.3862  0.4084 -0.3852
  634TMC3    C7 9394   2.854   0.753  16.937  1.4215 -0.4283 -0.2338
  634TMC3    C8 9395   2.678   0.314  16.859 -0.5426 -0.2615  0.0221
  634TMC3    O1 9396   2.881   0.744  16.818 -0.0136  0.6983  0.8642
  634TMC3    O2 9397   2.703   0.201  16.895 -0.3518 -0.1892  0.0609
  635TMC3    C1 9398   3.289   1.033   0.057 -0.8046 -0.3110 -0.4414
  635TMC3    C2 9399   3.345   0.967  17.647  0.1743 -0.3093  0.0679
  635TMC3    C3 9400   3.343   0.829  17.649  0.4371  0.4522  0.4302
  635TMC3    C4 9401   3.232   0.964   0.160 -0.2901  0.1912  0.1984
  635TMC3    C5 9402   3.230   0.829   0.149 -0.1684 -0.4490  0.0420
  635TMC3    C6 9403   3.292   0.758   0.049  0.1428  0.4264  0.2079
  635TMC3     C 9404   3.338   1.166   0.089 -0.2764  0.2264 -0.6682
  635TMC3     O 9405   3.457   1.188   0.064  0.3847  0.3027  0.4097
  635TMC3     H 9406   3.393   1.029  17.573 -3.6001  0.2031 -1.9845
  635TMC3    H1 9407   3.179   1.014   0.240 -0.2775  0.6351 -0.0683
  635TMC3    H2 9408   3.289   0.650   0.039  0.4571  0.4293  0.0634
  635TMC3    C7 9409   3.148   0.763   0.250  0.4325 -0.1285  0.2172
  635TMC3    C8 9410   3.434   0.771  17.555 -0.1792 -0.3546  0.4113
  635TMC3    O1 9411   3.089   0.835   0.329 -0.0233 -0.4154  0.0012
  635TMC3    O2 9412   3.454   0.843  17.455  0.1592  0.6068  0.1163
  636MPD2     C 9413   4.144   0.804  15.729  0.3945  0.5599  0.5761
  636MPD2    C1 9414   4.158   0.862  15.858  0.4500  0.0450 -0.5002
  636MPD2    C2 9415   4.236   0.803  15.954 -0.3560  0.7018 -1.0893
  636MPD2    C3 9416   4.310   0.695  15.919  0.1987  0.0444  0.3234
  636MPD2    C4 9417   4.296   0.632  15.793  0.4675  0.1987  0.4237
  636MPD2    C5 9418   4.216   0.687  15.703  0.7232  0.6447 -0.2393
  636MPD2     H 9419   4.241   0.842  16.055  0.3602  1.6786 -1.5091
  636MPD2    H1 9420   4.344   0.539  15.764 -0.5156 -0.5260  1.1238
  636MPD2    H2 9421   4.073   0.840  15.655  1.7357 -3.9127 -2.8763
  636MPD2    H3 9422   4.199   0.643  15.606  1.0006  0.3447 -0.1545
  636MPD2     N 9423   4.394   0.643  16.015 -0.0304 -0.3392 -0.0001
  636MPD2    H5 9424   4.397   0.684  16.108  2.7408 -0.1309 -0.1824
  636MPD2    N1 9425   4.091   0.979  15.892  0.4487 -0.0997 -0.2748
  636MPD2    H7 9426   4.085   1.003  15.991  1.5240  1.5677 -0.5985
  637TMC3    C1 9427   4.538   0.497  16.115  0.0577 -0.2836  1.1176
  637TMC3    C2 9428   4.493   0.535  16.233 -0.0724  0.6553 -0.2454
  637TMC3    C3 9429   4.555   0.475  16.345  0.5373  0.3505 -0.0365
  637TMC3    C4 9430   4.634   0.401  16.090  0.2424  0.5043  0.1897
  637TMC3    C5 9431   4.692   0.352  16.204 -0.2819 -0.0592  0.0569
  637TMC3    C6 9432   4.649   0.381  16.333 -0.1969  0.4852 -0.7697
  637TMC3     C 9433   4.492   0.556  15.991 -0.7039 -0.5622 -0.1714
  637TMC3     O 9434   4.534   0.509  15.886  0.5267 -0.2799  0.1232
  637TMC3     H 9435   4.409   0.602  16.246  0.9861  1.7614  0.7578
  637TMC3    H1 9436   4.684   0.387  15.995 -1.6532 -0.2751 -0.6956
  637TMC3    H2 9437   4.701   0.339  16.418  1.1231  3.6657 -0.0034
  637TMC3    C7 9438   0.079   0.257  16.195  0.0243  0.2762 -0.1665
  637TMC3    C8 9439   4.559   0.567  16.459 -0.2985  0.8104 -0.2955
  637TMC3    O1 9440   0.057   0.163  16.116  0.2905 -0.5219 -0.4941
  637TMC3    O2 9441   4.473   0.652  16.463  0.1159  0.2857 -0.1534
  638MPD2     C 9442   4.469   4.139  15.115  0.0626  1.0219  0.3836
  638MPD2    C1 9443   4.457   4.019  15.050 -0.3655 -0.7473 -1.1029
  638MPD2    C2 9444   4.447   3.905  15.126 -0.1023  0.5303 -0.0618
  638MPD2    C3 9445   4.396   3.912  15.259  0.4005  0.6420 -0.4138
  638MPD2    C4 9446   4.368   4.034  15.311  0.2127 -0.0651 -0.1255
  638MPD2    C5 9447   4.411   4.139  15.243 -0.5536 -0.3184  1.0182
  638MPD2     H 9448   4.469   3.809  15.081 -1.6707  0.4558 -0.6891
  638MPD2    H1 9449   4.329   4.048  15.411  0.4391  1.1297 -0.1946
  638MPD2    H2 9450   4.492   4.234  15.070 -0.5142 -0.3547 -2.8525
  638MPD2    H3 9451   4.395   4.233  15.296 -3.3447 -0.6144  0.6498
  638MPD2     N 9452   4.369   3.792  15.325  0.3454 -0.1164 -0.8599
  638MPD2    H5 9453   4.400   3.708  15.277  1.1561  0.2700 -1.0083
  638MPD2    N1 9454   4.486   4.013  14.910  0.3859 -0.3083 -0.4140
  638MPD2    H7 9455   4.512   4.093  14.854 -1.1019  1.5595  1.5348
  639TMC3    C1 9456   4.253   3.645  15.456  0.3580  0.1830 -0.3256
  639TMC3    C2 9457   4.126   3.590  15.429 -0.2862  0.0301  0.5138
  639TMC3    C3 9458   4.111   3.457  15.407  0.6020 -0.4710  0.4927
  639TMC3    C4 9459   4.364   3.569  15.462  0.6820 -0.4025  0.1105
  639TMC3    C5 9460   4.342   3.431  15.447  0.5635  0.3280  0.2089
  639TMC3    C6 9461   4.222   3.379  15.417  0.7209  0.2898  0.4008
  639TMC3     C 9462   4.264   3.782  15.417  0.2166  0.2080 -1.0961
  639TMC3     O 9463   4.173   3.857  15.447 -0.6123 -0.6241  0.0441
  639TMC3     H 9464   4.045   3.652  15.391 -0.0317  0.8484  1.2869
  639TMC3    H1 9465   4.465   3.601  15.486  0.0771 -0.3416  2.5251
  639TMC3    H2 9466   4.220   3.272  15.395 -0.6873  0.1914  1.0052
  639TMC3    C7 9467   4.457   3.343  15.448 -0.1129 -0.1977  0.3153
  639TMC3    C8 9468   4.007   3.409  15.317  0.0320  0.0329  0.9325
  639TMC3    O1 9469   4.470   3.280  15.554  0.1440 -0.2598 -0.7026
  639TMC3    O2 9470   4.050   3.342  15.226  0.8660 -0.1873  0.3003
  640MPD2     C 9471   0.152   2.895   9.358  0.4821  0.1092  0.3462
  640MPD2    C1 9472   0.235   2.995   9.315  0.1274 -0.8406 -1.1059
  640MPD2    C2 9473   0.179   3.118   9.286 -0.1433 -0.9287 -0.0375
  640MPD2    C3 9474   0.047   3.146   9.318  0.4582 -0.7472  0.1964
  640MPD2    C4 9475   4.689   3.044   9.357  0.0902 -0.2566  0.5996
  640MPD2    C5 9476   0.016   2.917   9.364 -0.4462 -0.1602 -0.2385
  640MPD2     H 9477   0.251   3.194   9.256  0.6260 -1.9936 -0.8906
  640MPD2    H1 9478   4.584   3.061   9.379 -0.1165  0.9059 -1.2538
  640MPD2    H2 9479   0.182   2.791   9.367  1.0333  0.0842 -1.7330
  640MPD2    H3 9480   4.689   2.830   9.401  1.5209 -0.9787  0.5857
  640MPD2     N 9481   4.725   3.281   9.307  0.0506 -0.1771 -0.1686
  640MPD2    H5 9482   4.639   3.297   9.358 -0.6247  0.1704 -1.4023
  640MPD2    N1 9483   0.375   2.966   9.305  0.0009 -0.1510  0.7429
  640MPD2    H7 9484   0.406   2.875   9.337  0.9273  0.6992  2.2803
  641TMC3    C1 9485   0.609   3.010   9.285  0.2845  1.0804  0.1312
  641TMC3    C2 9486   0.635   2.928   9.393 -0.2368  0.1379 -0.4788
  641TMC3    C3 9487   0.757   2.936   9.457  0.6117 -0.1781  0.7170
  641TMC3    C4 9488   0.700   3.106   9.251  1.2528 -0.2385  0.8323
  641TMC3    C5 9489   0.828   3.103   9.307  0.0814  0.6825  0.0352
  641TMC3    C6 9490   0.854   3.021   9.410  0.0394 -0.2860  0.0893
  641TMC3     C 9491   0.472   3.048   9.252  0.3702  0.1180 -0.1617
  641TMC3     O 9492   0.462   3.153   9.194  0.1956  0.3983  0.0365
  641TMC3     H 9493   0.558   2.860   9.426 -0.6213  0.8195  0.0189
  641TMC3    H1 9494   0.678   3.159   9.159  0.3632 -2.2247 -0.1037
  641TMC3    H2 9495   0.953   3.029   9.453  1.0215 -2.8660 -1.7381
  641TMC3    C7 9496   0.936   3.199   9.272 -0.2667  0.2854 -0.7532
  641TMC3    C8 9497   0.775   2.864   9.577  0.2375 -0.4297 -0.3583
  641TMC3    O1 9498   1.051   3.176   9.314 -0.1325  0.0960  0.5890
  641TMC3    O2 9499   0.715   2.757   9.593  0.0543  0.4678 -0.8590
  642TMC3    C1 9500   0.907   4.251  12.287  0.1578 -0.0913  0.5757
  642TMC3    C2 9501   1.036   4.204  12.315  0.4379  0.1110  0.4396
  642TMC3    C3 9502   1.096   4.122  12.224 -0.1450 -0.5063  0.1475
  642TMC3    C4 9503   0.839   4.211  12.174 -0.3510  0.9596  0.5923
  642TMC3    C5 9504   0.906   4.128  12.088  0.7763 -0.5658 -0.4780
  642TMC3    C6 9505   1.036   4.095  12.102  0.0368 -0.1284 -0.1724
  642TMC3     C 9506   0.830   4.283  12.406 -0.2218 -0.0861  0.1030
  642TMC3     O 9507   0.877   4.239  12.510  0.1471 -0.7536  0.1970
  642TMC3     H 9508   1.088   4.236  12.405 -0.9425  1.9812  0.5964
  642TMC3    H1 9509   0.731   4.218  12.172 -0.4294 -0.5376 -0.7027
  642TMC3    H2 9510   1.083   4.025  12.034  3.3489 -1.1141  3.1597
  642TMC3    C7 9511   0.822   4.050  12.001  0.3980  0.0971  0.3725
  642TMC3    C8 9512   1.226   4.068  12.246  0.6489 -0.1613  0.3478
  642TMC3    O1 9513   0.751   4.103  11.921 -0.2986  0.4611 -0.7721
  642TMC3    O2 9514   1.294   4.032  12.146 -0.9280 -0.3398  0.2672
  643TMC3    C1 9515   4.699   3.134   0.355 -0.5984  0.8485 -0.7696
  643TMC3    C2 9516   4.598   3.214   0.316 -0.0069 -0.5930  0.1644
  643TMC3    C3 9517   4.568   3.224   0.187  0.1779  0.0825  0.2794
  643TMC3    C4 9518   0.055   3.073   0.261 -0.4658 -0.0015 -0.1186
  643TMC3    C5 9519   0.029   3.101   0.130  0.0414 -0.4322  0.4682
  643TMC3    C6 9520   4.650   3.173   0.090 -0.3941 -1.1616 -0.1576
  643TMC3     C 9521   0.009   3.148   0.496  0.1796  0.3229  0.2102
  643TMC3     O 9522   4.667   3.229   0.561 -0.4069 -0.6071  0.1843
  643TMC3     H 9523   4.542   3.273   0.389 -1.9582 -0.1317 -1.6899
  643TMC3    H1 9524   0.149   3.027   0.290 -0.6692 -0.3614 -0.0238
  643TMC3    H2 9525   4.634   3.186  17.685  1.6384  0.8375 -0.2261
  643TMC3    C7 9526   0.134   3.100   0.033  0.1480  1.0544  0.8616
  643TMC3    C8 9527   4.517   3.351   0.147  0.0004 -1.2283 -0.0183
  643TMC3    O1 9528   0.135   3.191  17.652  0.1494 -0.2453 -0.0887
  643TMC3    O2 9529   4.412   3.392   0.197 -0.1679 -0.6158 -0.5551
  644MPD2     C 9530   0.780   3.987   9.421 -0.3628  0.5414 -0.0865
  644MPD2    C1 9531   0.908   3.944   9.430 -0.5836 -0.6928 -0.5623
  644MPD2    C2 9532   1.011   4.034   9.437  0.5641  0.2575  0.2897
  644MPD2    C3 9533   0.986   4.175   9.440 -0.1982 -0.0081 -0.0346
  644MPD2    C4 9534   0.856   4.214   9.436  0.0013 -0.4516 -0.8546
  644MPD2    C5 9535   0.754   4.122   9.428 -0.1555 -0.2657  0.1608
  644MPD2     H 9536   1.116   4.006   9.444  0.4997 -0.3710 -1.3448
  644MPD2    H1 9537   0.830   4.319   9.430  1.3476 -0.0906 -0.4695
  644MPD2    H2 9538   0.705   3.913   9.395 -0.3316  0.9564 -1.3524
  644MPD2    H3 9539   0.655   4.165   9.425 -0.5225 -1.1550 -0.5180
  644MPD2     N 9540   1.095   4.263   9.467 -0.0834 -0.0543  0.4034
  644MPD2    H5 9541   1.184   4.217   9.484 -0.7547 -1.8281 -0.9124
  644MPD2    N1 9542   0.932   3.799   9.416  0.4461 -0.3342  0.2040
  644MPD2    H7 9543   0.844   3.749   9.413  0.3960 -0.3109  1.6900
  645TMC3    C1 9544   1.200   4.456   9.513  0.5052 -0.5001 -0.3195
  645TMC3    C2 9545   1.234   4.584   9.472 -0.1851  0.0915 -0.3071
  645TMC3    C3 9546   1.305   4.665   9.557  0.3961  0.5978 -0.4276
  645TMC3    C4 9547   1.243   4.408   9.637 -0.0310  0.4925  0.3381
  645TMC3    C5 9548   1.313   4.490   9.717  0.6821  0.0935 -0.5739
  645TMC3    C6 9549   1.345   4.619   9.679  0.1956 -0.0099  0.5514
  645TMC3     C 9550   1.094   4.394   9.433 -0.4809 -0.0972  0.3463
  645TMC3     O 9551   1.012   4.452   9.365  0.0621 -0.1164  0.1480
  645TMC3     H 9552   1.186   4.625   9.384 -1.5283 -0.0378  0.3612
  645TMC3    H1 9553   1.217   4.309   9.671  0.5970  0.0038 -0.6163
  645TMC3    H2 9554   1.392   4.686   9.749 -0.6733 -0.0313  1.1589
  645TMC3    C7 9555   1.330   4.442   9.853 -0.6891 -0.3059 -0.4584
  645TMC3    C8 9556   1.291   0.081   9.538 -0.1526  0.4873  0.3901
  645TMC3    O1 9557   1.255   4.351   9.887  0.2442 -0.1123 -0.0542
  645TMC3    O2 9558   1.279   0.114   9.420  0.6742 -0.3480  0.1137
  646MPD2     C 9559   4.319   2.736  14.730  0.1985 -0.0381 -0.4243
  646MPD2    C1 9560   4.241   2.705  14.833 -0.0697  0.4122 -1.0294
  646MPD2    C2 9561   4.117   2.772  14.837 -0.6231 -0.5216  0.3733
  646MPD2    C3 9562   4.075   2.857  14.742 -0.5073 -0.2265  0.6162
  646MPD2    C4 9563   4.163   2.884  14.645  0.6920  0.1829  0.2973
  646MPD2    C5 9564   4.283   2.827  14.640  0.2356 -0.1638 -0.3697
  646MPD2     H 9565   4.049   2.746  14.918 -2.0836  0.5217 -0.5186
  646MPD2    H1 9566   4.133   2.948  14.563 -3.2265  0.8457  2.2570
  646MPD2    H2 9567   4.415   2.687  14.720  1.2938  2.2824 -1.0770
  646MPD2    H3 9568   4.339   2.835  14.548  1.7504 -0.8413  0.5024
  646MPD2     N 9569   3.944   2.913  14.740 -0.0348  0.4616 -0.3261
  646MPD2    H5 9570   3.880   2.874  14.808  1.8568 -0.8375  0.6920
  646MPD2    N1 9571   4.302   2.611  14.918  0.4178  0.3059  0.5378
  646MPD2    H7 9572   4.379   2.559  14.877 -0.1702 -0.6332  0.6235
  647TMC3    C1 9573   4.345   2.513  15.121  0.2145  0.0248 -0.2716
  647TMC3    C2 9574   4.307   2.465  15.248 -0.1303 -0.2494  0.7130
  647TMC3    C3 9575   4.403   2.453  15.344 -0.0210 -0.6987  0.5945
  647TMC3    C4 9576   4.484   2.530  15.093 -0.0455  0.4527 -0.6813
  647TMC3    C5 9577   4.569   2.513  15.195  0.2308 -0.6132  0.0180
  647TMC3    C6 9578   4.537   2.476  15.317  0.3229 -0.3158 -0.1797
  647TMC3     C 9579   4.252   2.594  15.045  0.8365  0.1439 -0.1883
  647TMC3     O 9580   4.142   2.628  15.093  0.1838 -0.4357 -0.3986
  647TMC3     H 9581   4.206   2.426  15.260 -0.0938 -0.5069  0.1834
  647TMC3    H1 9582   4.520   2.574  15.001 -1.1073 -0.7187 -1.6669
  647TMC3    H2 9583   4.609   2.458  15.395  1.5785  0.6265 -1.1288
  647TMC3    C7 9584   4.713   2.511  15.157 -0.1896  0.0376 -0.1998
  647TMC3    C8 9585   4.404   2.326  15.410  0.1145 -0.5939 -0.4320
  647TMC3    O1 9586   0.068   2.536  15.246  0.5196  0.0317 -0.4921
  647TMC3    O2 9587   4.509   2.267  15.395  0.1624 -0.2525  0.0240
  648TMC3    C1 9588   3.482   0.357  16.307  0.3203 -0.1098  0.1091
  648TMC3    C2 9589   3.607   0.309  16.284  0.3943  0.3677  0.1603
  648TMC3    C3 9590   3.654   0.312  16.154 -0.2903  0.1409  0.9375
  648TMC3    C4 9591   3.404   0.426  16.219 -0.1186 -0.2765  0.0423
  648TMC3    C5 9592   3.464   0.443  16.100  0.5095  0.5764  0.5565
  648TMC3    C6 9593   3.579   0.375  16.062 -0.5186  0.1438 -0.1234
  648TMC3     C 9594   3.442   0.353  16.449  0.3140  0.0793 -0.0587
  648TMC3     O 9595   3.528   0.346  16.534  0.3266 -0.3684 -0.4133
  648TMC3     H 9596   3.661   0.257  16.363 -0.9995 -2.2976 -0.6501
  648TMC3    H1 9597   3.312   0.479  16.240 -0.4841 -1.7400  2.0658
  648TMC3    H2 9598   3.619   0.393  15.963 -2.5965 -0.9172 -1.1469
  648TMC3    C7 9599   3.421   0.545  16.005 -0.4119 -0.4366  0.3041
  648TMC3    C8 9600   3.768   0.231  16.115 -0.1257 -0.3714  0.4282
  648TMC3    O1 9601   3.457   0.542  15.886  0.2199  0.1394 -0.4268
  648TMC3    O2 9602   3.779   0.230  15.993 -0.2797  1.0186  0.3942
  649TMC3    C1 9603   2.462   2.048  12.577  0.2368  0.1902 -0.2723
  649TMC3    C2 9604   2.587   2.065  12.515  0.1353  0.2263  0.0791
  649TMC3    C3 9605   2.697   2.019  12.575  0.0979 -0.5137 -0.4316
  649TMC3    C4 9606   2.452   1.968  12.686  0.4497  0.4122 -0.0198
  649TMC3    C5 9607   2.564   1.924  12.746  0.6081  0.6772 -0.4005
  649TMC3    C6 9608   2.689   1.950  12.694  0.3387 -0.0316 -0.2509
  649TMC3     C 9609   2.333   2.103  12.537  0.5957  0.2385  0.1921
  649TMC3     O 9610   2.247   2.132  12.621 -0.2000  0.2511 -0.2884
  649TMC3     H 9611   2.596   2.131  12.430  0.5758 -0.1151 -0.1437
  649TMC3    H1 9612   2.355   1.940  12.726  1.1363 -0.6588  0.9285
  649TMC3    H2 9613   2.779   1.922  12.748  0.2180 -1.3678 -0.7204
  649TMC3    C7 9614   2.541   1.859  12.874 -0.6968  0.3959  0.4545
  649TMC3    C8 9615   2.818   2.080  12.521 -0.0525  0.1049  0.2712
  649TMC3    O1 9616   2.437   1.900  12.931  0.2047 -0.1128 -0.0426
  649TMC3    O2 9617   2.811   2.186  12.458 -0.0379  0.0029  0.3603
  650TMC3    C1 9618   0.032   3.590  12.677  0.4336  0.2244 -0.5838
  650TMC3    C2 9619   4.673   3.681  12.728  0.1176 -0.5834  0.5125
  650TMC3    C3 9620   4.608   3.763  12.643  0.8105 -0.0838  0.8795
  650TMC3    C4 9621   0.058   3.584  12.545 -0.1939 -0.0561 -0.0712
  650TMC3    C5 9622   0.005   3.683  12.469  0.5740  0.4515  0.2543
  650TMC3    C6 9623   4.643   3.777  12.511  0.6186  0.2142  0.5883
  650TMC3     C 9624   0.086   3.495  12.771  0.1783 -0.9803 -0.7087
  650TMC3     O 9625   0.032   3.488  12.880 -0.4848 -0.2836 -0.2237
  650TMC3     H 9626   4.656   3.687  12.835 -3.4401  0.5026 -0.0785
  650TMC3    H1 9627   0.143   3.530  12.506 -2.2053 -2.4205 -1.1675
  650TMC3    H2 9628   4.595   3.851  12.447  2.9886  1.4334  0.2209
  650TMC3    C7 9629   0.087   3.720  12.354 -0.6850 -0.0953 -0.0477
  650TMC3    C8 9630   4.570   3.886  12.698  0.5818 -0.8526  0.1818
  650TMC3    O1 9631   0.156   3.632  12.302 -0.3192 -0.0245 -0.1665
  650TMC3    O2 9632   4.651   3.952  12.760 -0.1051 -0.3711 -0.2981
  651MPD2     C 9633   4.044   0.203  10.573  0.1464  0.2216 -0.3758
  651MPD2    C1 9634   3.983   0.312  10.626 -1.0704 -0.1025 -0.1535
  651MPD2    C2 9635   4.065   0.414  10.676 -0.1142 -0.3271 -0.2478
  651MPD2    C3 9636   4.200   0.394  10.697 -0.4335 -0.1227 -0.3404
  651MPD2    C4 9637   4.261   0.285  10.634  0.5821 -0.0103 -0.0750
  651MPD2    C5 9638   4.183   0.195  10.571 -0.2709 -0.5290 -0.0552
  651MPD2     H 9639   4.027   0.510  10.708 -0.8623 -0.5636 -0.4381
  651MPD2    H1 9640   4.367   0.267  10.627  0.3568 -0.0368 -3.3558
  651MPD2    H2 9641   3.991   0.118  10.534  0.3249 -0.0548 -0.0137
  651MPD2    H3 9642   4.230   0.119  10.510  0.8447 -0.9909  1.3859
  651MPD2     N 9643   4.268   0.500  10.767  0.3517 -0.2146  0.1634
  651MPD2    H5 9644   4.209   0.577  10.794  1.8229  1.4387 -1.3624
  651MPD2    N1 9645   3.848   0.341  10.607 -0.1908 -0.4744  0.3536
  651MPD2    H7 9646   3.835   0.441  10.619  0.9109 -0.3828  0.8101
  652TMC3    C1 9647   4.633   0.744  10.879 -1.1190  1.0980 -0.2767
  652TMC3    C2 9648   4.584   0.615  10.873 -0.2450  0.7419 -0.6028
  652TMC3    C3 9649   4.449   0.606  10.869 -0.2436  0.5444 -0.3465
  652TMC3    C4 9650   4.560   0.859  10.881 -0.0880 -0.0007  0.6464
  652TMC3    C5 9651   4.426   0.841  10.864  0.2232 -0.3091 -0.1115
  652TMC3    C6 9652   4.375   0.716  10.857  0.1200  0.2591  0.1197
  652TMC3     C 9653   0.048   0.767  10.834 -0.1426  0.2029 -0.6402
  652TMC3     O 9654   0.137   0.691  10.874 -0.0069 -0.0440 -0.1186
  652TMC3     H 9655   4.655   0.534  10.863 -2.5146 -1.0415 -2.3298
  652TMC3    H1 9656   4.607   0.953  10.907  0.4942  0.3456 -1.6909
  652TMC3    H2 9657   4.267   0.726  10.853  0.2366  0.4850 -2.5235
  652TMC3    C7 9658   4.359   0.950  10.920  0.1624 -0.5535 -0.3216
  652TMC3    C8 9659   4.398   0.479  10.814 -0.3818  0.3187 -0.1395
  652TMC3    O1 9660   4.253   0.930  10.981 -0.4996  0.0980 -0.0685
  652TMC3    O2 9661   4.474   0.382  10.804  0.5235 -0.2329  0.2923
  653MPD2     C 9662   2.589   0.498   0.415 -0.6130  0.2697 -0.4792
  653MPD2    C1 9663   2.605   0.576   0.302 -1.1569 -0.2444 -0.4509
  653MPD2    C2 9664   2.591   0.517   0.176  0.0397 -0.2993  0.9478
  653MPD2    C3 9665   2.553   0.383   0.166 -0.3339  0.1750  0.0768
  653MPD2    C4 9666   2.527   0.312   0.278  0.1743 -0.5578 -0.3301
  653MPD2    C5 9667   2.546   0.368   0.401 -0.6948 -0.8097  0.4368
  653MPD2     H 9668   2.594   0.570   0.082  0.6380 -0.2107  1.0138
  653MPD2    H1 9669   2.505   0.206   0.280 -0.5439 -0.4622 -2.8885
  653MPD2    H2 9670   2.601   0.521   0.520  0.3571  1.7876 -0.9247
  653MPD2    H3 9671   2.537   0.309   0.491 -2.1780 -0.8428  0.2815
  653MPD2     N 9672   2.533   0.344   0.030 -0.0263 -0.2775 -0.5297
  653MPD2    H5 9673   2.545   0.408  17.654  0.2702 -1.3034 -1.3399
  653MPD2    N1 9674   2.644   0.714   0.305 -0.1321 -0.0039  0.4140
  653MPD2    H7 9675   2.623   0.768   0.221 -0.7050 -0.0464  0.5256
  654TMC3    C1 9676   2.481   0.205  17.549  0.3669 -0.4592 -0.1301
  654TMC3    C2 9677   2.451   0.323  17.479 -0.5235  0.0703  1.5360
  654TMC3    C3 9678   2.445   0.318  17.346  0.3887  0.2795  0.5513
  654TMC3    C4 9679   2.504   0.088  17.484  0.4947 -0.2628  0.1073
  654TMC3    C5 9680   2.489   0.081  17.349 -0.6325  0.8712 -0.5207
  654TMC3    C6 9681   2.472   0.203  17.281  0.2799  0.3041  0.3050
  654TMC3     C 9682   2.496   0.214  17.692  0.5150  0.3610 -0.4159
  654TMC3     O 9683   2.507   0.110   0.058  0.5046  0.1327 -0.1082
  654TMC3     H 9684   2.412   0.409  17.532 -2.2318 -0.7479  1.5935
  654TMC3    H1 9685   2.541   0.006  17.545 -1.8157 -1.4140 -0.0420
  654TMC3    H2 9686   2.457   0.193  17.174 -0.0913  0.7576  0.3165
  654TMC3    C7 9687   2.519   4.687  17.267 -0.0070 -0.2332 -0.4368
  654TMC3    C8 9688   2.362   0.415  17.282 -0.2263 -0.4032 -0.4589
  654TMC3    O1 9689   2.513   4.705  17.146 -0.3926 -0.2333  0.9342
  654TMC3    O2 9690   2.299   0.372  17.186  0.0733  0.1590 -0.0383
  655MPD2     C 9691   4.167   0.358  16.099  0.3557 -0.3687  0.1912
  655MPD2    C1 9692   4.061   0.422  16.043 -0.3849  0.0792 -0.5857
  655MPD2    C2 9693   4.051   0.411  15.900 -0.0681 -0.5303 -0.1849
  655MPD2    C3 9694   4.136   0.325  15.825 -0.5836  0.0432  0.0201
  655MPD2    C4 9695   4.234   0.259  15.887  0.9544 -0.3473 -0.6399
  655MPD2    C5 9696   4.261   0.291  16.025 -0.2356 -0.1350 -0.1706
  655MPD2     H 9697   3.969   0.462  15.850 -0.7592 -2.6029 -1.1592
  655MPD2    H1 9698   4.311   0.202  15.835  0.2552 -1.5305 -0.3959
  655MPD2    H2 9699   4.188   0.372  16.205  3.6670 -2.9371 -0.1078
  655MPD2    H3 9700   4.344   0.235  16.068 -0.2976  0.6362  0.9807
  655MPD2     N 9701   4.119   0.298  15.687  0.2564 -0.2164  0.4753
  655MPD2    H5 9702   4.180   0.229  15.643  2.6409  1.2551  1.5019
  655MPD2    N1 9703   3.983   0.515  16.107 -0.1705 -0.0881  0.1368
  655MPD2    H7 9704   3.922   0.572  16.050  0.1304  0.0038 -0.0946
  656TMC3    C1 9705   3.909   0.660  16.252  0.0902  0.3781 -0.1658
  656TMC3    C2 9706   3.813   0.664  16.350  0.1556 -0.1083  0.2613
  656TMC3    C3 9707   3.698   0.723  16.325  0.3183  0.2949 -0.0455
  656TMC3    C4 9708   3.897   0.737  16.138 -0.1121 -0.4252  0.7334
  656TMC3    C5 9709   3.780   0.800  16.112  0.2181 -0.9167 -0.1688
  656TMC3    C6 9710   3.681   0.790  16.208 -0.3939 -0.7424  0.2015
  656TMC3     C 9711   3.985   0.542  16.240  0.2172 -0.1973  0.6674
  656TMC3     O 9712   4.039   0.486  16.336  0.2863  0.6165 -0.1637
  656TMC3     H 9713   3.820   0.603  16.439  1.8309 -0.0983  0.1341
  656TMC3    H1 9714   3.979   0.749  16.068  0.8882 -1.4916  1.7194
  656TMC3    H2 9715   3.588   0.843  16.191 -0.4745 -0.3931  1.7337
  656TMC3    C7 9716   3.750   0.855  15.980 -0.6317 -0.1260  0.2581
  656TMC3    C8 9717   3.575   0.690  16.400 -0.0287 -0.3475  0.8129
  656TMC3    O1 9718   3.821   0.817  15.888  0.2065 -0.1509  0.7171
  656TMC3    O2 9719   3.485   0.675  16.319  0.5802 -0.3136 -0.2480
  657TMC3    C1 9720   3.112   4.540  15.477  0.2123 -0.0593  0.2874
  657TMC3    C2 9721   3.182   4.500  15.591  0.1082 -0.1267 -0.1467
  657TMC3    C3 9722   3.120   4.515  15.714 -0.8396  0.0771 -0.2322
  657TMC3    C4 9723   2.982   4.589  15.489  0.2793  0.0943 -0.8153
  657TMC3    C5 9724   2.925   4.605  15.614 -0.5582 -0.3849 -0.0325
  657TMC3    C6 9725   2.993   4.572  15.725  0.1497  0.2017 -0.3493
  657TMC3     C 9726   3.152   4.512  15.342  0.0473 -0.4305  0.1621
  657TMC3     O 9727   3.086   4.547  15.247  0.0176 -0.3528 -0.1005
  657TMC3     H 9728   3.280   4.454  15.580  0.1002  1.2474 -5.7236
  657TMC3    H1 9729   2.933   4.615  15.395 -1.6035 -3.9624 -0.9769
  657TMC3    H2 9730   2.949   4.588  15.823 -0.1437 -0.6093 -0.3534
  657TMC3    C7 9731   2.796   4.668  15.629  0.2291 -0.0281 -0.0719
  657TMC3    C8 9732   3.193   4.503  15.839 -0.6429 -0.4025  0.6998
  657TMC3    O1 9733   2.734   4.650  15.731  0.0335  0.5538 -0.8409
  657TMC3    O2 9734   3.129   4.500  15.943  0.1289  0.2213 -0.1787
  658MPD2     C 9735   4.387   0.269  14.903  0.1667 -0.3266 -0.3979
  658MPD2    C1 9736   4.315   0.344  14.992  0.7043  0.1995 -0.7560
  658MPD2    C2 9737   4.300   0.481  14.978 -0.1880  0.4377 -0.1068
  658MPD2    C3 9738   4.353   0.541  14.868 -0.4827  0.7251 -0.4539
  658MPD2    C4 9739   4.437   0.468  14.790 -0.1238 -0.1644 -0.2019
  658MPD2    C5 9740   4.449   0.331  14.801  0.3053 -0.2038  0.8393
  658MPD2     H 9741   4.240   0.529  15.054 -0.8671 -0.5012 -0.0584
  658MPD2    H1 9742   4.500   0.522  14.721  0.2101 -1.8190 -1.1978
  658MPD2    H2 9743   4.397   0.161  14.912  2.5431 -0.1241 -0.4382
  658MPD2    H3 9744   4.523   0.292  14.732 -0.6083 -1.8886  0.8264
  658MPD2     N 9745   4.301   0.668  14.841  0.5485 -0.3826 -0.2041
  658MPD2    H5 9746   4.253   0.708  14.921 -0.9512  0.2658 -1.4285
  658MPD2    N1 9747   4.261   0.274  15.101 -0.0872  0.3787  0.5880
  658MPD2    H7 9748   4.281   0.175  15.097 -2.2085 -0.0978  1.5107
  659TMC3    C1 9749   4.107   0.226  15.277  0.5450 -0.3303 -0.0891
  659TMC3    C2 9750   4.108   0.260  15.408  0.5325  0.7940  0.1054
  659TMC3    C3 9751   4.002   0.253  15.488  0.6583 -0.5124 -0.6008
  659TMC3    C4 9752   3.986   0.190  15.222  0.3636  0.4248 -0.7892
  659TMC3    C5 9753   3.870   0.196  15.303  0.2677 -0.6693  0.7685
  659TMC3    C6 9754   3.877   0.223  15.438  0.8929  0.0563 -0.3878
  659TMC3     C 9755   4.175   0.324  15.198  0.0628 -0.4146 -0.6686
  659TMC3     O 9756   4.129   0.437  15.220  0.5535 -0.1244 -0.3514
  659TMC3     H 9757   4.197   0.302  15.455 -0.5099  4.3788 -1.1267
  659TMC3    H1 9758   3.980   0.185  15.114 -1.5576  1.8682 -0.7520
  659TMC3    H2 9759   3.796   0.238  15.509  2.2656  0.1479  1.1520
  659TMC3    C7 9760   3.736   0.189  15.239  0.4863  0.4483  0.1162
  659TMC3    C8 9761   4.006   0.332  15.611 -0.0230  0.6571  0.0577
  659TMC3    O1 9762   3.641   0.243  15.294 -0.4057 -0.2655 -0.3850
  659TMC3    O2 9763   3.899   0.379  15.647 -0.3619 -0.1740 -0.1428
  660MPD2     C 9764   2.265   4.517  12.555  0.5218 -0.3616 -0.7435
  660MPD2    C1 9765   2.126   4.512  12.548 -0.2092 -0.0987  0.4960
  660MPD2    C2 9766   2.048   4.503  12.663 -0.0399  0.4359 -0.1615
  660MPD2    C3 9767   2.104   4.494  12.790 -0.2179 -0.3028 -0.3954
  660MPD2    C4 9768   2.245   4.519  12.807  0.5191 -0.5529 -0.8179
  660MPD2    C5 9769   2.318   4.512  12.687  0.0015 -0.2495 -0.2692
  660MPD2     H 9770   1.941   4.522  12.664 -0.0826  0.1642  0.8017
  660MPD2    H1 9771   2.295   4.540  12.900  2.7766  0.7101 -2.2998
  660MPD2    H2 9772   2.328   4.537  12.469 -0.8929  2.4491 -1.1311
  660MPD2    H3 9773   2.426   4.518  12.701 -0.3439 -0.0646  2.1912
  660MPD2     N 9774   2.031   4.490  12.905  0.1751  0.4810  0.3342
  660MPD2    H5 9775   2.062   4.544  12.985 -1.3689  0.7758  0.7305
  660MPD2    N1 9776   2.066   4.523  12.414 -0.4582 -0.4650  0.0069
  660MPD2    H7 9777   2.131   4.530  12.337 -1.1234  0.0076 -0.5111
  661TMC3    C1 9778   1.892   4.576  12.257 -0.1278 -0.3840 -0.4967
  661TMC3    C2 9779   1.992   4.606  12.166 -0.3816  0.1952  0.3081
  661TMC3    C3 9780   1.955   4.684  12.061  0.1945 -0.5019 -0.1745
  661TMC3    C4 9781   1.763   4.623  12.249  0.0916 -0.1931 -0.3436
  661TMC3    C5 9782   1.730   4.689  12.136  0.9322 -0.1050 -0.3906
  661TMC3    C6 9783   1.822   4.721  12.040  0.0022 -0.0954  0.5940
  661TMC3     C 9784   1.931   4.527  12.388  1.1742  0.4848 -0.5778
  661TMC3     O 9785   1.833   4.526  12.464  0.0092  0.1181 -0.2402
  661TMC3     H 9786   2.096   4.580  12.176 -0.1397  1.1547  0.2466
  661TMC3    H1 9787   1.686   4.617  12.325  1.1789  0.9652  0.8487
  661TMC3    H2 9788   1.786   0.039  11.947 -0.9624  1.3349  1.6195
  661TMC3    C7 9789   1.596   0.026  12.122 -0.0547  0.4241  0.2104
  661TMC3    C8 9790   2.037   4.681  11.943  0.1609  0.5705 -0.1080
  661TMC3    O1 9791   1.533   0.066  12.221 -0.1150 -0.3721  0.2743
  661TMC3    O2 9792   2.114   4.588  11.931 -0.1280  1.0162 -0.0963
  662MPD2     C 9793   2.336   3.963  17.539  0.0172 -0.2838  0.4349
  662MPD2    C1 9794   2.253   3.865  17.601  0.3385 -0.2392  0.5055
  662MPD2    C2 9795   2.138   3.920  17.664 -0.8444 -0.2243 -0.2917
  662MPD2    C3 9796   2.097   4.049  17.647  0.6463 -0.4592  0.0060
  662MPD2    C4 9797   2.167   4.136  17.565 -1.1307 -0.0224 -0.0980
  662MPD2    C5 9798   2.280   4.088  17.516 -0.6990 -0.3952  0.2976
  662MPD2     H 9799   2.087   3.842   0.018  0.3147 -0.8559 -0.1144
  662MPD2    H1 9800   2.150   4.241  17.547 -1.3979 -0.4081 -2.1517
  662MPD2    H2 9801   2.429   3.939  17.489 -0.1914 -0.6909  0.2369
  662MPD2    H3 9802   2.343   4.144  17.447  1.2139 -1.3201  1.2668
  662MPD2     N 9803   1.984   4.093   0.016 -0.1056 -0.0550  0.3660
  662MPD2    H5 9804   1.952   4.189   0.003 -0.2694  0.1169  2.0545
  662MPD2    N1 9805   2.290   3.732  17.621 -0.3464  0.1135 -0.8088
  662MPD2    H7 9806   2.234   3.682  17.689  0.8306 -2.1346 -1.4706
  663TMC3    C1 9807   2.417   3.523  17.595  0.6491 -0.0591 -0.9992
  663TMC3    C2 9808   2.360   3.477   0.013  0.6183 -0.7532  0.8160
  663TMC3    C3 9809   2.397   3.345   0.038  0.3355  0.5642  0.4804
  663TMC3    C4 9810   2.480   3.449  17.500 -1.0639  0.1604  0.1352
  663TMC3    C5 9811   2.493   3.317  17.528  0.3687  0.5944 -0.3107
  663TMC3    C6 9812   2.466   3.265  17.651 -0.4863  0.1281  0.6337
  663TMC3     C 9813   2.403   3.671  17.564 -0.2002 -0.0680  0.2185
  663TMC3     O 9814   2.469   3.724  17.479 -0.0801  0.3850 -0.2594
  663TMC3     H 9815   2.327   3.551   0.085  0.5452 -0.0308  0.0410
  663TMC3    H1 9816   2.514   3.493  17.407 -1.8908 -3.1352 -1.7321
  663TMC3    H2 9817   2.466   3.160  17.677  0.0974 -0.2364 -0.8449
  663TMC3    C7 9818   2.528   3.238  17.418  0.8167 -0.6373 -1.0150
  663TMC3    C8 9819   2.409   3.307   0.176  0.2178 -0.6532  0.6073
  663TMC3    O1 9820   2.587   3.302  17.334  0.4873  0.1494 -0.3710
  663TMC3    O2 9821   2.496   3.226   0.203 -0.7712  0.2963 -0.0982
  664MPD2     C 9822   0.389   2.021  17.479 -0.3000 -0.1936  0.0288
  664MPD2    C1 9823   0.501   2.032  17.551 -0.3493  0.3257 -0.3628
  664MPD2    C2 9824   0.510   1.972  17.673  0.0877  0.5155  0.2458
  664MPD2    C3 9825   0.406   1.897   0.023 -0.0681  0.6073  0.8934
  664MPD2    C4 9826   0.290   1.877  17.653 -0.1796 -0.0471  0.8612
  664MPD2    C5 9827   0.283   1.946  17.535  0.2586  0.5704  0.0794
  664MPD2     H 9828   0.595   2.003   0.031  0.6823 -2.6150  0.9823
  664MPD2    H1 9829   0.204   1.822  17.690 -1.1755  0.2293 -1.0338
  664MPD2    H2 9830   0.374   2.075  17.386  0.6203 -2.0563 -1.2078
  664MPD2    H3 9831   0.188   1.936  17.484  0.2573  0.1375  0.1667
  664MPD2     N 9832   0.420   1.864   0.159 -0.0758  0.4998 -0.0008
  664MPD2    H5 9833   0.498   1.902   0.211  0.5258  2.4037 -2.3120
  664MPD2    N1 9834   0.607   2.118  17.519  0.4844 -0.5840 -0.6182
  664MPD2    H7 9835   0.690   2.118  17.576 -0.1683  0.2234  0.3277
  665TMC3    C1 9836   0.307   1.831   0.373 -0.8843 -0.6458 -0.6529
  665TMC3    C2 9837   0.177   1.800   0.418  0.6465 -0.5455  0.0219
  665TMC3    C3 9838   0.156   1.836   0.551  0.3333  0.7244 -0.5910
  665TMC3    C4 9839   0.415   1.875   0.450 -0.1112 -0.4454 -0.1214
  665TMC3    C5 9840   0.384   1.892   0.584  0.3627 -0.5465  0.6819
  665TMC3    C6 9841   0.258   1.883   0.631 -0.0030  0.0852  0.0280
  665TMC3     C 9842   0.322   1.797   0.230 -0.3995  0.3074 -0.7059
  665TMC3     O 9843   0.235   1.725   0.180 -0.2854  0.5073 -0.1627
  665TMC3     H 9844   0.097   1.778   0.348 -1.8709  0.8133  2.4955
  665TMC3    H1 9845   0.507   1.897   0.396  1.3882 -1.1081  2.1828
  665TMC3    H2 9846   0.228   1.910   0.731 -1.6081  0.6449 -0.5946
  665TMC3    C7 9847   0.488   1.978   0.651  0.0132  0.7371  0.0938
  665TMC3    C8 9848   0.040   1.788   0.619  0.2712  0.3633 -0.1564
  665TMC3    O1 9849   0.579   2.017   0.587  0.6356 -0.1205 -0.2657
  665TMC3    O2 9850   0.013   1.825   0.733 -0.2124 -0.0161 -0.8606
  666TMC3    C1 9851   4.202   1.925  10.126 -0.7261  0.5306  0.0273
  666TMC3    C2 9852   4.329   1.865  10.139 -0.0199  0.0620 -0.0758
  666TMC3    C3 9853   4.440   1.931  10.100  0.2319 -0.3418 -0.1611
  666TMC3    C4 9854   4.188   2.039  10.058  0.1519 -0.6604  0.1854
  666TMC3    C5 9855   4.305   2.099  10.021 -0.2153  0.2926 -0.8041
  666TMC3    C6 9856   4.433   2.052  10.040 -0.4110 -0.0990 -0.0087
  666TMC3     C 9857   4.085   1.867  10.170  0.5140 -0.0894 -0.2352
  666TMC3     O 9858   3.981   1.897  10.119  0.5711 -0.0671 -0.2025
  666TMC3     H 9859   4.343   1.778  10.201 -0.7942 -0.7245 -0.9949
  666TMC3    H1 9860   4.090   2.085  10.046  0.4756  0.5004  1.9160
  666TMC3    H2 9861   4.518   2.111  10.008 -1.0489 -0.4676 -2.4159
  666TMC3    C7 9862   4.288   2.229   9.964  0.5848 -0.5184  0.0105
  666TMC3    C8 9863   4.570   1.873  10.147 -0.6038  0.6447  0.6627
  666TMC3    O1 9864   4.186   2.292   9.990  0.0942 -0.2968 -0.0710
  666TMC3    O2 9865   4.566   1.760  10.195 -0.1645  0.1773  0.0812
  667MPD2     C 9866   1.167   2.317  14.777 -0.1547 -0.2890 -0.0480
  667MPD2    C1 9867   1.205   2.226  14.873 -0.4504  0.8014 -0.0043
  667MPD2    C2 9868   1.135   2.115  14.896 -0.9024 -0.2267  0.0571
  667MPD2    C3 9869   1.014   2.094  14.819 -0.0594  0.6792  0.5061
  667MPD2    C4 9870   0.974   2.197  14.733  0.3695  1.2783 -0.7627
  667MPD2    C5 9871   1.052   2.306  14.705 -0.1975 -0.5410  0.7778
  667MPD2     H 9872   1.167   2.052  14.979  0.1393  0.3861  0.1145
  667MPD2    H1 9873   0.882   2.191  14.675  0.5689 -2.3447 -0.7218
  667MPD2    H2 9874   1.233   2.399  14.750 -0.9910  0.3163 -0.2284
  667MPD2    H3 9875   1.022   2.377  14.629  1.0657 -0.1967  0.6142
  667MPD2     N 9876   0.925   1.982  14.836  0.9741 -0.0092 -0.2869
  667MPD2    H5 9877   0.850   1.984  14.768  0.0021  1.8211  0.8549
  667MPD2    N1 9878   1.319   2.240  14.957  0.7087  0.2132 -0.2181
  667MPD2    H7 9879   1.349   2.164  15.018 -0.5642 -0.4484 -0.4226
  668TMC3    C1 9880   1.468   2.340  15.086 -0.4314  0.3623  0.1814
  668TMC3    C2 9881   1.576   2.421  15.110 -0.9259  0.5656 -0.3604
  668TMC3    C3 9882   1.625   2.434  15.237 -0.6466 -0.5314  0.2598
  668TMC3    C4 9883   1.419   2.265  15.192 -0.0009 -0.2073  0.8976
  668TMC3    C5 9884   1.469   2.281  15.317  0.5313  0.8756 -0.6234
  668TMC3    C6 9885   1.568   2.370  15.341  0.3258 -0.0471  0.2396
  668TMC3     C 9886   1.404   2.348  14.961 -0.6522  0.3363  0.1310
  668TMC3     O 9887   1.422   2.451  14.896 -0.2073  0.1734 -0.4906
  668TMC3     H 9888   1.617   2.491  15.038 -1.0324  2.2663  1.2422
  668TMC3    H1 9889   1.346   2.185  15.181 -1.5321  1.4434 -1.0884
  668TMC3    H2 9890   1.597   2.392  15.443 -0.0237  1.3260  0.0464
  668TMC3    C7 9891   1.416   2.216  15.438  0.0584 -0.2366 -0.1264
  668TMC3    C8 9892   1.705   2.550  15.280 -0.1694 -0.6139  0.1787
  668TMC3    O1 9893   1.502   2.189  15.519 -0.1635 -0.1733 -0.4334
  668TMC3    O2 9894   1.708   2.582  15.399 -0.0812 -0.1009 -0.4051
  669TMC3    C1 9895   3.832   2.296  14.435  0.1030 -0.0995  0.6733
  669TMC3    C2 9896   3.716   2.301  14.369  0.4447  0.1333  0.9345
  669TMC3    C3 9897   3.710   2.358  14.244 -0.7241  0.3388 -0.7153
  669TMC3    C4 9898   3.940   2.347  14.372 -0.0295 -0.4689  0.1986
  669TMC3    C5 9899   3.932   2.391  14.241  0.5496  0.2692 -0.5811
  669TMC3    C6 9900   3.817   2.419  14.178  0.4454  0.3737 -0.1461
  669TMC3     C 9901   3.862   2.183  14.523 -0.0387 -0.1078 -0.6847
  669TMC3     O 9902   3.772   2.098  14.535  0.2108 -0.1827  0.0707
  669TMC3     H 9903   3.636   2.240  14.410 -0.4185  0.3927 -0.3676
  669TMC3    H1 9904   4.040   2.321  14.407 -1.8798 -2.6655  3.8570
  669TMC3    H2 9905   3.818   2.427  14.070 -0.1366  1.9990 -0.0226
  669TMC3    C7 9906   4.054   2.450  14.183 -0.4296  0.2597  0.3086
  669TMC3    C8 9907   3.579   2.356  14.181 -0.7800  0.0338  0.3033
  669TMC3    O1 9908   4.153   2.436  14.255 -0.5103 -0.8088  0.0988
  669TMC3    O2 9909   3.492   2.279  14.221 -0.2259 -0.0629 -0.1940
  670MPD2     C 9910   1.839   4.715  13.782 -0.2135 -0.0721 -0.7896
  670MPD2    C1 9911   1.973   4.712  13.781 -0.4503  0.2879 -1.0887
  670MPD2    C2 9912   2.040   4.664  13.892  0.7058 -0.4200  0.3137
  670MPD2    C3 9913   1.976   4.616  14.009 -0.8858 -0.3260  1.1932
  670MPD2    C4 9914   1.841   4.610  14.000 -0.3592 -0.4094  0.0159
  670MPD2    C5 9915   1.777   4.661  13.896 -0.3705 -0.7706  0.4358
  670MPD2     H 9916   2.148   4.652  13.886  0.5872  0.3111 -3.1047
  670MPD2    H1 9917   1.773   4.557  14.066  0.8940 -1.6538  0.2982
  670MPD2    H2 9918   1.780   0.022  13.697  1.2906  0.1581 -1.7634
  670MPD2    H3 9919   1.670   4.653  13.907 -0.4231 -1.0717 -0.2743
  670MPD2     N 9920   2.057   4.559  14.109 -0.0111  0.0031 -0.3434
  670MPD2    H5 9921   2.154   4.582  14.091 -0.2084  1.2288  0.1440
  670MPD2    N1 9922   2.049   0.030  13.672 -0.1029 -0.2112 -0.6023
  670MPD2    H7 9923   2.150   0.031  13.681 -0.2956 -0.7528  1.7237
  671TMC3    C1 9924   2.112   4.528  14.338 -0.3639 -0.3309 -0.4701
  671TMC3    C2 9925   2.241   4.557  14.304  0.0539  0.5184  0.1437
  671TMC3    C3 9926   2.331   4.508  14.395 -0.0327  0.4245  0.5071
  671TMC3    C4 9927   2.081   4.453  14.449  0.3757 -0.2687  0.5923
  671TMC3    C5 9928   2.178   4.412  14.530 -0.1576 -0.2928 -0.8279
  671TMC3    C6 9929   2.309   4.433  14.507 -0.7071 -0.1483  0.7448
  671TMC3     C 9930   2.005   4.521  14.233  0.6796  0.1632  1.0617
  671TMC3     O 9931   1.890   4.489  14.265  0.0348  0.1312  0.1460
  671TMC3     H 9932   2.266   4.631  14.229 -2.1280 -0.9983 -2.0923
  671TMC3    H1 9933   1.982   4.410  14.464  0.4910 -0.6950  0.1328
  671TMC3    H2 9934   2.393   4.409  14.570 -1.1482 -0.1963  1.3071
  671TMC3    C7 9935   2.141   4.308  14.625  0.1497  0.2076  0.0524
  671TMC3    C8 9936   2.471   4.511  14.345  0.1240 -0.3335  0.2922
  671TMC3    O1 9937   2.024   4.274  14.637  0.1504  0.3975 -0.1275
  671TMC3    O2 9938   2.496   4.569  14.238 -0.3078  0.6185  0.2898
  672MPD2     C 9939   1.600   0.180   1.212  0.7831 -0.2926 -0.4205
  672MPD2    C1 9940   1.649   0.297   1.168  0.3155 -0.1451  0.3129
  672MPD2    C2 9941   1.700   0.390   1.261 -0.4317 -0.3526  0.6367
  672MPD2    C3 9942   1.716   0.354   1.391  0.2904  0.4523 -0.3700
  672MPD2    C4 9943   1.683   0.227   1.428  0.0755  0.5388  0.2733
  672MPD2    C5 9944   1.618   0.151   1.339 -0.2584 -0.3956 -0.2505
  672MPD2     H 9945   1.742   0.481   1.219 -1.0729 -0.2650  0.1810
  672MPD2    H1 9946   1.698   0.195   1.531  0.5475 -0.6176 -0.1517
  672MPD2    H2 9947   1.542   0.112   1.150 -1.0657 -0.6245  1.6871
  672MPD2    H3 9948   1.593   0.057   1.386 -0.1665 -0.5164 -0.4449
  672MPD2     N 9949   1.802   0.428   1.483  0.0301 -0.6514  0.2818
  672MPD2    H5 9950   1.829   0.379   1.568  0.6270  1.7262  1.4582
  672MPD2    N1 9951   1.641   0.344   1.034  0.0922 -0.3873 -0.0150
  672MPD2    H7 9952   1.663   0.442   1.022 -1.4946  0.1876  1.6931
  673TMC3    C1 9953   1.670   0.337   0.796 -0.9918  0.1388  0.0352
  673TMC3    C2 9954   1.742   0.264   0.705  0.0366  0.1847  0.6000
  673TMC3    C3 9955   1.769   0.336   0.592 -0.2859  0.0054  0.0305
  673TMC3    C4 9956   1.637   0.470   0.787 -0.1973  0.3119  0.1399
  673TMC3    C5 9957   1.674   0.530   0.670  0.2821 -0.4231  0.6733
  673TMC3    C6 9958   1.726   0.464   0.573 -0.1848 -0.1566 -0.8135
  673TMC3     C 9959   1.633   0.262   0.920 -0.0692 -0.0299 -0.1544
  673TMC3     O 9960   1.642   0.139   0.922 -0.3382 -0.1551 -0.3198
  673TMC3     H 9961   1.768   0.159   0.710  0.0754  0.2326  1.5632
  673TMC3    H1 9962   1.578   0.516   0.866  0.1083  1.6950 -0.4316
  673TMC3    H2 9963   1.755   0.497   0.474  0.8693  1.9156  0.1862
  673TMC3    C7 9964   1.630   0.672   0.647 -0.4225 -0.3018  0.4177
  673TMC3    C8 9965   1.868   0.279   0.501 -0.5827 -0.7430  0.1832
  673TMC3    O1 9966   1.540   0.714   0.717 -0.3607 -0.4536 -0.2974
  673TMC3    O2 9967   1.860   0.318   0.389  0.0145  0.2642  0.3622
  674MPD2     C 9968   2.606   4.188   0.649  0.3173  0.2521 -0.2319
  674MPD2    C1 9969   2.502   4.269   0.606  0.0246 -0.4773  0.3922
  674MPD2    C2 9970   2.402   4.303   0.701 -0.0712  0.8196 -0.2528
  674MPD2    C3 9971   2.396   4.251   0.828 -0.3881  0.5173 -0.1944
  674MPD2    C4 9972   2.510   4.176   0.870  0.4554  0.1473  0.5063
  674MPD2    C5 9973   2.605   4.137   0.777 -0.0354  0.2630  0.6984
  674MPD2     H 9974   2.319   4.366   0.672  2.0252  3.4018 -0.6554
  674MPD2    H1 9975   2.528   4.153   0.975 -2.9723 -1.5284  0.7280
  674MPD2    H2 9976   2.684   4.158   0.580 -1.2219 -1.0674 -1.3894
  674MPD2    H3 9977   2.689   4.076   0.808  0.4236 -0.5571 -2.2314
  674MPD2     N 9978   2.294   4.295   0.918 -0.2880 -0.1738 -0.1046
  674MPD2    H5 9979   2.223   4.359   0.885  0.5126  0.3022 -0.9013
  674MPD2    N1 9980   2.490   4.320   0.479 -0.1183  0.5529 -0.3913
  674MPD2    H7 9981   2.408   4.366   0.442  0.0805  0.0676 -1.4460
  675TMC3    C1 9982   2.545   4.324   0.256  0.7680  0.1651  0.6429
  675TMC3    C2 9983   2.454   4.225   0.225  0.1417  0.7015 -0.0817
  675TMC3    C3 9984   2.455   4.158   0.105  0.3196 -0.3349 -0.4091
  675TMC3    C4 9985   2.637   4.351   0.162 -0.4159 -0.1520  0.2576
  675TMC3    C5 9986   2.649   4.276   0.049 -0.8348 -0.2764 -0.1181
  675TMC3    C6 9987   2.552   4.190   0.012 -0.5434  0.2343  0.3357
  675TMC3     C 9988   2.596   4.321   0.388 -0.2659  0.5382 -1.0407
  675TMC3     O 9989   2.712   4.288   0.396 -0.2974  0.0262 -0.4191
  675TMC3     H 9990   2.390   4.182   0.302  1.3714  1.7004  1.5086
  675TMC3    H1 9991   2.713   4.422   0.190 -1.4078  0.8207  0.5059
  675TMC3    H2 9992   2.582   4.127  17.631 -0.5917  0.2519  0.3048
  675TMC3    C7 9993   2.787   4.239   0.015 -0.2928 -0.1668  0.6815
  675TMC3    C8 9994   2.444   4.013   0.121 -0.7262  0.5798  0.0821
  675TMC3    O1 9995   2.805   4.195  17.607  0.7679 -0.0003 -0.0788
  675TMC3    O2 9996   2.549   3.952   0.087  0.6388  0.1196  0.4642
  676MPD2     C 9997   0.428   3.064  10.913 -0.7530  0.0776 -0.1414
  676MPD2    C1 9998   0.324   3.105  10.826  0.1839  1.1063  0.8141
  676MPD2    C2 9999   0.265   3.004  10.752 -0.2340  0.9203  0.5412
  676MPD2    C310000   0.303   2.868  10.756 -0.2318 -0.9589  0.3414
  676MPD2    C410001   0.389   2.833  10.854  0.4235  0.1841 -0.9454
  676MPD2    C510002   0.447   2.930  10.936  0.6341 -0.1227 -0.5328
  676MPD2     H10003   0.185   3.035  10.685 -0.4433 -2.5726 -0.8052
  676MPD2    H110004   0.404   2.728  10.875 -1.7390 -0.0730 -0.7408
  676MPD2    H210005   0.476   3.138  10.976 -1.6679 -0.7856  1.5548
  676MPD2    H310006   0.513   2.888  11.011 -1.7274  1.0253  2.1761
  676MPD2     N10007   0.243   2.764  10.678  0.2728 -0.0391 -0.0734
  676MPD2    H510008   0.266   2.667  10.694 -0.3044  0.0677  1.3754
  676MPD2    N110009   0.269   3.230  10.818 -0.2033 -0.2955  0.2423
  676MPD2    H710010   0.185   3.238  10.761 -0.9083  0.7602  1.4102
  677TMC3    C110011   0.220   3.453  10.845 -0.4185 -0.0938 -0.1337
  677TMC3    C210012   0.080   3.426  10.835  0.5977 -0.5809 -0.2999
  677TMC3    C310013   0.001   3.538  10.835  0.0471 -0.3270 -0.2523
  677TMC3    C410014   0.256   3.578  10.872  1.0488  0.3996 -0.3240
  677TMC3    C510015   0.170   3.683  10.869  0.4387 -0.3745  0.5408
  677TMC3    C610016   0.034   3.664  10.843  0.0472  0.7992  0.9649
  677TMC3     C10017   0.316   3.349  10.869 -0.0463 -0.0932 -0.6021
  677TMC3     O10018   0.424   3.362  10.915 -0.2203  0.6504  0.0247
  677TMC3     H10019   0.045   3.327  10.808 -0.4789 -0.1089 -0.6177
  677TMC3    H110020   0.356   3.600  10.907  0.7483 -0.8711  1.3102
  677TMC3    H210021   4.692   3.746  10.867 -1.2075  0.5664 -1.7159
  677TMC3    C710022   0.188   3.774  10.983 -0.8234  0.3813  0.7424
  677TMC3    C810023   4.581   3.502  10.839 -0.6720 -0.0049  0.4483
  677TMC3    O110024   0.083   3.811  11.035 -0.2874 -0.0559  0.2422
  677TMC3    O210025   4.538   3.443  10.745 -0.2043 -0.2404 -0.5380
  678MPD2     C10026   1.549   2.939   1.918 -0.1596  0.3540 -0.1716
  678MPD2    C110027   1.540   2.899   1.782 -0.6052 -0.3240  1.1270
  678MPD2    C210028   1.427   2.914   1.708  0.4001 -0.6656  0.0025
  678MPD2    C310029   1.309   2.955   1.778  0.1189 -0.2322 -0.8629
  678MPD2    C410030   1.309   2.978   1.912  0.7157  0.6647  1.1517
  678MPD2    C510031   1.431   2.976   1.978  0.3027 -0.0253  0.0942
  678MPD2     H10032   1.421   2.909   1.600 -0.3576  0.1845  0.0052
  678MPD2    H110033   1.231   3.020   1.975 -2.7838 -2.2584 -1.2771
  678MPD2    H210034   1.637   2.924   1.979  0.5257  0.2604 -1.1682
  678MPD2    H310035   1.424   2.994   2.085 -1.1916  0.3396 -0.0608
  678MPD2     N10036   1.201   2.973   1.696  0.4680 -0.2600  0.2780
  678MPD2    H510037   1.213   2.944   1.600  1.2056 -3.2380  1.2675
  678MPD2    N110038   1.651   2.833   1.719 -0.7473  0.1764 -0.3075
  678MPD2    H710039   1.632   2.796   1.626 -0.1118  0.0937 -0.4049
  679TMC3    C110040   2.006   2.551   1.631  0.0654 -0.0942  0.2835
  679TMC3    C210041   1.933   2.625   1.724 -0.3672 -0.1558 -0.0899
  679TMC3    C310042   1.851   2.725   1.680  0.1859  0.1756  0.4828
  679TMC3    C410043   1.994   2.577   1.500 -0.1657  0.2698  0.5828
  679TMC3    C510044   1.908   2.683   1.461 -0.7772 -0.4743 -0.0808
  679TMC3    C610045   1.836   2.758   1.548 -0.0227  1.0864  0.4410
  679TMC3     C10046   2.072   2.429   1.668  0.5803 -0.9433  0.7456
  679TMC3     O10047   2.149   2.379   1.585  0.3809 -1.0686 -0.0421
  679TMC3     H10048   1.951   2.611   1.830  2.2951  1.6684 -0.2948
  679TMC3    H110049   2.055   2.513   1.437 -1.2540 -0.1561 -0.0390
  679TMC3    H210050   1.788   2.850   1.516 -2.0134 -0.0788  0.0474
  679TMC3    C710051   1.889   2.706   1.317 -0.4658 -0.3083 -1.1869
  679TMC3    C810052   1.772   2.791   1.779 -0.5265  0.4687  0.4603
  679TMC3    O110053   1.825   2.800   1.283 -0.1793 -0.0448 -0.4512
  679TMC3    O210054   1.795   2.779   1.901 -0.7234 -0.2403 -0.0942
  680MPD2     C10055   1.849   2.040  13.269 -0.4388  0.7221  1.0078
  680MPD2    C110056   1.900   2.004  13.395  0.8254  0.1681  0.3559
  680MPD2    C210057   1.920   2.105  13.490  1.0166  0.1377 -0.3469
  680MPD2    C310058   1.887   2.243  13.459  0.4621  0.2538  0.3991
  680MPD2    C410059   1.817   2.268  13.340 -0.0205  0.0620 -0.1035
  680MPD2    C510060   1.815   2.172  13.247  0.5353  0.2297 -0.2760
  680MPD2     H10061   1.975   2.074  13.578 -0.0171 -0.6719  0.0098
  680MPD2    H110062   1.790   2.369  13.311  0.9413  0.4979  0.5167
  680MPD2    H210063   1.822   1.964  13.197  1.2547 -0.5884  1.7759
  680MPD2    H310064   1.770   2.206  13.153 -1.3780  0.4479  0.7109
  680MPD2     N10065   1.923   2.352  13.541  0.2684  0.5648 -0.3006
  680MPD2    H510066   1.907   2.443  13.499 -0.9367  0.7271  0.5274
  680MPD2    N110067   1.929   1.871  13.435 -0.6627  0.0510 -0.0097
  680MPD2    H710068   1.965   1.855  13.529 -1.0457  0.8454  0.2778
  681TMC3    C110069   1.977   1.647  13.422 -1.1140 -0.1863  0.5618
  681TMC3    C210070   1.945   1.626  13.557 -0.4201  0.4656  0.6910
  681TMC3    C310071   2.044   1.579  13.646 -0.5291 -0.0939 -0.3751
  681TMC3    C410072   2.105   1.630  13.387  0.5327  0.3679 -0.7863
  681TMC3    C510073   2.201   1.591  13.480 -0.1317  0.1718 -0.5717
  681TMC3    C610074   2.171   1.565  13.610 -0.7355  0.0428  0.7115
  681TMC3     C10075   1.916   1.760  13.359  0.4252 -0.2613 -0.1660
  681TMC3     O10076   1.876   1.744  13.244 -0.5021  0.1155  0.2093
  681TMC3     H10077   1.850   1.659  13.597 -1.7399 -1.6399 -0.6750
  681TMC3    H110078   2.124   1.671  13.288 -0.3482  0.8439 -0.7553
  681TMC3    H210079   2.252   1.541  13.678  0.0402 -0.1551 -0.2790
  681TMC3    C710080   2.338   1.582  13.437 -0.2888  0.0482  0.1587
  681TMC3    C810081   2.001   1.527  13.775 -0.5382  0.8602  0.1725
  681TMC3    O110082   2.412   1.518  13.511  0.7488 -0.0110  0.4277
  681TMC3    O210083   2.092   1.513  13.855  0.5795  1.0729 -0.6470
  682MPD2     C10084   3.976   3.366  10.283  0.5309  0.1752  0.8100
  682MPD2    C110085   3.949   3.233  10.307  0.3179  1.0209  0.1421
  682MPD2    C210086   3.902   3.199  10.432  0.5601 -0.4759 -0.0253
  682MPD2    C310087   3.871   3.295  10.529 -0.4574  0.4406  0.1583
  682MPD2    C410088   3.907   3.420  10.503 -0.0364 -0.2420  0.7356
  682MPD2    C510089   3.961   3.453  10.385 -0.0351 -0.0896 -0.1939
  682MPD2     H10090   3.898   3.094  10.456  2.2760 -0.3786  0.6977
  682MPD2    H110091   3.887   3.493  10.580 -1.8063 -2.1575  2.1103
  682MPD2    H210092   4.031   3.399  10.196 -0.1335 -0.6668  0.0635
  682MPD2    H310093   3.967   3.559  10.362 -2.1839  0.1084  0.1566
  682MPD2     N10094   3.828   3.259  10.657  0.0809 -0.4272 -0.5168
  682MPD2    H510095   3.801   3.339  10.713 -0.9934 -0.3880 -1.1042
  682MPD2    N110096   3.958   3.135  10.205  0.0276 -0.0807  0.3360
  682MPD2    H710097   3.911   3.048  10.226 -0.0609  0.1880  1.2721
  683TMC3    C110098   3.786   3.236  11.055 -0.3240 -0.3770  0.5112
  683TMC3    C210099   3.713   3.131  11.104  0.4293  0.0604 -0.0624
  683TMC3    C310100   3.673   3.029  11.023 -0.2969  0.5476 -0.1112
  683TMC3    C410101   3.835   3.239  10.926 -0.7806 -0.0947 -0.2385
  683TMC3    C510102   3.798   3.128  10.852 -0.0345 -1.2203  0.0006
  683TMC3    C610103   3.711   3.027  10.892 -0.5287 -0.4877  0.2231
  683TMC3     C10104   3.795   3.363  11.124 -0.3961 -0.2052 -0.6743
  683TMC3     O10105   3.710   3.380  11.208  0.1771  0.0310 -0.8280
  683TMC3     H10106   3.683   3.136  11.208  1.4618  0.8172  0.2037
  683TMC3    H110107   3.901   3.319  10.896 -0.0763 -0.3187  0.7060
  683TMC3    H210108   3.684   2.946  10.825  0.6319 -0.7425  0.0626
  683TMC3    C710109   3.819   3.133  10.710  0.0294  0.0447 -0.5095
  683TMC3    C810110   3.587   2.921  11.070  1.0149 -0.6566 -0.0888
  683TMC3    O110111   3.842   3.025  10.662  0.0002 -0.0865  0.2354
  683TMC3    O210112   3.560   2.840  10.983 -0.5233  0.5076  0.3787
  684MPD2     C10113   2.501   2.185  16.298 -0.1238 -0.6632 -0.1126
  684MPD2    C110114   2.636   2.207  16.285  0.5150  0.3473  0.6201
  684MPD2    C210115   2.682   2.333  16.328 -0.2549 -0.9916  0.2675
  684MPD2    C310116   2.598   2.428  16.381  0.3115  0.7505  0.7244
  684MPD2    C410117   2.464   2.396  16.394 -0.1425  0.3178  0.1722
  684MPD2    C510118   2.427   2.271  16.369  0.4799  0.2254 -0.2482
  684MPD2     H10119   2.787   2.352  16.309 -0.9382  2.0019 -0.5003
  684MPD2    H110120   2.393   2.474  16.416 -0.9732 -0.9151  1.8827
  684MPD2    H210121   2.441   2.105  16.255  1.3808 -1.1311 -1.3443
  684MPD2    H310122   2.323   2.250  16.393  0.6409 -0.8146 -0.4645
  684MPD2     N10123   2.642   2.564  16.403 -0.3658 -0.5245  0.5186
  684MPD2    H510124   2.577   2.639  16.422  0.3054  0.4378 -0.9430
  684MPD2    N110125   2.725   2.130  16.205  0.2896  0.1277  0.2131
  684MPD2    H710126   2.821   2.163  16.207 -0.1569  1.5146 -1.9168
  685TMC3    C110127   2.808   2.014  16.027  0.5480  0.1986  0.3655
  685TMC3    C210128   2.761   2.032  15.906 -0.1901  0.6970  0.6699
  685TMC3    C310129   2.816   2.121  15.821  0.2776 -0.6153  0.0984
  685TMC3    C410130   2.920   2.079  16.073 -0.7560  0.0117  0.4263
  685TMC3    C510131   2.972   2.176  15.994  0.0136 -0.3475  0.3471
  685TMC3    C610132   2.917   2.209  15.874 -0.0942 -0.4043 -0.2077
  685TMC3     C10133   2.693   2.029  16.114 -0.0301  0.5158  0.6563
  685TMC3     O10134   2.585   2.013  16.058 -0.1574 -0.0273  0.8140
  685TMC3     H10135   2.694   1.960  15.862 -0.2290  1.2613 -0.1935
  685TMC3    H110136   2.978   2.052  16.161  0.5215  0.6999 -0.2003
  685TMC3    H210137   2.937   2.305  15.827 -0.9447  0.1299  0.5290
  685TMC3    C710138   3.065   2.257  16.075 -0.1564 -0.2596  0.2827
  685TMC3    C810139   2.720   2.179  15.731  0.2030 -0.5400  0.2359
  685TMC3    O110140   3.029   2.274  16.191 -0.7345  0.4502 -0.4034
  685TMC3    O210141   2.764   2.242  15.631 -0.1273  0.0122 -0.7411
  686MPD2     C10142   3.721   2.081  15.512 -0.5570  0.1291 -0.1856
  686MPD2    C110143   3.795   2.071  15.621  0.6567  0.1676 -0.8798
  686MPD2    C210144   3.893   1.978  15.631 -0.0258 -1.0880 -0.0532
  686MPD2    C310145   3.905   1.874  15.540  0.4009  0.0466 -0.1572
  686MPD2    C410146   3.824   1.872  15.429  0.2648  0.2941 -0.8504
  686MPD2    C510147   3.735   1.975  15.425  0.0893 -0.1118 -0.2763
  686MPD2     H10148   3.955   1.976  15.720  2.1596  0.1698 -1.5372
  686MPD2    H110149   3.829   1.790  15.358 -2.8873  0.5429 -1.3497
  686MPD2    H210150   3.655   2.162  15.482  1.0088  0.6981 -2.1065
  686MPD2    H310151   3.675   1.980  15.335  0.4869  1.6061 -0.4471
  686MPD2     N10152   3.996   1.769  15.549  0.1703  0.2076  0.6580
  686MPD2    H510153   4.009   1.725  15.459 -0.9735  0.7520  0.2262
  686MPD2    N110154   3.773   2.170  15.719  1.0509  0.5787 -0.1319
  686MPD2    H710155   3.703   2.241  15.698  0.0324 -0.1937  0.6511
  687TMC3    C110156   4.002   1.725  15.786  0.8687 -0.4256  0.1716
  687TMC3    C210157   3.867   1.725  15.801  0.4475 -0.3797 -0.3186
  687TMC3    C310158   3.805   1.734  15.924 -0.4110 -0.3694 -0.1576
  687TMC3    C410159   4.086   1.728  15.889 -0.4487 -0.1877 -0.2101
  687TMC3    C510160   4.026   1.752  16.014  0.3042 -0.2563 -0.6326
  687TMC3    C610161   3.886   1.754  16.033 -0.0095  0.1808  0.0929
  687TMC3     C10162   4.069   1.719  15.659  0.2838  0.1299  0.2193
  687TMC3     O10163   4.176   1.664  15.656  0.2706  0.3576  0.1549
  687TMC3     H10164   3.813   1.709  15.708  1.0434  1.5729 -0.9957
  687TMC3    H110165   4.194   1.727  15.881 -0.4253 -0.5902  0.1577
  687TMC3    H210166   3.842   1.780  16.128 -0.4091 -1.1735  0.2757
  687TMC3    C710167   4.101   1.840  16.092  0.2211 -0.0396 -0.4982
  687TMC3    C810168   3.673   1.784  15.931  0.0622  0.4617  0.3233
  687TMC3    O110169   4.216   1.812  16.103  0.4790 -0.2102  0.1974
  687TMC3    O210170   3.639   1.801  16.048  0.6349  0.9844  0.2685
  688MPD2     C10171   3.001   1.202  17.604 -0.6144  0.0876  0.4506
  688MPD2    C110172   2.972   1.070  17.641 -0.2960  0.8099 -0.3149
  688MPD2    C210173   3.005   0.972  17.551 -0.1291 -0.5238  0.0402
  688MPD2    C310174   3.083   1.004  17.440  0.1639 -0.8777  0.9335
  688MPD2    C410175   3.123   1.135  17.420  0.1278 -0.0975  0.2013
  688MPD2    C510176   3.081   1.232  17.500  0.9105 -0.1133  0.3772
  688MPD2     H10177   2.990   0.866  17.573 -0.6603 -0.5034 -0.2251
  688MPD2    H110178   3.197   1.164  17.347  0.7050  0.2814  0.9493
  688MPD2    H210179   2.969   1.287  17.663  1.5421 -0.1356  1.9304
  688MPD2    H310180   3.120   1.333  17.489  1.5657 -0.5040 -0.9233
  688MPD2     N10181   3.143   0.917  17.348  0.4403 -0.0310  0.3346
  688MPD2    H510182   3.212   0.950  17.282 -1.5083 -1.3486 -2.3737
  688MPD2    N110183   2.894   1.037   0.058 -0.8106 -0.1410 -0.6497
  688MPD2    H710184   2.858   0.943   0.071  0.5220 -0.4014  1.1688
  689TMC3    C110185   2.811   1.087   0.276  0.1629  0.7694  0.5234
  689TMC3    C210186   2.832   1.157   0.398 -0.6721  0.2682 -0.2097
  689TMC3    C310187   2.782   1.110   0.510  0.0084 -0.1862 -0.7638
  689TMC3    C410188   2.751   0.965   0.277 -0.9005  0.0442 -0.0416
  689TMC3    C510189   2.705   0.923   0.399  0.2935  0.9648  0.5562
  689TMC3    C610190   2.716   0.991   0.521 -0.4416  0.1604 -0.3416
  689TMC3     C10191   2.885   1.127   0.161 -0.1407 -0.9310  0.4232
  689TMC3     O10192   2.960   1.224   0.182 -0.0366  0.5291 -0.6406
  689TMC3     H10193   2.893   1.246   0.409  0.8316 -0.2497 -4.1959
  689TMC3    H110194   2.732   0.912   0.184  1.5059  0.2028 -0.6279
  689TMC3    H210195   2.674   0.952   0.613 -1.6806  0.1415 -0.9097
  689TMC3    C710196   2.672   0.782   0.417  0.3549  0.2304  0.0386
  689TMC3    C810197   2.753   1.210   0.608  0.3031  0.0170  0.4615
  689TMC3    O110198   2.701   0.736   0.526  0.1982  0.3783 -0.1742
  689TMC3    O210199   2.636   1.219   0.650 -0.0329  0.4298 -0.0277
  690MPD2     C10200   0.736   2.960  15.681  0.1795  0.1010  0.2812
  690MPD2    C110201   0.690   2.957  15.557 -0.2973 -0.5241  0.6926
  690MPD2    C210202   0.781   2.969  15.448 -0.1468  0.5050  0.2558
  690MPD2    C310203   0.919   2.998  15.461 -0.2939  0.5584  0.4480
  690MPD2    C410204   0.961   3.003  15.595 -0.6207  1.1292  0.3671
  690MPD2    C510205   0.870   2.976  15.694  0.4039 -0.7090 -0.3478
  690MPD2     H10206   0.745   2.965  15.346 -2.3112 -2.4798  1.1697
  690MPD2    H110207   1.062   3.031  15.621  0.2486 -1.3031 -0.4504
  690MPD2    H210208   0.680   2.955  15.774  1.3035 -0.8738  0.9083
  690MPD2    H310209   0.908   2.986  15.795  4.1383  0.4540 -1.8488
  690MPD2     N10210   1.006   3.027  15.353 -0.0496  0.0430  0.0976
  690MPD2    H510211   0.973   3.007  15.259  1.2371 -0.8084 -0.1754
  690MPD2    N110212   0.550   2.926  15.536 -0.1504  0.4343  0.3360
  690MPD2    H710213   0.523   2.920  15.438  0.9378 -0.8813  0.1240
  691TMC3    C110214   0.347   2.819  15.569  0.3588  0.0428  0.5561
  691TMC3    C210215   0.239   2.827  15.652 -0.3737 -0.1291  0.0927
  691TMC3    C310216   0.152   2.722  15.632  0.2729 -0.2616 -0.6944
  691TMC3    C410217   0.370   2.710  15.489  0.2241 -0.5111  0.1175
  691TMC3    C510218   0.287   2.601  15.491 -0.8845 -0.1667 -0.9534
  691TMC3    C610219   0.171   2.607  15.556  0.6371 -0.2653  0.4083
  691TMC3     C10220   0.465   2.877  15.627 -0.2386 -0.5290 -0.2565
  691TMC3     O10221   0.483   2.846  15.742 -0.1988 -0.3022  0.0296
  691TMC3     H10222   0.230   2.904  15.728 -0.5678  1.4327 -1.5139
  691TMC3    H110223   0.469   2.688  15.451  0.7935 -1.5199  2.1662
  691TMC3    H210224   0.088   2.537  15.558  0.9259 -0.6407 -0.4404
  691TMC3    C710225   0.326   2.481  15.421  1.0581 -0.1788  0.7646
  691TMC3    C810226   0.053   2.706  15.740 -0.1873  0.6992  0.3421
  691TMC3    O110227   0.424   2.490  15.342  0.5117  0.3334  0.3455
  691TMC3    O210228   0.000   2.596  15.751 -0.2119  0.3497 -0.3049
  692TMC3    C110229   2.152   3.823  15.902  0.4233  0.3900  0.1644
  692TMC3    C210230   2.274   3.877  15.921  0.8210 -0.1680 -0.6583
  692TMC3    C310231   2.381   3.791  15.949  0.9780  0.0082  0.1123
  692TMC3    C410232   2.129   3.683  15.905 -0.2428 -0.7713  0.2761
  692TMC3    C510233   2.238   3.602  15.933 -0.3072  0.1265  0.5007
  692TMC3    C610234   2.359   3.653  15.973  0.7303  1.0282  0.6353
  692TMC3     C10235   2.035   3.907  15.927  0.1694 -0.3071  0.3101
  692TMC3     O10236   1.928   3.850  15.950  0.0991 -0.5143  0.6083
  692TMC3     H10237   2.293   3.977  15.884 -2.3372  0.3933 -0.7959
  692TMC3    H110238   2.029   3.645  15.890 -0.6635  1.2734 -2.0610
  692TMC3    H210239   2.448   3.593  15.984  0.3211  0.4265  0.6913
  692TMC3    C710240   2.221   3.458  15.948  0.3301 -0.2207 -0.0527
  692TMC3    C810241   2.470   3.840  16.054  0.1044 -0.1741  0.9976
  692TMC3    O110242   2.140   3.410  15.875  0.2856  0.0698  0.2947
  692TMC3    O210243   2.524   3.751  16.114 -0.1822  0.8439  0.4968
  693MPD2     C10244   1.310   2.590  11.170 -0.3539  0.6019 -0.5735
  693MPD2    C110245   1.318   2.458  11.122  0.1914 -0.1638 -0.5433
  693MPD2    C210246   1.442   2.396  11.124 -0.5766  0.1314  0.4360
  693MPD2    C310247   1.550   2.465  11.175 -0.3144 -0.5681 -0.5752
  693MPD2    C410248   1.542   2.589  11.235 -0.0906 -0.0565  0.1771
  693MPD2    C510249   1.423   2.654  11.228 -0.1507  0.1428  0.3959
  693MPD2     H10250   1.450   2.296  11.084 -1.0377  0.7470 -1.2202
  693MPD2    H110251   1.625   2.647  11.277 -1.5402  0.4776  2.2918
  693MPD2    H210252   1.219   2.649  11.174 -0.9178 -0.3096  0.0668
  693MPD2    H310253   1.421   2.758  11.259 -1.0018 -0.1648  1.3930
  693MPD2     N10254   1.677   2.404  11.201 -0.3719 -0.0357  0.4019
  693MPD2    H510255   1.750   2.453  11.251 -0.8865  0.1151  1.0126
  693MPD2    N110256   1.201   2.386  11.095 -0.3840 -0.2760  0.2252
  693MPD2    H710257   1.111   2.429  11.117 -0.4826  0.4105 -1.5392
  694TMC3    C110258   1.066   2.194  11.060  0.8174 -0.6440  0.1239
  694TMC3    C210259   1.014   2.117  10.963  0.3483  0.2563 -0.5194
  694TMC3    C310260   0.885   2.060  10.980  0.5522 -0.0489 -0.7183
  694TMC3    C410261   0.997   2.222  11.174 -0.4077 -0.8948 -0.2209
  694TMC3    C510262   0.875   2.163  11.184  0.4628 -0.1766  0.9668
  694TMC3    C610263   0.812   2.092  11.086 -0.2851  0.6122 -0.5453
  694TMC3     C10264   1.193   2.260  11.049  0.0548  0.3546  0.7317
  694TMC3     O10265   1.269   2.195  10.982 -0.8455  0.0792 -0.4042
  694TMC3     H10266   1.075   2.094  10.876  1.4630 -0.6394  0.4903
  694TMC3    H110267   1.043   2.265  11.262 -2.0673  1.7488 -0.6447
  694TMC3    H210268   0.709   2.057  11.093 -0.8143  2.4104  0.6561
  694TMC3    C710269   0.804   2.192  11.307 -0.4496 -0.1183  0.1165
  694TMC3    C810270   0.811   1.996  10.870 -0.4875  0.2571 -0.1062
  694TMC3    O110271   0.845   2.295  11.360  0.2490 -0.5664  0.4503
  694TMC3    O210272   0.698   1.949  10.899  0.1080 -0.0386 -0.1767
  695MPD2     C10273   2.425   3.605  14.033  0.5866  0.1724  0.0327
  695MPD2    C110274   2.461   3.623  14.163 -0.2762  0.0491 -0.1903
  695MPD2    C210275   2.368   3.588  14.259 -0.3205  0.1271  0.1463
  695MPD2    C310276   2.241   3.533  14.225 -0.7187 -0.1178  0.1903
  695MPD2    C410277   2.219   3.496  14.097 -0.5139  0.1943 -0.2422
  695MPD2    C510278   2.312   3.537  14.003  0.3016  0.1995 -0.0808
  695MPD2     H10279   2.402   3.615  14.358  1.2929 -1.0242 -0.0779
  695MPD2    H110280   2.131   3.436  14.076  0.2578 -0.2634 -2.1413
  695MPD2    H210281   2.493   3.631  13.952  0.5401  0.8613  0.2083
  695MPD2    H310282   2.282   3.501  13.905 -1.6494 -1.0954  0.9839
  695MPD2     N10283   2.158   3.507  14.329  0.1905  0.5312 -0.2030
  695MPD2    H510284   2.198   3.525  14.420 -0.0437 -3.8954  0.7702
  695MPD2    N110285   2.585   3.680  14.203  0.4613  0.7559  0.0486
  695MPD2    H710286   2.610   3.682  14.302  0.7835 -1.2874 -0.0021
  696TMC3    C110287   1.965   3.486  14.444 -0.1369 -0.3073  0.0275
  696TMC3    C210288   2.053   3.525  14.545 -0.3613  0.4586  0.5416
  696TMC3    C310289   2.001   3.623  14.633 -0.2942  1.1974 -0.2789
  696TMC3    C410290   1.839   3.535  14.434 -0.4168  0.5250  0.4516
  696TMC3    C510291   1.805   3.641  14.514  0.0988 -0.4006  0.0924
  696TMC3    C610292   1.879   3.689  14.621 -0.3593  0.1079  0.0596
  696TMC3     C10293   2.032   3.456  14.319  0.3148  0.3562  0.0868
  696TMC3     O10294   1.963   3.420  14.221 -0.0629 -0.3243  0.3817
  696TMC3     H10295   2.145   3.475  14.575 -1.2330 -1.4722 -0.0030
  696TMC3    H110296   1.772   3.497  14.358  3.6460  1.8749 -3.8181
  696TMC3    H210297   1.852   3.769  14.689  0.6687  0.4684  0.0500
  696TMC3    C710298   1.683   3.711  14.476  0.3306  0.0712  1.1050
  696TMC3    C810299   2.089   3.680  14.735 -1.0632 -0.5138  0.9801
  696TMC3    O110300   1.623   3.677  14.369  0.1112 -0.2363 -0.1345
  696TMC3    O210301   2.173   3.608  14.788  0.1449  0.2894  0.1639
  697MPD2     C10302   1.785   1.047  15.508 -0.4421  1.0941  0.1399
  697MPD2    C110303   1.728   0.985  15.401  0.1902 -0.3365 -0.2833
  697MPD2    C210304   1.693   1.054  15.288 -0.4009  0.0165 -0.6534
  697MPD2    C310305   1.718   1.192  15.283  0.2748 -0.4836  0.0774
  697MPD2    C410306   1.758   1.261  15.401 -0.1622  0.5337 -0.5926
  697MPD2    C510307   1.799   1.182  15.509  0.2183  0.1746 -0.0143
  697MPD2     H10308   1.657   1.004  15.199 -0.8374  0.4083 -0.6927
  697MPD2    H110309   1.759   1.367  15.421 -1.9215  0.4583 -0.0982
  697MPD2    H210310   1.812   0.997  15.601 -0.7611 -1.1304 -0.9680
  697MPD2    H310311   1.830   1.229  15.602  1.2186 -1.2197  0.3564
  697MPD2     N10312   1.689   1.256  15.165  0.3387 -0.2027 -0.0914
  697MPD2    H510313   1.664   1.191  15.091  2.0355  1.0857 -1.7989
  697MPD2    N110314   1.731   0.847  15.393  0.0453 -0.0263 -0.2369
  697MPD2    H710315   1.700   0.816  15.301 -1.2578  1.0763 -0.1847
  698TMC3    C110316   1.641   1.434  15.020  0.2001  0.2791 -0.3241
  698TMC3    C210317   1.660   1.567  14.987  0.5606 -0.1589 -0.3314
  698TMC3    C310318   1.624   1.614  14.862  0.5255 -0.3677  0.4770
  698TMC3    C410319   1.589   1.349  14.925 -0.0590  0.0153  0.2398
  698TMC3    C510320   1.563   1.398  14.801 -0.4158  0.0590  0.5447
  698TMC3    C610321   1.578   1.528  14.767 -0.3931  0.3451  1.0757
  698TMC3     C10322   1.713   1.389  15.131  0.3454 -0.7284  0.6169
  698TMC3     O10323   1.767   1.476  15.197  0.1207  0.3025 -0.2459
  698TMC3     H10324   1.684   1.644  15.059 -1.4433 -1.4935  1.7687
  698TMC3    H110325   1.574   1.244  14.947  1.6181  0.5617  4.0177
  698TMC3    H210326   1.561   1.554  14.663 -1.4723 -1.9806  0.6675
  698TMC3    C710327   1.547   1.322  14.687 -1.0714  0.0350  0.1841
  698TMC3    C810328   1.660   1.747  14.824  0.5794  0.1251  0.3346
  698TMC3    O110329   1.436   1.295  14.644  0.5553 -0.5508  0.5391
  698TMC3    O210330   1.586   1.809  14.748 -0.2712 -0.8316  0.1578
  699TMC3    C110331   1.852   4.447  13.050  0.0079 -0.0239  0.4799
  699TMC3    C210332   1.940   4.475  13.156  0.0398  0.2304  0.7186
  699TMC3    C310333   1.894   4.455  13.287 -0.2951 -0.3282 -0.2516
  699TMC3    C410334   1.719   4.427  13.076  0.0372  0.6226 -0.0707
  699TMC3    C510335   1.681   4.422  13.204 -0.3350  0.8731  0.5303
  699TMC3    C610336   1.760   4.437  13.312  0.0626 -0.6018  0.6677
  699TMC3     C10337   1.903   4.437  12.917  0.0474  0.6064  0.1545
  699TMC3     O10338   1.832   4.393  12.828 -0.3817  0.4742 -0.0452
  699TMC3     H10339   2.046   4.465  13.137 -0.7053 -5.1530 -0.5552
  699TMC3    H110340   1.656   4.395  12.995  1.3917  3.9322 -2.4067
  699TMC3    H210341   1.731   4.436  13.416 -1.2302 -1.5697  0.2955
  699TMC3    C710342   1.549   4.380  13.241  0.0908 -0.4964  0.0868
  699TMC3    C810343   1.968   4.359  13.374  0.2131 -0.6156 -0.5541
  699TMC3    O110344   1.535   4.336  13.351 -0.7707  0.2732 -0.8423
  699TMC3    O210345   2.080   4.377  13.411  0.0483 -0.1642 -0.6623
  700TMC3    C110346   0.868   1.344  17.386  0.0595  0.5227 -0.0551
  700TMC3    C210347   0.909   1.213  17.376 -0.6167  0.4054 -0.3338
  700TMC3    C310348   0.995   1.161  17.469 -0.3991  0.5232 -0.2775
  700TMC3    C410349   0.922   1.428  17.478  0.7504  0.0956  0.4689
  700TMC3    C510350   1.016   1.375  17.565  0.9455 -0.2300 -0.0757
  700TMC3    C610351   1.067   1.246  17.555 -0.1240  0.1909 -0.6655
  700TMC3     C10352   0.831   1.410  17.261  0.0366 -0.6659  0.7058
  700TMC3     O10353   0.728   1.368  17.217  0.3783 -0.1571 -0.2123
  700TMC3     H10354   0.893   1.153  17.287  0.6080  0.7456 -0.7822
  700TMC3    H110355   0.889   1.531  17.482 -0.6648 -0.3471  0.0458
  700TMC3    H210356   1.132   1.197  17.626  1.6827  2.4387 -0.8022
  700TMC3    C710357   1.088   1.479  17.642 -0.5873  0.3335  0.0763
  700TMC3    C810358   1.063   1.048  17.417 -0.2765  0.6847  0.8156
  700TMC3    O110359   1.068   1.599  17.624  0.0225  0.5009  0.3687
  700TMC3    O210360   1.178   1.039  17.441  0.5952 -0.0683  0.6452
  701TMC3    C110361   1.198   0.029  15.447 -0.7334 -0.0759 -0.5029
  701TMC3    C210362   1.185   0.014  15.307  0.1314  0.1217  0.7935
  701TMC3    C310363   1.247   0.111  15.233  0.3689 -0.1156  0.1325
  701TMC3    C410364   1.262   0.135  15.505 -0.7149  0.4491 -0.3695
  701TMC3    C510365   1.328   0.223  15.420  0.7496  1.3888  0.4468
  701TMC3    C610366   1.322   0.206  15.288  0.5652  0.0606 -0.1593
  701TMC3     C10367   1.122   4.663  15.537 -0.4094 -0.6364 -0.5702
  701TMC3     O10368   1.096   4.700  15.652  0.0071  0.3557  0.0365
  701TMC3     H10369   1.127   4.665  15.254 -2.1326  1.3186  1.5443
  701TMC3    H110370   1.265   0.150  15.613 -1.7304 -0.2922 -0.2469
  701TMC3    H210371   1.377   0.273  15.222  0.8665  0.1654  0.1959
  701TMC3    C710372   1.373   0.354  15.462 -0.5583  0.0650  0.3118
  701TMC3    C810373   1.223   0.133  15.088  0.2042  0.2643  0.4042
  701TMC3    O110374   1.426   0.423  15.376 -0.5151  0.6104  0.3648
  701TMC3    O210375   1.291   0.220  15.032  0.2668 -0.2713  0.1953
  702MPD2     C10376   0.030   2.806   9.871 -0.2013 -0.0951  0.4898
  702MPD2    C110377   0.136   2.821   9.964 -0.2426  0.2155  0.2164
  702MPD2    C210378   0.236   2.916   9.951 -0.5380  0.2268 -0.0584
  702MPD2    C310379   0.215   3.008   9.851  0.4117 -0.3293  0.1195
  702MPD2    C410380   0.108   2.999   9.763  0.1522 -0.1985 -0.6251
  702MPD2    C510381   0.022   2.891   9.770  0.2110 -0.0585 -0.8004
  702MPD2     H10382   0.299   2.938  10.037  1.1068 -1.3826 -0.8396
  702MPD2    H110383   0.090   3.066   9.679  2.8971  2.1660  0.6776
  702MPD2    H210384   4.678   2.730   9.880 -1.6435  0.8622 -4.1937
  702MPD2    H310385   4.667   2.879   9.699 -0.8088 -0.9759  0.5221
  702MPD2     N10386   0.280   3.125   9.846 -0.0332 -0.1873  0.4735
  702MPD2    H510387   0.230   3.199   9.798 -0.7032 -0.4195  0.8119
  702MPD2    N110388   0.144   2.739  10.077  0.6811  0.4610  0.2355
  702MPD2    H710389   0.209   2.764  10.151 -0.8212 -1.8007  2.3001
  703TMC3    C110390   0.442   3.278   9.897  0.5698  0.2700 -0.0275
  703TMC3    C210391   0.344   3.369   9.900 -0.2141 -0.4544 -0.4601
  703TMC3    C310392   0.386   3.498   9.903  0.4958  0.1415 -0.7123
  703TMC3    C410393   0.570   3.306   9.909 -0.3660 -0.4212 -0.4440
  703TMC3    C510394   0.607   3.441   9.907  0.2939  0.2008  0.4996
  703TMC3    C610395   0.513   3.539   9.902 -0.0794  0.1840  0.2804
  703TMC3     C10396   0.404   3.140   9.894  0.8454  0.1570 -0.5078
  703TMC3     O10397   0.495   3.063   9.903  0.1701  0.2036 -0.2514
  703TMC3     H10398   0.239   3.342   9.902 -0.4718  0.4065 -3.6880
  703TMC3    H110399   0.643   3.226   9.902 -0.7120 -0.6917 -0.9447
  703TMC3    H210400   0.533   3.645   9.915 -0.2998  0.2341  0.2220
  703TMC3    C710401   0.747   3.486   9.902  0.9429  0.1795 -0.0974
  703TMC3    C810402   0.285   3.602   9.897 -0.2637 -0.0635  0.3034
  703TMC3    O110403   0.779   3.593   9.855  0.3133  0.0793 -0.2827
  703TMC3    O210404   0.322   3.715   9.877 -0.1967 -0.5098 -0.3499
  704TMC3    C110405   3.488   1.243  12.423  0.4409  0.5126 -0.8192
  704TMC3    C210406   3.492   1.187  12.296 -0.1140  1.0230  0.6396
  704TMC3    C310407   3.616   1.153  12.248 -0.8162 -0.1505  0.5995
  704TMC3    C410408   3.607   1.234  12.498  0.3709 -0.7384  0.3838
  704TMC3    C510409   3.711   1.161  12.459 -0.3427 -1.0947 -0.3584
  704TMC3    C610410   3.724   1.128  12.324  0.5311 -0.4733  0.3647
  704TMC3     C10411   3.384   1.203  12.507 -0.1738  0.4933 -0.2449
  704TMC3     O10412   3.356   1.271  12.607  0.2629 -0.3084 -0.2228
  704TMC3     H10413   3.407   1.185  12.229  0.1861 -1.0264  0.3175
  704TMC3    H110414   3.611   1.276  12.598 -2.6168  1.6708 -0.5493
  704TMC3    H210415   3.807   1.080  12.274  2.0577  1.4725  1.0240
  704TMC3    C710416   3.739   1.043  12.542 -1.0091  0.2790  0.1684
  704TMC3    C810417   3.616   1.118  12.108  0.1093  0.4299 -0.3600
  704TMC3    O110418   3.735   0.937  12.483 -0.5331  0.6496 -0.4793
  704TMC3    O210419   3.514   1.064  12.071  0.4738 -0.2482 -0.0069
  705MPD2     C10420   2.885   3.673  17.124  0.1596 -0.7578  0.0443
  705MPD2    C110421   2.813   3.726  17.019 -0.1512 -0.3489 -0.2873
  705MPD2    C210422   2.683   3.761  17.055  0.1248 -0.0373  0.2488
  705MPD2    C310423   2.616   3.729  17.173 -0.0344  0.1275 -0.5490
  705MPD2    C410424   2.692   3.674  17.269 -0.3171  0.3688 -0.1437
  705MPD2    C510425   2.827   3.653  17.250  0.2113 -0.0402  0.8825
  705MPD2     H10426   2.623   3.799  16.974  0.6223  4.2143  1.8153
  705MPD2    H110427   2.650   3.648  17.366  2.8019 -0.4835  1.0038
  705MPD2    H210428   2.990   3.647  17.118  0.0487 -1.2155  0.0964
  705MPD2    H310429   2.885   3.607  17.329 -0.6704  0.3992  1.7801
  705MPD2     N10430   2.480   3.750  17.193  0.1256 -0.1773 -0.0893
  705MPD2    H510431   2.450   3.730  17.288 -1.5628 -1.4385 -0.8953
  705MPD2    N110432   2.852   3.757  16.884 -0.1662  0.9072  0.3918
  705MPD2    H710433   2.781   3.803  16.828 -0.1521  1.4035  0.7897
  706TMC3    C110434   3.158   3.851  16.536  0.4741  0.0389 -0.5858
  706TMC3    C210435   3.098   3.969  16.502 -0.3436  0.0562 -0.7801
  706TMC3    C310436   3.003   4.016  16.590  0.0654 -0.2696 -0.2066
  706TMC3    C410437   3.119   3.771  16.635 -0.0852  0.0408  0.0844
  706TMC3    C510438   3.001   3.812  16.703  0.1962  0.1929  0.2539
  706TMC3    C610439   2.955   3.939  16.693  0.7915  1.1476  0.5939
  706TMC3     C10440   3.282   3.814  16.461  0.1306 -0.2661  0.0174
  706TMC3     O10441   3.375   3.780  16.530 -0.1033 -0.1936 -0.0738
  706TMC3     H10442   3.144   4.032  16.426 -1.6755  4.0398  1.7233
  706TMC3    H110443   3.173   3.682  16.663 -0.9783 -0.3220  0.6616
  706TMC3    H210444   2.889   3.978  16.769 -0.1433  2.3603 -0.8464
  706TMC3    C710445   2.977   3.738  16.825 -0.8597  0.0386  0.7969
  706TMC3    C810446   2.941   4.152  16.568  0.0411 -0.5215 -0.2486
  706TMC3    O110447   3.064   3.666  16.872  0.7156 -0.0727 -0.0796
  706TMC3    O210448   2.957   4.197  16.457 -0.1751  0.6723 -0.0856
  707TMC3    C110449   3.805   2.433   1.417 -0.1978  0.3540  0.8756
  707TMC3    C210450   3.833   2.320   1.492 -0.1733 -0.0969  0.3425
  707TMC3    C310451   3.755   2.294   1.592  0.0101  0.2728  0.3866
  707TMC3    C410452   3.700   2.520   1.439  0.7178  0.2300 -0.0646
  707TMC3    C510453   3.617   2.482   1.542  0.1091  0.3536  0.6955
  707TMC3    C610454   3.642   2.374   1.623  0.0917 -0.8019  0.1527
  707TMC3     C10455   3.884   2.452   1.302  0.4920 -0.9817 -0.0329
  707TMC3     O10456   4.000   2.422   1.326 -0.1707  0.1814  0.2727
  707TMC3     H10457   3.930   2.273   1.485 -0.7013 -0.9727 -0.9611
  707TMC3    H110458   3.688   2.614   1.387  0.8390  1.3223  1.9054
  707TMC3    H210459   3.562   2.342   1.689 -0.3265 -0.1694 -0.0448
  707TMC3    C710460   3.479   2.526   1.528  0.1183  0.3580  0.0499
  707TMC3    C810461   3.781   2.172   1.666  0.3452  0.3592  0.1469
  707TMC3    O110462   3.389   2.460   1.579  0.4038  0.5669  0.1694
  707TMC3    O210463   3.739   2.178   1.784  0.0276  0.1846  0.2875
  708MPD2     C10464   0.300   2.250  13.430 -0.1204 -0.5004  0.4895
  708MPD2    C110465   0.391   2.148  13.412  0.5445  0.0350  0.1994
  708MPD2    C210466   0.447   2.101  13.527  0.6469  1.2540 -0.2118
  708MPD2    C310467   0.386   2.119  13.650 -0.4399 -0.0972  0.0598
  708MPD2    C410468   0.286   2.208  13.665 -0.6621 -0.2151  0.8114
  708MPD2    C510469   0.253   2.276  13.553 -0.0724  0.1590  0.1316
  708MPD2     H10470   0.533   2.036  13.515 -0.2776 -0.0221  0.0708
  708MPD2    H110471   0.233   2.224  13.758 -0.1216 -0.4767  1.1603
  708MPD2    H210472   0.252   2.307  13.352  0.8104 -0.1659  0.1587
  708MPD2    H310473   0.181   2.356  13.567  0.3427  0.1808  2.0435
  708MPD2     N10474   0.425   2.062  13.778 -0.6446  0.2591 -0.6296
  708MPD2    H510475   0.377   2.094  13.861  1.3882  0.4969  0.4527
  708MPD2    N110476   0.438   2.097  13.289 -0.0721  0.6396  0.1108
  708MPD2    H710477   0.503   2.019  13.291  1.9399  2.3712  2.6178
  709TMC3    C110478   0.510   2.088  13.069  0.8221  0.5261 -1.0125
  709TMC3    C210479   0.611   2.163  13.014  1.4885  0.8776  0.2473
  709TMC3    C310480   0.736   2.112  13.011  0.0611 -0.0184 -0.0791
  709TMC3    C410481   0.535   1.962  13.106 -0.5273 -0.0923 -0.5544
  709TMC3    C510482   0.661   1.905  13.098 -0.3170 -0.6702 -0.3736
  709TMC3    C610483   0.764   1.988  13.065 -0.5431 -0.1325 -0.0341
  709TMC3     C10484   0.423   2.155  13.163  0.2437  0.1443  0.7319
  709TMC3     O10485   0.360   2.256  13.132  0.5193 -0.5411 -0.1749
  709TMC3     H10486   0.600   2.269  12.992  2.0820  0.8928  0.0166
  709TMC3    H110487   0.446   1.905  13.128 -0.7470  0.6200  0.4013
  709TMC3    H210488   0.862   1.941  13.060 -0.7373 -0.5929  0.5152
  709TMC3    C710489   0.672   1.799  13.195 -0.6559 -0.0334 -0.5300
  709TMC3    C810490   0.842   2.157  12.918  0.3453  0.4558 -0.5225
  709TMC3    O110491   0.570   1.798  13.270 -0.4709 -0.0300  0.3146
  709TMC3    O210492   0.942   2.090  12.918 -0.1714 -0.2266  0.4456
  710TMC3    C110493   1.575   3.183   0.663 -0.0573  0.2991  0.6457
  710TMC3    C210494   1.668   3.269   0.621 -0.3766  0.0392 -0.4807
  710TMC3    C310495   1.800   3.242   0.660 -0.9442 -0.2779 -0.4377
  710TMC3    C410496   1.605   3.070   0.725 -0.6412  0.3716 -0.0050
  710TMC3    C510497   1.735   3.028   0.738  0.1580 -0.0286 -0.1616
  710TMC3    C610498   1.837   3.113   0.705 -0.3271 -0.2921 -0.3741
  710TMC3     C10499   1.440   3.228   0.673 -0.3178  0.6995  0.9612
  710TMC3     O10500   1.426   3.342   0.639 -0.2925  0.4944  0.7686
  710TMC3     H10501   1.642   3.359   0.567 -1.0423  0.5666  0.7180
  710TMC3    H110502   1.531   2.999   0.761 -2.0325  1.2801 -1.0699
  710TMC3    H210503   1.935   3.077   0.735 -0.8291 -1.4205 -0.0799
  710TMC3    C710504   1.755   2.919   0.831 -0.2969 -0.0940 -0.8557
  710TMC3    C810505   1.902   3.316   0.593 -0.1264  0.7285  0.6602
  710TMC3    O110506   1.670   2.892   0.919  0.3773 -0.0518 -0.0420
  710TMC3    O210507   1.881   3.385   0.497 -0.1830 -0.7125  0.5149
  711TMC3    C110508   1.746   4.169  15.295  0.1473  0.1558  0.3417
  711TMC3    C210509   1.816   4.282  15.304  0.0436 -0.4477  0.4870
  711TMC3    C310510   1.894   4.288  15.413  1.0194 -0.8241 -0.0799
  711TMC3    C410511   1.770   4.054  15.371 -0.6680  0.1770 -0.2781
  711TMC3    C510512   1.863   4.065  15.468  0.1334 -0.4171 -0.5221
  711TMC3    C610513   1.921   4.188  15.498  0.2134  0.1278 -0.0495
  711TMC3     C10514   1.635   4.168  15.200  0.0188  0.2639  0.5842
  711TMC3     O10515   1.580   4.067  15.170  0.1915  0.0697 -0.0778
  711TMC3     H10516   1.817   4.357  15.225  0.7550 -0.7508  0.2103
  711TMC3    H110517   1.710   3.968  15.346  2.2301 -2.0364  0.3495
  711TMC3    H210518   1.991   4.195  15.580 -0.1375 -2.1699  0.4277
  711TMC3    C710519   1.923   3.948  15.529 -0.0375  0.0677  0.6050
  711TMC3    C810520   1.921   4.421  15.452  0.1122 -0.1644  0.1338
  711TMC3    O110521   2.041   3.951  15.556 -0.8262  0.1691 -0.6158
  711TMC3    O210522   1.844   4.499  15.403 -0.9212 -0.4802  0.2473
  712MPD2     C10523   3.126   0.869  13.930  0.3537  0.0412  1.0736
  712MPD2    C110524   3.052   0.904  13.817  0.0271  0.7013 -0.3945
  712MPD2    C210525   3.054   1.037  13.771 -0.7186 -0.0209 -0.2333
  712MPD2    C310526   3.127   1.130  13.839  0.3106 -0.3579  0.0161
  712MPD2    C410527   3.206   1.096  13.946  0.2078  0.2149  0.2033
  712MPD2    C510528   3.202   0.969  13.992  0.2014 -0.0398 -0.3298
  712MPD2     H10529   2.996   1.064  13.684 -0.7157 -0.3665 -0.3392
  712MPD2    H110530   3.263   1.170  14.000  0.7733  1.9135 -2.7125
  712MPD2    H210531   3.148   0.768  13.964 -1.9179 -1.4561 -1.7932
  712MPD2    H310532   3.260   0.944  14.080  0.0949 -1.1873 -0.5876
  712MPD2     N10533   3.126   1.263  13.801 -0.2865  0.3634  0.0369
  712MPD2    H510534   3.200   1.319  13.841  1.6942 -3.0260  1.1259
  712MPD2    N110535   2.984   0.815  13.738 -0.0870 -0.4549  0.2053
  712MPD2    H710536   2.940   0.861  13.659  0.5361 -1.9255 -1.0051
  713TMC3    C110537   3.052   1.457  13.684 -0.1525  0.1678  0.1258
  713TMC3    C210538   3.163   1.462  13.602  0.1357  0.5145  0.3891
  713TMC3    C310539   3.142   1.523  13.481  0.0634 -0.0361 -0.1198
  713TMC3    C410540   2.947   1.545  13.666  0.1170  0.0214 -0.1467
  713TMC3    C510541   2.940   1.622  13.555  0.0126 -0.0122 -0.3043
  713TMC3    C610542   3.038   1.608  13.458  0.5684  0.1714  0.1030
  713TMC3     C10543   3.025   1.329  13.738 -0.5433  0.1019 -0.3137
  713TMC3     O10544   2.913   1.285  13.722  0.8268  0.2073 -0.2748
  713TMC3     H10545   3.244   1.389  13.605 -0.4459 -0.1037  1.0907
  713TMC3    H110546   2.875   1.554  13.747 -0.9676 -2.1135 -0.8584
  713TMC3    H210547   3.039   1.673  13.371 -0.8624  0.4107  0.2678
  713TMC3    C710548   2.849   1.733  13.549  0.0227  0.0450 -0.6690
  713TMC3    C810549   3.253   1.532  13.383 -0.0278  0.2648  0.4079
  713TMC3    O110550   2.815   1.761  13.437 -0.1292  0.2237  0.0473
  713TMC3    O210551   3.226   1.574  13.275  0.0057  0.1421 -0.3551
  714MPD2     C10552   4.642   3.979   1.635 -0.4091  0.5474 -0.1795
  714MPD2    C110553   4.698   3.924   1.525  0.0209  0.4066 -0.2578
  714MPD2    C210554   4.652   3.959   1.403 -0.2157 -0.8755 -0.0405
  714MPD2    C310555   4.546   4.043   1.388  0.7602  0.2615  0.0691
  714MPD2    C410556   4.486   4.096   1.496  0.3131  0.1971  0.2412
  714MPD2    C510557   4.536   4.062   1.616 -0.0535  0.4379  0.3133
  714MPD2     H10558   4.703   3.925   1.314  1.5782  1.6330  0.0227
  714MPD2    H110559   4.401   4.162   1.494  0.7235  0.7070 -0.2612
  714MPD2    H210560   4.686   3.963   1.733 -1.2381 -1.0902 -0.0682
  714MPD2    H310561   4.486   4.103   1.702 -0.6097 -1.9909  1.1613
  714MPD2     N10562   4.514   4.080   1.257 -0.0189 -0.2374  0.0644
  714MPD2    H510563   4.574   4.042   1.185  2.5034  1.6110  1.1805
  714MPD2    N110564   0.092   3.846   1.546  0.1144  1.2089  0.4045
  714MPD2    H710565   0.125   3.842   1.642 -2.7418 -1.2091  1.2967
  715TMC3    C110566   0.305   3.759   1.492  0.6253  0.9405 -0.4067
  715TMC3    C210567   0.384   3.678   1.411 -0.0599 -0.8875 -1.3316
  715TMC3    C310568   0.516   3.682   1.430  0.6037  0.2656 -0.5520
  715TMC3    C410569   0.360   3.839   1.594  0.0368  0.6965  0.1589
  715TMC3    C510570   0.497   3.835   1.611 -0.1624  0.0310 -0.5606
  715TMC3    C610571   0.578   3.751   1.532 -0.7271 -0.2159 -0.4524
  715TMC3     C10572   0.168   3.783   1.448 -0.0336  0.3565 -0.5175
  715TMC3     O10573   0.145   3.747   1.333 -0.3829  0.4814  0.0441
  715TMC3     H10574   0.345   3.617   1.331  0.5819  0.3000 -2.5618
  715TMC3    H110575   0.302   3.909   1.653  2.2311  2.1688  0.5817
  715TMC3    H210576   0.686   3.761   1.538 -0.4203 -3.7215 -0.5866
  715TMC3    C710577   0.572   3.927   1.693 -0.2254 -0.0052 -0.2192
  715TMC3    C810578   0.594   3.589   1.356 -0.2856 -0.0533  0.6512
  715TMC3    O110579   0.696   3.926   1.695 -0.4084  0.3703  0.0504
  715TMC3    O210580   0.538   3.521   1.272  0.4493 -0.1504 -0.7441
  716MPD2     C10581   0.894   2.996   9.891 -0.2152 -0.0671  0.1658
  716MPD2    C110582   0.842   2.906   9.806 -0.2022  0.3973 -0.4188
  716MPD2    C210583   0.812   2.780   9.858 -0.0678  0.4248  0.6150
  716MPD2    C310584   0.820   2.749   9.996 -0.0815  0.3255  0.4077
  716MPD2    C410585   0.873   2.853  10.075 -0.6009  0.0123 -0.2980
  716MPD2    C510586   0.917   2.968  10.020 -0.4521 -0.7885 -0.2554
  716MPD2     H10587   0.767   2.699   9.801 -0.9755  0.2528  1.5762
  716MPD2    H110588   0.883   2.843  10.183 -0.8627 -2.3484 -0.4970
  716MPD2    H210589   0.927   3.093   9.855  0.9407 -0.9721 -1.2070
  716MPD2    H310590   0.970   3.035  10.086 -0.5848 -0.9581  0.0254
  716MPD2     N10591   0.781   2.625  10.051 -0.2989 -0.0662 -0.5005
  716MPD2    H510592   0.761   2.551   9.985 -0.7635 -1.4969  1.2715
  716MPD2    N110593   0.834   2.944   9.673  0.3130  0.2417 -0.1304
  716MPD2    H710594   0.863   3.039   9.655 -0.7332  0.4613 -0.7010
  717TMC3    C110595   0.761   2.448  10.209  0.5539 -0.7786 -0.2439
  717TMC3    C210596   0.727   2.364  10.106  0.0894 -0.2101 -0.2730
  717TMC3    C310597   0.679   2.243  10.159  0.2366  0.1177  0.6591
  717TMC3    C410598   0.733   2.421  10.342 -0.0912 -0.4034  0.1434
  717TMC3    C510599   0.675   2.307  10.380  1.2935  0.1501 -1.0369
  717TMC3    C610600   0.661   2.214  10.293  0.1263  0.1669 -0.4541
  717TMC3     C10601   0.795   2.588  10.184  0.4202 -0.2694 -0.4648
  717TMC3     O10602   0.853   2.647  10.273  0.3463 -0.2111  0.1173
  717TMC3     H10603   0.729   2.396  10.002  1.3936 -0.3543 -0.2948
  717TMC3    H110604   0.727   2.495  10.421  0.3094 -0.9243  0.6595
  717TMC3    H210605   0.637   2.111  10.319 -0.4443  0.4098 -0.0302
  717TMC3    C710606   0.680   2.267  10.527  0.0094 -0.7827  0.6713
  717TMC3    C810607   0.647   2.136  10.067 -0.3796  0.4161  0.2438
  717TMC3    O110608   0.598   2.178  10.558  0.1204 -0.1571  0.2800
  717TMC3    O210609   0.640   2.019  10.115 -0.3233 -0.1922 -0.0359
  718MPD2     C10610   4.090   1.444  12.686  0.3263  0.2738  0.5941
  718MPD2    C110611   4.130   1.317  12.715  0.5996 -0.1545 -0.2584
  718MPD2    C210612   4.204   1.294  12.832 -0.5737 -0.6007  0.3596
  718MPD2    C310613   4.243   1.404  12.913 -0.4614  0.5656 -0.4656
  718MPD2    C410614   4.185   1.524  12.881 -0.6953 -0.5743 -0.2412
  718MPD2    C510615   4.107   1.546  12.775  0.1084 -0.0149  0.9591
  718MPD2     H10616   4.242   1.194  12.851  0.2170 -0.3878 -0.1106
  718MPD2    H110617   4.202   1.607  12.949  1.0204  0.3725 -1.8234
  718MPD2    H210618   4.018   1.464  12.608  0.0667  0.5683  0.9177
  718MPD2    H310619   4.062   1.642  12.752 -1.0163 -0.7766  0.0206
  718MPD2     N10620   4.331   1.383  13.023  0.1665 -0.1508 -0.2315
  718MPD2    H510621   4.363   1.286  13.033  1.8004  0.4135  0.0663
  718MPD2    N110622   4.100   1.202  12.629  0.0423  0.6869 -0.6740
  718MPD2    H710623   4.122   1.109  12.662  0.8842 -0.1490 -3.6707
  719TMC3    C110624   4.087   1.084  12.424  0.0216 -0.4225 -0.4880
  719TMC3    C210625   4.126   0.988  12.505  0.3263  0.0650 -0.3898
  719TMC3    C310626   4.254   0.937  12.481 -0.1705  0.5629 -0.2477
  719TMC3    C410627   4.153   1.115  12.308  0.0036 -0.3461 -0.1184
  719TMC3    C510628   4.283   1.070  12.297  0.5846  0.5332  0.5890
  719TMC3    C610629   4.334   0.976  12.381  0.1244 -0.3192  0.2467
  719TMC3     C10630   4.056   1.211  12.498  0.2513  0.3099 -0.2724
  719TMC3     O10631   4.022   1.307  12.429  0.3845  0.2743 -0.0824
  719TMC3     H10632   4.064   0.952  12.586 -1.8031  0.1903 -1.9629
  719TMC3    H110633   4.139   1.216  12.270  0.7327  0.4020  1.6055
  719TMC3    H210634   4.424   0.918  12.363 -0.1088 -0.7403  0.4391
  719TMC3    C710635   4.380   1.177  12.273  0.0720 -0.2056 -0.4708
  719TMC3    C810636   4.332   0.925  12.600 -0.2044  0.4201 -0.6459
  719TMC3    O110637   4.374   1.251  12.173  0.0298  0.6148 -0.0318
  719TMC3    O210638   4.435   0.987  12.600 -0.0651  0.0137  0.7427
  720MPD2     C10639   2.625   3.088  14.091 -0.2053  0.2409  0.5124
  720MPD2    C110640   2.728   3.094  13.999  0.3832  0.1413 -0.1193
  720MPD2    C210641   2.840   3.012  14.019  0.4932  0.0052 -0.0676
  720MPD2    C310642   2.845   2.930  14.131  0.1268  0.8938  0.1161
  720MPD2    C410643   2.749   2.938  14.231 -1.3858  0.4213  0.0072
  720MPD2    C510644   2.638   3.017  14.206 -0.4563 -0.8713  0.4211
  720MPD2     H10645   2.926   3.010  13.953  1.3499 -0.5995  1.0669
  720MPD2    H110646   2.763   2.901  14.332  2.9222  3.8685  0.6903
  720MPD2    H210647   2.530   3.138  14.073 -0.6135 -0.1784  1.5134
  720MPD2    H310648   2.560   3.028  14.280 -1.2305 -0.8500 -0.4059
  720MPD2     N10649   2.957   2.838  14.144 -0.1863 -0.1627 -0.5321
  720MPD2    H510650   3.024   2.840  14.068  0.6152  4.0572  0.3012
  720MPD2    N110651   2.727   3.160  13.875  0.0776  0.0367 -0.2099
  720MPD2    H710652   2.798   3.134  13.807  0.3830  0.3301 -0.0061
  721TMC3    C110653   3.088   2.647  14.220 -0.1111 -0.4507 -0.8120
  721TMC3    C210654   3.073   2.514  14.242 -0.4601 -0.9057 -0.0861
  721TMC3    C310655   3.175   2.441  14.295  0.4847  0.2208  0.0865
  721TMC3    C410656   3.203   2.707  14.263  0.3812 -0.4427  0.0451
  721TMC3    C510657   3.299   2.636  14.329  0.4419 -0.0086 -0.1027
  721TMC3    C610658   3.281   2.507  14.358 -0.6169  0.0046 -0.5382
  721TMC3     C10659   2.961   2.720  14.227  0.2230 -0.6739 -0.3329
  721TMC3     O10660   2.858   2.661  14.264  0.0338  0.1019  0.6463
  721TMC3     H10661   2.976   2.470  14.222 -1.8715  2.8807 -1.5354
  721TMC3    H110662   3.224   2.811  14.242  0.0911 -0.1810  1.0372
  721TMC3    H210663   3.364   2.451  14.402 -0.7978 -0.5334 -0.8760
  721TMC3    C710664   3.433   2.687  14.332 -0.0273  0.5546 -0.8858
  721TMC3    C810665   3.151   2.304  14.338 -0.1513 -0.4680 -0.5730
  721TMC3    O110666   3.471   2.764  14.239  0.1112 -0.5429 -0.4059
  721TMC3    O210667   3.085   2.233  14.272  0.4255  0.0153 -0.5813
  722MPD2     C10668   2.094   1.715  13.017  0.3586  0.4090  0.2334
  722MPD2    C110669   2.031   1.837  13.011 -0.6249  0.6594 -0.4869
  722MPD2    C210670   1.911   1.846  12.950  0.4995 -0.1231 -0.3091
  722MPD2    C310671   1.842   1.732  12.911 -0.3235  0.0245  0.4918
  722MPD2    C410672   1.898   1.612  12.939 -0.1786 -0.5293  0.3169
  722MPD2    C510673   2.029   1.600  12.987  0.4164  0.3122 -0.3602
  722MPD2     H10674   1.858   1.940  12.943 -0.3205 -0.5097  0.8105
  722MPD2    H110675   1.853   1.520  12.903 -0.4500 -0.7861  1.3094
  722MPD2    H210676   2.200   1.713  13.038  0.5683 -0.1370 -0.8558
  722MPD2    H310677   2.087   1.508  12.990  0.5649  0.3848 -1.1161
  722MPD2     N10678   1.716   1.752  12.850 -0.5266 -0.2403  0.1296
  722MPD2    H510679   1.687   1.848  12.831  3.2651  0.7695 -0.5551
  722MPD2    N110680   2.085   1.951  13.059  0.0189 -0.1506  0.1480
  722MPD2    H710681   2.042   2.037  13.025 -1.0818 -1.3206 -1.4329
  723TMC3    C110682   1.515   1.708  12.746  0.5146  0.2387 -0.0792
  723TMC3    C210683   1.401   1.630  12.730  0.4342  0.0586  0.0586
  723TMC3    C310684   1.293   1.682  12.663  0.3440  0.2009 -0.3151
  723TMC3    C410685   1.521   1.830  12.684  0.1776  0.3158 -0.9805
  723TMC3    C510686   1.408   1.882  12.626 -0.0838  0.1317  0.2753
  723TMC3    C610687   1.293   1.810  12.618 -0.0609  0.2502  0.8766
  723TMC3     C10688   1.633   1.652  12.805  0.2009  0.4372  0.4123
  723TMC3     O10689   1.627   1.536  12.842 -0.1225 -0.0623 -0.2712
  723TMC3     H10690   1.403   1.530  12.772  0.6574 -0.4179 -1.0903
  723TMC3    H110691   1.614   1.882  12.666  0.9724 -0.4548  0.9901
  723TMC3    H210692   1.206   1.848  12.566 -1.1192 -0.9350  1.7940
  723TMC3    C710693   1.423   1.995  12.529  0.2161 -0.4553  0.4007
  723TMC3    C810694   1.178   1.598  12.643 -0.3379 -0.2794  0.2714
  723TMC3    O110695   1.392   1.968  12.414  0.0032 -0.2005 -0.1161
  723TMC3    O210696   1.075   1.651  12.606  0.1934  0.5192 -0.3049
  724TMC3    C110697   3.535   3.887   9.562 -0.8266  0.2466 -0.3080
  724TMC3    C210698   3.406   3.908   9.604 -0.1972  0.2263 -0.4870
  724TMC3    C310699   3.324   4.002   9.544 -0.1721 -0.2142 -0.0506
  724TMC3    C410700   3.595   3.958   9.462  0.2985 -0.1711  0.7529
  724TMC3    C510701   3.514   4.052   9.397 -0.2611  0.3576 -0.0215
  724TMC3    C610702   3.387   4.077   9.448 -0.4879  0.0546 -0.1883
  724TMC3     C10703   3.626   3.833   9.664 -0.4219  0.2534  0.1544
  724TMC3     O10704   3.735   3.795   9.628 -0.4776  0.2507  0.1932
  724TMC3     H10705   3.354   3.828   9.655  1.0779 -0.4860 -0.3242
  724TMC3    H110706   3.693   3.936   9.420  0.4682  0.3305  0.8856
  724TMC3    H210707   3.333   4.163   9.410  1.8580  0.7166 -2.0245
  724TMC3    C710708   3.572   4.158   9.316  0.5328 -0.0294 -0.4564
  724TMC3    C810709   3.178   3.996   9.561  0.1098  0.4156 -0.9684
  724TMC3    O110710   3.521   4.269   9.333 -0.3032 -0.6562  0.2489
  724TMC3    O210711   3.144   3.906   9.640 -0.5346  0.6221  0.1605
  725TMC3    C110712   3.019   3.739  13.169 -0.1413  0.4482 -0.2175
  725TMC3    C210713   2.945   3.699  13.062  0.7478  0.3376  0.1150
  725TMC3    C310714   2.949   3.562  13.036  0.3173  0.4824  0.2853
  725TMC3    C410715   3.081   3.653  13.250 -0.3826 -0.7178  0.2050
  725TMC3    C510716   3.076   3.520  13.213 -0.2565 -0.7436  0.0252
  725TMC3    C610717   3.021   3.469  13.099  0.3847 -0.0248  0.0581
  725TMC3     C10718   3.035   3.878  13.184 -0.0767  0.3984 -0.2820
  725TMC3     O10719   3.033   3.946  13.081 -0.0370 -0.2182  0.3050
  725TMC3     H10720   2.885   3.771  13.007 -0.2703 -0.4419  0.2187
  725TMC3    H110721   3.145   3.688  13.330  0.4256 -1.7496  0.0083
  725TMC3    H210722   3.039   3.368  13.064  1.3287  0.9380 -2.1581
  725TMC3    C710723   3.179   3.439  13.269  0.2949  0.2600 -0.3855
  725TMC3    C810724   2.897   3.510  12.910 -0.4029 -0.6353 -0.7850
  725TMC3    O110725   3.287   3.493  13.298  0.1714 -0.0947 -0.2489
  725TMC3    O210726   2.885   3.391  12.915  0.5848  0.4516 -0.1255
  726MPD2     C10727   2.061   0.393  10.321 -0.3100 -0.5528 -0.1549
  726MPD2    C110728   1.948   0.459  10.365 -0.3624  0.2011  0.8140
  726MPD2    C210729   1.820   0.404  10.346 -0.0724  0.6689  0.0707
  726MPD2    C310730   1.808   0.277  10.295  0.1175  0.0400  0.0542
  726MPD2    C410731   1.924   0.207  10.271  0.2439 -0.0865 -0.0736
  726MPD2    C510732   2.046   0.261  10.291  0.2292  0.2976 -0.8053
  726MPD2     H10733   1.733   0.461  10.379 -2.6198 -2.1461 -1.7520
  726MPD2    H110734   1.913   0.107  10.231 -1.2748 -0.1649  0.5408
  726MPD2    H210735   2.158   0.440  10.324 -0.3746 -0.4513  0.4099
  726MPD2    H310736   2.132   0.197  10.274  1.7132  1.3172  2.7665
  726MPD2     N10737   1.686   0.214  10.269  0.4343  0.3641  0.7458
  726MPD2    H510738   1.684   0.112  10.267  0.5427  0.3511  1.3939
  726MPD2    N110739   1.952   0.593  10.417 -0.0409  0.0870  0.4104
  726MPD2    H710740   1.869   0.644  10.442 -0.7899 -1.3311  0.8294
  727TMC3    C110741   2.030   0.772  10.544 -0.6447 -0.0533  0.1500
  727TMC3    C210742   2.114   0.820  10.638  0.4927  0.0407 -0.3739
  727TMC3    C310743   2.112   0.947  10.681 -1.1963  0.3566  0.6741
  727TMC3    C410744   1.936   0.856  10.486  0.2210 -0.0801 -0.4571
  727TMC3    C510745   1.935   0.991  10.528 -0.2169  0.1236 -0.0153
  727TMC3    C610746   2.024   1.035  10.629  0.2485  0.4793 -0.1389
  727TMC3     C10747   2.064   0.649  10.479 -0.3568 -0.7894  0.1369
  727TMC3     O10748   2.168   0.595  10.512 -0.0225 -0.4133  0.2475
  727TMC3     H10749   2.198   0.765  10.678  0.9755  0.4107 -0.8792
  727TMC3    H110750   1.885   0.829  10.394 -1.2002 -1.1553  0.6538
  727TMC3    H210751   2.018   1.132  10.678  0.9226  0.1773  0.5394
  727TMC3    C710752   1.836   1.093  10.493  0.0795  1.2389  0.3597
  727TMC3    C810753   2.250   0.999  10.703  0.4467 -0.4237  0.1019
  727TMC3    O110754   1.854   1.211  10.538  0.5203 -0.1912  0.5352
  727TMC3    O210755   2.341   0.940  10.644 -0.0326  0.3205 -0.4809
  728TMC3    C110756   1.220   3.078  15.246  1.1065  0.0348 -0.5021
  728TMC3    C210757   1.350   3.111  15.269 -0.3517 -0.1690  0.2349
  728TMC3    C310758   1.428   3.128  15.161  0.9919 -0.3497  0.2239
  728TMC3    C410759   1.165   3.057  15.115 -0.1993 -0.7849  0.1561
  728TMC3    C510760   1.259   3.087  15.012 -0.1339 -0.0764  0.2619
  728TMC3    C610761   1.391   3.129  15.034 -0.8828 -0.0939 -0.3051
  728TMC3     C10762   1.135   3.078  15.367  0.2914 -0.1152 -0.2102
  728TMC3     O10763   1.191   3.133  15.466 -0.5823  0.6496  0.0420
  728TMC3     H10764   1.394   3.110  15.369 -2.8897 -0.0635  1.3410
  728TMC3    H110765   1.065   3.024  15.086 -1.3839  2.1952  0.8368
  728TMC3    H210766   1.453   3.170  14.955  0.5914 -2.6862 -0.5010
  728TMC3    C710767   1.195   3.110  14.885  0.8581 -0.7119  0.2911
  728TMC3    C810768   1.553   3.187  15.193  1.1522  0.9302 -0.2139
  728TMC3    O110769   1.114   3.026  14.854  0.2884 -0.8372 -0.4413
  728TMC3    O210770   1.568   3.249  15.297 -0.4096 -0.8213  0.2343
  729MPD2     C10771   3.327   4.077  16.812 -0.2676 -0.2451 -0.3087
  729MPD2    C110772   3.257   4.192  16.831 -0.1063  0.5223 -0.3836
  729MPD2    C210773   3.185   4.210  16.949  0.0033 -0.2609 -0.2418
  729MPD2    C310774   3.185   4.107  17.039  0.0378  0.0545 -0.2267
  729MPD2    C410775   3.235   3.982  17.007 -0.6645 -0.3298  0.4292
  729MPD2    C510776   3.299   3.968  16.887 -0.6062  0.4731 -0.5397
  729MPD2     H10777   3.142   4.308  16.967  2.7495  0.5832  1.7018
  729MPD2    H110778   3.233   3.892  17.068  0.4300 -1.1782 -0.7845
  729MPD2    H210779   3.383   4.063  16.720  0.3046 -0.5755  0.0884
  729MPD2    H310780   3.320   3.867  16.855 -2.4768  0.2798 -1.1654
  729MPD2     N10781   3.130   4.119  17.170  0.4111 -0.1814 -0.1884
  729MPD2    H510782   3.139   4.042  17.235  0.8875  1.3897  1.5918
  729MPD2    N110783   3.276   4.287  16.732 -0.2458  0.4724 -0.4271
  729MPD2    H710784   3.327   4.260  16.649 -0.8472 -0.6438 -0.4389
  730TMC3    C110785   3.071   4.238  17.346  0.2119  0.6209  0.7492
  730TMC3    C210786   3.203   4.264  17.369  0.8784  0.2371  0.0767
  730TMC3    C310787   3.227   4.382  17.437 -0.3287 -0.3784  0.8420
  730TMC3    C410788   2.978   4.325  17.397 -0.1093 -0.0585  0.5831
  730TMC3    C510789   3.007   4.431  17.480 -0.1483  0.2598  0.0359
  730TMC3    C610790   3.141   4.462  17.497  0.9338  0.5426 -0.0636
  730TMC3     C10791   3.053   4.219  17.209  0.2382 -0.4389 -0.0149
  730TMC3     O10792   2.989   4.304  17.144  0.4214  0.1208 -0.3774
  730TMC3     H10793   3.282   4.205  17.323  1.7523  1.1592  0.4080
  730TMC3    H110794   2.879   4.323  17.354  0.9729 -2.0274 -1.7993
  730TMC3    H210795   3.170   4.560  17.532  0.2812  1.0003 -0.8227
  730TMC3    C710796   2.926   4.551  17.461 -0.5942  0.2943 -0.0940
  730TMC3    C810797   3.330   4.452  17.367  0.0671  0.2948 -0.2960
  730TMC3    O110798   2.883   4.562  17.349 -0.2068 -0.2307 -0.3766
  730TMC3    O210799   3.380   4.534  17.443  0.0677  0.3928 -0.1321
  731MPD2     C10800   2.951   2.628  12.083  0.0689  0.3883  0.7594
  731MPD2    C110801   3.078   2.673  12.115 -0.1629 -0.1290  0.3438
  731MPD2    C210802   3.137   2.628  12.233  0.2064 -0.1200  0.1033
  731MPD2    C310803   3.071   2.546  12.325  0.1895  0.0527 -0.2676
  731MPD2    C410804   2.939   2.508  12.293  0.0618 -1.4140 -0.3963
  731MPD2    C510805   2.881   2.548  12.174  0.1505  0.2657 -0.1851
  731MPD2     H10806   3.238   2.657  12.261 -0.2533  1.4441  0.1382
  731MPD2    H110807   2.885   2.442  12.360 -1.8522  0.5694  0.0444
  731MPD2    H210808   2.906   2.644  11.986  0.4888  0.3959  0.5660
  731MPD2    H310809   2.777   2.532  12.150 -0.0302  0.5250  0.4314
  731MPD2     N10810   3.146   2.506  12.443 -0.1311  0.1673  0.2788
  731MPD2    H510811   3.247   2.517  12.438 -0.2056  0.8314  0.3150
  731MPD2    N110812   3.143   2.766  12.027  0.1836  0.1233  0.4089
  731MPD2    H710813   3.101   2.776  11.935  1.5391 -0.8505 -0.3212
  732TMC3    C110814   3.322   2.907  11.946 -0.1980  0.1770 -0.3844
  732TMC3    C210815   3.273   2.896  11.821  0.1236  1.3029 -0.2874
  732TMC3    C310816   3.310   2.991  11.725 -0.5554  0.4191 -0.7964
  732TMC3    C410817   3.413   3.006  11.971 -0.2652  0.1291  0.0583
  732TMC3    C510818   3.444   3.101  11.873  0.3224 -0.3182  0.5246
  732TMC3    C610819   3.397   3.088  11.744 -0.8259 -0.0617 -0.8481
  732TMC3     C10820   3.264   2.834  12.053 -0.8175  0.0407 -0.1900
  732TMC3     O10821   3.325   2.848  12.157  0.7335  0.0338 -0.1975
  732TMC3     H10822   3.210   2.810  11.803 -0.6472  1.8410 -0.1697
  732TMC3    H110823   3.458   2.996  12.069  1.2261  2.1626 -0.4306
  732TMC3    H210824   3.408   3.172  11.677  0.0358  1.1330  0.7989
  732TMC3    C710825   3.484   3.228  11.930  0.8771  0.6335  0.6032
  732TMC3    C810826   3.226   2.988  11.610 -0.2075 -0.3488 -0.0365
  732TMC3    O110827   3.476   3.323  11.859 -0.6464  0.1733  0.6490
  732TMC3    O210828   3.264   3.058  11.518 -0.3903  0.7213  0.1156
  733TMC3    C110829   4.375   1.356  13.424 -0.2354 -0.3698 -0.3451
  733TMC3    C210830   4.404   1.455  13.334  1.2934  0.3082 -0.1222
  733TMC3    C310831   4.452   1.420  13.209  0.2640  0.3644 -0.3066
  733TMC3    C410832   4.431   1.235  13.398 -0.4483  0.1092  0.6426
  733TMC3    C510833   4.488   1.205  13.280  0.9793 -1.7181  0.1818
  733TMC3    C610834   4.492   1.292  13.175  0.1446 -0.1148 -0.4282
  733TMC3     C10835   4.233   1.345  13.435  0.2359 -0.2327  0.0923
  733TMC3     O10836   4.167   1.391  13.341  0.2998 -0.4667  0.5646
  733TMC3     H10837   4.362   1.555  13.345  0.7197 -0.0405  0.8426
  733TMC3    H110838   4.418   1.153  13.468  0.9621  1.3610  2.3969
  733TMC3    H210839   4.545   1.283  13.081  1.7857 -2.6895  0.7557
  733TMC3    C710840   4.458   1.062  13.242  0.2663  0.1030  0.2256
  733TMC3    C810841   4.380   1.483  13.106 -0.0271  0.2494  0.7364
  733TMC3    O110842   4.426   0.982  13.327 -0.0772  0.0465 -0.1889
  733TMC3    O210843   4.342   1.598  13.121  0.3517  0.3122  0.0934
  734MPD2     C10844   1.481   4.286  11.628  0.5768 -0.3980  0.5218
  734MPD2    C110845   1.387   4.219  11.553  0.8358  0.4402  0.0786
  734MPD2    C210846   1.421   4.219  11.414 -0.0351 -0.5040  0.0013
  734MPD2    C310847   1.543   4.267  11.361  0.6956 -0.0549  0.4537
  734MPD2    C410848   1.638   4.320  11.448  0.2768 -0.0685 -0.5644
  734MPD2    C510849   1.598   4.335  11.584 -0.5889 -0.2131 -0.4841
  734MPD2     H10850   1.353   4.181  11.338 -0.8492  0.3160  0.3145
  734MPD2    H110851   1.740   4.334  11.413  0.7318 -2.1479 -0.0925
  734MPD2    H210852   1.448   4.314  11.728  3.0063 -1.7533  1.7185
  734MPD2    H310853   1.665   4.383  11.654  0.7551 -1.1339 -1.1364
  734MPD2     N10854   1.565   4.235  11.226 -0.1280  0.5209 -0.1882
  734MPD2    H510855   1.498   4.185  11.169 -0.5168 -0.8912  1.5000
  734MPD2    N110856   1.268   4.165  11.614  0.3657 -0.1262 -0.2609
  734MPD2    H710857   1.248   4.177  11.712  1.4042  1.3129 -0.2162
  735TMC3    C110858   1.076   4.032  11.614 -0.0109  0.4396 -0.0555
  735TMC3    C210859   0.989   3.978  11.523  0.6785  0.0251  0.5940
  735TMC3    C310860   0.951   3.848  11.546 -0.1181 -0.3213  0.2697
  735TMC3    C410861   1.100   3.969  11.732  0.0553 -0.2746 -0.6241
  735TMC3    C510862   1.058   3.840  11.754 -0.1134 -0.2909  0.0141
  735TMC3    C610863   0.974   3.782  11.661  0.2477  0.0851  0.2794
  735TMC3     C10864   1.179   4.099  11.534  0.3390 -0.0681 -0.2704
  735TMC3     O10865   1.184   4.063  11.417  0.4114  0.6638  0.1368
  735TMC3     H10866   0.959   4.031  11.434  1.4453  1.1694  1.0219
  735TMC3    H110867   1.180   4.004  11.796 -0.1800 -3.5439  1.4558
  735TMC3    H210868   0.930   3.683  11.675  3.0475 -1.4911 -2.1509
  735TMC3    C710869   1.131   3.764  11.859  0.7328  0.4178  0.1298
  735TMC3    C810870   0.961   3.769  11.431  0.0460  0.5258 -0.5068
  735TMC3    O110871   1.236   3.808  11.902  0.4236 -0.7111 -0.6313
  735TMC3    O210872   0.899   3.661  11.424  0.2574  0.3924  0.8264
  736MPD2     C10873   1.078   3.436  12.004 -0.1046  0.0083  0.3379
  736MPD2    C110874   1.148   3.532  11.932  0.3022 -0.1042  0.4789
  736MPD2    C210875   1.276   3.517  11.906 -0.0896 -0.4126 -0.4390
  736MPD2    C310876   1.349   3.403  11.952  0.1680 -0.7239  0.1434
  736MPD2    C410877   1.288   3.318  12.046 -0.1426 -0.4061  0.3061
  736MPD2    C510878   1.147   3.334  12.063 -0.1470  0.3912  0.2722
  736MPD2     H10879   1.316   3.591  11.838 -0.1812  1.5813  1.7009
  736MPD2    H110880   1.345   3.239  12.094  2.5063  1.3769  0.0785
  736MPD2    H210881   0.970   3.437  12.016 -0.2676  2.6522 -1.4562
  736MPD2    H310882   1.096   3.264  12.128  0.1402 -1.1828 -1.1937
  736MPD2     N10883   1.485   3.372  11.919  0.3883 -0.0303 -0.6819
  736MPD2    H510884   1.538   3.305  11.974 -1.0064 -1.6714 -1.3245
  736MPD2    N110885   1.076   3.643  11.882 -0.2543  0.3317 -0.1809
  736MPD2    H710886   0.975   3.633  11.881  0.1762 -3.6418 -1.4887
  737TMC3    C110887   1.699   3.429  11.825 -0.2530 -0.7751  0.9287
  737TMC3    C210888   1.771   3.530  11.768 -0.3877  0.2976  0.6438
  737TMC3    C310889   1.897   3.508  11.729  0.4777  0.7156 -0.1631
  737TMC3    C410890   1.751   3.303  11.841 -0.3095 -0.6360 -0.1119
  737TMC3    C510891   1.872   3.282  11.790 -0.1175 -0.0704  0.3709
  737TMC3    C610892   1.951   3.377  11.736 -0.6521  0.4119 -0.5759
  737TMC3     C10893   1.554   3.451  11.829 -0.2710  0.3685 -0.1785
  737TMC3     O10894   1.518   3.545  11.756  0.5126 -0.1298 -0.4958
  737TMC3     H10895   1.718   3.625  11.760  2.5274  1.6557 -2.2891
  737TMC3    H110896   1.681   3.220  11.848 -0.7637 -0.3611 -1.4708
  737TMC3    H210897   2.050   3.355  11.699 -0.1656  3.4234 -1.0538
  737TMC3    C710898   1.910   3.144  11.768  0.1239 -1.2146  0.1739
  737TMC3    C810899   1.936   3.579  11.614  0.0391  0.1259  0.3088
  737TMC3    O110900   1.865   3.059  11.843  0.6759  0.0578  0.4291
  737TMC3    O210901   2.007   3.524  11.532 -0.6942 -0.0017  0.1292
  738MPD2     C10902   1.783   2.021  14.847  0.0632 -0.0531  0.5604
  738MPD2    C110903   1.849   1.897  14.863  0.9230  0.5586  0.5416
  738MPD2    C210904   1.984   1.896  14.859  0.5734  0.0809  0.2976
  738MPD2    C310905   2.057   2.014  14.831 -0.6014  0.7218 -0.4933
  738MPD2    C410906   1.988   2.137  14.827  0.0251  0.3714  0.1272
  738MPD2    C510907   1.851   2.136  14.838 -0.1100  0.4513 -0.3231
  738MPD2     H10908   2.027   1.797  14.868 -0.1341 -0.4750 -2.4075
  738MPD2    H110909   2.028   2.237  14.819  1.9843 -0.4490 -0.2277
  738MPD2    H210910   1.675   2.029  14.852  0.2063  2.1622  0.0122
  738MPD2    H310911   1.799   2.231  14.827 -1.1291  0.0990  1.4613
  738MPD2     N10912   2.195   2.018  14.798  0.2178  0.5390  0.8691
  738MPD2    H510913   2.238   2.110  14.788 -1.6351  1.0142 -2.5545
  738MPD2    N110914   1.785   1.773  14.876 -0.1359 -0.1349 -0.0945
  738MPD2    H710915   1.839   1.688  14.893  0.1827 -0.0701 -0.7528
  739TMC3    C110916   2.383   1.938  14.691 -0.3024  0.8768  0.7014
  739TMC3    C210917   2.378   2.031  14.595 -0.7985  0.5713 -0.3365
  739TMC3    C310918   2.493   2.061  14.527  0.5911 -0.2008 -0.3964
  739TMC3    C410919   2.501   1.877  14.724  0.0223  0.5038  0.0973
  739TMC3    C510920   2.613   1.922  14.665  0.2799  0.1628  0.6283
  739TMC3    C610921   2.621   2.015  14.568 -0.1179 -0.3632  0.2392
  739TMC3     C10922   2.276   1.914  14.784 -0.4714  0.3509  0.1123
  739TMC3     O10923   2.261   1.805  14.836 -0.1772  0.1532  0.5454
  739TMC3     H10924   2.280   2.069  14.569 -0.1942  1.9428 -0.6270
  739TMC3    H110925   2.503   1.813  14.812 -1.4472 -0.4265 -0.5457
  739TMC3    H210926   2.715   2.045  14.524 -0.7879  1.6041  0.1581
  739TMC3    C710927   2.732   1.847  14.696  0.1974  0.0505  0.4670
  739TMC3    C810928   2.472   2.155  14.417  0.8094  0.7831 -0.3734
  739TMC3    O110929   2.825   1.858  14.613  0.0614 -0.3144  0.0569
  739TMC3    O210930   2.363   2.208  14.410 -0.0292 -0.0599  0.4330
  740TMC3    C110931   2.884   3.242  14.478  0.4011  0.2838  0.7785
  740TMC3    C210932   2.960   3.149  14.549 -0.2710 -0.1771  0.6436
  740TMC3    C310933   3.042   3.073  14.475  0.6613  0.2836  0.1534
  740TMC3    C410934   2.897   3.258  14.342 -0.4286  0.2393 -0.4321
  740TMC3    C510935   3.003   3.205  14.283  0.2653 -0.0246  0.0215
  740TMC3    C610936   3.064   3.096  14.342  0.1187 -0.3578 -0.2584
  740TMC3     C10937   2.766   3.298  14.542  0.2219  0.3733 -1.1099
  740TMC3     O10938   2.692   3.359  14.467 -0.2116 -0.5903  0.2768
  740TMC3     H10939   2.932   3.134  14.652 -0.6170 -0.8916  0.4434
  740TMC3    H110940   2.834   3.339  14.305 -2.2454 -0.9490  0.0435
  740TMC3    H210941   3.128   3.031  14.284  0.4731 -1.2629  1.1481
  740TMC3    C710942   3.042   3.228  14.142 -0.5053  0.1496 -0.2616
  740TMC3    C810943   3.148   2.993  14.542  0.1934 -0.2451  1.0023
  740TMC3    O110944   3.140   3.170  14.102  0.5438  0.4227 -0.2661
  740TMC3    O210945   3.231   2.941  14.472  0.6810 -0.4432  0.2126
  741TMC3    C110946   2.213   2.684  14.313  0.3383 -0.0467 -1.0561
  741TMC3    C210947   2.093   2.622  14.324 -0.2349 -0.2145 -0.0994
  741TMC3    C310948   2.074   2.540  14.426  0.1314 -0.5612  0.1419
  741TMC3    C410949   2.310   2.659  14.407  0.1168 -0.8877 -0.5858
  741TMC3    C510950   2.286   2.573  14.504 -0.3478  0.6258  0.4385
  741TMC3    C610951   2.171   2.503  14.516 -0.4129 -0.4074  0.2966
  741TMC3     C10952   2.240   2.765  14.190 -0.5183  0.5887 -0.2077
  741TMC3     O10953   2.359   2.787  14.180  0.2183  0.4060 -0.8308
  741TMC3     H10954   2.010   2.628  14.254  1.6729 -1.3713 -2.4814
  741TMC3    H110955   2.395   2.727  14.408 -0.1129 -0.5968 -0.6637
  741TMC3    H210956   2.157   2.433  14.597 -1.1497  0.3064  0.7791
  741TMC3    C710957   2.386   2.529  14.593 -0.6316  0.7286  0.3642
  741TMC3    C810958   1.969   2.445  14.403 -0.5814 -0.4256  0.1556
  741TMC3    O110959   2.349   2.477  14.695  0.1114 -0.4325 -0.2144
  741TMC3    O210960   1.868   2.483  14.344 -0.2061 -0.0219 -0.1836
  742TMC3    C110961   2.493   1.080  15.366  0.3563 -0.1169 -0.4242
  742TMC3    C210962   2.387   1.033  15.294  0.0731 -0.7216  0.3116
  742TMC3    C310963   2.428   0.934  15.204  0.7703  0.4591  0.1810
  742TMC3    C410964   2.624   1.027  15.365 -0.5403  0.0521  0.2059
  742TMC3    C510965   2.648   0.922  15.285  0.6733 -0.7800  0.2567
  742TMC3    C610966   2.551   0.874  15.211 -0.3108  0.6766 -0.0927
  742TMC3     C10967   2.465   1.182  15.465  0.3840 -0.2204 -0.5155
  742TMC3     O10968   2.556   1.250  15.502 -0.7787 -0.7396 -0.3321
  742TMC3     H10969   2.303   1.099  15.282  0.0074 -0.6625  1.0700
  742TMC3    H110970   2.708   1.082  15.406  1.1876 -2.8980  0.6229
  742TMC3    H210971   2.577   0.797  15.139  1.0013 -0.9253  2.0947
  742TMC3    C710972   2.762   0.829  15.293 -0.3043 -0.2276  0.4315
  742TMC3    C810973   2.357   0.902  15.084 -0.7786 -0.6453 -0.5287
  742TMC3    O110974   2.752   0.712  15.269 -0.3582 -0.0475 -0.0023
  742TMC3    O210975   2.416   0.889  14.977  0.2833 -0.1960  0.1730
  743MPD2     C10976   4.293   1.079   1.595 -0.0122 -0.1391  0.3193
  743MPD2    C110977   4.384   1.151   1.519 -0.5334  0.3438 -0.0783
  743MPD2    C210978   4.518   1.138   1.548 -0.8492  0.7120 -0.3498
  743MPD2    C310979   4.551   1.043   1.646  0.6465  0.4623  0.4673
  743MPD2    C410980   4.461   0.970   1.720 -0.7464  0.4758 -0.6307
  743MPD2    C510981   4.330   0.995   1.695  0.3166  1.0406  0.2162
  743MPD2     H10982   4.586   1.195   1.486  2.1868 -1.0109  1.4025
  743MPD2    H110983   4.480   0.896   1.796 -0.5240  0.3559 -0.8025
  743MPD2    H210984   4.187   1.085   1.574  0.6345  0.5573 -2.7211
  743MPD2    H310985   4.247   0.958   1.755  1.3657 -5.9707 -2.6459
  743MPD2     N10986   4.691   1.031   1.664 -0.4683  0.1814  0.6209
  743MPD2    H510987   0.016   1.094   1.602 -1.0405  0.1116  0.0875
  743MPD2    N110988   4.331   1.241   1.428  0.1122  0.7669 -1.0455
  743MPD2    H710989   4.231   1.255   1.421  0.3939  2.9127 -0.7542
  744TMC3    C110990   4.318   1.409   1.269 -0.7951  0.3593 -0.5164
  744TMC3    C210991   4.228   1.489   1.334  0.0376 -0.0038  0.5935
  744TMC3    C310992   4.186   1.607   1.280  0.0556  0.6280  0.0505
  744TMC3    C410993   4.351   1.442   1.140 -0.0260  0.6861 -0.4434
  744TMC3    C510994   4.309   1.558   1.089 -0.4420  0.0843 -0.0676
  744TMC3    C610995   4.237   1.649   1.157  0.6593  0.2242  0.7773
  744TMC3     C10996   4.405   1.323   1.342 -0.2728 -0.0473 -0.6786
  744TMC3     O10997   4.520   1.319   1.295 -0.5103 -0.6992  0.3760
  744TMC3     H10998   4.196   1.458   1.433 -0.9197 -2.1902 -0.4155
  744TMC3    H110999   4.409   1.377   1.076 -0.0045 -0.4095  0.6812
  744TMC3    H211000   4.243   1.754   1.130 -0.2801  0.7541  2.6168
  744TMC3    C711001   4.379   1.610   0.968 -0.2681 -0.0450 -0.0752
  744TMC3    C811002   4.106   1.702   1.350  0.5030 -0.7572  0.3931
  744TMC3    O111003   4.409   1.727   0.958 -0.0217  0.0566 -0.4098
  744TMC3    O211004   4.064   1.792   1.280  0.0012 -0.4211  0.0321
  745TMC3    C111005   2.897   0.610  13.667  0.2958 -0.1985 -0.0987
  745TMC3    C211006   2.781   0.555  13.710 -0.1075 -0.0485 -0.3433
  745TMC3    C311007   2.675   0.538  13.624 -0.1903 -0.5060 -0.4414
  745TMC3    C411008   2.906   0.664  13.540  0.0668  0.7719 -0.4212
  745TMC3    C511009   2.802   0.649  13.454  0.5945  0.3687  0.2488
  745TMC3    C611010   2.687   0.573  13.492  0.1478 -0.1739 -0.4058
  745TMC3     C11011   2.968   0.679  13.769 -0.4326  0.2523 -0.1152
  745TMC3     O11012   2.980   0.623  13.876 -1.0342  0.4955  0.1383
  745TMC3     H11013   2.777   0.511  13.810 -0.1951 -0.7580 -0.6604
  745TMC3    H111014   3.008   0.699  13.525  0.3543  0.4771  0.7993
  745TMC3    H211015   2.603   0.568  13.423 -0.2439 -0.5731  0.0973
  745TMC3    C711016   2.843   0.660  13.322  0.4151  0.0858  0.5619
  745TMC3    C811017   2.559   0.584  13.695  0.8988  0.4578  0.1744
  745TMC3    O111018   2.818   0.566  13.247 -0.0529  0.1305 -0.1065
  745TMC3    O211019   2.454   0.590  13.636 -0.6284  0.2993 -0.0422
  746TMC3    C111020   0.122   2.690  10.472 -0.0384  0.7255 -0.5955
  746TMC3    C211021   0.120   2.715  10.337  0.4988  0.2146 -0.1368
  746TMC3    C311022   0.060   2.622  10.257 -0.1866 -0.4793 -0.2792
  746TMC3    C411023   0.062   2.588  10.540  0.1866  0.5315 -0.3788
  746TMC3    C511024   4.706   2.509  10.454  0.0491  0.1327 -0.6786
  746TMC3    C611025   4.713   2.521  10.316 -0.1534 -0.0284 -0.0973
  746TMC3     C11026   0.188   2.795  10.556  0.6295 -0.7261 -0.3742
  746TMC3     O11027   0.197   2.901  10.496  0.3164  0.1070 -0.0036
  746TMC3     H11028   0.169   2.806  10.304  0.7159  0.1048 -0.1233
  746TMC3    H111029   0.042   2.592  10.646 -0.1175  3.3810 -0.5451
  746TMC3    H211030   4.638   2.467  10.260 -1.7315  1.0812  0.9245
  746TMC3    C711031   4.583   2.455  10.518 -0.3897 -0.5659  0.2833
  746TMC3    C811032   0.062   2.641  10.113 -0.4645 -0.1330 -0.3711
  746TMC3    O111033   4.486   2.446  10.442  0.5349  0.3979  0.1562
  746TMC3    O211034   4.709   2.574  10.050 -0.3842  0.6796  0.1232
  747TMC3    C111035   2.311   2.842  10.837  0.5340 -0.0720  0.3818
  747TMC3    C211036   2.264   2.782  10.949 -0.2063  0.0298 -0.9530
  747TMC3    C311037   2.287   2.843  11.067  0.4290 -0.1341  0.5077
  747TMC3    C411038   2.382   2.959  10.858 -0.3567 -0.4610  0.3828
  747TMC3    C511039   2.417   3.013  10.976 -0.8301 -0.1417 -0.2171
  747TMC3    C611040   2.369   2.950  11.082 -0.2059 -0.1389 -0.1437
  747TMC3     C11041   2.273   2.805  10.705  0.5178 -0.2287  0.4025
  747TMC3     O11042   2.260   2.892  10.623  0.1249 -0.2171  0.1876
  747TMC3     H11043   2.209   2.690  10.934  1.2813 -1.0018 -0.1408
  747TMC3    H111044   2.423   3.001  10.767  0.4038 -0.2905  0.8088
  747TMC3    H211045   2.389   2.984  11.183 -1.6418  2.0020 -0.5724
  747TMC3    C711046   2.553   3.060  10.981 -0.6412 -0.3349  0.1838
  747TMC3    C811047   2.201   2.790  11.174  0.3496 -0.1670 -0.1045
  747TMC3    O111048   2.629   3.016  10.898  0.1014 -0.2188 -0.2996
  747TMC3    O211049   2.163   2.674  11.167  0.2722 -0.0945  0.1127
  748MPD2     C11050   3.876   2.566   1.819 -0.0870  0.4036 -0.2034
  748MPD2    C111051   3.982   2.496   1.761  0.0931  0.6975 -0.1866
  748MPD2    C211052   4.061   2.550   1.661 -0.3309 -0.0460 -0.0159
  748MPD2    C311053   4.023   2.671   1.603  0.2459 -0.3345  0.0851
  748MPD2    C411054   3.919   2.744   1.659 -0.1506  0.0848 -0.7605
  748MPD2    C511055   3.854   2.690   1.768  0.0485  0.4228  0.3610
  748MPD2     H11056   4.146   2.498   1.620  0.1482  0.4759  0.3119
  748MPD2    H111057   3.880   2.835   1.615 -2.1500  0.3424  1.5666
  748MPD2    H211058   3.813   2.537   1.903  0.7965  2.9517  1.3145
  748MPD2    H311059   3.774   2.753   1.807 -2.6976 -0.4861 -3.8297
  748MPD2     N11060   4.093   2.711   1.481 -0.0350 -0.3727  0.3745
  748MPD2    H511061   4.168   2.647   1.454  2.1462  1.7931  1.2731
  748MPD2    N111062   4.024   2.375   1.827 -0.2590  0.4239 -0.8037
  748MPD2    H711063   3.994   2.362   1.923 -0.0578  0.2898 -0.7573
  749TMC3    C111064   4.123   2.841   1.289  0.9367 -0.4554 -0.5532
  749TMC3    C211065   4.177   2.734   1.211 -0.7327 -0.2309  1.1009
  749TMC3    C311066   4.220   2.768   1.080 -0.1095  0.0006  0.0220
  749TMC3    C411067   4.108   2.961   1.226 -0.6479 -0.1009 -0.1854
  749TMC3    C511068   4.147   2.986   1.097 -0.1918 -0.3841 -0.5725
  749TMC3    C611069   4.197   2.887   1.018  0.5950  0.9138  0.5421
  749TMC3     C11070   4.051   2.817   1.409  0.7355 -0.1269 -0.2126
  749TMC3     O11071   3.961   2.893   1.431  0.1485 -0.1615  0.4228
  749TMC3     H11072   4.162   2.631   1.238 -1.0408 -0.7566 -1.1008
  749TMC3    H111073   4.060   3.039   1.284 -0.2387  0.8961 -1.1812
  749TMC3    H211074   4.242   2.911   0.922 -0.0590 -1.7513 -0.4149
  749TMC3    C711075   4.166   3.123   1.047 -0.2939 -0.2973  0.5332
  749TMC3    C811076   4.320   2.694   1.009  0.1377 -0.0521 -0.0119
  749TMC3    O111077   4.238   3.138   0.948 -0.8413 -0.4460  0.5466
  749TMC3    O211078   4.326   2.708   0.888  0.8216 -0.5070  0.1133
  750MPD2     C11079   0.418   0.153  10.902  0.4718 -0.0576 -0.2748
  750MPD2    C111080   0.315   0.108  10.979 -0.0173  0.6485 -0.4360
  750MPD2    C211081   0.293   4.699  10.997  0.2701  0.1438  0.2171
  750MPD2    C311082   0.384   4.613  10.940  0.0505  0.0696 -0.1443
  750MPD2    C411083   0.495   4.661  10.878  0.2278 -0.5474  0.2168
  750MPD2    C511084   0.510   0.074  10.858 -0.3327 -0.0431 -0.0114
  750MPD2     H11085   0.200   4.665  11.042 -0.0152  0.6420  0.0102
  750MPD2    H111086   0.577   4.604  10.836  0.6404  0.7762 -0.7875
  750MPD2    H211087   0.443   0.257  10.881  2.2071 -0.4769 -0.2255
  750MPD2    H311088   0.594   0.110  10.800  0.6090 -1.3855  0.4969
  750MPD2     N11089   0.364   4.471  10.926 -0.2721 -0.4238  0.5904
  750MPD2    H511090   0.442   4.426  10.880 -0.6472 -0.6789  0.2055
  750MPD2    N111091   0.223   0.203  11.022 -0.0996 -0.6578 -0.1070
  750MPD2    H711092   0.246   0.298  10.992  0.3047 -1.2650 -1.7672
  751TMC3    C111093   0.247   4.272  10.892 -0.0568  0.1320 -0.1819
  751TMC3    C211094   0.137   4.192  10.915  0.1224 -0.2466 -0.3665
  751TMC3    C311095   0.129   4.077  10.846 -0.0169  0.3051 -0.0768
  751TMC3    C411096   0.341   4.243  10.795  0.9249 -0.2170  0.6874
  751TMC3    C511097   0.325   4.122  10.740  0.2800 -0.2883  0.2785
  751TMC3    C611098   0.219   4.042  10.754 -0.0907 -0.4398 -0.3124
  751TMC3     C11099   0.257   4.392  10.976 -0.5814  0.0919  0.2532
  751TMC3     O11100   0.163   4.427  11.044  0.0226 -0.0839  0.4276
  751TMC3     H11101   0.055   4.227  10.977 -1.5698 -2.3547 -1.4155
  751TMC3    H111102   0.405   4.317  10.747 -2.6237  1.6947 -1.1490
  751TMC3    H211103   0.226   3.947  10.702  1.5110 -0.1915 -0.5719
  751TMC3    C711104   0.409   4.112  10.622 -0.7248  0.7706 -0.2821
  751TMC3    C811105   4.721   4.040  10.807 -0.4895  0.2278  0.1347
  751TMC3    O111106   0.355   4.050  10.530  0.1688  0.0339 -0.3957
  751TMC3    O211107   4.691   4.004  10.695 -0.7152 -0.4016  0.0148
  752TMC3    C111108   3.998   4.666  17.235  0.0230 -0.3132  0.8919
  752TMC3    C211109   3.892   4.600  17.291  0.0585  0.0844 -0.0157
  752TMC3    C311110   3.914   4.544  17.409 -0.1618 -0.4814 -0.0113
  752TMC3    C411111   4.118   4.680  17.296 -0.1175 -0.5219  0.0620
  752TMC3    C511112   4.140   4.621  17.419 -0.0230 -0.1176  0.5879
  752TMC3    C611113   4.038   4.550  17.470 -0.4847  0.2618 -0.2707
  752TMC3     C11114   3.981   0.007  17.106  0.5246  0.5973 -0.6812
  752TMC3     O11115   4.054   0.105  17.092  0.3218  0.3340  0.5082
  752TMC3     H11116   3.792   4.594  17.250 -0.6821 -0.8124  1.9133
  752TMC3    H111117   4.202   0.007  17.251 -1.6430  1.3132 -0.6621
  752TMC3    H211118   4.059   4.504  17.566  1.2327  1.2779 -0.1677
  752TMC3    C711119   4.282   4.586  17.453 -1.0691 -0.1059 -0.3105
  752TMC3    C811120   3.810   4.463  17.468  0.1357  0.3636  0.4173
  752TMC3    O111121   4.297   4.473  17.504  0.3280  0.1651  0.0312
  752TMC3    O211122   3.814   4.458  17.589  0.1624  0.0246 -0.2783
  753TMC3    C111123   0.769   0.606  13.304 -0.1927 -0.1589  0.1284
  753TMC3    C211124   0.823   0.576  13.426 -0.1784 -0.3733 -0.5583
  753TMC3    C311125   0.747   0.491  13.504  0.2815 -0.5581  0.6804
  753TMC3    C411126   0.651   0.559  13.250 -0.0838 -0.0348  0.0533
  753TMC3    C511127   0.587   0.470  13.330 -0.9693 -0.5541 -0.5309
  753TMC3    C611128   0.631   0.442  13.457  1.4822  0.2664 -0.0334
  753TMC3     C11129   0.860   0.673  13.215 -0.0220  0.3946 -0.2318
  753TMC3     O11130   0.811   0.747  13.130 -0.0292  0.6598  0.3897
  753TMC3     H11131   0.918   0.620  13.453  0.5138 -0.4540 -2.8727
  753TMC3    H111132   0.620   0.591  13.151 -1.7478  0.0425  0.6125
  753TMC3    H211133   0.566   0.384  13.522  0.5977  3.2891  1.7582
  753TMC3    C711134   0.449   0.435  13.290  0.3696  0.1463  0.2026
  753TMC3    C811135   0.814   0.435  13.618  0.1659 -0.9513  0.0091
  753TMC3    O111136   0.401   0.512  13.210 -1.0770 -0.2537  0.3706
  753TMC3    O211137   0.795   0.314  13.646  0.0770 -0.2706 -0.0831
  754MPD2     C11138   3.418   3.665  12.988 -0.0659  0.3550  0.1872
  754MPD2    C111139   3.549   3.714  13.012  0.6878  0.1352 -0.4683
  754MPD2    C211140   3.568   3.848  13.013  0.0725  0.1413  0.7572
  754MPD2    C311141   3.465   3.934  12.988 -0.3547 -0.3566 -0.3276
  754MPD2    C411142   3.339   3.889  12.969  0.3539 -0.3461  0.3369
  754MPD2    C511143   3.319   3.757  12.968  0.3308 -0.2984 -0.1326
  754MPD2     H11144   3.667   3.888  13.032  0.2856 -0.7595  1.5426
  754MPD2    H111145   3.261   3.962  12.951  0.7805  0.3414  1.2892
  754MPD2    H211146   3.387   3.561  12.982  1.6246 -0.0674 -1.1662
  754MPD2    H311147   3.227   3.709  12.937  1.2842 -1.0219 -1.8097
  754MPD2     N11148   3.480   4.079  12.979  0.0127  0.8406 -0.4413
  754MPD2    H511149   3.394   4.133  12.980 -1.2124 -1.0994 -1.5639
  754MPD2    N111150   3.651   3.621  13.041 -0.0888  0.0923 -0.2028
  754MPD2    H711151   3.612   3.529  13.058  1.1358 -0.3971 -0.0596
  755MPD2     C11152   3.911   4.293  13.770 -0.0830  0.5706 -0.7510
  755MPD2    C111153   3.823   4.398  13.748  0.6225 -0.0267  0.0180
  755MPD2    C211154   3.753   4.407  13.632  0.0619  1.1256  0.1593
  755MPD2    C311155   3.776   4.313  13.535 -0.3841 -0.3263 -0.0515
  755MPD2    C411156   3.859   4.209  13.564  0.2591 -0.1841 -0.0111
  755MPD2    C511157   3.933   4.199  13.677 -0.5280 -0.0072  0.2501
  755MPD2     H11158   3.682   4.484  13.604  0.6099  1.5436 -0.0955
  755MPD2    H111159   3.884   4.136  13.487 -0.4750  1.4969 -1.8556
  755MPD2    H211160   3.965   4.275  13.862 -2.2504 -0.7452  0.2814
  755MPD2    H311161   4.002   4.119  13.701 -0.0271  1.2003  2.7929
  755MPD2     N11162   3.724   4.324  13.405  0.2652 -0.0883 -0.3957
  755MPD2    H511163   3.748   4.249  13.341  0.2580  1.2674 -1.9693
  755MPD2    N111164   3.814   4.499  13.841  0.7076  0.0387  0.7567
  755MPD2    H711165   3.747   4.572  13.819  0.2753 -0.1337  1.5197
  756MPD2     C11166   0.549   0.168   9.287  0.1645 -0.0694 -0.2238
  756MPD2    C111167   0.438   0.150   9.365 -0.3447 -1.0090 -0.2368
  756MPD2    C211168   0.341   0.056   9.338  0.4764 -0.6736  0.2818
  756MPD2    C311169   0.366   4.696   9.227 -0.3885  0.8909 -0.1927
  756MPD2    C411170   0.472   4.721   9.136 -0.3113  0.2344 -0.1179
  756MPD2    C511171   0.564   0.097   9.164  0.0449  0.8895  0.2987
  756MPD2     H11172   0.251   0.055   9.398  0.5855 -0.6824  0.4477
  756MPD2    H111173   0.491   4.665   9.045  0.2675 -0.2777  0.3160
  756MPD2    H211174   0.625   0.242   9.308 -0.8752  0.9092  0.1015
  756MPD2    H311175   0.643   0.114   9.092  0.2390 -0.4268  0.1937
  756MPD2     N11176   0.270   4.596   9.208  0.5409 -0.0964 -0.3211
  756MPD2    H511177   0.206   4.585   9.286  1.6266 -0.5737  0.5043
  756MPD2    N111178   0.417   0.230   9.480  0.8054 -0.2731 -0.1291
  756MPD2    H711179   0.329   0.206   9.525 -0.2521  0.4854 -1.7752
  757MPD2     C11180   4.502   3.665   8.916 -0.0975  1.0085 -0.3421
  757MPD2    C111181   4.417   3.745   8.991 -0.0073  0.5750  0.0223
  757MPD2    C211182   4.465   3.870   9.028 -0.6732 -0.2140  0.0420
  757MPD2    C311183   4.592   3.917   8.982 -0.0451  0.5138  1.0161
  757MPD2    C411184   4.664   3.839   8.902  0.1465 -0.1693  0.3424
  757MPD2    C511185   4.620   3.717   8.873 -0.7107  0.6266  0.1389
  757MPD2     H11186   4.408   3.933   9.095  0.9621  1.7390 -0.3922
  757MPD2    H111187   0.035   3.872   8.865  0.3367  0.1057  1.0928
  757MPD2    H211188   4.471   3.565   8.888 -1.0581  1.8713 -2.4195
  757MPD2    H311189   4.691   3.646   8.830 -1.3204  1.3483 -2.0241
  757MPD2     N11190   4.634   4.045   9.024 -0.1360 -0.4359  0.0886
  757MPD2    H511191   4.576   4.090   9.094 -0.0800  0.2293 -0.2985
  757MPD2    N111192   4.293   3.687   9.027  0.1427  0.1035 -0.4487
  757MPD2    H711193   4.279   3.590   9.002 -1.6762  0.5571 -1.1662
  758MPD2     C11194   0.275   3.807  15.637  0.4848  0.0706 -0.2458
  758MPD2    C111195   0.240   3.678  15.688  0.2891 -0.4897  0.4508
  758MPD2    C211196   0.171   3.683  15.809  0.6419  0.9384  0.1002
  758MPD2    C311197   0.134   3.804  15.870 -0.1861 -0.0073  0.3120
  758MPD2    C411198   0.156   3.925  15.807  0.7009  0.1088  0.4439
  758MPD2    C511199   0.230   3.922  15.696 -0.4098  0.4684 -0.5837
  758MPD2     H11200   0.146   3.590  15.858 -0.5575  0.8500 -0.6623
  758MPD2    H111201   0.110   4.016  15.844 -0.2951 -0.0343 -0.4246
  758MPD2    H211202   0.338   3.802  15.549  2.0458  0.0951  0.8819
  758MPD2    H311203   0.262   4.016  15.651  3.4036 -0.3848  0.3734
  758MPD2     N11204   0.084   3.813  16.002  0.4952  0.2351 -0.7645
  758MPD2    H511205   0.066   3.905  16.042 -0.0591  0.1169 -0.7399
  758MPD2    N111206   0.286   3.560  15.631  0.8350  0.4698 -0.2926
  758MPD2    H711207   0.347   3.571  15.551 -0.5661  0.7394 -1.3224
  759MPD2     C11208   3.371   2.023  10.244 -0.3443 -0.3246  0.2837
  759MPD2    C111209   3.457   1.920  10.208 -0.1493 -1.0157  0.7348
  759MPD2    C211210   3.589   1.952  10.161 -0.2443 -0.5770 -1.0149
  759MPD2    C311211   3.630   2.074  10.139  0.1415 -0.0159 -0.0510
  759MPD2    C411212   3.554   2.178  10.186  0.0129 -0.6455 -0.1515
  759MPD2    C511213   3.428   2.148  10.233 -0.2837 -0.5481  0.2513
  759MPD2     H11214   3.655   1.875  10.124  0.0798 -0.4502 -0.6910
  759MPD2    H111215   3.595   2.278  10.187 -2.4207  0.3374 -0.4327
  759MPD2    H211216   3.267   2.008  10.272 -0.6967  3.0617  0.7774
  759MPD2    H311217   3.370   2.238  10.248 -0.3393 -1.1338  3.6462
  759MPD2     N11218   3.755   2.091  10.066  0.2320  0.0468 -0.2906
  759MPD2    H511219   3.804   2.005  10.044  0.5916  0.5251 -1.3743
  759MPD2    N111220   3.425   1.784  10.201 -0.3548 -0.6371 -0.5731
  759MPD2    H711221   3.498   1.720  10.172  0.5617 -0.7296  1.8597
  760MPD2     C11222   2.946   4.662  12.234  0.3336 -0.1368 -0.4748
  760MPD2    C111223   3.005   4.614  12.122 -0.7044 -0.4193  0.1826
  760MPD2    C211224   2.959   4.489  12.078 -1.3755  0.1425  0.2044
  760MPD2    C311225   2.878   4.411  12.157  0.2572  0.3792 -0.9259
  760MPD2    C411226   2.827   4.465  12.269  0.1122  0.9775 -0.5201
  760MPD2    C511227   2.849   4.596  12.309  0.3364  0.2917 -0.2540
  760MPD2     H11228   3.000   4.458  11.983  0.7651 -0.4736  1.3143
  760MPD2    H111229   2.754   4.411  12.327  1.4980  0.2417  0.5536
  760MPD2    H211230   2.970   0.036  12.269  2.9913 -0.4360 -1.4753
  760MPD2    H311231   2.804   4.641  12.397  1.3874  0.1845  0.3374
  760MPD2     N11232   2.868   4.264  12.138  0.1954  0.2657  0.5148
  760MPD2    H511233   2.832   4.220  12.222 -1.3201 -1.3766 -0.9766
  760MPD2    N111234   3.088   4.695  12.039 -0.2267 -0.6002 -0.0207
  760MPD2    H711235   3.129   4.652  11.957  3.4683  0.0168  1.4991
  761MPD2     C11236   4.256   3.851  10.916 -0.5062  0.2936  0.0229
  761MPD2    C111237   4.348   3.820  10.817  0.2938 -0.9653 -0.7630
  761MPD2    C211238   4.470   3.886  10.823  0.1674  0.2541 -0.1736
  761MPD2    C311239   4.509   3.979  10.918 -0.1577  0.3713  0.0258
  761MPD2    C411240   4.417   3.999  11.018  0.2349 -0.1929 -0.1042
  761MPD2    C511241   4.294   3.935  11.018  0.1184  0.5321 -0.0107
  761MPD2     H11242   4.538   3.864  10.741 -3.0652 -0.3527 -2.6700
  761MPD2    H111243   4.438   4.075  11.093 -1.1088 -0.9443  1.0304
  761MPD2    H211244   4.159   3.803  10.923 -0.8906  1.2388  1.1265
  761MPD2    H311245   4.221   3.951  11.096 -0.2719  1.7888 -0.6366
  761MPD2     N11246   4.637   4.036  10.920 -0.3121 -0.2392  0.5987
  761MPD2    H511247   4.659   4.085  11.006  2.9626 -1.1097  0.2498
  761MPD2    N111248   4.306   3.724  10.722  0.2850 -0.9423 -0.2134
  761MPD2    H711249   4.217   3.676  10.735 -1.4294  1.3355 -3.3178
  762MPD2     C11250   4.598   3.830  10.053 -0.5830 -0.0775  0.6096
  762MPD2    C111251   4.587   3.700  10.091 -0.2914  0.3093  0.2235
  762MPD2    C211252   4.678   3.614  10.038 -0.6094  0.5868 -0.1042
  762MPD2    C311253   0.058   3.658   9.955  0.3876 -0.8128  0.3220
  762MPD2    C411254   0.045   3.785   9.903  0.9529  0.3634  0.3453
  762MPD2    C511255   4.683   3.875   9.956  0.1265 -0.2241 -0.3125
  762MPD2     H11256   4.683   3.512  10.073 -0.7629  1.3589  2.1631
  762MPD2    H111257   0.115   3.824   9.831  1.7921 -0.3914  0.7522
  762MPD2    H211258   4.517   3.901  10.067 -1.8097 -1.3813  0.0763
  762MPD2    H311259   4.683   3.975   9.917  0.2805  0.6146  1.8144
  762MPD2     N11260   0.162   3.563   9.942 -0.5215 -0.2947 -0.3203
  762MPD2    H511261   0.148   3.474   9.989  0.5077 -0.5085 -0.4246
  762MPD2    N111262   4.481   3.662  10.177 -0.4855 -0.1186  0.3934
  762MPD2    H711263   4.426   3.740  10.211 -1.5093 -1.2789  1.3891
  763MPD2     C11264   1.681   3.724  16.530  0.3828  0.4952  0.4616
  763MPD2    C111265   1.749   3.771  16.422 -0.2193 -0.1415  0.1085
  763MPD2    C211266   1.816   3.893  16.426 -0.5579  0.2595  1.0558
  763MPD2    C311267   1.801   3.978  16.533  0.3083  0.3848  0.1107
  763MPD2    C411268   1.729   3.929  16.638  0.0336  0.2070  0.5678
  763MPD2    C511269   1.683   3.799  16.645  0.6101  0.1980 -0.3306
  763MPD2     H11270   1.859   3.927  16.332  2.8363  2.0522  3.2696
  763MPD2    H111271   1.714   3.998  16.720  2.1107 -1.4250  2.3325
  763MPD2    H211272   1.636   3.626  16.540  0.0504  0.7768  1.8281
  763MPD2    H311273   1.617   3.782  16.728 -1.5146  2.0964 -1.6405
  763MPD2     N11274   1.853   4.108  16.534  0.7763 -0.0304  0.3362
  763MPD2    H511275   1.825   4.163  16.615 -2.5953  2.4462 -2.5493
  763MPD2    N111276   1.743   3.707  16.299 -0.2326 -0.0902  0.2332
  763MPD2    H711277   1.769   3.758  16.215 -2.1713 -0.6249 -0.7078
  764MPD2     C11278   0.114   0.697  17.383  0.7660 -0.1326 -0.8370
  764MPD2    C111279   0.028   0.603  17.342  0.1065  0.6779 -0.2808
  764MPD2    C211280   0.003   0.493  17.413  0.3314 -0.0579 -0.4623
  764MPD2    C311281   0.070   0.477  17.533  0.0780 -0.6518  0.4330
  764MPD2    C411282   0.163   0.569  17.579  0.0277  0.6529 -0.7717
  764MPD2    C511283   0.177   0.678  17.497 -0.2049  0.0643  0.8258
  764MPD2     H11284   4.661   0.417  17.374  0.0864  0.1502 -0.4479
  764MPD2    H111285   0.214   0.556  17.674  1.0704  1.1059 -1.2789
  764MPD2    H211286   0.140   0.794  17.342  0.8759  1.0212  1.9292
  764MPD2    H311287   0.258   0.747  17.521 -1.9758  1.9881  1.3261
  764MPD2     N11288   0.044   0.362  17.600  0.0934  0.3069 -0.1325
  764MPD2    H511289   4.719   0.288  17.552 -0.1189 -0.9180  1.9962
  764MPD2    N111290   4.685   0.618  17.221  0.0182  0.0121 -0.2665
  764MPD2    H711291   4.627   0.539  17.195  1.1774 -1.2569  0.9727
  765MPD2     C11292   4.435   2.897  16.074 -0.3630  0.1619  0.3380
  765MPD2    C111293   4.500   2.999  16.020  0.2327  0.4127 -0.1207
  765MPD2    C211294   4.593   2.978  15.921  0.2465  0.5316  0.2306
  765MPD2    C311295   4.631   2.846  15.886 -0.6901  0.3618 -0.1963
  765MPD2    C411296   4.567   2.745  15.947  0.0484  0.2656 -0.6211
  765MPD2    C511297   4.473   2.768  16.040  0.3762  0.0841  0.5443
  765MPD2     H11298   4.636   3.062  15.866 -1.9798  1.0946 -0.6474
  765MPD2    H111299   4.595   2.644  15.923 -1.1664 -0.5121  1.2071
  765MPD2    H211300   4.358   2.907  16.150  0.7697  0.6195  1.4273
  765MPD2    H311301   4.420   2.679  16.072  1.5378 -0.8400 -0.1365
  765MPD2     N11302   0.004   2.826  15.789  1.4036 -0.5394 -0.0967
  765MPD2    H511303   0.040   2.909  15.744  3.4871 -0.6052  1.4889
  765MPD2    N111304   4.451   3.128  16.061 -0.0234 -0.0087  0.5195
  765MPD2    H711305   4.370   3.126  16.122 -0.7659  2.2763 -0.3922
  766MPD2     C11306   3.878   3.245  15.722  0.3644 -0.2262  0.4099
  766MPD2    C111307   4.014   3.229  15.707 -0.6975 -0.0783  0.3078
  766MPD2    C211308   4.060   3.155  15.598 -0.4008 -0.2629  0.0721
  766MPD2    C311309   3.964   3.125  15.501 -0.2613 -0.6888 -0.4831
  766MPD2    C411310   3.829   3.149  15.515 -0.1519 -0.3083 -0.4022
  766MPD2    C511311   3.788   3.211  15.624  0.4137 -0.2654 -0.6083
  766MPD2     H11312   4.166   3.145  15.581 -0.1161  1.2661  0.9379
  766MPD2    H111313   3.759   3.126  15.435 -0.5916 -0.0222 -0.1045
  766MPD2    H211314   3.836   3.296  15.808  0.2130 -1.5294  1.1123
  766MPD2    H311315   3.686   3.246  15.628 -0.5077 -3.0624 -0.0130
  766MPD2     N11316   4.001   3.078  15.375  0.0916 -0.2251 -0.3718
  766MPD2    H511317   3.928   3.092  15.306 -0.6626 -1.6257  0.1378
  766MPD2    N111318   4.103   3.286  15.806  0.0554 -0.1135  0.1424
  766MPD2    H711319   4.197   3.249  15.796  0.3926  1.0275 -1.0719
  767MPD2     C11320   3.642   3.427  15.356 -0.2141  0.6226  0.0085
  767MPD2    C111321   3.765   3.421  15.289 -0.0585 -0.1866 -0.7744
  767MPD2    C211322   3.773   3.368  15.159  0.0343  0.9164  0.2054
  767MPD2    C311323   3.663   3.310  15.104 -0.2716 -0.0764  0.4573
  767MPD2    C411324   3.539   3.310  15.172 -0.7051  0.7540 -0.4548
  767MPD2    C511325   3.534   3.373  15.297 -0.5745  0.4883  0.6169
  767MPD2     H11326   3.862   3.377  15.097 -0.9314  0.2373 -1.2939
  767MPD2    H111327   3.445   3.279  15.127 -0.1985 -3.3954  1.2898
  767MPD2    H211328   3.630   3.454  15.460 -0.5015 -0.4185  0.2461
  767MPD2    H311329   3.439   3.388  15.347 -0.6154  1.3673  0.2759
  767MPD2     N11330   3.666   3.251  14.978 -0.0783 -0.3192 -0.2358
  767MPD2    H511331   3.757   3.232  14.938 -0.3944 -3.4857  0.5270
  767MPD2    N111332   3.883   3.462  15.351  0.0976  0.0709  0.5693
  767MPD2    H711333   3.879   3.506  15.443 -0.9442  2.8532 -0.8068
  768MPD2     C11334   4.405   2.079  10.417  0.2904  0.6496 -0.3837
  768MPD2    C111335   4.341   2.028  10.528 -0.9799 -0.2378 -0.1104
  768MPD2    C211336   4.402   2.011  10.650 -0.3524 -0.1519  0.3140
  768MPD2    C311337   4.530   2.059  10.664  0.4155  0.4332 -0.3946
  768MPD2    C411338   4.599   2.099  10.553 -0.0764 -0.2611  0.3947
  768MPD2    C511339   4.534   2.101  10.433 -0.0640  0.4331  0.0166
  768MPD2     H11340   4.342   1.999  10.740 -0.0731 -0.2282  0.4886
  768MPD2    H111341   4.703   2.126  10.566 -0.4293  0.0344  2.6308
  768MPD2    H211342   4.364   2.115  10.323  0.6059  1.5400 -0.1803
  768MPD2    H311343   4.591   2.150  10.355  0.9334 -0.7326  0.0203
  768MPD2     N11344   4.600   2.062  10.795 -0.5076  0.1060  0.5001
  768MPD2    H511345   4.700   2.079  10.799 -0.2088 -1.8473  1.1740
  768MPD2    N111346   4.205   2.000  10.528 -0.2605  0.2984 -0.0380
  768MPD2    H711347   4.171   1.941  10.603 -1.7689 -0.4061 -1.2577
  769MPD2     C11348   1.057   4.692  14.633 -0.4213 -0.2017  0.0607
  769MPD2    C111349   0.975   4.646  14.730 -0.0757  0.2291 -0.5474
  769MPD2    C211350   0.993   4.687  14.858  0.2196 -0.0506  0.2933
  769MPD2    C311351   1.100   0.035  14.896  0.2940 -0.0968 -0.7225
  769MPD2    C411352   1.189   0.076  14.802 -0.2914  0.4356  0.3596
  769MPD2    C511353   1.158   0.054  14.674  0.4853  0.3016 -0.1001
  769MPD2     H11354   0.914   4.662  14.927  0.0684  1.0075  0.5119
  769MPD2    H111355   1.281   0.130  14.823  0.5861 -1.7200  2.1213
  769MPD2    H211356   1.052   4.657  14.530 -1.2983  0.1004 -0.0037
  769MPD2    H311357   1.233   0.084  14.602  2.1113 -1.7299  0.7374
  769MPD2     N11358   1.114   0.068  15.034  0.0861 -0.8043  0.0477
  769MPD2    H511359   1.054   0.014  15.095 -2.1809  2.2362  0.4620
  769MPD2    N111360   0.872   4.556  14.689 -0.0649  0.0129  0.7665
  769MPD2    H711361   0.877   4.529  14.592  0.5713  0.1897  0.7508
  770MPD2     C11362   0.763   3.501  14.759  0.0106 -0.0571 -1.1065
  770MPD2    C111363   0.633   3.539  14.735 -0.2109 -0.4544  0.0421
  770MPD2    C211364   0.600   3.674  14.732  0.2495  0.6009 -0.0393
  770MPD2    C311365   0.694   3.772  14.745 -0.2176 -0.3772 -0.0231
  770MPD2    C411366   0.817   3.735  14.791 -0.1994  0.6574 -0.6883
  770MPD2    C511367   0.845   3.606  14.792  0.6731  0.6162  0.5692
  770MPD2     H11368   0.499   3.700  14.705 -0.0543 -1.6942 -1.1301
  770MPD2    H111369   0.889   3.805  14.832 -1.6580  1.4749  0.4918
  770MPD2    H211370   0.788   3.396  14.759 -4.3565 -1.0916 -1.0908
  770MPD2    H311371   0.949   3.588  14.815  1.0986  1.0754 -0.9928
  770MPD2     N11372   0.661   3.904  14.723  1.7183 -0.0596 -0.2241
  770MPD2    H511373   0.562   3.915  14.707  1.8898 -2.5687 -2.9860
  770MPD2    N111374   0.548   3.428  14.718 -0.1974  0.2551 -0.1122
  770MPD2    H711375   0.579   3.337  14.686  0.7917  1.0795 -1.4962
  771MPD2     C11376   1.517   3.016  13.499  0.0374  1.1949  0.7197
  771MPD2    C111377   1.474   3.112  13.412 -0.1752  0.0147 -0.2104
  771MPD2    C211378   1.426   3.085  13.285 -0.3067  0.3554 -0.0197
  771MPD2    C311379   1.422   2.955  13.237  0.2392 -0.7410 -0.1640
  771MPD2    C411380   1.462   2.856  13.325  0.6684 -0.1108 -0.6368
  771MPD2    C511381   1.519   2.890  13.443  0.4242 -0.0034  0.1430
  771MPD2     H11382   1.385   3.159  13.217 -0.7727  0.8643  0.8226
  771MPD2    H111383   1.454   2.749  13.306 -0.1634  0.2573 -2.3065
  771MPD2    H211384   1.556   3.029  13.599  2.8561 -0.8390 -0.1169
  771MPD2    H311385   1.549   2.810  13.510  0.9239  0.8297  0.9021
  771MPD2     N11386   1.362   2.931  13.110  0.3151 -0.0657  0.2780
  771MPD2    H511387   1.331   3.010  13.054 -0.0014 -0.2466  0.2007
  771MPD2    N111388   1.490   3.251  13.441  0.2392 -0.3356 -0.0415
  771MPD2    H711389   1.442   3.322  13.386  0.3020  0.1529  0.5340
  772MPD2     C11390   0.983   3.766  13.581 -0.1239  0.0319  0.9911
  772MPD2    C111391   1.024   3.631  13.598  0.0505 -0.2069 -0.4883
  772MPD2    C211392   0.924   3.534  13.584  0.1205  0.8044 -0.0109
  772MPD2    C311393   0.791   3.573  13.550 -0.1825 -0.0977 -0.2639
  772MPD2    C411394   0.755   3.707  13.540  0.2139 -0.1266  0.5455
  772MPD2    C511395   0.854   3.801  13.553 -0.0295  0.7239 -0.0895
  772MPD2     H11396   0.946   3.430  13.608 -1.9262  0.1640 -0.9376
  772MPD2    H111397   0.653   3.733  13.512  0.6522 -0.5327 -1.4201
  772MPD2    H211398   1.055   3.844  13.603 -2.0691  1.4101  2.3638
  772MPD2    H311399   0.830   3.904  13.530 -0.2972  1.4887  3.6282
  772MPD2     N11400   0.691   3.483  13.541  0.2299 -0.4209  0.1472
  772MPD2    H511401   0.595   3.515  13.531 -0.0785 -1.6083 -0.6466
  772MPD2    N111402   1.158   3.593  13.611  0.1231 -0.1820 -0.8523
  772MPD2    H711403   1.174   3.494  13.623  0.2549  0.1492  1.6017
  773MPD2     C11404   0.693   3.839   0.298  0.1679  0.5131  0.4391
  773MPD2    C111405   0.618   3.763   0.212  0.1572  0.7518 -0.4478
  773MPD2    C211406   0.607   3.628   0.226  0.1212  0.2978 -0.1876
  773MPD2    C311407   0.660   3.559   0.342  0.3135  0.2916  0.8331
  773MPD2    C411408   0.724   3.648   0.434  0.7116  0.3706  0.1290
  773MPD2    C511409   0.744   3.783   0.412 -0.1974  0.4664  0.0832
  773MPD2     H11410   0.550   3.575   0.150 -0.1058  0.5239 -0.1774
  773MPD2    H111411   0.768   3.608   0.524  1.2830  1.5445  0.3640
  773MPD2    H211412   0.706   3.946   0.289  1.6235  0.1169 -1.9311
  773MPD2    H311413   0.795   3.846   0.484 -0.3253  0.9045 -0.2091
  773MPD2     N11414   0.647   3.417   0.351  0.2518 -1.1319 -0.1358
  773MPD2    H511415   0.616   3.365   0.270 -0.4726 -1.0977  0.1257
  773MPD2    N111416   0.553   3.807   0.096 -0.5107  0.2960  0.3378
  773MPD2    H711417   0.493   3.738   0.051  2.2185 -1.3660 -0.7340
  774MPD2     C11418   3.723   3.090  13.860  0.2998  0.6046 -0.6452
  774MPD2    C111419   3.851   3.088  13.813  0.4484 -0.5004 -0.5625
  774MPD2    C211420   3.885   3.149  13.694 -0.4787  0.0786 -0.1448
  774MPD2    C311421   3.792   3.211  13.619  0.3260  0.2522 -0.3251
  774MPD2    C411422   3.664   3.214  13.663 -0.2294  0.2860  0.1917
  774MPD2    C511423   3.628   3.160  13.787 -0.3973 -0.9370  0.4374
  774MPD2     H11424   3.985   3.142  13.654 -0.5280 -0.5980 -0.1484
  774MPD2    H111425   3.591   3.282  13.619 -1.1095  1.2243  3.0966
  774MPD2    H211426   3.702   3.075  13.966  0.4844 -0.0721 -0.7026
  774MPD2    H311427   3.530   3.176  13.831 -0.4023  0.8861 -0.2353
  774MPD2     N11428   3.846   3.272  13.507  0.1715  0.6731  0.0318
  774MPD2    H511429   3.945   3.264  13.489  0.2275 -1.4461  1.2984
  774MPD2    N111430   3.944   3.031  13.903 -0.1782  0.0159  0.0353
  774MPD2    H711431   3.915   3.012  13.999  1.2710 -0.6157  0.3517
  775MPD2     C11432   1.445   4.567  15.633 -0.1760  0.2837 -0.1642
  775MPD2    C111433   1.459   4.673  15.723  0.1566 -0.5941  0.0448
  775MPD2    C211434   1.548   0.048  15.699 -0.0327 -0.3938 -0.3075
  775MPD2    C311435   1.604   0.062  15.572  0.1394  0.0845  0.0416
  775MPD2    C411436   1.587   4.684  15.478  0.2542 -0.7414 -0.1091
  775MPD2    C511437   1.512   4.572  15.512  0.7528  0.2075  0.5557
  775MPD2     H11438   1.564   0.128  15.770 -1.4542  0.6001 -1.1137
  775MPD2    H111439   1.618   4.693  15.374  3.0894  0.5285  0.8687
  775MPD2    H211440   1.388   4.480  15.663 -0.2075  1.0021  1.8456
  775MPD2    H311441   1.498   4.493  15.438 -1.0873 -0.3861  1.5285
  775MPD2     N11442   1.689   0.167  15.518 -0.4696 -0.4220 -0.5036
  775MPD2    H511443   1.752   0.146  15.442  0.3970  2.3514 -0.5611
  775MPD2    N111444   1.381   4.663  15.844 -0.0128 -0.7958 -0.6159
  775MPD2    H711445   1.324   4.581  15.861 -0.3560 -0.8643 -2.0735
  776MPD2     C11446   0.361   0.649  11.517 -0.1304 -0.3755 -0.0190
  776MPD2    C111447   0.276   0.707  11.425  0.3954 -0.3056 -0.3831
  776MPD2    C211448   0.273   0.845  11.403 -0.3140 -0.1350 -0.8011
  776MPD2    C311449   0.353   0.930  11.485 -0.0289 -0.5878 -0.0091
  776MPD2    C411450   0.440   0.864  11.573 -0.6569 -0.1263  0.4114
  776MPD2    C511451   0.440   0.734  11.593  0.3148  0.1378 -0.4945
  776MPD2     H11452   0.207   0.888  11.329 -2.1361 -0.0537  0.8680
  776MPD2    H111453   0.494   0.926  11.644  0.4874 -0.7772  0.1171
  776MPD2    H211454   0.362   0.542  11.533 -2.0777 -0.0235  2.4280
  776MPD2    H311455   0.509   0.694  11.667  1.8421  0.4689 -1.7221
  776MPD2     N11456   0.388   1.064  11.457  0.3930  0.0608  0.3888
  776MPD2    H511457   0.447   1.112  11.524  0.4601 -1.2589  1.2689
  776MPD2    N111458   0.201   0.616  11.349 -0.0405 -0.4452  0.0490
  776MPD2    H711459   0.208   0.516  11.361  0.8472 -0.3880  0.0578
  777MPD2     C11460   0.671   2.280   1.028  0.5934  0.4655 -0.6622
  777MPD2    C111461   0.570   2.197   1.080 -0.0307 -0.2995  0.2999
  777MPD2    C211462   0.527   2.087   1.008  0.1797 -0.4287 -0.5785
  777MPD2    C311463   0.555   2.080   0.869  1.1850 -0.1855 -0.2999
  777MPD2    C411464   0.655   2.159   0.818  0.1539 -0.2945 -1.2384
  777MPD2    C511465   0.704   2.258   0.892  0.7439  0.0834 -0.6321
  777MPD2     H11466   0.462   2.009   1.045 -0.3573 -0.4348 -1.5181
  777MPD2    H111467   0.695   2.158   0.717  0.4095 -1.9993 -1.1158
  777MPD2    H211468   0.724   2.355   1.085  0.8095 -1.1172  1.2300
  777MPD2    H311469   0.780   2.320   0.845 -0.4338  1.6153 -0.5058
  777MPD2     N11470   0.474   1.995   0.788 -0.0722 -0.0099 -0.6734
  777MPD2    H511471   0.398   1.938   0.825  1.2381 -1.3103  0.0235
  777MPD2    N111472   0.537   2.220   1.217 -0.4425  0.0217  0.2946
  777MPD2    H711473   0.573   2.301   1.266 -2.3084  0.0758  1.5519
  778MPD2     C11474   1.865   2.803  15.296 -0.7264  0.4100  0.3111
  778MPD2    C111475   1.874   2.718  15.189 -0.6133 -0.5043 -0.2230
  778MPD2    C211476   1.967   2.743  15.087 -0.2694  0.9219 -1.0799
  778MPD2    C311477   2.070   2.835  15.106  0.1575  0.1931  0.0391
  778MPD2    C411478   2.064   2.914  15.225  0.2552  0.1755  0.4565
  778MPD2    C511479   1.954   2.908  15.313 -0.3739 -0.4127  0.9664
  778MPD2     H11480   1.980   2.670  15.008  1.5252  2.6865 -2.3894
  778MPD2    H111481   2.139   2.987  15.253 -0.3860  0.5448  1.2155
  778MPD2    H211482   1.789   2.794  15.372  0.2852 -0.0063  1.2889
  778MPD2    H311483   1.948   2.980  15.394 -0.5945 -2.3085  2.6396
  778MPD2     N11484   2.177   2.848  15.014 -0.4452 -0.8596 -0.1842
  778MPD2    H511485   2.175   2.781  14.938 -0.3339  1.7182 -2.4667
  778MPD2    N111486   1.781   2.606  15.176 -0.5836  1.1552  0.4436
  778MPD2    H711487   1.791   2.548  15.094  0.5233  3.4173 -1.0131
  779MPD2     C11488   1.318   1.486  13.557  0.2410 -1.4747  0.0948
  779MPD2    C111489   1.332   1.473  13.691  0.8439  0.1699 -0.4298
  779MPD2    C211490   1.308   1.579  13.774  0.5540 -0.0625 -0.0955
  779MPD2    C311491   1.284   1.706  13.724  0.3468 -0.1134  0.0431
  779MPD2    C411492   1.275   1.724  13.590  0.1628 -0.3869 -0.5861
  779MPD2    C511493   1.290   1.612  13.510 -0.8854  0.5246  0.5012
  779MPD2     H11494   1.318   1.575  13.882 -0.0422  0.3045 -0.0241
  779MPD2    H111495   1.281   1.824  13.550  0.7863  0.3951  1.4119
  779MPD2    H211496   1.332   1.402  13.490  1.3634 -0.1096 -1.3828
  779MPD2    H311497   1.296   1.629  13.403 -0.0826 -1.5288  0.2165
  779MPD2     N11498   1.290   1.811  13.816 -0.4528 -0.0372  0.3739
  779MPD2    H511499   1.291   1.785  13.914 -2.7684  0.1968  0.4616
  779MPD2    N111500   1.366   1.345  13.745 -0.1320  0.0345  0.2973
  779MPD2    H711501   1.356   1.333  13.846 -0.3566  0.2688  0.3056
  780MPD2     C11502   0.716   1.464   1.141 -0.3204  0.0717  0.0305
  780MPD2    C111503   0.654   1.394   1.036  0.3368  0.0249  0.3959
  780MPD2    C211504   0.722   1.395   0.917 -0.5224 -0.3398  0.5655
  780MPD2    C311505   0.855   1.443   0.906  0.0909 -0.0871  0.0298
  780MPD2    C411506   0.919   1.498   1.014 -0.4428  0.6878 -0.0828
  780MPD2    C511507   0.845   1.502   1.124  0.0916 -0.4356  0.7345
  780MPD2     H11508   0.681   1.354   0.825 -1.1369 -0.5459  0.9310
  780MPD2    H111509   1.024   1.526   1.016 -0.3709  0.3673  0.4856
  780MPD2    H211510   0.659   1.474   1.233 -0.8944  0.6980 -0.3944
  780MPD2    H311511   0.890   1.541   1.215  0.9608  0.4738 -0.0775
  780MPD2     N11512   0.913   1.450   0.777 -0.7339  0.6053  0.4768
  780MPD2    H511513   0.865   1.402   0.702  1.6571 -0.0116 -0.6494
  780MPD2    N111514   0.533   1.341   1.055  0.0106  0.4333 -0.5112
  780MPD2    H711515   0.499   1.341   1.150 -0.0914  2.2795 -0.5407
  781MPD2     C11516   2.528   4.115  12.134 -0.5638 -0.3999 -1.2176
  781MPD2    C111517   2.562   3.982  12.132  0.2622 -0.1324  0.0046
  781MPD2    C211518   2.602   3.925  12.008 -0.3665  0.3300  0.4609
  781MPD2    C311519   2.604   4.005  11.895  0.8443 -0.3668 -0.1504
  781MPD2    C411520   2.550   4.134  11.905 -0.2425 -0.4618  0.1291
  781MPD2    C511521   2.523   4.191  12.022  0.6806  0.3405  0.2137
  781MPD2     H11522   2.640   3.823  12.005  0.1851  0.6353 -2.3938
  781MPD2    H111523   2.538   4.197  11.818 -1.2394  0.0764  0.6668
  781MPD2    H211524   2.494   4.163  12.225 -2.0088 -0.3554 -1.7722
  781MPD2    H311525   2.489   4.294  12.024 -3.2495 -0.9199 -0.7484
  781MPD2     N11526   2.623   3.951  11.768  0.1257  0.7141 -0.0026
  781MPD2    H511527   2.614   4.013  11.688 -2.1839  0.3499 -0.0410
  781MPD2    N111528   2.567   3.897  12.246 -0.7244  0.0974 -0.3449
  781MPD2    H711529   2.605   3.805  12.230 -1.1690 -0.1198 -0.1521
  782MPD2     C11530   0.895   4.540   9.680 -0.6193 -0.0857 -0.1861
  782MPD2    C111531   0.884   4.482   9.803 -0.0764 -0.1403 -0.3164
  782MPD2    C211532   0.951   4.532   9.911 -0.0433  0.4408 -0.2489
  782MPD2    C311533   1.031   4.645   9.891  0.0173 -0.7309 -0.9120
  782MPD2    C411534   1.035   4.709   9.770  0.3848  0.6933 -0.3635
  782MPD2    C511535   0.966   4.659   9.667  0.4958  0.1165 -0.2425
  782MPD2     H11536   0.948   4.482  10.007 -0.1410  2.8476  1.0072
  782MPD2    H111537   1.093   0.075   9.757 -0.3210  1.0269 -1.1486
  782MPD2    H211538   0.860   4.491   9.590 -1.4775 -1.2256  0.7767
  782MPD2    H311539   0.967   4.711   9.572 -2.3815 -0.8040 -0.7496
  782MPD2     N11540   1.109   4.680  10.003 -0.0283 -0.2871  0.0665
  782MPD2    H511541   1.107   4.631  10.092 -1.4062 -1.4104 -0.5849
  782MPD2    N111542   0.818   4.351   9.797  0.0656  0.2632  0.1813
  782MPD2    H711543   0.802   4.315   9.704 -1.3672  2.1031 -0.2832
  783MPD2     C11544   0.771   4.096  10.631 -0.1223  0.0026 -0.4686
  783MPD2    C111545   0.646   4.096  10.578 -0.0639  0.1287 -0.3529
  783MPD2    C211546   0.636   4.049  10.452  0.0737 -0.1832 -0.4718
  783MPD2    C311547   0.751   4.000  10.380  0.3967  0.5611 -0.1501
  783MPD2    C411548   0.876   4.003  10.430 -0.3028 -0.1768 -0.3524
  783MPD2    C511549   0.882   4.051  10.563 -0.0191 -0.0239 -0.1502
  783MPD2     H11550   0.547   4.040  10.391  0.2766  0.7767 -0.9094
  783MPD2    H111551   0.969   3.973  10.385  0.8090  1.2212  1.0086
  783MPD2    H211552   0.789   4.130  10.732  0.8182 -0.4494 -0.4768
  783MPD2    H311553   0.978   4.065  10.611  0.6295 -1.7375 -0.9454
  783MPD2     N11554   0.727   3.966  10.244 -0.1252 -0.5075 -0.2511
  783MPD2    H511555   0.631   3.967  10.212 -0.1504 -0.3063 -0.1613
  783MPD2    N111556   0.537   4.143  10.652 -0.0439  0.3828 -0.7186
  783MPD2    H711557   0.546   4.183  10.745 -1.9475 -2.1367  0.5735
  784MPD2     C11558   2.326   0.064   0.434 -0.0559  0.7736  0.4600
  784MPD2    C111559   2.289   0.054   0.567 -0.4959 -0.6018  0.4254
  784MPD2    C211560   2.172   0.111   0.607  0.0891  0.3655  0.5373
  784MPD2    C311561   2.083   0.164   0.512  0.0598 -0.6172  0.2119
  784MPD2    C411562   2.125   0.185   0.388 -0.5536 -0.2782  0.5201
  784MPD2    C511563   2.246   0.135   0.348  0.5355  0.0037  0.1028
  784MPD2     H11564   2.145   0.101   0.712 -0.2161 -2.0152  0.2396
  784MPD2    H111565   2.059   0.231   0.315  2.4274  1.2461 -1.2385
  784MPD2    H211566   2.414   0.013   0.398 -1.1749  0.3736 -1.7449
  784MPD2    H311567   2.276   0.157   0.246 -0.0988 -1.2896 -0.3638
  784MPD2     N11568   1.969   0.216   0.570 -0.3551  0.3733 -0.2561
  784MPD2    H511569   1.964   0.213   0.672 -0.3757 -1.6977 -0.3083
  784MPD2    N111570   2.376   4.720   0.664  0.1939 -0.1603  0.6991
  784MPD2    H711571   2.342   4.718   0.759 -0.4958  3.3855  0.5323
  785MPD2     C11572   3.287   2.616  10.575 -0.1493 -1.0025 -0.0419
  785MPD2    C111573   3.200   2.715  10.621  0.5268  0.4455  0.1821
  785MPD2    C211574   3.068   2.703  10.609  0.9487  0.3371  0.1851
  785MPD2    C311575   3.019   2.592  10.534  0.0586  0.3431 -0.1174
  785MPD2    C411576   3.102   2.490  10.494  0.2890 -0.1291 -0.6584
  785MPD2    C511577   3.236   2.494  10.520 -0.1653  0.6513 -0.4786
  785MPD2     H11578   3.012   2.790  10.638 -2.4284 -1.9465  0.4643
  785MPD2    H111579   3.061   2.409  10.435  1.1036 -0.5635 -0.6293
  785MPD2    H211580   3.392   2.632  10.595 -0.5214 -1.1611  2.0503
  785MPD2    H311581   3.293   2.408  10.484 -0.5613  0.2837 -0.2231
  785MPD2     N11582   2.880   2.601  10.500 -0.1362 -0.3409 -0.0381
  785MPD2    H511583   2.842   2.680  10.550  1.6382 -0.3386  1.3188
  785MPD2    N111584   3.247   2.831  10.692  0.3418 -0.1610 -0.5540
  785MPD2    H711585   3.171   2.892  10.721 -0.7015 -0.8592 -1.8270
  786MPD2     C11586   1.881   0.817  14.894 -0.7446  0.3930 -0.1305
  786MPD2    C111587   2.012   0.793  14.843  1.0561 -0.0222  1.0560
  786MPD2    C211588   2.126   0.824  14.919  0.2534 -0.3157  0.1241
  786MPD2    C311589   2.113   0.879  15.045 -0.0827  0.1815 -0.2157
  786MPD2    C411590   1.985   0.909  15.091  0.4056  0.6585  0.0539
  786MPD2    C511591   1.875   0.879  15.019  0.2788 -0.1365 -0.0940
  786MPD2     H11592   2.223   0.799  14.878  0.4536 -1.3455  1.2225
  786MPD2    H111593   1.968   0.934  15.195  1.0008 -0.2486  0.3636
  786MPD2    H211594   1.795   0.784  14.837  1.2528 -2.5409 -1.4658
  786MPD2    H311595   1.778   0.894  15.066 -0.1422 -0.1841 -0.9544
  786MPD2     N11596   2.227   0.908  15.120 -0.3587 -0.8263  0.8652
  786MPD2    H511597   2.218   0.939  15.216  1.2069  1.9309  0.1426
  786MPD2    N111598   2.035   0.730  14.724 -0.4295  0.0799  0.5164
  786MPD2    H711599   2.128   0.699  14.697  0.5682  2.6399  0.9848
  787MPD2     C11600   2.584   0.569  14.198 -0.0774 -0.0272  0.4426
  787MPD2    C111601   2.529   0.523  14.319  0.0469 -0.3308  0.0426
  787MPD2    C211602   2.609   0.484  14.421  0.0669  0.0209 -0.1482
  787MPD2    C311603   2.745   0.477  14.404  0.0791  0.0891  0.2078
  787MPD2    C411604   2.802   0.523  14.285 -0.8567  1.3736 -0.3852
  787MPD2    C511605   2.720   0.561  14.181 -0.6028 -0.3317 -1.0839
  787MPD2     H11606   2.579   0.449  14.519 -0.7333  0.6046 -0.1904
  787MPD2    H111607   2.908   0.520  14.261 -0.9119 -0.0679 -0.4832
  787MPD2    H211608   2.524   0.601  14.113 -0.9651 -4.7941 -0.7078
  787MPD2    H311609   2.756   0.598  14.086 -1.3347 -2.0436 -2.0227
  787MPD2     N11610   2.824   0.423  14.507 -0.1139  0.5807 -0.0275
  787MPD2    H511611   2.775   0.400  14.593  2.4840  0.1349  1.3316
  787MPD2    N111612   2.383   0.529  14.332 -0.3316 -0.0336  0.1798
  787MPD2    H711613   2.329   0.578  14.261  0.3736  0.3637 -0.0888
  788MPD2     C11614   4.018   3.945   0.564  0.1197 -0.9302 -0.6037
  788MPD2    C111615   4.062   3.834   0.496 -0.6914 -0.0855 -0.6269
  788MPD2    C211616   4.092   3.850   0.364 -0.4703  0.9746 -0.3848
  788MPD2    C311617   4.065   3.959   0.287 -0.0937  0.1010  0.4114
  788MPD2    C411618   4.000   4.059   0.356  0.1328  0.2143 -0.1841
  788MPD2    C511619   3.992   4.055   0.494 -0.1515 -0.1449  0.1003
  788MPD2     H11620   4.123   3.763   0.307  0.4482  0.6475  0.6215
  788MPD2    H111621   3.962   4.143   0.299  2.9794  1.6639  0.0146
  788MPD2    H211622   4.001   3.951   0.671 -1.6346  1.4322 -1.0269
  788MPD2    H311623   3.961   4.140   0.554  1.6082  0.0086  0.8031
  788MPD2     N11624   4.076   3.964   0.149  0.5206 -0.1593 -0.4416
  788MPD2    H511625   4.027   4.041   0.105 -0.5049 -0.1015  0.8018
  788MPD2    N111626   4.076   3.705   0.558  0.2072 -0.1490  0.3590
  788MPD2    H711627   4.109   3.630   0.498  1.7799  0.8948 -0.0851
  789MPD2     C11628   4.365   3.645  16.361  0.1870 -0.8930 -0.5451
  789MPD2    C111629   4.336   3.551  16.459 -0.8109 -0.7383  0.3924
  789MPD2    C211630   4.233   3.592  16.550  0.0173  0.4042 -0.3256
  789MPD2    C311631   4.171   3.714  16.548 -0.2025 -0.4125  0.3621
  789MPD2    C411632   4.216   3.806  16.455  0.1868 -0.6857  0.1671
  789MPD2    C511633   4.301   3.763  16.359 -0.5752 -0.4996 -0.0391
  789MPD2     H11634   4.208   3.525  16.632  0.0121  0.3226 -0.3932
  789MPD2    H111635   4.180   3.907  16.443 -0.9942 -1.1785 -0.4187
  789MPD2    H211636   4.439   3.638  16.282  0.2223 -0.5788 -0.5394
  789MPD2    H311637   4.338   3.840  16.292  1.2108  0.2554  1.8010
  789MPD2     N11638   4.079   3.761  16.648  0.5861  0.1345  0.3087
  789MPD2    H511639   4.057   3.858  16.631 -1.3555 -0.4404 -0.4680
  789MPD2    N111640   4.398   3.427  16.482 -0.5385  0.0066  0.2776
  789MPD2    H711641   4.358   3.368  16.554 -0.1958  0.2651  0.6801
  790MPD2     C11642   0.089   0.891  13.517  0.2977 -0.2509  0.5752
  790MPD2    C111643   0.168   0.780  13.506 -0.1741 -0.3078  0.0409
  790MPD2    C211644   0.215   0.727  13.388 -0.1592  0.0079 -0.7494
  790MPD2    C311645   0.178   0.780  13.265 -0.2892  0.1521  0.0505
  790MPD2    C411646   0.090   0.887  13.278 -0.4770 -0.5081 -0.6180
  790MPD2    C511647   0.040   0.943  13.394  0.8100 -0.1651 -0.4826
  790MPD2     H11648   0.266   0.632  13.378  0.3237  0.4670 -2.8579
  790MPD2    H111649   0.054   0.945  13.194  1.3622  2.0715  0.3704
  790MPD2    H211650   0.048   0.921  13.613  0.3820 -0.1576  0.5820
  790MPD2    H311651   4.706   1.033  13.385  3.2446  1.6185  1.3394
  790MPD2     N11652   0.222   0.723  13.139 -0.2977  0.1319 -0.5217
  790MPD2    H511653   0.286   0.645  13.153 -0.8874 -0.4655 -1.1660
  790MPD2    N111654   0.202   0.711  13.624  1.2425 -0.0732  0.0092
  790MPD2    H711655   0.163   0.733  13.715  1.9631  0.3982  0.2057
  791MPD2     C11656   4.454   0.602  12.529  0.6020  0.5529 -0.1180
  791MPD2    C111657   4.524   0.494  12.585  0.8633 -0.1392  0.2251
  791MPD2    C211658   4.481   0.361  12.557  0.1836  0.5059 -0.0732
  791MPD2    C311659   4.375   0.337  12.474 -0.1302  0.1110 -0.8153
  791MPD2    C411660   4.322   0.450  12.402  0.4148  0.1348  0.3586
  791MPD2    C511661   4.361   0.576  12.431  0.6327 -0.2536 -0.3619
  791MPD2     H11662   4.533   0.283  12.611 -0.4292  0.7449  0.8620
  791MPD2    H111663   4.237   0.447  12.335  0.7458 -1.0129 -0.0145
  791MPD2    H211664   4.489   0.704  12.538 -0.5069  0.9592 -0.3942
  791MPD2    H311665   4.314   0.659  12.379 -0.2064  2.1588  4.1986
  791MPD2     N11666   4.330   0.206  12.458 -0.3091 -0.1053 -0.2015
  791MPD2    H511667   4.358   0.132  12.522  0.3659  1.5085  1.3687
  791MPD2    N111668   4.645   0.529  12.657 -0.5618  0.4106 -0.7572
  791MPD2    H711669   4.664   0.627  12.676 -0.4831  0.5500 -1.5703
  792MPD2     C11670   1.277   0.788  10.964  0.2119  0.0504  0.3438
  792MPD2    C111671   1.148   0.756  10.959  0.5527  0.1788 -0.1617
  792MPD2    C211672   1.118   0.643  10.890 -0.7015  0.2763 -0.4018
  792MPD2    C311673   1.205   0.555  10.826 -0.2880  0.4604 -0.4783
  792MPD2    C411674   1.338   0.584  10.845 -0.1009 -0.5453 -0.7526
  792MPD2    C511675   1.371   0.699  10.912  0.4260 -0.1234 -0.2153
  792MPD2     H11676   1.014   0.621  10.869 -0.1288 -2.4993 -0.2259
  792MPD2    H111677   1.411   0.509  10.818  2.4310  1.9682 -0.8488
  792MPD2    H211678   1.321   0.879  11.003  1.7502 -0.1275 -0.9570
  792MPD2    H311679   1.477   0.718  10.926  0.6223 -0.4658 -1.3063
  792MPD2     N11680   1.163   0.434  10.763 -1.0935  0.2814 -0.2948
  792MPD2    H511681   1.228   0.399  10.692  1.7986  0.3547  2.3117
  792MPD2    N111682   1.050   0.837  11.015 -0.1202 -0.0606  0.0680
  792MPD2    H711683   1.081   0.929  11.044  0.9443 -0.2103 -0.5885
  793MPD2     C11684   0.356   0.048  10.258 -0.2373  0.3261  0.0586
  793MPD2    C111685   0.454   0.133  10.216 -0.0498 -0.1375  0.7434
  793MPD2    C211686   0.564   0.147  10.296  0.0908  0.4391  0.2568
  793MPD2    C311687   0.579   0.076  10.409  0.0038 -0.1324  0.1624
  793MPD2    C411688   0.474   0.010  10.459  0.6199  0.2533 -0.0276
  793MPD2    C511689   0.359   4.724  10.386 -0.0562  0.5089  0.6540
  793MPD2     H11690   0.638   0.218  10.262  0.1358  1.4455  2.4310
  793MPD2    H111691   0.475   4.700  10.562 -3.3877  0.9830  0.2349
  793MPD2    H211692   0.273   0.022  10.195  0.5658 -0.9416 -0.4744
  793MPD2    H311693   0.270   4.674  10.422  0.6107 -1.1348  0.0531
  793MPD2     N11694   0.693   0.117  10.472 -0.0794  0.6707  0.1945
  793MPD2    H511695   0.746   0.191  10.428  0.4566  0.9601  1.3198
  793MPD2    N111696   0.461   0.192  10.090  0.1590 -0.3811  0.1180
  793MPD2    H711697   0.537   0.259  10.082 -0.3718  0.0292 -1.4688
  794MPD2     C11698   0.525   4.406  17.159 -1.0498 -1.3270 -0.6178
  794MPD2    C111699   0.436   4.299  17.141  0.1357 -0.1261  0.2155
  794MPD2    C211700   0.348   4.300  17.026 -0.0633  0.6348  0.6400
  794MPD2    C311701   0.353   4.416  16.942 -0.1407 -0.1309  0.1233
  794MPD2    C411702   0.424   4.523  16.976  0.6645 -0.0207 -0.4989
  794MPD2    C511703   0.519   4.517  17.079 -0.2254  0.2764 -0.7005
  794MPD2     H11704   0.287   4.212  17.008  1.4016 -0.5330  1.3911
  794MPD2    H111705   0.437   4.607  16.908  0.5914  1.5173  1.3724
  794MPD2    H211706   0.589   4.411  17.247 -1.2916  0.6978 -0.5574
  794MPD2    H311707   0.573   4.609  17.098  0.8023 -0.8567  1.7836
  794MPD2     N11708   0.262   4.433  16.835 -0.8397 -0.7225  0.0875
  794MPD2    H511709   0.259   4.528  16.799  0.7793 -2.0183 -3.5235
  794MPD2    N111710   0.421   4.190  17.234 -0.5255  0.6285  0.9345
  794MPD2    H711711   0.333   4.139  17.227 -0.4506  0.6379 -0.1703
  795MPD2     C11712   2.600   2.140  13.734  0.7921  0.4697  0.1715
  795MPD2    C111713   2.588   2.066  13.610 -0.4382  0.7554  0.9357
  795MPD2    C211714   2.671   1.960  13.591  0.0709  0.4981 -0.5035
  795MPD2    C311715   2.762   1.920  13.682 -0.1911  0.1663  0.1153
  795MPD2    C411716   2.767   1.977  13.806 -0.2066  0.3590  0.4351
  795MPD2    C511717   2.689   2.089  13.828  0.0877  0.8171  0.0440
  795MPD2     H11718   2.656   1.909  13.496  0.2537  0.1802 -0.3582
  795MPD2    H111719   2.833   1.938  13.883 -0.0375  0.3629  0.2946
  795MPD2    H211720   2.542   2.231  13.744 -1.5217 -0.8685 -0.8629
  795MPD2    H311721   2.670   2.130  13.926 -0.4460  0.3750  0.1236
  795MPD2     N11722   2.842   1.807  13.663  1.0884  0.7808 -0.1156
  795MPD2    H511723   2.906   1.782  13.737 -0.5573 -2.3982  0.2429
  795MPD2    N111724   2.503   2.104  13.500 -0.1695  0.2844  0.0769
  795MPD2    H711725   2.509   2.043  13.419 -3.0574 -1.1402  0.9286
  796MPD2     C11726   2.325   2.985  16.083 -0.3816  0.2326  0.8124
  796MPD2    C111727   2.430   3.062  16.132  0.3346 -0.0045  0.0450
  796MPD2    C211728   2.429   3.195  16.119  0.5005  0.4229  0.4834
  796MPD2    C311729   2.323   3.253  16.047  0.3749 -0.1893 -0.5664
  796MPD2    C411730   2.222   3.169  15.989  0.5827  0.5888 -0.3662
  796MPD2    C511731   2.225   3.032  16.005  0.4215  0.5477 -0.7399
  796MPD2     H11732   2.508   3.263  16.150 -0.2163  0.7903  1.4914
  796MPD2    H111733   2.141   3.209  15.930 -0.4483  0.0129  0.6647
  796MPD2    H211734   2.342   2.878  16.088  1.6085  0.4847 -0.2571
  796MPD2    H311735   2.153   2.968  15.957  0.7711 -1.0065  0.7987
  796MPD2     N11736   2.318   3.394  16.027 -0.4291  0.6098 -0.3570
  796MPD2    H511737   2.379   3.457  16.078 -0.6135  0.4576  0.0535
  796MPD2    N111738   2.538   2.997  16.198 -0.4846 -0.7573 -0.4424
  796MPD2    H711739   2.527   2.897  16.215  2.3470 -1.2908 -1.7046
  797MPD2     C11740   3.151   2.608  17.519  0.1831 -0.1866  0.2756
  797MPD2    C111741   3.084   2.687  17.618 -0.3603 -0.8782 -0.1900
  797MPD2    C211742   3.002   2.791  17.573 -0.1062 -0.7708 -0.1407
  797MPD2    C311743   3.018   2.833  17.438 -0.5704 -0.1802  0.6331
  797MPD2    C411744   3.093   2.749  17.355 -1.1982 -0.4673  0.2302
  797MPD2    C511745   3.157   2.642  17.388  0.2714  0.1260 -0.5940
  797MPD2     H11746   2.954   2.860  17.641 -3.0870 -0.9305 -2.0719
  797MPD2    H111747   3.093   2.774  17.250 -0.6319 -1.7157 -0.0703
  797MPD2    H211748   3.209   2.522  17.551 -0.3508 -0.6126  0.1001
  797MPD2    H311749   3.210   2.579  17.317  2.0582 -0.6448  1.4482
  797MPD2     N11750   2.948   2.940  17.376  0.1131  0.3085 -0.3741
  797MPD2    H511751   2.957   2.940  17.275 -0.3816  1.5837 -0.4120
  797MPD2    N111752   3.085   2.651   0.055  0.0699 -0.4172 -0.3259
  797MPD2    H711753   3.014   2.700   0.108 -1.6876 -0.9765 -2.1342
  798MPD2     C11754   3.075   3.359   0.207  0.1161 -0.1621 -0.0996
  798MPD2    C111755   3.034   3.253   0.124  0.7014  0.6018  0.6163
  798MPD2    C211756   3.030   3.122   0.179  0.2983 -0.4181  0.1861
  798MPD2    C311757   3.087   3.093   0.302 -0.6014 -0.0796 -0.7320
  798MPD2    C411758   3.130   3.199   0.379 -0.1357 -0.1794  0.1810
  798MPD2    C511759   3.116   3.329   0.333 -0.7260  0.2457 -0.8412
  798MPD2     H11760   2.990   3.044   0.115 -0.0133  0.2193 -0.3982
  798MPD2    H111761   3.169   3.186   0.479  1.1998 -2.1964 -0.6088
  798MPD2    H211762   3.080   3.462   0.176 -0.4475  0.2699  1.2430
  798MPD2    H311763   3.145   3.409   0.400 -0.0461  0.9710 -1.9971
  798MPD2     N11764   3.097   2.958   0.335  0.3186 -0.8557  0.5056
  798MPD2    H511765   3.068   2.885   0.271 -0.9330 -0.0187  0.1213
  798MPD2    N111766   2.995   3.272  17.694  0.2417 -0.0219  0.6432
  798MPD2    H711767   2.945   3.194  17.651 -0.3534  1.0709 -0.6620
  799MPD2     C11768   2.266   4.353  15.285  0.1490 -0.1443 -0.2927
  799MPD2    C111769   2.184   4.275  15.204 -0.3672  0.3272 -0.3780
  799MPD2    C211770   2.080   4.338  15.130  0.2287 -0.0398  0.0916
  799MPD2    C311771   2.069   4.475  15.129 -0.0366 -0.2400  0.6606
  799MPD2    C411772   2.164   4.555  15.200  0.0666  0.4184 -0.7604
  799MPD2    C511773   2.258   4.498  15.284  0.2347 -0.4677  0.0707
  799MPD2     H11774   2.018   4.269  15.073  0.7575  0.7942 -1.4983
  799MPD2    H111775   2.161   4.663  15.199 -1.1444  0.4188  2.2327
  799MPD2    H211776   2.338   4.302  15.347  0.0634 -0.2784 -0.3025
  799MPD2    H311777   2.335   4.561  15.327  1.2269 -0.6512 -1.4515
  799MPD2     N11778   1.972   4.544  15.046  0.7819  0.2385  0.2211
  799MPD2    H511779   1.980   4.645  15.046  0.5926  0.2583 -0.7640
  799MPD2    N111780   2.182   4.131  15.206  0.5035  0.0844 -0.3002
  799MPD2    H711781   2.104   4.092  15.154 -0.8743 -1.4404  2.8960
  800MPD2     C11782   2.404   1.008  13.959 -0.4372  0.4143  0.1813
  800MPD2    C111783   2.528   0.966  13.998  0.6318  0.3330  0.0687
  800MPD2    C211784   2.581   0.844  13.956  0.0699  0.4406 -0.2359
  800MPD2    C311785   2.510   0.755  13.868 -0.1667 -1.1682 -0.0993
  800MPD2    C411786   2.382   0.798  13.820 -0.9278  0.2888  0.5231
  800MPD2    C511787   2.333   0.919  13.870  0.1143 -0.0539 -0.0757
  800MPD2     H11788   2.682   0.819  13.984 -0.2121 -0.1622  0.2436
  800MPD2    H111789   2.324   0.734  13.756  0.2716 -0.3419  0.0796
  800MPD2    H211790   2.358   1.105  13.979 -1.1144  0.6250 -2.3920
  800MPD2    H311791   2.240   0.957  13.830 -0.9003 -1.4993  0.8862
  800MPD2     N11792   2.589   0.653  13.812 -0.7710  0.0542  0.3052
  800MPD2    H511793   2.685   0.659  13.846 -1.2295 -0.9393  1.7665
  800MPD2    N111794   2.603   1.056  14.071 -0.3540  0.5054 -0.2404
  800MPD2    H711795   2.573   1.150  14.094 -1.3355 -0.1352  1.0983
  801MPD2     C11796   2.616   1.735  14.072  0.2271  0.5103 -0.3318
  801MPD2    C111797   2.611   1.623  14.154  0.5260  0.2228  0.0861
  801MPD2    C211798   2.509   1.624  14.250  1.0605 -0.1599  0.3498
  801MPD2    C311799   2.429   1.736  14.274 -0.5469 -1.1218 -0.6236
  801MPD2    C411800   2.439   1.847  14.191  0.5836 -0.6511 -0.2673
  801MPD2    C511801   2.531   1.841  14.094  0.2878 -0.0018  0.0463
  801MPD2     H11802   2.496   1.537  14.313 -0.1678  0.2768  0.6976
  801MPD2    H111803   2.375   1.934  14.198  2.1089  0.8078 -4.3603
  801MPD2    H211804   2.694   1.735  13.996  0.2860  0.1730 -0.2718
  801MPD2    H311805   2.533   1.920  14.019 -0.1744 -0.5943 -0.5878
  801MPD2     N11806   2.315   1.729  14.360 -0.1984  0.0057 -0.8416
  801MPD2    H511807   2.247   1.801  14.338 -0.1509  0.7718  1.5384
  801MPD2    N111808   2.692   1.510  14.129  0.2540  0.1144  0.4286
  801MPD2    H711809   2.677   1.422  14.178 -0.2456 -0.4055 -0.6607
  802MPD2     C11810   2.189   2.083   0.603 -0.3586 -0.3382 -0.0979
  802MPD2    C111811   2.076   2.056   0.527 -0.6142 -0.5094  0.2486
  802MPD2    C211812   2.081   1.945   0.444  0.1946 -0.2933 -0.3136
  802MPD2    C311813   2.189   1.859   0.443 -1.0164 -0.2219 -0.3308
  802MPD2    C411814   2.298   1.883   0.532  0.3358 -0.1059  0.4262
  802MPD2    C511815   2.294   1.991   0.610  0.3687 -0.2231  0.3908
  802MPD2     H11816   2.008   1.928   0.366 -0.7329  0.3806  0.4081
  802MPD2    H111817   2.369   1.804   0.553  1.1875  0.5898  0.1588
  802MPD2    H211818   2.196   2.154   0.685 -1.7096  1.5914 -1.6493
  802MPD2    H311819   2.376   2.004   0.679 -0.9918 -1.6371  2.2619
  802MPD2     N11820   2.188   1.747   0.357  0.1140 -0.3762 -0.4245
  802MPD2    H511821   2.113   1.732   0.290 -0.5229 -0.5094  0.3240
  802MPD2    N111822   1.969   2.142   0.521 -0.3463  0.1619  0.4396
  802MPD2    H711823   1.899   2.108   0.455  0.3797  0.1401 -0.3175
  803MPD2     C11824   3.032   0.505  11.733 -0.3817 -0.0605  0.1898
  803MPD2    C111825   3.135   0.586  11.772  0.0430 -0.2702  0.0460
  803MPD2    C211826   3.158   0.592  11.908  0.2682  0.1658 -0.5725
  803MPD2    C311827   3.081   0.514  11.998  0.3771  0.2692  0.4819
  803MPD2    C411828   2.976   0.441  11.958  0.4553  0.1055  0.0647
  803MPD2    C511829   2.956   0.439  11.821 -0.3151  0.1979  0.2581
  803MPD2     H11830   3.228   0.664  11.951  0.3104  0.1014 -0.5338
  803MPD2    H111831   2.912   0.386  12.027 -1.1079  1.5040 -0.2910
  803MPD2    H211832   2.996   0.497  11.631  1.1428 -0.2799 -0.3250
  803MPD2    H311833   2.869   0.383  11.790 -0.1909 -0.2847  0.7699
  803MPD2     N11834   3.113   0.508  12.141  0.2853 -0.6294 -0.0638
  803MPD2    H511835   3.053   0.441  12.188  0.8779 -2.1109 -1.4375
  803MPD2    N111836   3.233   0.635  11.682 -0.0339 -0.2642 -0.8160
  803MPD2    H711837   3.310   0.685  11.724 -0.1028  2.1237 -3.4444
  804MPD2     C11838   2.913   1.760  16.971  0.2529  0.1868 -0.0411
  804MPD2    C111839   2.911   1.736  17.108 -0.8510  0.1232  0.1544
  804MPD2    C211840   2.976   1.820  17.196  0.3308 -0.0877 -0.3695
  804MPD2    C311841   3.057   1.915  17.147 -0.0049 -0.3488 -0.8700
  804MPD2    C411842   3.069   1.939  17.007  0.4977  0.3386  0.6122
  804MPD2    C511843   3.004   1.857  16.922  0.0650  0.4328  0.0694
  804MPD2     H11844   2.966   1.802  17.302  2.2117  1.2827  0.0373
  804MPD2    H111845   3.136   2.007  16.955  0.4049 -1.1008 -1.3869
  804MPD2    H211846   2.862   1.701  16.896  0.6214 -0.6293  0.3445
  804MPD2    H311847   3.018   1.853  16.814  0.2221  1.5433  0.0516
  804MPD2     N11848   3.137   1.997  17.229  0.0106  0.2154 -0.1421
  804MPD2    H511849   3.120   1.993  17.329  1.6650  0.5619  0.1432
  804MPD2    N111850   2.828   1.636  17.169 -0.6478  1.1136 -0.7555
  804MPD2    H711851   2.837   1.633  17.270  0.0949  2.6175 -0.7742
  805MPD2     C11852   1.927   4.644  15.638 -0.0290 -0.4620 -0.0563
  805MPD2    C111853   2.031   4.551  15.624 -0.6194  0.4681  0.1757
  805MPD2    C211854   2.144   4.566  15.706  0.3442 -0.2322 -0.0311
  805MPD2    C311855   2.152   4.671  15.801 -0.4758  0.0695  0.1489
  805MPD2    C411856   2.043   0.035  15.812 -0.0356 -0.3717  0.0105
  805MPD2    C511857   1.941   0.023  15.721  0.5086  0.0289 -0.2434
  805MPD2     H11858   2.225   4.494  15.702  1.6457  1.1920  0.4355
  805MPD2    H111859   2.045   0.126  15.871  0.3603  0.9732 -2.0677
  805MPD2    H211860   1.834   4.645  15.583  0.7899  1.1583 -1.4123
  805MPD2    H311861   1.861   0.096  15.732  0.0014 -0.4924 -0.4840
  805MPD2     N11862   2.261   4.676  15.888 -0.7751 -0.4788 -0.2238
  805MPD2    H511863   2.352   4.640  15.863 -1.7712 -2.4242 -0.9850
  805MPD2    N111864   2.026   4.440  15.543 -0.6492 -0.7268 -0.0675
  805MPD2    H711865   2.089   4.362  15.559 -0.0760 -0.3821 -0.6656
  806MPD2     C11866   2.336   3.624   0.449 -0.1282  0.5458 -0.2845
  806MPD2    C111867   2.229   3.714   0.434  0.1127 -0.2159 -0.4296
  806MPD2    C211868   2.229   3.816   0.344  0.5800 -0.4218 -0.3340
  806MPD2    C311869   2.341   3.839   0.262 -0.8745 -0.0594  0.3274
  806MPD2    C411870   2.442   3.745   0.265  0.1354  0.9531 -0.6012
  806MPD2    C511871   2.436   3.640   0.353  0.2502 -0.0821 -0.2165
  806MPD2     H11872   2.144   3.883   0.343  0.5496 -0.4512  0.1161
  806MPD2    H111873   2.531   3.755   0.205 -0.4242 -2.5542 -2.0081
  806MPD2    H211874   2.333   3.541   0.518 -1.4995  0.5843 -0.2809
  806MPD2    H311875   2.516   3.566   0.354 -0.7538 -1.1661  0.3302
  806MPD2     N11876   2.334   3.963   0.190  0.3624 -0.9907 -0.3779
  806MPD2    H511877   2.264   4.031   0.218  1.3430 -0.4490  0.7568
  806MPD2    N111878   2.130   3.703   0.533  0.1366 -0.2346  0.1565
  806MPD2    H711879   2.145   3.634   0.607 -0.0474  0.2691  0.6631
  807MPD2     C11880   1.647   3.301   1.007  0.1187  0.3308  0.3368
  807MPD2    C111881   1.713   3.403   1.072  0.0769 -0.2104 -1.1824
  807MPD2    C211882   1.740   3.386   1.207 -0.0662 -0.2858 -0.7154
  807MPD2    C311883   1.696   3.276   1.275 -0.2358  0.1640  0.3367
  807MPD2    C411884   1.620   3.180   1.208  0.3908 -0.8569 -0.0126
  807MPD2    C511885   1.602   3.188   1.073 -0.4329  1.0976 -0.4449
  807MPD2     H11886   1.782   3.466   1.267  0.7368 -0.0223 -1.6303
  807MPD2    H111887   1.573   3.098   1.261 -0.6264 -1.2327 -1.5015
  807MPD2    H211888   1.621   3.304   0.902  0.9321  0.4240  0.1322
  807MPD2    H311889   1.568   3.106   1.011  2.2387  1.3252 -2.2393
  807MPD2     N11890   1.718   3.268   1.411 -0.1604  0.1113 -0.3168
  807MPD2    H511891   1.787   3.335   1.444 -0.9760  1.0004 -0.4100
  807MPD2    N111892   1.747   3.525   1.017  0.7802 -0.1735 -0.3265
  807MPD2    H711893   1.797   3.585   1.082 -0.6590 -0.8989  1.4217
  808MPD2     C11894   2.385   0.307   9.401  0.1068 -0.4255  0.1227
  808MPD2    C111895   2.512   0.246   9.414 -0.4911  0.0602 -0.0269
  808MPD2    C211896   2.604   0.303   9.496  0.6289 -0.2084  0.7094
  808MPD2    C311897   2.571   0.409   9.587  0.1001  0.2279 -0.1134
  808MPD2    C411898   2.449   0.457   9.571  0.2262 -0.2642 -0.5695
  808MPD2    C511899   2.355   0.418   9.478  0.4978 -0.0875 -0.2907
  808MPD2     H11900   2.699   0.253   9.509  1.9696  2.4358  1.2232
  808MPD2    H111901   2.428   0.536   9.642 -0.4375 -0.8564 -0.1134
  808MPD2    H211902   2.312   0.281   9.325 -1.1310  3.3680  0.0128
  808MPD2    H311903   2.265   0.474   9.461  0.9868  0.3795 -1.3498
  808MPD2     N11904   2.658   0.468   9.685 -0.0591  0.1697  0.0872
  808MPD2    H511905   2.619   0.538   9.747 -0.3498  0.7557 -0.7644
  808MPD2    N111906   2.551   0.138   9.336  0.4584 -0.3799  0.6220
  808MPD2    H711907   2.648   0.109   9.349  0.4703  0.2320  1.9817
  809MPD2     C11908   3.385   0.047  10.250 -0.3078  0.0214  0.1627
  809MPD2    C111909   3.445   0.160  10.194 -0.3043  0.0838 -0.2100
  809MPD2    C211910   3.369   0.257  10.125 -0.3802 -0.1513  0.8933
  809MPD2    C311911   3.232   0.236  10.104 -0.1703 -0.6088  0.1111
  809MPD2    C411912   3.174   0.128  10.169 -0.4435  0.1520 -0.1035
  809MPD2    C511913   3.251   0.038  10.240 -0.3224 -0.0418  0.5854
  809MPD2     H11914   3.417   0.341  10.076  0.7210 -0.7101  1.0166
  809MPD2    H111915   3.068   0.111  10.185  0.0279 -2.9536 -0.1341
  809MPD2    H211916   3.434   4.698  10.313 -0.6560  0.0249  0.4363
  809MPD2    H311917   3.184   4.693  10.290 -3.0752 -0.1644 -3.2953
  809MPD2     N11918   3.150   0.322  10.031  0.6349  0.1668  0.4461
  809MPD2    H511919   3.052   0.300  10.019  0.6329 -0.4614  1.6288
  809MPD2    N111920   3.579   0.203  10.206 -0.3363  0.4847  0.3203
  809MPD2    H711921   3.594   0.292  10.161 -0.8110 -0.4364 -1.6811
  810MPD2     C11922   2.700   0.564  10.128 -0.2139  0.2630 -0.3716
  810MPD2    C111923   2.629   0.670  10.185 -0.0808 -0.1656 -0.0238
  810MPD2    C211924   2.685   0.755  10.279 -0.0848  0.0455  0.3561
  810MPD2    C311925   2.823   0.743  10.305 -0.0794  0.3353 -0.3982
  810MPD2    C411926   2.897   0.645  10.245 -0.4848 -0.4986 -0.1043
  810MPD2    C511927   2.834   0.553  10.159 -0.6224  0.5443 -0.0537
  810MPD2     H11928   2.622   0.837  10.314 -0.6909 -1.3836  2.6510
  810MPD2    H111929   3.003   0.626  10.254 -0.4761 -0.3793  0.0454
  810MPD2    H211930   2.647   0.488  10.072 -0.2138 -0.6072  0.8069
  810MPD2    H311931   2.894   0.468  10.127  1.6127  1.2096  2.3595
  810MPD2     N11932   2.888   0.824  10.405  0.5057  0.0425  0.1755
  810MPD2    H511933   2.989   0.832  10.399  0.5325 -0.2085  0.2957
  810MPD2    N111934   2.494   0.676  10.145 -0.2418  0.3626 -0.5029
  810MPD2    H711935   2.471   0.607  10.074  1.5472 -1.7296  0.9650
  811MPD2     C11936   1.648   0.962   9.932  0.3463 -0.6531 -0.9656
  811MPD2    C111937   1.749   0.999  10.015  0.3819 -0.3097 -0.4323
  811MPD2    C211938   1.756   1.130  10.053 -0.6351  0.4356 -0.7909
  811MPD2    C311939   1.655   1.225  10.020  0.6373 -0.2387 -0.1963
  811MPD2    C411940   1.562   1.186   9.932  0.0118  0.3584  0.0323
  811MPD2    C511941   1.558   1.055   9.892 -0.2915  0.5162 -0.6231
  811MPD2     H11942   1.831   1.163  10.124  0.0231 -3.0518  0.1268
  811MPD2    H111943   1.482   1.249   9.893 -1.0563  0.1301  1.8457
  811MPD2    H211944   1.628   0.862   9.894  1.6887 -1.1274 -0.4006
  811MPD2    H311945   1.486   1.035   9.814 -1.2916  0.9034  0.2004
  811MPD2     N11946   1.666   1.358  10.061 -0.6089 -0.4863  0.4908
  811MPD2    H511947   1.731   1.384  10.134 -0.5687 -2.3104  1.1052
  811MPD2    N111948   1.841   0.896  10.056 -0.1979  0.0695  0.1546
  811MPD2    H711949   1.822   0.805  10.017  0.2789  0.0425 -0.0215
  812MPD2     C11950   1.194   0.846  12.348  0.3457 -0.0875  0.0348
  812MPD2    C111951   1.062   0.815  12.361  0.2994  0.0277  0.5893
  812MPD2    C211952   1.021   0.687  12.385 -0.7493 -0.2009  0.1096
  812MPD2    C311953   1.106   0.585  12.416 -0.0388  0.9928 -0.4531
  812MPD2    C411954   1.244   0.624  12.417  0.9516 -0.4833  0.5370
  812MPD2    C511955   1.286   0.743  12.376 -0.0899 -0.4431 -0.3876
  812MPD2     H11956   0.917   0.659  12.371 -0.7158 -0.8046  1.0797
  812MPD2    H111957   1.321   0.557  12.455  0.7814 -0.2749  1.2580
  812MPD2    H211958   1.219   0.948  12.320  0.2341  0.1481  0.7911
  812MPD2    H311959   1.392   0.763  12.367 -0.3129  1.6324  1.6043
  812MPD2     N11960   1.057   0.456  12.441 -0.0736  0.0514  0.4267
  812MPD2    H511961   0.957   0.440  12.428  0.0491 -0.8780  0.6000
  812MPD2    N111962   0.969   0.924  12.341 -0.0980  0.1957 -0.0665
  812MPD2    H711963   1.003   1.012  12.303 -0.8362  0.9615  1.0295
  813MPD2     C11964   0.654   2.376  12.389  0.6711  0.1794  0.9105
  813MPD2    C111965   0.580   2.494  12.389  0.3532 -0.1172 -0.0403
  813MPD2    C211966   0.466   2.499  12.469  0.7559  0.5000 -0.5391
  813MPD2    C311967   0.428   2.399  12.556  0.3153  0.0406 -0.8548
  813MPD2    C411968   0.510   2.292  12.570  0.1846 -0.4332  0.5663
  813MPD2    C511969   0.613   2.281  12.477 -0.2898  0.2177 -0.4164
  813MPD2     H11970   0.423   2.598  12.482  3.0192  1.4151 -0.0222
  813MPD2    H111971   0.490   2.207  12.633 -1.2012 -0.4338  0.1438
  813MPD2    H211972   0.743   2.355  12.332 -0.0999  1.3010 -0.6999
  813MPD2    H311973   0.672   2.190  12.475 -0.2464  0.1922  1.8279
  813MPD2     N11974   0.325   2.433  12.649 -0.0137  0.8085  0.2018
  813MPD2    H511975   0.274   2.521  12.640 -0.1624  0.8143  1.0789
  813MPD2    N111976   0.637   2.603  12.317 -0.5591  0.2693 -0.7945
  813MPD2    H711977   0.729   2.588  12.275 -0.3041 -0.6718  0.0996
  814MPD2     C11978   0.590   3.610  11.901  0.1967 -0.2176  0.4262
  814MPD2    C111979   0.598   3.728  11.829  0.1661  0.2326  0.4440
  814MPD2    C211980   0.691   3.825  11.857  0.1024 -0.0437  0.1244
  814MPD2    C311981   0.765   3.808  11.974 -0.2356  0.1617 -0.5876
  814MPD2    C411982   0.764   3.685  12.033 -0.1744 -0.4741 -0.0191
  814MPD2    C511983   0.677   3.588  11.996  0.1691  0.7054 -0.1476
  814MPD2     H11984   0.685   3.911  11.791 -1.0529  1.3629  2.0134
  814MPD2    H111985   0.821   3.665  12.123 -1.9020  1.5519  1.5138
  814MPD2    H211986   0.533   3.521  11.875  0.7013 -0.6443  0.7804
  814MPD2    H311987   0.680   3.496  12.054 -0.4242 -0.0789 -1.3783
  814MPD2     N11988   0.839   3.913  12.027 -0.1226 -0.4991  0.5119
  814MPD2    H511989   0.905   3.891  12.101 -2.7182  2.8141  3.8176
  814MPD2    N111990   0.530   3.743  11.707  0.0236  0.3302 -0.0223
  814MPD2    H711991   0.560   3.810  11.637  1.3701 -0.0223  0.2279
  815MPD2     C11992   0.575   2.335  12.063  0.0606  0.3773  0.5572
  815MPD2    C111993   0.597   2.204  12.088 -0.4703  0.0307 -0.3672
  815MPD2    C211994   0.489   2.119  12.118  0.4850 -0.2788 -0.7768
  815MPD2    C311995   0.357   2.165  12.124 -1.0315 -0.6445 -0.4505
  815MPD2    C411996   0.340   2.305  12.102  0.5538 -0.6229  0.2800
  815MPD2    C511997   0.446   2.385  12.065  0.6487  0.2350 -0.2822
  815MPD2     H11998   0.499   2.014  12.141  1.4401 -0.2546 -1.0708
  815MPD2    H111999   0.249   2.364  12.106  1.3971  0.4459  3.6052
  815MPD2    H212000   0.653   2.401  12.027  2.0460 -2.8907 -1.1872
  815MPD2    H312001   0.435   2.490  12.041  0.7805  0.1534 -0.6917
  815MPD2     N12002   0.255   2.071  12.156  0.7514  0.6350 -0.8718
  815MPD2    H512003   0.270   1.973  12.178 -4.2094 -0.2118 -1.1748
  815MPD2    N112004   0.736   2.166  12.075 -0.1157  0.4867 -0.0653
  815MPD2    H712005   0.807   2.235  12.052  1.2395 -0.6057  0.7992
  816MPD2     C12006   0.941   0.709  17.377 -0.3079 -0.1977  0.2330
  816MPD2    C112007   1.021   0.819  17.364 -0.5674 -0.0046 -0.3294
  816MPD2    C212008   1.150   0.794  17.318 -0.1882  0.1520  0.1271
  816MPD2    C312009   1.201   0.668  17.297  0.1853  0.1027 -0.2482
  816MPD2    C412010   1.122   0.563  17.329  0.3131  0.1980  0.0055
  816MPD2    C512011   0.995   0.583  17.358  0.0393 -0.0269 -0.3119
  816MPD2     H12012   1.228   0.865  17.293  0.2496 -0.8947 -1.4823
  816MPD2    H112013   1.144   0.460  17.306  0.3804 -0.1278  1.5506
  816MPD2    H212014   0.834   0.717  17.391 -0.5237 -2.4388 -0.0306
  816MPD2    H312015   0.933   0.495  17.358 -0.9760  0.6730  1.4217
  816MPD2     N12016   1.333   0.652  17.239  0.4573 -0.3584  0.0857
  816MPD2    H512017   1.366   0.731  17.184 -1.2456 -0.5596 -1.2225
  816MPD2    N112018   0.972   0.951  17.392 -0.4432  0.2121  0.0362
  816MPD2    H712019   0.873   0.969  17.405 -0.3477  2.1428 -1.9247
  817MPD2     C12020   1.560   3.131   9.955  0.1397 -0.4686 -0.1390
  817MPD2    C112021   1.434   3.085   9.940  0.2924 -0.0619 -0.6763
  817MPD2    C212022   1.359   3.128   9.831 -0.3250  0.4893 -0.2645
  817MPD2    C312023   1.399   3.228   9.744  0.2789 -0.3247 -0.6601
  817MPD2    C412024   1.530   3.272   9.763 -0.1409 -0.3975 -0.2491
  817MPD2    C512025   1.605   3.224   9.868  0.1591  0.3773  0.5155
  817MPD2     H12026   1.260   3.088   9.813 -0.0894  0.0089 -0.5072
  817MPD2    H112027   1.579   3.344   9.698 -2.9882  0.8594 -1.0138
  817MPD2    H212028   1.629   3.096  10.030 -0.3732  1.7279  1.3796
  817MPD2    H312029   1.704   3.263   9.889 -0.0739  1.1413  0.1746
  817MPD2     N12030   1.308   3.280   9.649 -0.2742  0.4086  0.0844
  817MPD2    H512031   1.217   3.239   9.666 -0.0400 -0.2132 -0.1676
  817MPD2    N112032   1.373   2.989  10.021 -0.2841 -0.0876  0.0416
  817MPD2    H712033   1.279   2.962   9.995  0.3227  0.6029 -2.8147
  818MPD2     C12034   4.453   2.654   9.725 -0.5629  0.1866  0.1781
  818MPD2    C112035   4.355   2.630   9.821 -0.1929  0.2129 -0.3774
  818MPD2    C212036   4.338   2.501   9.869  0.2246  0.3859  0.3187
  818MPD2    C312037   4.407   2.393   9.816 -0.0793  0.4342 -0.4269
  818MPD2    C412038   4.505   2.417   9.715  0.2913  0.3888 -0.5087
  818MPD2    C512039   4.527   2.552   9.681  0.3078 -1.0903 -0.2550
  818MPD2     H12040   4.264   2.482   9.946 -0.0274 -1.0971 -0.2796
  818MPD2    H112041   4.575   2.344   9.674 -1.4316 -0.3889 -2.0356
  818MPD2    H212042   4.478   2.754   9.690 -0.4222  0.3113  0.6279
  818MPD2    H312043   4.605   2.571   9.608  0.3067 -0.1274  0.0056
  818MPD2     N12044   4.389   2.262   9.872 -0.3465 -0.1161 -0.0782
  818MPD2    H512045   4.446   2.185   9.840 -1.2568 -0.8923  0.1824
  818MPD2    N112046   4.264   2.721   9.867  0.4542 -0.0849 -0.0292
  818MPD2    H712047   4.178   2.683   9.904 -0.2936  0.5367 -1.0969
  819MPD2     C12048   2.663   4.049  15.817  0.3803 -0.3793 -0.5287
  819MPD2    C112049   2.747   3.939  15.828 -0.8522  0.2842  0.0369
  819MPD2    C212050   2.868   3.948  15.893 -0.0155 -0.0472  0.5027
  819MPD2    C312051   2.911   4.072  15.942  0.1443 -0.5278  0.7918
  819MPD2    C412052   2.831   4.183  15.924  0.3298 -0.8732  0.0664
  819MPD2    C512053   2.709   4.173  15.859  0.2093 -1.0001 -0.4349
  819MPD2     H12054   2.944   3.872  15.889 -0.5843 -0.5452 -1.0528
  819MPD2    H112055   2.867   4.284  15.942  0.2785 -0.8598  0.0954
  819MPD2    H212056   2.572   4.053  15.758  0.1158 -0.2893 -0.1183
  819MPD2    H312057   2.640   4.254  15.839  3.9538  2.2263 -0.2775
  819MPD2     N12058   3.048   4.073  15.997  0.0073  0.2612 -0.6462
  819MPD2    H512059   3.109   3.998  15.967 -0.1727  0.1119 -0.6387
  819MPD2    N112060   2.686   3.823  15.775  0.4328 -0.2864  0.2097
  819MPD2    H712061   2.599   3.838  15.725  0.8314  1.2966 -0.0193
  820MPD2     C12062   1.801   3.604  15.491  0.1502 -0.1742 -0.1868
  820MPD2    C112063   1.890   3.704  15.526  0.0802 -0.3441  0.5712
  820MPD2    C212064   2.022   3.669  15.554 -0.1747  0.0350  0.4813
  820MPD2    C312065   2.067   3.535  15.564  0.2306  0.2892  0.6181
  820MPD2    C412066   1.979   3.438  15.534 -0.2441 -0.1871 -0.9478
  820MPD2    C512067   1.845   3.475  15.504 -0.1836 -0.2712 -0.4254
  820MPD2     H12068   2.101   3.741  15.576  0.5911 -0.3317 -1.0668
  820MPD2    H112069   2.004   3.332  15.535 -0.6089 -0.2715 -0.7482
  820MPD2    H212070   1.705   3.637  15.455 -0.6339 -0.4894  1.6202
  820MPD2    H312071   1.773   3.397  15.484  0.0792 -0.9709  1.2927
  820MPD2     N12072   2.205   3.502  15.586  0.2297 -0.4543 -0.3112
  820MPD2    H512073   2.223   3.406  15.615 -1.9512 -0.5978  0.5389
  820MPD2    N112074   1.846   3.838  15.504  1.0505 -0.3400  0.2402
  820MPD2    H712075   1.751   3.853  15.473  0.2320  0.0415  2.9348
  821MPD2     C12076   2.963   0.762  13.069 -0.3328 -0.5753 -0.6640
  821MPD2    C112077   2.987   0.813  13.191 -0.9310  0.3076  0.1613
  821MPD2    C212078   3.063   0.924  13.208 -0.5571 -0.0563 -0.4035
  821MPD2    C312079   3.133   0.984  13.103  0.7031 -0.1634  0.5683
  821MPD2    C412080   3.106   0.929  12.983 -0.2659  0.7286  0.0770
  821MPD2    C512081   3.027   0.826  12.960  0.4546 -0.4830  0.1501
  821MPD2     H12082   3.068   0.974  13.304  0.1463 -1.1187  0.1181
  821MPD2    H112083   3.163   0.963  12.898 -1.4805  1.5095 -0.4237
  821MPD2    H212084   2.898   0.676  13.058 -0.8506 -0.4284  1.2712
  821MPD2    H312085   3.019   0.787  12.859  0.8767  0.6346 -0.3184
  821MPD2     N12086   3.223   1.095  13.113 -0.3762  0.4354 -0.2070
  821MPD2    H512087   3.262   1.133  13.028  1.8787 -2.5395 -0.5084
  821MPD2    N112088   2.922   0.771  13.310 -0.5636 -0.2739 -0.1412
  821MPD2    H712089   2.926   0.832  13.390 -1.1899  0.8720 -0.9884
  822MPD2     C12090   3.271   0.791  15.895 -0.0209 -0.1625  0.3053
  822MPD2    C112091   3.321   0.773  16.021  0.6519 -0.4377  0.3197
  822MPD2    C212092   3.302   0.868  16.112  0.7090  0.4845  0.5144
  822MPD2    C312093   3.251   0.991  16.077  0.6528 -1.0604 -0.5183
  822MPD2    C412094   3.200   1.016  15.949  0.2261 -0.0393 -0.5336
  822MPD2    C512095   3.215   0.913  15.859 -0.3556 -0.5471  0.4133
  822MPD2     H12096   3.337   0.838  16.210 -0.6981 -0.6585  0.6686
  822MPD2    H112097   3.165   1.110  15.909 -0.8260  0.6161  1.9888
  822MPD2    H212098   3.282   0.707  15.827 -2.6795 -0.2806  0.0117
  822MPD2    H312099   3.189   0.923  15.755 -0.2359 -1.3655  0.3033
  822MPD2     N12100   3.252   1.092  16.182  0.1447 -0.0085  0.2679
  822MPD2    H512101   3.275   1.061  16.275 -0.8810  0.1931  0.5927
  822MPD2    N112102   3.368   0.646  16.076 -0.3417  0.4272 -0.0355
  822MPD2    H712103   3.381   0.654  16.176  1.7681 -1.2454 -0.1701
  823MPD2     C12104   3.028   1.242  16.963 -0.3268 -0.0044 -0.3968
  823MPD2    C112105   3.032   1.157  16.863 -0.1518  0.4477 -0.1370
  823MPD2    C212106   2.983   1.027  16.871 -0.1551 -0.8296 -0.0039
  823MPD2    C312107   2.921   0.983  16.990  0.3512 -1.0219  0.0797
  823MPD2    C412108   2.929   1.071  17.096  0.2365  0.1423 -0.4217
  823MPD2    C512109   2.973   1.202  17.083  1.0262  0.0371  0.4906
  823MPD2     H12110   2.984   0.965  16.783  0.0663  2.0199 -1.9909
  823MPD2    H112111   2.907   1.038  17.197  0.7777 -1.5861 -0.8707
  823MPD2    H212112   3.078   1.339  16.955 -0.4728  0.1741  0.9600
  823MPD2    H312113   2.975   1.271  17.166 -1.9272  0.2386  0.4063
  823MPD2     N12114   2.867   0.858  17.021 -0.9655 -0.1976  0.0229
  823MPD2    H512115   2.804   0.851  17.100 -2.2546  1.0348 -0.9017
  823MPD2    N112116   3.093   1.205  16.746  0.0962 -0.5502 -0.3933
  823MPD2    H712117   3.130   1.298  16.760 -1.0495 -0.3872  1.5369
  824MPD2     C12118   3.957   0.000  16.319  0.5921 -0.1491 -0.0573
  824MPD2    C112119   3.940   0.066  16.200  0.5853  0.2084  0.3228
  824MPD2    C212120   4.016   0.038  16.088  0.6603 -0.4412  0.1583
  824MPD2    C312121   4.103   4.663  16.084  0.0139  0.7171 -0.1601
  824MPD2    C412122   4.118   4.587  16.201  0.4521  0.4551  0.1906
  824MPD2    C512123   4.044   4.621  16.322  0.8834 -0.0549  0.3827
  824MPD2     H12124   4.003   0.111  16.009 -2.2978 -0.6439  0.4602
  824MPD2    H112125   4.192   4.508  16.208 -0.9168 -0.8010  0.4630
  824MPD2    H212126   3.893   0.022  16.404 -1.2680 -0.1091 -1.4771
  824MPD2    H312127   4.049   4.557  16.409  4.2064  0.1452  0.3434
  824MPD2     N12128   4.183   4.638  15.970  0.3659  0.1191 -0.2901
  824MPD2    H512129   4.170   4.700  15.891  2.0305 -2.3584 -2.5086
  824MPD2    N112130   3.838   0.164  16.216 -0.0937  0.0332 -0.1084
  824MPD2    H712131   3.806   0.177  16.311 -0.2004  1.2373 -0.3067
  825MPD2     C12132   4.625   0.046  15.265 -0.1923 -0.5539  0.1496
  825MPD2    C112133   4.518   0.089  15.344  0.3161  0.5593 -0.0533
  825MPD2    C212134   4.488   0.224  15.358  0.5612  0.2294 -0.3372
  825MPD2    C312135   4.550   0.318  15.273 -0.1426 -0.3917  0.1889
  825MPD2    C412136   4.638   0.268  15.180 -0.5538 -0.2706  0.3883
  825MPD2    C512137   4.685   0.139  15.188  0.4547 -0.4983 -0.9182
  825MPD2     H12138   4.432   0.264  15.442  0.3679  1.0272 -0.8417
  825MPD2    H112139   4.689   0.336  15.113 -0.6478  0.5386  1.1217
  825MPD2    H212140   4.652   4.666  15.267 -0.6184 -0.6214  2.3792
  825MPD2    H312141   0.033   0.107  15.115  1.3409 -1.0058  0.1870
  825MPD2     N12142   4.546   0.460  15.280 -0.2562 -0.4373 -0.4224
  825MPD2    H512143   4.607   0.509  15.216  1.2431 -1.0417  0.5591
  825MPD2    N112144   4.454   4.718  15.428 -0.3735 -0.4338 -0.6074
  825MPD2    H712145   4.492   4.624  15.422  0.3527 -0.1036 -1.2874
  826MPD2     C12146   4.139   4.632  13.718  0.4186 -0.3494  0.1676
  826MPD2    C112147   4.035   4.662  13.634 -0.0845 -0.0451  0.0550
  826MPD2    C212148   3.936   0.031  13.672  0.9338 -0.0852  0.4107
  826MPD2    C312149   3.952   0.104  13.789  0.1010 -1.0463  0.3532
  826MPD2    C412150   4.065   0.078  13.870 -0.0393  0.1262 -0.2668
  826MPD2    C512151   4.154   4.710  13.835  0.0810  0.5510  0.5721
  826MPD2     H12152   3.842   0.029  13.619  1.2345  0.7313 -0.1517
  826MPD2    H112153   4.067   0.128  13.967 -0.7839  0.3072 -0.3381
  826MPD2    H212154   4.218   4.565  13.686  0.8252  1.3908 -2.5564
  826MPD2    H312155   4.244   4.685  13.891  0.5650  2.5222  0.6576
  826MPD2     N12156   3.852   0.193  13.829  0.2013 -0.6453  0.4611
  826MPD2    H512157   3.874   0.243  13.915 -0.6490 -0.2453  0.4453
  826MPD2    N112158   4.036   4.595  13.510 -0.2839  0.4389 -0.0735
  826MPD2    H712159   4.103   4.520  13.493  2.4797  2.7712  0.5314
  827MPD2     C12160   0.318   1.516   9.948  0.1481  0.4536 -0.0842
  827MPD2    C112161   0.262   1.428  10.046  0.0853  0.5725 -0.6563
  827MPD2    C212162   0.208   1.303  10.007 -0.7236  0.4998 -1.5674
  827MPD2    C312163   0.201   1.262   9.874  0.4217  0.8786 -0.8070
  827MPD2    C412164   0.263   1.342   9.782  0.3917  0.1024 -0.0610
  827MPD2    C512165   0.318   1.463   9.817  0.3830  0.3369 -0.2368
  827MPD2     H12166   0.163   1.245  10.086 -1.5519  0.8093 -1.8095
  827MPD2    H112167   0.268   1.316   9.677 -1.5469  1.3940 -0.4665
  827MPD2    H212168   0.355   1.616   9.968  2.5013 -0.4887  0.2465
  827MPD2    H312169   0.364   1.523   9.739 -0.9410  3.2346  1.2127
  827MPD2     N12170   0.141   1.137   9.850 -0.4412  0.3032  0.0361
  827MPD2    H512171   0.118   1.080   9.931 -1.5293 -0.9172 -1.1361
  827MPD2    N112172   0.278   1.468  10.182  0.3776 -0.5479  0.4993
  827MPD2    H712173   0.320   1.560  10.195 -1.9862  0.5785  0.1526
  828MPD2     C12174   3.312   1.517  11.918 -0.0708 -0.3053 -0.0939
  828MPD2    C112175   3.279   1.384  11.905 -0.1175 -0.1331 -0.9485
  828MPD2    C212176   3.294   1.314  11.781 -0.1188 -0.1591  0.7670
  828MPD2    C312177   3.352   1.380  11.674 -0.3012  0.4932  0.3568
  828MPD2    C412178   3.391   1.510  11.691  0.0412  0.2091 -0.4538
  828MPD2    C512179   3.375   1.576  11.814 -0.1239  0.1283 -0.5189
  828MPD2     H12180   3.255   1.215  11.764 -0.0552  0.0714 -0.7661
  828MPD2    H112181   3.455   1.551  11.614 -0.3365  0.6639 -0.5317
  828MPD2    H212182   3.306   1.582  12.004  0.2618 -2.2631  1.4051
  828MPD2    H312183   3.419   1.673  11.834 -0.5602  0.1956  0.1132
  828MPD2     N12184   3.374   1.321  11.545 -0.0118 -0.1245 -0.6621
  828MPD2    H512185   3.372   1.389  11.470  1.3432  0.4898 -0.1309
  828MPD2    N112186   3.209   1.316  12.007 -0.1303 -0.5989 -0.2428
  828MPD2    H712187   3.169   1.228  11.976  2.8614 -1.4866 -1.5373
  829MPD2     C12188   2.281   1.271  11.882 -0.0052  0.3522 -0.4265
  829MPD2    C112189   2.277   1.296  12.015 -0.4669 -0.3323  0.6132
  829MPD2    C212190   2.390   1.282  12.095 -0.4766  0.3157 -0.3955
  829MPD2    C312191   2.504   1.234  12.039 -0.0908 -0.0032  0.4534
  829MPD2    C412192   2.506   1.195  11.908 -0.0102  0.1135 -0.5875
  829MPD2    C512193   2.397   1.209  11.826  1.6932  0.3576 -0.6077
  829MPD2     H12194   2.391   1.327  12.193  1.2983  0.2143 -0.3707
  829MPD2    H112195   2.597   1.153  11.866 -0.0296 -1.5613  1.0511
  829MPD2    H212196   2.190   1.283  11.824  1.2429  1.3554 -2.1843
  829MPD2    H312197   2.402   1.173  11.723 -2.0266 -0.2954 -0.5857
  829MPD2     N12198   2.618   1.224  12.125 -0.1179 -0.2104  0.6490
  829MPD2    H512199   2.598   1.241  12.223 -0.8682 -0.0239  0.4653
  829MPD2    N112200   2.146   1.338  12.057 -0.0770  0.5395 -0.0722
  829MPD2    H712201   2.075   1.355  11.987  0.4521 -0.5923 -0.8713
  830MPD2     C12202   3.887   3.918  16.033  0.2391  0.4082  0.2956
  830MPD2    C112203   3.793   3.991  15.958 -0.1251  0.1071  0.5973
  830MPD2    C212204   3.816   4.000  15.824  0.2645  0.3985  0.3144
  830MPD2    C312205   3.934   3.954  15.763 -0.4280 -0.4096  0.3646
  830MPD2    C412206   4.027   3.894  15.841 -0.1183 -0.1504  0.9519
  830MPD2    C512207   3.996   3.870  15.973 -0.1024 -0.0578 -0.2343
  830MPD2     H12208   3.750   4.058  15.760  1.2105 -2.1513 -2.9553
  830MPD2    H112209   4.126   3.868  15.805 -0.4501 -2.3181  1.6561
  830MPD2    H212210   3.878   3.892  16.137  0.1468 -2.3658 -0.4064
  830MPD2    H312211   4.070   3.825  16.038  1.3170 -0.4840 -2.1180
  830MPD2     N12212   3.959   3.972  15.623  0.4377  0.3996  0.4091
  830MPD2    H512213   4.050   3.949  15.584  0.3128 -0.4337  0.6210
  830MPD2    N112214   3.673   4.045  16.017  0.6247 -0.5668  0.0029
  830MPD2    H712215   3.662   4.029  16.117  0.3609 -1.1242 -0.1169
  831MPD2     C12216   3.466   0.777  16.747 -0.7242  0.7516  0.2487
  831MPD2    C112217   3.451   0.738  16.611 -0.1878 -0.0598  0.0399
  831MPD2    C212218   3.326   0.716  16.564  0.6067 -0.3655 -0.3338
  831MPD2    C312219   3.210   0.742  16.638  0.8506  0.1276 -0.9493
  831MPD2    C412220   3.223   0.777  16.765  0.1699 -0.4500 -0.0770
  831MPD2    C512221   3.345   0.795  16.821  0.6468 -0.2601 -0.3920
  831MPD2     H12222   3.319   0.687  16.459  0.9695 -1.0660 -0.1635
  831MPD2    H112223   3.134   0.797  16.824 -1.5556  0.7394 -3.0473
  831MPD2    H212224   3.561   0.801  16.792 -0.0729  0.0855 -0.7689
  831MPD2    H312225   3.353   0.825  16.925  1.8339  0.1626 -0.6013
  831MPD2     N12226   3.080   0.732  16.590 -0.1774  0.2594 -0.7809
  831MPD2    H512227   3.005   0.734  16.659 -1.4534 -0.1970 -2.1687
  831MPD2    N112228   3.570   0.728  16.532  0.8051 -0.1223 -0.4475
  831MPD2    H712229   3.654   0.755  16.583  0.0638 -0.4569  0.9334
  832MPD2     C12230   2.015   1.866  17.363  0.3539 -0.2487 -0.6964
  832MPD2    C112231   2.002   1.997  17.334 -0.7038  0.1625 -0.4322
  832MPD2    C212232   1.893   2.041  17.259  0.0403  0.6676 -0.3733
  832MPD2    C312233   1.806   1.947  17.205  0.1876  0.3136  0.7295
  832MPD2    C412234   1.821   1.813  17.228 -0.0603  0.6224  0.0992
  832MPD2    C512235   1.925   1.773  17.309 -0.2684 -0.6836 -0.0683
  832MPD2     H12236   1.882   2.144  17.229  1.1343  0.0737 -2.8138
  832MPD2    H112237   1.765   1.732  17.184 -0.3063  0.0738  1.4132
  832MPD2    H212238   2.099   1.831  17.421  0.3293 -2.3406 -1.9320
  832MPD2    H312239   1.952   1.669  17.319 -1.3121 -0.9825 -0.3309
  832MPD2     N12240   1.703   1.979  17.112  0.4281  0.0651 -0.3139
  832MPD2    H512241   1.651   1.899  17.077  2.5029 -1.1686 -0.5809
  832MPD2    N112242   2.099   2.080  17.385 -0.3995 -0.0408  0.3195
  832MPD2    H712243   2.159   2.034  17.454  0.6102 -2.0633 -1.9007
  833MPD2     C12244   3.314   3.831  12.270 -0.5060 -0.9564  0.4708
  833MPD2    C112245   3.348   3.952  12.219  0.5324  0.2549 -0.3114
  833MPD2    C212246   3.373   3.959  12.082  0.5073 -0.4925 -0.5332
  833MPD2    C312247   3.383   3.844  12.003 -0.2163  0.3170  0.8102
  833MPD2    C412248   3.353   3.721  12.055 -0.2021 -0.2669  0.5233
  833MPD2    C512249   3.320   3.714  12.194 -0.4120 -0.2808 -1.1566
  833MPD2     H12250   3.403   4.053  12.035  2.0170  0.8288  3.0352
  833MPD2    H112251   3.338   3.633  11.994 -0.0519  0.5014 -0.6242
  833MPD2    H212252   3.290   3.829  12.376 -1.2374 -0.9405  0.3020
  833MPD2    H312253   3.286   3.618  12.230 -2.1156  0.6295 -0.3893
  833MPD2     N12254   3.430   3.863  11.877 -0.2072  0.6613 -0.0088
  833MPD2    H512255   3.441   3.962  11.855  2.8541  0.5671  1.1799
  833MPD2    N112256   3.358   4.058  12.319  0.5707  0.2420  0.1310
  833MPD2    H712257   3.335   4.042  12.417 -0.1063  1.3683  0.1503
  834MPD2     C12258   4.074   3.613  11.166 -0.4227 -0.7033  0.6655
  834MPD2    C112259   3.947   3.558  11.179  0.4868 -0.1709 -0.2199
  834MPD2    C212260   3.854   3.619  11.261  0.5662  0.0607  0.0938
  834MPD2    C312261   3.889   3.739  11.321  0.2734 -0.5882 -0.0850
  834MPD2    C412262   4.005   3.808  11.294 -0.4189  0.1370  0.2888
  834MPD2    C512263   4.099   3.738  11.227 -0.4489 -0.0233  0.1203
  834MPD2     H12264   3.755   3.583  11.284  1.6762 -2.3706  1.0957
  834MPD2    H112265   4.038   3.901  11.338  2.3847  0.2213 -2.0068
  834MPD2    H212266   4.148   3.559  11.109  0.7331 -0.4949  1.9495
  834MPD2    H312267   4.201   3.772  11.217 -0.6481  0.9881  1.5577
  834MPD2     N12268   3.788   3.796  11.403  0.5880  0.2114  0.3185
  834MPD2    H512269   3.699   3.747  11.400 -1.5528  4.0456  1.6018
  834MPD2    N112270   3.914   3.440  11.103 -0.1434 -0.0825  0.0441
  834MPD2    H712271   3.990   3.403  11.047 -1.1114  0.6724 -1.7440
  835MPD2     C12272   3.655   1.148  11.092 -0.5209  0.3658  1.0433
  835MPD2    C112273   3.601   1.271  11.062 -0.2357 -0.0861  0.2452
  835MPD2    C212274   3.609   1.372  11.149  0.1293  0.3617 -0.1114
  835MPD2    C312275   3.673   1.355  11.266 -0.2459 -0.3847  0.5750
  835MPD2    C412276   3.738   1.232  11.293 -0.0991  0.2417 -0.3202
  835MPD2    C512277   3.732   1.128  11.202  0.0167 -0.2131  0.1898
  835MPD2     H12278   3.575   1.471  11.123  2.5756  1.0217 -0.7747
  835MPD2    H112279   3.793   1.221  11.386 -0.4316 -0.0972 -0.1679
  835MPD2    H212280   3.646   1.068  11.021 -0.3736 -0.6846  2.2093
  835MPD2    H312281   3.796   1.043  11.220  0.7941  0.5597  1.0795
  835MPD2     N12282   3.697   1.466  11.356 -0.0859 -0.4752 -0.1908
  835MPD2    H512283   3.747   1.441  11.441 -1.6034 -0.8383  0.5889
  835MPD2    N112284   3.548   1.306  10.939  0.8844  0.0111 -1.0613
  835MPD2    H712285   3.512   1.400  10.927  0.1490 -0.2368 -0.8683
  836MPD2     C12286   3.223   1.971  11.547  0.1878  1.0076 -0.1624
  836MPD2    C112287   3.327   1.956  11.635  0.3606 -0.4810  0.0579
  836MPD2    C212288   3.295   1.947  11.766  0.0933  0.4906  0.1469
  836MPD2    C312289   3.170   1.958  11.819 -0.3020  0.2949  0.6239
  836MPD2    C412290   3.067   1.998  11.731  0.1541  0.0569 -0.6724
  836MPD2    C512291   3.096   1.996  11.598  0.2032  0.2917 -0.5189
  836MPD2     H12292   3.370   1.927  11.841 -2.0004 -2.8042  1.3943
  836MPD2    H112293   2.966   2.013  11.766 -0.3065 -0.5267 -1.7468
  836MPD2    H212294   3.239   1.975  11.440 -3.1441 -1.2799 -0.7384
  836MPD2    H312295   3.016   2.017  11.529 -0.2573 -0.2102 -0.1341
  836MPD2     N12296   3.138   1.923  11.954  0.1246  0.2526  0.4811
  836MPD2    H512297   3.042   1.935  11.984 -0.7152 -0.9272 -1.7542
  836MPD2    N112298   3.461   1.932  11.584 -0.4404  0.0493  0.0023
  836MPD2    H712299   3.469   1.922  11.483 -0.5688 -0.6744  0.0623
  837MPD2     C12300   1.863   1.827  10.624  0.2272  0.0551  0.1718
  837MPD2    C112301   1.891   1.880  10.501 -0.5772 -0.2797 -0.4745
  837MPD2    C212302   1.934   2.009  10.484  0.4851 -0.8391 -0.2093
  837MPD2    C312303   1.934   2.095  10.590  0.1488 -0.8643 -0.0863
  837MPD2    C412304   1.904   2.044  10.715 -0.3238  0.3426  0.1405
  837MPD2    C512305   1.880   1.911  10.735  0.2319 -0.1043  0.1792
  837MPD2     H12306   1.945   2.050  10.385 -1.7502 -1.1409 -0.6030
  837MPD2    H112307   1.921   2.103  10.805 -2.0570 -1.7250  1.8373
  837MPD2    H212308   1.848   1.721  10.641  1.4992 -0.5687 -2.7531
  837MPD2    H312309   1.874   1.867  10.834 -0.2112 -0.8298 -0.1616
  837MPD2     N12310   1.955   2.234  10.568  0.3973 -0.2228  0.1091
  837MPD2    H512311   1.967   2.260  10.471 -3.2158 -0.1916 -0.3246
  837MPD2    N112312   1.855   1.820  10.381 -0.3121  0.0338 -0.3587
  837MPD2    H712313   1.878   1.863  10.292  3.2722  1.5137  1.2899
  838MPD2     C12314   0.752   0.031  11.563  0.2994 -0.8859 -0.3501
  838MPD2    C112315   0.634   4.716  11.499 -0.5792 -0.1918 -0.0144
  838MPD2    C212316   0.521   4.719  11.578  0.9829 -0.5164  0.0927
  838MPD2    C312317   0.526   0.012  11.716 -0.7018  0.9729 -0.0258
  838MPD2    C412318   0.646   0.045  11.771  0.3395 -0.9148  0.1395
  838MPD2    C512319   0.757   0.053  11.698 -0.4801 -0.4564 -1.0932
  838MPD2     H12320   0.427   4.699  11.528  0.4819 -1.1321  1.2879
  838MPD2    H112321   0.656   0.062  11.878 -1.1065 -0.0493  0.1485
  838MPD2    H212322   0.847   0.039  11.512  0.6427 -2.6643  0.0061
  838MPD2    H312323   0.848   0.070  11.755 -2.8078 -0.0488  2.5297
  838MPD2     N12324   0.408   4.709  11.778  0.4339  0.5513 -0.3151
  838MPD2    H512325   0.325   4.687  11.722  0.5745  0.1817 -0.3829
  838MPD2    N112326   0.630   4.674  11.359  1.0498  0.7268 -0.1837
  838MPD2    H712327   0.549   4.625  11.323  1.0008  2.1796 -2.0291
  839MPD2     C12328   0.261   3.923  11.222  0.5502  0.2293  0.1458
  839MPD2    C112329   0.337   3.922  11.105  0.5363 -0.0311  0.1144
  839MPD2    C212330   0.439   4.019  11.078 -0.3236 -0.3451  0.5067
  839MPD2    C312331   0.452   4.117  11.171 -0.3688  0.0731 -0.0415
  839MPD2    C412332   0.377   4.114  11.287 -0.4608 -0.3145 -0.6561
  839MPD2    C512333   0.282   4.020  11.317  0.1960  1.2579 -0.4580
  839MPD2     H12334   0.484   4.018  10.979  2.0515  0.3464  1.5901
  839MPD2    H112335   0.392   4.190  11.363 -1.1316  1.1038 -1.9502
  839MPD2    H212336   0.195   3.838  11.241 -0.1944 -0.0113 -3.5338
  839MPD2    H312337   0.212   4.030  11.399  0.3584  2.4405 -0.4548
  839MPD2     N12338   0.537   4.225  11.157  0.2129  0.0504  0.3272
  839MPD2    H512339   0.556   4.283  11.238 -0.4127  2.1018 -0.9870
  839MPD2    N112340   0.318   3.827  11.003  0.2826 -0.3170 -0.5443
  839MPD2    H712341   0.392   3.813  10.935 -1.4710  1.8459 -2.8912
  840MPD2     C12342   0.716   1.842  10.393 -0.2416  0.0990 -0.0351
  840MPD2    C112343   0.652   1.816  10.509  0.0924  0.4545  0.2231
  840MPD2    C212344   0.704   1.874  10.624 -0.1347 -0.1185 -0.1069
  840MPD2    C312345   0.815   1.961  10.629  0.3806 -0.4076 -1.0517
  840MPD2    C412346   0.879   1.992  10.505  0.3524 -0.0129  0.0784
  840MPD2    C512347   0.827   1.925  10.394  0.2531  0.3859  0.1986
  840MPD2     H12348   0.662   1.834  10.716 -0.7983  0.3284 -0.2149
  840MPD2    H112349   0.965   2.056  10.490  0.1497 -0.0243 -1.0797
  840MPD2    H212350   0.686   1.791  10.303  1.6366 -1.4582  0.2200
  840MPD2    H312351   0.883   1.936  10.302  1.7618  0.1696  1.0905
  840MPD2     N12352   0.871   2.006  10.748 -0.0278 -0.0907  0.4615
  840MPD2    H512353   0.961   2.053  10.747 -0.3176  0.4592  0.3589
  840MPD2    N112354   0.542   1.728  10.503 -0.6682 -0.4490 -0.2395
  840MPD2    H712355   0.542   1.670  10.419  2.0926  1.2700 -1.4352
  841MPD2     C12356   0.088   1.590  14.508 -0.0017 -0.3776  0.0182
  841MPD2    C112357   0.169   1.479  14.515 -0.4157  0.2885 -0.2875
  841MPD2    C212358   0.285   1.494  14.589 -1.1029  0.2232  0.4369
  841MPD2    C312359   0.322   1.613  14.653 -0.5634 -0.9797  0.1638
  841MPD2    C412360   0.232   1.718  14.653  0.8407 -0.1965 -0.3615
  841MPD2    C512361   0.119   1.700  14.581 -0.3585 -0.4027  0.4547
  841MPD2     H12362   0.352   1.409  14.587  0.4342  1.4786 -1.2899
  841MPD2    H112363   0.245   1.814  14.700 -0.2919 -0.0893 -0.2611
  841MPD2    H212364   4.718   1.590  14.457  1.4567 -0.8628 -2.7208
  841MPD2    H312365   0.049   1.783  14.576  0.2090 -0.0005 -0.8734
  841MPD2     N12366   0.444   1.626  14.716  0.0672  0.5384 -0.2557
  841MPD2    H512367   0.504   1.544  14.704 -0.1899  0.0295  1.8693
  841MPD2    N112368   0.150   1.358  14.450  0.0862  0.4258 -0.4343
  841MPD2    H712369   0.232   1.299  14.438  2.3809  2.8808  3.1585
  842MPD2     C12370   1.417   2.363  16.987 -0.4239  1.1590 -0.1512
  842MPD2    C112371   1.291   2.305  16.974  0.3326  0.4698 -0.9249
  842MPD2    C212372   1.227   2.264  17.089 -0.5621 -0.0783 -0.0268
  842MPD2    C312373   1.274   2.282  17.218 -0.5361 -0.5074 -0.6518
  842MPD2    C412374   1.396   2.346  17.228 -0.0262  0.3942 -0.2707
  842MPD2    C512375   1.465   2.382  17.112  0.1822 -0.5323 -0.2604
  842MPD2     H12376   1.128   2.224  17.072 -0.4108 -1.1364  1.6231
  842MPD2    H112377   1.444   2.352  17.325  0.5992 -0.9445 -0.4993
  842MPD2    H212378   1.473   2.397  16.900 -0.0923  1.0342  0.0136
  842MPD2    H312379   1.561   2.431  17.107  0.6088 -1.4805 -1.5778
  842MPD2     N12380   1.202   2.257  17.339  0.1585  1.1625  0.3650
  842MPD2    H512381   1.242   2.289  17.426 -0.8873  3.7116 -0.0959
  842MPD2    N112382   1.228   2.301  16.852  0.5660  0.3489  0.0219
  842MPD2    H712383   1.270   2.353  16.776 -0.0063 -0.1413 -0.6415
  843MPD2     C12384   3.144   2.641   1.043 -0.5799 -0.1797 -0.6271
  843MPD2    C112385   3.279   2.617   1.045  0.2315  0.0311  0.1143
  843MPD2    C212386   3.363   2.690   0.963 -0.3895 -0.4034 -0.1773
  843MPD2    C312387   3.321   2.785   0.869 -0.0680  0.2702 -0.1210
  843MPD2    C412388   3.185   2.814   0.871 -0.0304 -0.0463  1.1430
  843MPD2    C512389   3.104   2.750   0.960  0.0332 -1.0859  0.0152
  843MPD2     H12390   3.467   2.661   0.970 -0.4525 -0.1414  1.7486
  843MPD2    H112391   3.155   2.897   0.808 -0.4575 -2.3861 -1.6931
  843MPD2    H212392   3.063   2.586   1.089 -0.1610  0.2614  0.6529
  843MPD2    H312393   2.997   2.767   0.963  0.0692 -0.8076 -0.2680
  843MPD2     N12394   3.406   2.860   0.788  0.3127 -0.5028 -0.0403
  843MPD2    H512395   3.358   2.918   0.720 -0.4762  0.1500  1.0589
  843MPD2    N112396   3.320   2.510   1.126 -0.4015  0.5271 -0.1174
  843MPD2    H712397   3.246   2.447   1.155  0.1590 -0.2776 -0.4697
  844MPD2     C12398   1.640   1.753  16.507 -0.7921 -0.0926  0.0465
  844MPD2    C112399   1.738   1.666  16.550  1.0139  0.3050  0.6382
  844MPD2    C212400   1.828   1.712  16.645  0.7222 -0.2644  1.2018
  844MPD2    C312401   1.827   1.843  16.690 -0.5285  0.5776 -0.3287
  844MPD2    C412402   1.735   1.929  16.633  0.3220 -0.4553 -0.2693
  844MPD2    C512403   1.641   1.883  16.547  0.0056  0.3814 -0.6163
  844MPD2     H12404   1.909   1.646  16.674  1.6008 -0.0636 -0.8271
  844MPD2    H112405   1.728   2.033  16.661 -1.1206 -0.1739 -1.7107
  844MPD2    H212406   1.576   1.726  16.425  1.3225  0.6821 -1.8770
  844MPD2    H312407   1.564   1.948  16.506 -0.2194  0.1864 -0.5008
  844MPD2     N12408   1.929   1.885  16.777  0.5383  0.1993 -0.6679
  844MPD2    H512409   1.996   1.815  16.806  0.0689  0.1425  0.3006
  844MPD2    N112410   1.748   1.543  16.495  0.7278 -0.3875 -0.0147
  844MPD2    H712411   1.817   1.480  16.536 -0.0708 -2.5187 -1.9500
  845MPD2     C12412   2.298   2.832  17.041 -0.4615  0.0580 -1.0986
  845MPD2    C112413   2.193   2.789  17.109  0.1622  0.2198 -0.6228
  845MPD2    C212414   2.158   2.655  17.111 -0.2459 -0.1551 -0.7931
  845MPD2    C312415   2.233   2.559  17.051 -0.1751 -0.4338 -0.4786
  845MPD2    C412416   2.344   2.606  16.986  0.4255  0.0961 -0.1311
  845MPD2    C512417   2.373   2.744  16.979 -0.6599 -0.7713 -0.3408
  845MPD2     H12418   2.061   2.620  17.144 -0.9882  2.1625 -0.5358
  845MPD2    H112419   2.399   2.545  16.915  1.3174 -1.4377  1.9171
  845MPD2    H212420   2.333   2.934  17.053  1.1256 -0.4494 -1.4967
  845MPD2    H312421   2.450   2.787  16.916 -1.6109  3.2991  1.3161
  845MPD2     N12422   2.189   2.432  17.048  0.4044  0.5203  0.2764
  845MPD2    H512423   2.103   2.413  17.099  0.1642  1.7670  0.3497
  845MPD2    N112424   2.117   2.888  17.183 -0.1412  0.2195 -0.4220
  845MPD2    H712425   2.150   2.983  17.168  1.5955 -0.1483  1.1572
  846MPD2     C12426   3.002   3.481  13.692  0.4815  1.0163 -0.5910
  846MPD2    C112427   2.910   3.530  13.781  0.5223  0.4286 -0.5718
  846MPD2    C212428   2.910   3.482  13.913 -0.3182 -0.2314  0.3386
  846MPD2    C312429   2.984   3.373  13.949  0.5175  0.1661 -0.0693
  846MPD2    C412430   3.077   3.326  13.857  0.3307 -0.1973  1.0204
  846MPD2    C512431   3.082   3.374  13.730 -0.2688  0.5873 -0.2210
  846MPD2     H12432   2.840   3.522  13.985  0.6745  0.5254  0.8815
  846MPD2    H112433   3.131   3.232  13.869  0.1655  0.0006  3.4094
  846MPD2    H212434   3.033   3.512  13.593 -1.0008  2.4102 -0.6149
  846MPD2    H312435   3.142   3.328  13.652 -0.3265 -1.0488  0.6939
  846MPD2     N12436   2.960   3.318  14.079 -0.1642  0.7421 -0.5308
  846MPD2    H512437   2.871   3.344  14.121 -0.8169 -1.4729 -0.5603
  846MPD2    N112438   2.831   3.647  13.755  0.2731 -0.0293 -0.2025
  846MPD2    H712439   2.772   3.679  13.830 -2.1277  0.9116 -2.4832
  847MPD2     C12440   3.264   4.055  14.594 -0.1689  0.2981  0.0874
  847MPD2    C112441   3.382   3.989  14.626 -0.5621  0.9322  0.0416
  847MPD2    C212442   3.400   3.915  14.740  0.2330  0.0509 -0.2637
  847MPD2    C312443   3.293   3.912  14.829  0.2186 -0.1751  0.4003
  847MPD2    C412444   3.174   3.975  14.797  0.8687 -0.2760 -0.4328
  847MPD2    C512445   3.160   4.043  14.680 -0.4667  0.2945  0.2658
  847MPD2     H12446   3.493   3.861  14.756  1.2607  1.0466 -2.8185
  847MPD2    H112447   3.091   3.984  14.866  0.4642 -3.0697 -0.5663
  847MPD2    H212448   3.234   4.101  14.501 -1.0182 -0.3556  0.0320
  847MPD2    H312449   3.065   4.092  14.663 -1.3637 -2.7121 -3.3225
  847MPD2     N12450   3.302   3.838  14.948  0.0196  0.3067 -0.7482
  847MPD2    H512451   3.214   3.828  14.998  1.4857  0.2504  1.8196
  847MPD2    N112452   3.502   4.000  14.552  1.0562 -0.5321 -0.1207
  847MPD2    H712453   3.588   3.978  14.602  1.8630  0.0452 -1.2536
  848MPD2     C12454   1.338   2.240  16.392  0.4995 -0.0566  0.1294
  848MPD2    C112455   1.439   2.272  16.481 -0.3017 -0.1062  0.1077
  848MPD2    C212456   1.522   2.377  16.448 -0.3322  0.2434  0.1297
  848MPD2    C312457   1.504   2.457  16.336 -0.5378  0.0851 -0.2446
  848MPD2    C412458   1.408   2.418  16.250  0.4279  0.2055  0.4567
  848MPD2    C512459   1.321   2.314  16.281  0.0441  0.0860 -0.3007
  848MPD2     H12460   1.605   2.399  16.515 -0.7830  1.0707  0.4122
  848MPD2    H112461   1.384   2.473  16.159  0.8908 -0.0862  0.1637
  848MPD2    H212462   1.278   2.152  16.411 -0.0315  0.6795  1.8428
  848MPD2    H312463   1.240   2.292  16.212 -1.2740  0.5935  1.0900
  848MPD2     N12464   1.584   2.573  16.303  0.4710 -0.2611  0.0815
  848MPD2    H512465   1.561   2.620  16.216 -2.1732 -0.9051  0.4211
  848MPD2    N112466   1.458   2.205  16.602 -0.0801  0.3947  0.1323
  848MPD2    H712467   1.534   2.231  16.663  0.5527 -0.9856 -0.0670
  849MPD2     C12468   0.935   1.578  13.328 -0.9960 -0.2617  0.0293
  849MPD2    C112469   0.832   1.670  13.329 -0.2120  0.1723  0.0199
  849MPD2    C212470   0.786   1.713  13.454 -0.3631 -0.7630 -0.0803
  849MPD2    C312471   0.852   1.681  13.568  0.5848  0.5587 -0.2136
  849MPD2    C412472   0.955   1.588  13.562 -0.1789  0.8758 -0.2303
  849MPD2    C512473   0.994   1.536  13.442  0.3827 -0.4609 -0.9460
  849MPD2     H12474   0.701   1.779  13.460  0.0528 -0.1013 -1.4155
  849MPD2    H112475   1.006   1.558  13.652 -2.8935 -2.2742  0.2380
  849MPD2    H212476   0.962   1.533  13.234 -1.6091 -0.2312 -0.1590
  849MPD2    H312477   1.068   1.458  13.427 -0.5861 -1.5128 -0.3082
  849MPD2     N12478   0.802   1.736  13.691  0.1856  0.3561  0.2989
  849MPD2    H512479   0.733   1.811  13.687 -1.7360 -1.4699 -0.2665
  849MPD2    N112480   0.782   1.720  13.211 -0.3472  0.1849 -0.1943
  849MPD2    H712481   0.827   1.695  13.123  1.7744  0.4854  0.8003
  850MPD2     C12482   3.411   4.625  14.974  0.7439  0.7745 -0.2903
  850MPD2    C112483   3.390   0.011  15.050  0.5517 -0.1826  0.2164
  850MPD2    C212484   3.500   0.086  15.094  0.3085  0.2384 -0.6548
  850MPD2    C312485   3.625   0.026  15.085  0.2479 -0.3160  0.0700
  850MPD2    C412486   3.641   4.640  15.002 -1.1583  0.8521  0.0746
  850MPD2    C512487   3.534   4.580  14.945 -0.8002 -0.2689  0.4588
  850MPD2     H12488   3.488   0.182  15.143 -0.7100  0.5289 -1.4864
  850MPD2    H112489   3.740   4.598  14.987 -0.5060  3.1654 -2.1313
  850MPD2    H212490   3.328   4.567  14.934 -0.6000  1.8068  1.0103
  850MPD2    H312491   3.550   4.485  14.894 -1.5366  0.1052 -0.4671
  850MPD2     N12492   3.737   0.085  15.145  0.2774  0.4807 -0.2241
  850MPD2    H512493   3.830   0.046  15.134 -0.9286 -2.7409  1.1623
  850MPD2    N112494   3.258   0.065  15.062  0.7388 -0.1831 -0.2395
  850MPD2    H712495   3.185   0.030  15.000 -0.6114 -1.0003  1.8050
  851MPD2     C12496   3.802   0.042  15.714 -0.0224 -0.2691 -0.2292
  851MPD2    C112497   3.716   4.724  15.618  0.2190 -0.2371 -0.7251
  851MPD2    C212498   3.759   4.619  15.534  0.1108 -0.6099  0.1684
  851MPD2    C312499   3.886   4.568  15.546  0.8411  0.4827 -0.3315
  851MPD2    C412500   3.973   4.623  15.632 -0.2821 -0.8292 -0.4124
  851MPD2    C512501   3.932   4.721  15.715 -0.6565  1.1711  0.2880
  851MPD2     H12502   3.695   4.589  15.452 -1.0408  1.7067  0.1933
  851MPD2    H112503   4.074   4.585  15.638 -0.0093 -0.2896 -1.6331
  851MPD2    H212504   3.786   0.114  15.793  0.2945  0.7746 -1.1165
  851MPD2    H312505   3.995   0.026  15.798  1.4661 -1.4050 -0.3967
  851MPD2     N12506   3.926   4.465  15.459  0.2227  0.6513 -0.0304
  851MPD2    H512507   3.867   4.452  15.377 -2.4113  2.3383  1.6035
  851MPD2    N112508   3.592   0.071  15.602 -0.6133  0.0204  0.2182
  851MPD2    H712509   3.580   0.163  15.643 -3.6031 -0.5646  0.6253
  852MPD2     C12510   2.503   2.869   9.874  0.7053 -0.1598  0.5509
  852MPD2    C112511   2.565   2.916   9.982  0.0651  0.0709 -0.5358
  852MPD2    C212512   2.650   3.025   9.969 -0.4722  0.0035  0.4836
  852MPD2    C312513   2.663   3.089   9.846 -0.9939 -0.9852 -0.7110
  852MPD2    C412514   2.600   3.041   9.733 -0.8797 -0.2898  0.1548
  852MPD2    C512515   2.516   2.934   9.752  0.4597  0.1121  0.3610
  852MPD2     H12516   2.701   3.049  10.061  0.6875  2.7483 -0.8419
  852MPD2    H112517   2.614   3.075   9.631 -0.2485  0.1833  0.3961
  852MPD2    H212518   2.413   2.810   9.877  1.0350 -0.8703 -3.2766
  852MPD2    H312519   2.443   2.905   9.677  1.4230 -1.4146  0.0124
  852MPD2     N12520   2.759   3.186   9.836  0.4104  0.1585  0.3534
  852MPD2    H512521   2.790   3.220   9.926 -0.6035  2.3812 -0.1332
  852MPD2    N112522   2.568   2.843  10.104 -0.4815 -0.1911  0.3300
  852MPD2    H712523   2.607   2.892  10.184 -0.9368 -0.7878  0.9142
  853MPD2     C12524   0.267   3.131  11.975  0.2690 -0.8697 -0.4473
  853MPD2    C112525   0.149   3.168  11.921 -0.1044  0.4498 -0.2080
  853MPD2    C212526   0.128   3.189  11.785  0.7588  0.4389 -0.5000
  853MPD2    C312527   0.249   3.171  11.709  0.3173 -0.5043 -0.6334
  853MPD2    C412528   0.368   3.146  11.771 -0.2705 -0.0372 -0.3744
  853MPD2    C512529   0.379   3.132  11.902  0.0284 -0.3059  0.2888
  853MPD2     H12530   0.035   3.225  11.743 -0.4751 -2.1627 -0.0307
  853MPD2    H112531   0.461   3.137  11.716  0.6497  0.6923  1.0851
  853MPD2    H212532   0.284   3.120  12.081 -0.3030 -1.8918 -0.4623
  853MPD2    H312533   0.476   3.109  11.945  1.5327  2.2293 -1.7441
  853MPD2     N12534   0.254   3.161  11.565 -0.6530 -0.1678  0.2907
  853MPD2    H512535   0.346   3.141  11.525 -0.4232  1.1957  0.1414
  853MPD2    N112536   0.055   3.189  12.027 -0.2622 -0.1387  0.2556
  853MPD2    H712537   0.099   3.171  12.117 -0.2817 -1.4313  0.0021
  854MPD2     C12538   1.291   3.372  12.835  0.2524 -0.2057 -0.7676
  854MPD2    C112539   1.339   3.331  12.714 -0.5569  0.3321  0.2938
  854MPD2    C212540   1.451   3.247  12.709 -0.2968 -0.2760  0.2341
  854MPD2    C312541   1.502   3.193  12.823  0.3190  0.1913  0.1558
  854MPD2    C412542   1.449   3.228  12.940 -0.7148  0.0457  0.3514
  854MPD2    C512543   1.345   3.318  12.946  1.0192  0.1683 -0.5766
  854MPD2     H12544   1.492   3.214  12.615  4.2409 -0.7343  2.3539
  854MPD2    H112545   1.502   3.194  13.029 -1.0045  0.2413  0.5986
  854MPD2    H212546   1.218   3.453  12.842  0.6209 -0.1308  2.0899
  854MPD2    H312547   1.323   3.366  13.041 -0.4900 -0.9598 -0.3614
  854MPD2     N12548   1.623   3.116  12.821 -0.6477  0.6972  0.2543
  854MPD2    H512549   1.666   3.100  12.911  0.7019 -0.4341 -0.5843
  854MPD2    N112550   1.287   3.396  12.599  0.3584  0.1287  0.3215
  854MPD2    H712551   1.224   3.475  12.614  0.2684  0.7890 -3.5815
  855MPD2     C12552   2.444   2.773  13.324 -0.4541 -0.4751  0.0538
  855MPD2    C112553   2.305   2.762  13.337 -0.4668  0.0219 -0.0503
  855MPD2    C212554   2.223   2.814  13.236 -0.2223  0.5948  0.0615
  855MPD2    C312555   2.274   2.877  13.121 -0.7571 -0.1082  0.1486
  855MPD2    C412556   2.412   2.876  13.100 -1.0844 -0.4175 -0.5616
  855MPD2    C512557   2.488   2.822  13.204  0.7762  0.3465  0.2098
  855MPD2     H12558   2.116   2.807  13.250 -0.4693  2.3550 -0.9675
  855MPD2    H112559   2.452   2.905  13.003  1.2360 -0.5774  0.3413
  855MPD2    H212560   2.519   2.747  13.397 -1.9589  1.1780  2.2045
  855MPD2    H312561   2.595   2.837  13.192 -0.0732  3.0283 -4.1228
  855MPD2     N12562   2.199   2.932  13.016  0.1227 -0.4260  0.0588
  855MPD2    H512563   2.249   2.959  12.932  0.7029  0.2523  0.6282
  855MPD2    N112564   2.240   2.699  13.448 -0.4788  0.4160 -0.1177
  855MPD2    H712565   2.142   2.674  13.441 -0.6917  1.4155 -0.7236
  856MPD2     C12566   3.878   3.370  14.048 -0.3372  0.0565  0.4250
  856MPD2    C112567   3.983   3.455  14.081 -0.4207  0.6161  1.5331
  856MPD2    C212568   3.979   3.584  14.036  0.2866  0.4026 -0.1730
  856MPD2    C312569   3.869   3.636  13.968  0.3707  0.1019 -0.4722
  856MPD2    C412570   3.759   3.552  13.952  1.0163  0.1528  0.4744
  856MPD2    C512571   3.763   3.422  13.987 -0.0845 -0.2819  0.0176
  856MPD2     H12572   4.061   3.650  14.061  1.9817 -1.4846 -0.7765
  856MPD2    H112573   3.661   3.581  13.914  0.5349 -0.2831  1.3887
  856MPD2    H212574   3.880   3.265  14.077  1.7722  0.1831  0.7662
  856MPD2    H312575   3.676   3.357  13.989  1.2320 -1.9737  2.5411
  856MPD2     N12576   3.859   3.778  13.968  0.2702  0.4248  0.2106
  856MPD2    H512577   3.940   3.831  13.998 -0.4886  0.4109  2.3144
  856MPD2    N112578   4.098   3.410  14.153 -0.1315 -0.9282  0.0241
  856MPD2    H712579   4.163   3.485  14.176 -0.8437 -0.6919  1.2243
  857MPD2     C12580   0.968   1.122  12.678  0.4455  0.1468 -0.2188
  857MPD2    C112581   1.104   1.112  12.690 -0.7302  0.4613 -0.7467
  857MPD2    C212582   1.176   1.232  12.669 -0.8913  0.5856  0.0095
  857MPD2    C312583   1.125   1.358  12.650 -0.5487 -1.1884 -0.3417
  857MPD2    C412584   0.989   1.369  12.641 -0.5665 -0.1923  0.5196
  857MPD2    C512585   0.923   1.249  12.652  0.8608 -0.2503 -0.2658
  857MPD2     H12586   1.284   1.221  12.678 -0.9874 -0.2091  0.1888
  857MPD2    H112587   0.940   1.466  12.639  0.8533  0.5212  0.1719
  857MPD2    H212588   0.901   1.037  12.670  1.8426 -0.8368 -1.6445
  857MPD2    H312589   0.815   1.250  12.641  0.8362 -1.1469 -0.1433
  857MPD2     N12590   1.210   1.467  12.655  0.5112  0.3449 -0.5376
  857MPD2    H512591   1.304   1.437  12.676 -0.2573 -1.4080  0.4333
  857MPD2    N112592   1.150   0.988  12.709  0.1707 -0.0127 -0.0029
  857MPD2    H712593   1.080   0.920  12.737 -0.4428  0.1374 -1.1965
  858MPD2     C12594   2.039   0.139  16.727 -0.0867  0.4169 -0.0003
  858MPD2    C112595   2.065   0.018  16.787  0.8993  0.2072 -0.4987
  858MPD2    C212596   2.061   0.018  16.924 -0.2964 -0.0659 -0.5646
  858MPD2    C312597   2.031   0.130  16.998 -0.0642 -0.4853  0.2165
  858MPD2    C412598   1.975   0.237  16.932  0.1173  0.0241 -0.4821
  858MPD2    C512599   1.985   0.245  16.798  0.2596  0.5706 -0.5406
  858MPD2     H12600   2.076   4.646  16.969 -0.3390 -0.6036 -1.6970
  858MPD2    H112601   1.933   0.324  16.981 -0.0347  0.9197 -2.2001
  858MPD2    H212602   2.046   0.147  16.619  0.9831 -4.0912 -0.2480
  858MPD2    H312603   1.956   0.330  16.737  1.7086  1.0832 -0.5112
  858MPD2     N12604   2.027   0.131  17.139  1.2151 -0.4425  0.2472
  858MPD2    H512605   1.982   0.207  17.189 -0.7728 -1.9946  0.8257
  858MPD2    N112606   2.088   4.634  16.701 -0.1472 -0.6355 -0.2462
  858MPD2    H712607   2.078   4.655  16.602 -0.1351 -0.9697 -0.3185
  859MPD2     C12608   0.556   2.448  15.683  0.4255 -0.0775 -0.6314
  859MPD2    C112609   0.591   2.333  15.614 -0.3363 -0.8625  0.1731
  859MPD2    C212610   0.565   2.208  15.665 -0.2230  0.2131 -0.5556
  859MPD2    C312611   0.520   2.201  15.798 -0.0796 -0.5913  0.0541
  859MPD2    C412612   0.495   2.310  15.874 -0.1882 -0.4152  0.4697
  859MPD2    C512613   0.511   2.435  15.816 -0.5579  0.3923 -0.3428
  859MPD2     H12614   0.585   2.121  15.604  1.0119  0.9749 -1.2376
  859MPD2    H112615   0.444   2.308  15.970  0.0264  2.6143  0.6698
  859MPD2    H212616   0.573   2.550  15.649  0.1207 -0.2393 -1.2657
  859MPD2    H312617   0.473   2.526  15.860  0.1318  1.0416 -1.0777
  859MPD2     N12618   0.484   2.074  15.853  0.7376  0.2104 -0.1611
  859MPD2    H512619   0.425   2.071  15.935  0.5026 -1.0663 -0.3782
  859MPD2    N112620   0.651   2.347  15.488  0.8659  0.2127 -0.1604
  859MPD2    H712621   0.660   2.444  15.459 -0.6038  0.1275 -0.9223
  860MPD2     C12622   2.989   2.942  11.425  0.0904  0.0887  0.0473
  860MPD2    C112623   2.982   2.955  11.560 -0.6834  0.1276  0.0728
  860MPD2    C212624   2.861   2.969  11.622  0.1810 -0.6712 -0.4320
  860MPD2    C312625   2.749   2.974  11.549 -0.1764 -0.7825 -0.0354
  860MPD2    C412626   2.754   2.964  11.412  0.1299  0.2324 -0.5751
  860MPD2    C512627   2.873   2.947  11.352 -0.4129 -0.5441 -0.4578
  860MPD2     H12628   2.855   2.985  11.729  0.3842  0.5903 -0.6036
  860MPD2    H112629   2.666   2.984  11.353  0.5170  1.7367 -0.6404
  860MPD2    H212630   3.083   2.921  11.375  0.3041  1.1815 -0.0079
  860MPD2    H312631   2.862   2.933  11.245 -0.3867  0.0122 -0.5329
  860MPD2     N12632   2.632   3.007  11.617  0.0454  0.4067 -0.3923
  860MPD2    H512633   2.636   3.019  11.718 -1.7866 -0.7468 -0.1694
  860MPD2    N112634   3.096   2.961  11.648 -0.4841 -0.2249 -0.8191
  860MPD2    H712635   3.069   2.927  11.740  1.4373  0.9096  0.1662
  861MPD2     C12636   1.558   0.981  11.207 -0.9404 -0.6047 -0.4871
  861MPD2    C112637   1.519   1.072  11.304 -0.5212  0.2446  0.5559
  861MPD2    C212638   1.487   1.201  11.268  0.2343 -0.1514  0.2726
  861MPD2    C312639   1.495   1.235  11.135  0.1655 -0.0327 -0.6688
  861MPD2    C412640   1.535   1.142  11.038 -0.2740 -0.0589  0.4900
  861MPD2    C512641   1.570   1.021  11.075 -0.2390 -0.0125 -1.0373
  861MPD2     H12642   1.456   1.270  11.346 -1.0181  0.4918 -0.7941
  861MPD2    H112643   1.542   1.167  10.933  0.1001  0.4212  0.6297
  861MPD2    H212644   1.570   0.878  11.236  0.1930 -0.6202 -1.0440
  861MPD2    H312645   1.595   0.939  11.008  2.1265 -0.9020  0.9256
  861MPD2     N12646   1.465   1.364  11.086  0.3913 -0.7661  0.0233
  861MPD2    H512647   1.482   1.386  10.988  2.3455 -0.5646  0.4008
  861MPD2    N112648   1.505   1.018  11.434 -0.6674 -0.1882  0.5378
  861MPD2    H712649   1.541   0.926  11.457  2.7540  1.3664  1.5564
  862MPD2     C12650   0.909   1.491  10.623  0.4001 -0.2586  0.5041
  862MPD2    C112651   1.031   1.438  10.654 -0.5629 -0.0608 -0.8048
  862MPD2    C212652   1.059   1.310  10.621  0.3728  0.0113  0.0705
  862MPD2    C312653   0.966   1.236  10.548  0.0706 -0.0581 -0.0021
  862MPD2    C412654   0.851   1.298  10.514  0.0853  0.1734 -0.1197
  862MPD2    C512655   0.818   1.429  10.548 -0.2004 -0.1739  0.0374
  862MPD2     H12656   1.156   1.271  10.651  0.5392  0.0566 -0.4128
  862MPD2    H112657   0.785   1.247  10.446 -0.1867 -0.1226  0.3678
  862MPD2    H212658   0.893   1.597  10.643 -0.9586 -0.0748 -1.5422
  862MPD2    H312659   0.724   1.476  10.523  0.4778  1.2176  0.0817
  862MPD2     N12660   0.999   1.110  10.500  0.5091  0.0732  0.2375
  862MPD2    H512661   0.945   1.076  10.421  0.2087  3.0900 -0.8536
  862MPD2    N112662   1.127   1.511  10.737 -0.0359  0.1423  0.6188
  862MPD2    H712663   1.220   1.472  10.746  0.0596 -0.0652 -1.1378
  863MPD2     C12664   0.481   3.754  16.512  0.2216  0.4068 -0.2142
  863MPD2    C112665   0.379   3.683  16.576 -0.3898  0.0624 -0.5000
  863MPD2    C212666   0.408   3.614  16.695 -0.7091 -0.3295  0.0308
  863MPD2    C312667   0.536   3.600  16.734  0.8857  0.9841  0.5302
  863MPD2    C412668   0.632   3.664  16.666 -0.0254  0.0690  0.1628
  863MPD2    C512669   0.605   3.747  16.560 -0.6614  0.0915  0.0195
  863MPD2     H12670   0.320   3.567  16.738 -0.6729 -1.0889 -0.7145
  863MPD2    H112671   0.726   3.678  16.718  0.7392 -0.9645 -0.9290
  863MPD2    H212672   0.462   3.825  16.433 -1.3924  1.3699  1.0414
  863MPD2    H312673   0.683   3.803  16.511 -0.9690 -1.5970 -2.4302
  863MPD2     N12674   0.576   3.520  16.845  0.0686 -0.4061  0.8178
  863MPD2    H512675   0.675   3.510  16.864  0.2743  2.2332  1.1588
  863MPD2    N112676   0.254   3.704  16.509  0.8202  0.6929 -0.1030
  863MPD2    H712677   0.257   3.749  16.418 -1.1307 -0.6745 -0.8607
  864MPD2     C12678   0.775   4.483  17.412  0.7970  0.2974  0.1836
  864MPD2    C112679   0.864   4.457  17.305 -0.3575  0.5537  0.7449
  864MPD2    C212680   0.947   4.556  17.265  0.1936 -0.1899  0.0517
  864MPD2    C312681   0.932   4.683  17.315 -0.1541  0.0493  0.2735
  864MPD2    C412682   0.843   4.709  17.418 -0.4190 -0.4882  0.5999
  864MPD2    C512683   0.759   4.606  17.461  0.3103  0.0792  0.1121
  864MPD2     H12684   1.019   4.538  17.186 -0.6681  1.9431 -1.1900
  864MPD2    H112685   0.830   0.074  17.477  0.2801 -0.0063  0.0215
  864MPD2    H212686   0.719   4.400  17.453 -2.3163  0.0517 -4.5193
  864MPD2    H312687   0.696   4.620  17.548  1.8154  0.4716  1.1468
  864MPD2     N12688   1.006   0.069  17.269 -0.9105 -0.0000  0.3786
  864MPD2    H512689   0.964   0.161  17.279 -2.0483 -0.4094 -0.6008
  864MPD2    N112690   0.855   4.331  17.240 -0.5591 -0.2875 -0.2385
  864MPD2    H712691   0.798   4.262  17.288 -1.8866  1.4033  0.6080
  865MPD2     C12692   0.772   0.212  16.493 -0.5557  0.3812 -0.0174
  865MPD2    C112693   0.908   0.207  16.477 -0.0213  0.2132 -0.6660
  865MPD2    C212694   0.987   0.250  16.579 -0.2439 -0.7641 -0.7584
  865MPD2    C312695   0.937   0.293  16.700  0.0201 -0.4275 -0.1319
  865MPD2    C412696   0.798   0.307  16.712 -0.3757 -0.2235  0.5309
  865MPD2    C512697   0.723   0.259  16.611 -0.7474 -0.6049  0.0607
  865MPD2     H12698   1.093   0.232  16.564 -0.0618 -2.7762  2.9182
  865MPD2    H112699   0.742   0.329  16.802 -0.9692  3.2266 -0.6524
  865MPD2    H212700   0.715   0.175  16.409  0.4073 -0.1612 -0.4282
  865MPD2    H312701   0.617   0.243  16.630 -0.5847  1.1990  2.6044
  865MPD2     N12702   1.028   0.335  16.801 -0.9732  0.0081  0.1513
  865MPD2    H512703   1.128   0.325  16.784 -1.1231  0.6864 -1.0880
  865MPD2    N112704   0.964   0.146  16.356  0.1875 -0.1905 -0.8414
  865MPD2    H712705   0.895   0.113  16.289 -3.4423 -0.4234  2.9893
  866MPD2     C12706   1.841   1.119  11.983  0.4193  0.4698 -0.2608
  866MPD2    C112707   1.866   1.131  11.848 -0.5712  0.6553 -0.1992
  866MPD2    C212708   1.774   1.204  11.777  1.9762 -0.3579  0.6933
  866MPD2    C312709   1.675   1.277  11.840 -0.2326  0.4887  1.5843
  866MPD2    C412710   1.655   1.256  11.978 -0.3050  0.2465 -0.2680
  866MPD2    C512711   1.736   1.176  12.048  1.1136 -0.1335  0.1215
  866MPD2     H12712   1.800   1.225  11.674 -1.0158 -1.4880 -0.3123
  866MPD2    H112713   1.575   1.310  12.027  0.3873  1.6533 -0.6787
  866MPD2    H212714   1.907   1.052  12.038 -1.5901 -1.2756  0.0136
  866MPD2    H312715   1.712   1.164  12.153 -2.5400 -1.9003 -0.9309
  866MPD2     N12716   1.595   1.374  11.772 -0.3363  0.1761 -0.0266
  866MPD2    H512717   1.517   1.411  11.825 -0.8659  0.5384 -1.0663
  866MPD2    N112718   1.973   1.058  11.793 -0.4356  0.2312  0.0282
  866MPD2    H712719   2.028   0.999  11.855 -2.4304 -1.1567  0.4471
  867MPD2     C12720   4.339   0.114  16.444 -0.0914 -0.2577 -0.4158
  867MPD2    C112721   4.441   0.097  16.543  0.1532 -0.1483  0.1133
  867MPD2    C212722   4.455   0.195  16.643 -0.3766 -0.1428  0.1483
  867MPD2    C312723   4.374   0.312  16.641  0.0682 -0.3103 -0.1582
  867MPD2    C412724   4.275   0.311  16.552 -0.5222  0.1851 -0.1575
  867MPD2    C512725   4.259   0.220  16.452  0.2677  0.2770  0.4766
  867MPD2     H12726   4.540   0.185  16.710 -0.6503 -1.3968  0.3103
  867MPD2    H112727   4.206   0.395  16.542 -0.8493  0.0942  1.3131
  867MPD2    H212728   4.325   0.049  16.359  0.9317 -1.0497  0.0166
  867MPD2    H312729   4.184   0.231  16.374 -0.1934  1.0700  1.0309
  867MPD2     N12730   4.391   0.419  16.719 -0.2398  0.6577  0.1123
  867MPD2    H512731   4.338   0.503  16.699 -1.6598  0.0579  1.3454
  867MPD2    N112732   4.522   4.709  16.524  0.8021  0.2008 -0.0917
  867MPD2    H712733   4.505   4.645  16.447  1.5054 -0.4250  0.2792
  868MPD2     C12734   1.252   4.347  13.043  0.1893  0.2134 -0.1442
  868MPD2    C112735   1.321   4.364  13.154 -0.5996  0.5729 -0.3517
  868MPD2    C212736   1.253   4.359  13.274  0.0601 -0.0882 -0.2452
  868MPD2    C312737   1.121   4.318  13.282 -0.6175 -0.4445  0.1028
  868MPD2    C412738   1.059   4.285  13.163  0.2018  0.6509  0.0221
  868MPD2    C512739   1.126   4.305  13.048  0.1064  0.5988  0.3959
  868MPD2     H12740   1.299   4.387  13.368 -0.7766  0.1536  0.0903
  868MPD2    H112741   0.965   4.232  13.153  0.2109  0.6407 -0.0092
  868MPD2    H212742   1.297   4.358  12.945 -0.3800 -1.6012 -0.6196
  868MPD2    H312743   1.068   4.283  12.958  1.1700 -1.1129  0.1263
  868MPD2     N12744   1.070   4.294  13.413  0.0641 -0.1647 -0.6900
  868MPD2    H512745   1.138   4.314  13.485  0.3105  1.1225 -1.2762
  868MPD2    N112746   1.460   4.387  13.141  0.3956 -0.3369 -0.0395
  868MPD2    H712747   1.488   4.426  13.052 -1.1116 -1.5272 -1.0305
  869MPD2     C12748   2.677   1.315   2.336 -0.3047  0.3195  0.5476
  869MPD2    C112749   2.587   1.293   2.230 -0.4395  0.0381 -0.3239
  869MPD2    C212750   2.577   1.388   2.130 -0.3087 -0.1374  0.6544
  869MPD2    C312751   2.668   1.492   2.124 -0.0822 -0.6684 -0.2265
  869MPD2    C412752   2.769   1.493   2.219 -0.3993 -0.3120 -0.4570
  869MPD2    C512753   2.775   1.406   2.329 -0.3334  0.2360 -0.9730
  869MPD2     H12754   2.524   1.359   2.040 -0.9125  1.6817  0.3995
  869MPD2    H112755   2.834   1.579   2.207 -1.2871  0.5806  1.1611
  869MPD2    H212756   2.683   1.254   2.425 -0.7897  0.8183  0.9217
  869MPD2    H312757   2.843   1.422   2.412 -0.4423  0.3197 -0.8996
  869MPD2     N12758   2.668   1.592   2.028 -0.0825 -0.3301 -0.4669
  869MPD2    H512759   2.744   1.659   2.031  0.3531 -0.8577  0.1278
  869MPD2    N112760   2.510   1.175   2.231 -0.4008  0.0465 -0.2658
  869MPD2    H712761   2.537   1.097   2.292 -1.7269 -0.1306  0.0857
  870MPD2     C12762   1.326   1.598   1.592  0.1742  0.1685  0.6463
  870MPD2    C112763   1.436   1.521   1.566  0.2472  0.3562 -0.6863
  870MPD2    C212764   1.531   1.582   1.488 -0.0724 -0.3736 -0.5139
  870MPD2    C312765   1.518   1.718   1.444  0.0016 -0.5324  0.2352
  870MPD2    C412766   1.418   1.794   1.487 -0.1863  0.3678  0.0769
  870MPD2    C512767   1.323   1.733   1.557 -0.7691  0.1650  1.1491
  870MPD2     H12768   1.625   1.532   1.470  1.2847  1.5256  1.3864
  870MPD2    H112769   1.409   1.901   1.475  0.4215  0.3148 -0.8180
  870MPD2    H212770   1.242   1.555   1.646  2.0181 -1.3252  2.3495
  870MPD2    H312771   1.236   1.788   1.592 -0.5905  0.7530  0.6542
  870MPD2     N12772   1.634   1.775   1.385 -0.2521 -0.2898 -0.7685
  870MPD2    H512773   1.714   1.712   1.378 -1.7628 -2.4352  1.4106
  870MPD2    N112774   1.458   1.391   1.620  0.1939 -0.3093  0.1800
  870MPD2    H712775   1.371   1.358   1.661  2.4334 -2.9314  2.7813
  871MPD2     C12776   2.664   0.313  16.495 -0.4469  0.4869 -0.5572
  871MPD2    C112777   2.701   0.269  16.621  0.0662 -0.0395 -0.3504
  871MPD2    C212778   2.798   0.178  16.631  0.0635 -0.0451  0.2629
  871MPD2    C312779   2.867   0.145  16.517 -0.3719 -0.0073  0.9763
  871MPD2    C412780   2.830   0.188  16.389  0.1985  0.1568 -0.6383
  871MPD2    C512781   2.716   0.268  16.375  0.4482  0.2213 -0.1198
  871MPD2     H12782   2.836   0.135  16.724  1.5506  0.3783 -0.1636
  871MPD2    H112783   2.871   0.146  16.298 -2.3849 -1.2312 -1.1659
  871MPD2    H212784   2.596   0.398  16.496  2.0254  2.4509  1.4407
  871MPD2    H312785   2.669   0.292  16.281  2.0788  1.3997 -0.6375
  871MPD2     N12786   2.981   0.063  16.543 -0.2047  0.4163 -0.6860
  871MPD2    H512787   2.997   0.021  16.634  0.2938 -0.8864 -1.3795
  871MPD2    N112788   2.655   0.346  16.732  0.7512  0.1081  0.1818
  871MPD2    H712789   2.606   0.429  16.702 -2.6723 -2.5010 -1.5489
  872MPD2     C12790   3.915   2.649  14.491 -0.0966  0.7543 -0.2404
  872MPD2    C112791   3.868   2.701  14.376  0.6699  0.2836 -0.2053
  872MPD2    C212792   3.732   2.712  14.356  0.1383  0.7203 -0.3816
  872MPD2    C312793   3.648   2.651  14.449 -0.0920 -0.0780 -0.3121
  872MPD2    C412794   3.700   2.602  14.565  0.2253  0.1899  0.2489
  872MPD2    C512795   3.833   2.598  14.585  0.1340  0.5190 -0.0683
  872MPD2     H12796   3.689   2.753  14.265 -1.0395  0.8547  0.2350
  872MPD2    H112797   3.631   2.557  14.635  1.0145 -0.1471  0.7968
  872MPD2    H212798   4.017   2.647  14.527  0.1538 -0.1407 -0.9900
  872MPD2    H312799   3.879   2.544  14.668  0.5664 -0.1989 -0.7821
  872MPD2     N12800   3.510   2.637  14.433  0.5296 -0.0767 -0.3909
  872MPD2    H512801   3.460   2.581  14.501  2.0644 -1.0810 -0.0801
  872MPD2    N112802   3.958   2.771  14.287 -0.7942  0.3409 -0.0836
  872MPD2    H712803   3.908   2.815  14.210 -0.0584 -1.1019 -1.3868
  873MPD2     C12804   1.139   2.622   1.203  0.0748 -0.1644  0.6006
  873MPD2    C112805   1.021   2.623   1.273  0.0663 -0.6713 -0.2686
  873MPD2    C212806   0.961   2.495   1.290  0.0125 -0.0977 -0.1497
  873MPD2    C312807   1.016   2.382   1.227  0.3391  0.6191  0.2618
  873MPD2    C412808   1.126   2.392   1.152  0.6287 -0.8772  0.6808
  873MPD2    C512809   1.182   2.514   1.135 -0.1187  0.0061  0.1628
  873MPD2     H12810   0.870   2.491   1.350  2.2140 -1.1214  3.1660
  873MPD2    H112811   1.155   2.313   1.085  1.5196  0.8016 -0.9124
  873MPD2    H212812   1.191   2.714   1.181 -2.4689  1.4425  1.2455
  873MPD2    H312813   1.258   2.516   1.058  0.4604  0.7142  0.7598
  873MPD2     N12814   0.958   2.252   1.251  0.2032  0.1361 -0.4333
  873MPD2    H512815   0.976   2.185   1.177  1.2486  0.7495 -0.7344
  873MPD2    N112816   0.974   2.738   1.340  0.2512 -0.1172  0.3582
  873MPD2    H712817   1.034   2.820   1.341  2.4046 -1.7198  1.2120
  874MPD2     C12818   1.000   2.643  16.108  0.1748 -0.1604 -0.6005
  874MPD2    C112819   1.065   2.645  16.229  0.2954 -0.2236 -0.0635
  874MPD2    C212820   1.180   2.717  16.248  0.5100 -0.0089 -0.2785
  874MPD2    C312821   1.259   2.762  16.143 -0.3549  0.0923 -0.5299
  874MPD2    C412822   1.191   2.761  16.022 -0.2856 -0.5618 -0.2176
  874MPD2    C512823   1.062   2.714  16.003 -0.1097 -0.1013  0.3141
  874MPD2     H12824   1.220   2.734  16.347 -1.5518 -0.5792  0.6600
  874MPD2    H112825   1.237   2.815  15.940 -2.6090 -2.1945 -2.6446
  874MPD2    H212826   0.898   2.610  16.093  0.0808 -0.1981  0.1449
  874MPD2    H312827   1.017   2.714  15.905  0.7984  0.9026 -0.0998
  874MPD2     N12828   1.379   2.823  16.172 -0.2990 -0.1165  0.1048
  874MPD2    H512829   1.408   2.841  16.267  0.8708 -0.3393 -0.2050
  874MPD2    N112830   1.007   2.564  16.331  0.4901  0.1354  0.2875
  874MPD2    H712831   0.934   2.499  16.304  0.7671  0.4797 -1.2449
  875MPD2     C12832   1.804   1.120  14.296 -0.1273  0.1275 -0.2484
  875MPD2    C112833   1.672   1.160  14.308 -0.1391 -0.0567 -0.3995
  875MPD2    C212834   1.630   1.233  14.417  0.9904  0.1377 -0.4979
  875MPD2    C312835   1.717   1.252  14.520 -0.1982  0.1469 -0.2291
  875MPD2    C412836   1.847   1.219  14.505 -0.2374  0.6738 -0.3758
  875MPD2    C512837   1.890   1.149  14.398  0.3579 -0.3498 -0.5238
  875MPD2     H12838   1.525   1.257  14.427  0.8005 -1.1492  0.6742
  875MPD2    H112839   1.921   1.228  14.584 -1.8076  5.9623  0.4964
  875MPD2    H212840   1.840   1.066  14.209  1.1465  0.8261 -0.1598
  875MPD2    H312841   1.996   1.131  14.383  0.0866 -1.5147 -0.9903
  875MPD2     N12842   1.678   1.302  14.646  0.3977  0.2068  0.5412
  875MPD2    H512843   1.745   1.327  14.718 -0.7203  1.6515  1.0884
  875MPD2    N112844   1.579   1.137  14.209  0.0347  0.3365 -0.5352
  875MPD2    H712845   1.498   1.198  14.209  0.1868  0.5454  0.0058
  876MPD2     C12846   0.810   2.326  16.021  0.5280 -0.5316  0.0846
  876MPD2    C112847   0.938   2.319  15.970 -0.4101 -0.3261  1.0211
  876MPD2    C212848   1.031   2.230  16.033 -0.2511  0.0686  0.0076
  876MPD2    C312849   0.985   2.139  16.133  0.1590  0.6404  0.9573
  876MPD2    C412850   0.854   2.136  16.160 -0.2023 -0.1854 -0.6170
  876MPD2    C512851   0.766   2.227  16.102 -0.1660 -0.6589  0.4113
  876MPD2     H12852   1.128   2.222  15.986 -1.3653  1.5641 -2.5304
  876MPD2    H112853   0.802   2.065  16.224 -0.2246  0.2443 -0.1591
  876MPD2    H212854   0.742   2.397  15.977  0.5783 -0.8962 -0.5789
  876MPD2    H312855   0.660   2.225  16.126 -0.6700  0.9104 -1.7898
  876MPD2     N12856   1.072   2.040  16.190  0.2070 -0.1693 -0.3998
  876MPD2    H512857   1.166   2.033  16.151  0.3030  1.9101 -0.5622
  876MPD2    N112858   0.974   2.404  15.864  0.1254 -0.0196  0.0186
  876MPD2    H712859   0.907   2.468  15.824  0.1632  1.2486  1.9327
  877MPD2     C12860   0.683   2.734  15.228 -0.2971 -0.8062  0.0638
  877MPD2    C112861   0.815   2.708  15.203 -0.2979  0.3042  0.2263
  877MPD2    C212862   0.848   2.720  15.067  0.0172 -0.1936  0.8095
  877MPD2    C312863   0.769   2.758  14.959 -0.0006 -0.2374 -0.1017
  877MPD2    C412864   0.640   2.785  14.994  0.1503  0.3848 -0.2801
  877MPD2    C512865   0.605   2.764  15.123  0.6170  0.3705  1.4702
  877MPD2     H12866   0.952   2.696  15.047 -0.3965 -1.8491  0.6366
  877MPD2    H112867   0.567   2.811  14.918 -1.6607  0.2468  1.4454
  877MPD2    H212868   0.628   2.726  15.321 -1.1262  0.1446 -0.3404
  877MPD2    H312869   0.501   2.780  15.149  0.8055 -1.3310  3.2870
  877MPD2     N12870   0.816   2.762  14.824 -0.1542  0.0511  0.3886
  877MPD2    H512871   0.759   2.817  14.760  0.4280 -0.9263 -0.9837
  877MPD2    N112872   0.903   2.673  15.300 -0.8091 -0.0891 -0.4311
  877MPD2    H712873   1.000   2.663  15.272 -0.1680  1.3817  1.3092
  878MPD2     C12874   1.062   2.437  12.547  0.2726 -0.4173 -0.9605
  878MPD2    C112875   0.960   2.512  12.601  0.2178  0.1560 -0.2097
  878MPD2    C212876   0.866   2.452  12.689 -0.4201 -0.1820  0.1735
  878MPD2    C312877   0.889   2.321  12.741 -0.9410 -0.2949  0.5479
  878MPD2    C412878   0.995   2.250  12.689 -0.0413  0.1401 -0.9854
  878MPD2    C512879   1.075   2.311  12.594 -0.0163 -1.2662  0.2895
  878MPD2     H12880   0.774   2.496  12.726  0.1594  0.7019  0.5834
  878MPD2    H112881   1.021   2.150  12.721 -0.8642  0.5428  0.9175
  878MPD2    H212882   1.117   2.467  12.459  0.2615  1.5253 -0.2876
  878MPD2    H312883   1.153   2.252  12.549  1.8221  2.5746 -1.5966
  878MPD2     N12884   0.803   2.269  12.840  0.1198  0.2437 -0.5080
  878MPD2    H512885   0.728   2.322  12.883  0.4887  0.7107 -0.4458
  878MPD2    N112886   0.951   2.644  12.558 -0.3131  0.7076  0.6390
  878MPD2    H712887   1.017   2.673  12.486 -1.1095  1.7822  0.3316
  879MPD2     C12888   1.468   3.431  16.849 -0.5363 -0.3842 -0.0343
  879MPD2    C112889   1.365   3.377  16.923  0.2757  1.2214 -0.5128
  879MPD2    C212890   1.256   3.318  16.861 -0.0965  0.4714  0.2765
  879MPD2    C312891   1.252   3.301  16.723  0.4873 -0.1081 -0.2445
  879MPD2    C412892   1.350   3.359  16.648  0.8797 -0.9280  0.4999
  879MPD2    C512893   1.462   3.422  16.711  0.2557  0.5583  0.7736
  879MPD2     H12894   1.172   3.294  16.924 -2.0760  2.3484 -1.6384
  879MPD2    H112895   1.338   3.345  16.542 -0.6286  1.0699  0.4138
  879MPD2    H212896   1.554   3.471  16.901  0.0517  0.4125 -1.6287
  879MPD2    H312897   1.535   3.474  16.650 -0.6159  0.6791 -0.1704
  879MPD2     N12898   1.142   3.249  16.658  0.5668 -0.8224 -0.6045
  879MPD2    H512899   1.150   3.229  16.559 -0.9002  0.5071 -0.9945
  879MPD2    N112900   1.371   3.394  17.064 -0.0732 -0.8069  0.1263
  879MPD2    H712901   1.449   3.441  17.110 -0.2462 -0.2635 -0.1358
  880MPD2     C12902   1.728   1.155   0.562 -0.0898  0.0144  0.3279
  880MPD2    C112903   1.841   1.081   0.537  0.7675  0.1840  0.1606
  880MPD2    C212904   1.833   0.943   0.536 -0.2142  1.1107  0.0231
  880MPD2    C312905   1.716   0.882   0.566 -0.1617 -0.9262  0.2276
  880MPD2    C412906   1.597   0.959   0.578  0.5413 -0.1194 -0.3225
  880MPD2    C512907   1.612   1.096   0.579  0.2215 -0.3200  0.1393
  880MPD2     H12908   1.922   0.883   0.524 -0.8136  0.6244 -1.9668
  880MPD2    H112909   1.499   0.915   0.590  0.9040  0.0726  3.4567
  880MPD2    H212910   1.730   1.263   0.558  1.9409 -0.0564 -0.4446
  880MPD2    H312911   1.523   1.156   0.588  1.0413  0.8318  0.4833
  880MPD2     N12912   1.721   0.742   0.574 -0.1476 -0.3338 -0.0389
  880MPD2    H512913   1.810   0.699   0.549 -0.5041 -0.5999 -0.8397
  880MPD2    N112914   1.958   1.159   0.518  0.1269  0.7829 -0.2192
  880MPD2    H712915   1.940   1.257   0.535 -1.5398  0.3975  0.2274
  881MPD2     C12916   2.839   1.571   0.066  0.2979  0.1192 -0.0826
  881MPD2    C112917   2.768   1.458   0.028 -0.0997 -0.3488 -0.3087
  881MPD2    C212918   2.689   1.393   0.123 -0.1123  0.5676 -0.5863
  881MPD2    C312919   2.685   1.435   0.256  0.0276  0.1028  0.3945
  881MPD2    C412920   2.775   1.538   0.292  0.3898 -0.2068 -0.1748
  881MPD2    C512921   2.852   1.598   0.197  0.3161 -0.5632 -0.0322
  881MPD2     H12922   2.619   1.313   0.101 -0.1720  0.6441 -0.6714
  881MPD2    H112923   2.793   1.560   0.396 -0.0795  2.0707 -0.5674
  881MPD2    H212924   2.899   1.633  17.702 -0.6429  1.0318 -0.0927
  881MPD2    H312925   2.925   1.674   0.221 -0.4905  0.5980 -1.2513
  881MPD2     N12926   2.589   1.390   0.347 -0.1360  0.0572 -0.0837
  881MPD2    H512927   2.593   1.428   0.441  0.9351  0.3516 -0.2505
  881MPD2    N112928   2.752   1.436  17.594 -0.0791  0.2709 -0.4078
  881MPD2    H712929   2.815   1.494  17.539  1.0195  0.7399  1.3557
  882MPD2     C12930   0.742   3.037  14.028  0.5413 -0.6055 -0.2587
  882MPD2    C112931   0.711   2.963  14.138  0.3542 -0.5027  0.0065
  882MPD2    C212932   0.583   2.907  14.141 -0.0975 -0.0388  0.0401
  882MPD2    C312933   0.492   2.921  14.041  0.0759  0.2177  0.4263
  882MPD2    C412934   0.522   2.999  13.936  0.1520 -0.5761  1.3198
  882MPD2    C512935   0.648   3.061  13.929  0.3775 -0.0339  0.1033
  882MPD2     H12936   0.556   2.855  14.233 -0.5267 -1.6555 -0.9930
  882MPD2    H112937   0.455   3.002  13.851 -0.4578  0.2219  1.8268
  882MPD2    H212938   0.842   3.077  14.015  0.0782  0.9098  0.8819
  882MPD2    H312939   0.676   3.118  13.841  1.1398 -2.0126 -0.9300
  882MPD2     N12940   0.368   2.853  14.050 -0.8017 -0.2229 -0.7266
  882MPD2    H512941   0.291   2.881  13.989 -1.5209  0.1343  0.3476
  882MPD2    N112942   0.800   2.949  14.248 -0.4269 -0.0295 -0.2876
  882MPD2    H712943   0.897   2.977  14.233 -0.0828 -1.5051 -0.8451
  883MPD2     C12944   3.521   3.414  16.354  0.0112  0.5341 -0.1752
  883MPD2    C112945   3.478   3.281  16.353 -0.0548 -0.6269  0.0682
  883MPD2    C212946   3.497   3.201  16.469 -0.6631 -0.2794 -0.1895
  883MPD2    C312947   3.548   3.264  16.586  0.1042  0.3872  0.6969
  883MPD2    C412948   3.570   3.400  16.588 -0.2168  0.2153 -0.4117
  883MPD2    C512949   3.567   3.466  16.472  0.6006 -0.3916  0.4165
  883MPD2     H12950   3.469   3.096  16.467 -2.7142  0.2702 -1.4572
  883MPD2    H112951   3.616   3.454  16.670 -0.6468  0.5804 -0.4074
  883MPD2    H212952   3.512   3.477  16.266 -2.6499 -0.9531 -0.9765
  883MPD2    H312953   3.601   3.569  16.475 -0.4187 -0.0892  2.1825
  883MPD2     N12954   3.561   3.175  16.694  0.3424 -0.2657 -0.4710
  883MPD2    H512955   3.546   3.076  16.679 -0.3369 -0.1942 -0.2695
  883MPD2    N112956   3.404   3.218  16.249  0.4462  0.2350  0.2441
  883MPD2    H712957   3.373   3.123  16.268 -1.7785  1.1188  0.9242
  884MPD2     C12958   0.132   3.091  15.244  0.0857  0.4201  0.5847
  884MPD2    C112959   0.074   3.165  15.141  0.0765 -0.1773 -0.5438
  884MPD2    C212960   4.692   3.245  15.169 -0.3574  0.0171 -0.5141
  884MPD2    C312961   4.639   3.262  15.297  0.5979  1.1365  0.4049
  884MPD2    C412962   4.699   3.186  15.397  0.7237 -0.1920  0.2131
  884MPD2    C512963   0.078   3.107  15.367 -0.1354  0.2463  0.0088
  884MPD2     H12964   4.647   3.296  15.085  0.7991  0.7332 -0.6835
  884MPD2    H112965   4.665   3.181  15.500  1.0341  2.0302  0.4233
  884MPD2    H212966   0.204   3.013  15.224 -1.2898 -0.7200  0.0720
  884MPD2    H312967   0.122   3.045  15.444 -0.0617 -2.7403 -2.4597
  884MPD2     N12968   4.522   3.336  15.320 -0.0971 -0.5616 -0.8533
  884MPD2    H512969   4.489   3.390  15.241  3.8526  1.2092 -1.2757
  884MPD2    N112970   0.129   3.172  15.011 -0.1974 -0.3855 -1.0152
  884MPD2    H712971   0.068   3.220  14.946 -2.9463 -3.6133 -0.7674
  885MPD2     C12972   2.801   3.387   0.364 -0.0523  0.4960  1.2478
  885MPD2    C112973   2.848   3.510   0.405  0.0421  0.4974  0.0312
  885MPD2    C212974   2.856   3.616   0.314  0.7212  0.0629  0.3385
  885MPD2    C312975   2.810   3.599   0.180  0.4980 -0.9913 -0.0918
  885MPD2    C412976   2.750   3.477   0.153 -0.1562  1.1896  0.8738
  885MPD2    C512977   2.757   3.374   0.238 -0.0481 -0.2662  0.0916
  885MPD2     H12978   2.898   3.715   0.331  0.8265  0.1675 -0.5247
  885MPD2    H112979   2.702   3.456   0.058 -0.3276 -1.2390  1.4936
  885MPD2    H212980   2.795   3.303   0.432 -2.0243 -0.1755  0.2395
  885MPD2    H312981   2.714   3.277   0.213 -0.3795 -0.0466 -0.1857
  885MPD2     N12982   2.830   3.705   0.095 -0.4961  0.1737  0.2267
  885MPD2    H512983   2.885   3.781   0.132 -3.2787 -0.1516  4.9407
  885MPD2    N112984   2.892   3.519   0.538 -0.1343 -0.3933  0.2040
  885MPD2    H712985   2.882   3.441   0.602 -1.5679 -0.6640 -0.3440
  886MPD2     C12986   4.302   2.007  15.798  0.2896 -0.0805 -0.0583
  886MPD2    C112987   4.387   1.993  15.688 -0.6921 -0.1240 -0.3650
  886MPD2    C212988   4.383   2.089  15.586 -0.0596 -0.1113  0.1015
  886MPD2    C312989   4.298   2.195  15.594  0.1044  0.4051  0.3681
  886MPD2    C412990   4.199   2.188  15.693  0.4389  0.1051 -0.9202
  886MPD2    C512991   4.198   2.089  15.791 -0.5514  0.7050  0.5553
  886MPD2     H12992   4.459   2.092  15.509  0.3417 -1.7767  0.4371
  886MPD2    H112993   4.131   2.272  15.703  0.3461  0.0439 -1.0354
  886MPD2    H212994   4.304   1.952  15.891 -2.8560 -2.1024 -1.1687
  886MPD2    H312995   4.130   2.095  15.874 -0.1714 -2.4408  1.0936
  886MPD2     N12996   4.297   2.305  15.499  0.3120  0.4213 -0.1203
  886MPD2    H512997   4.222   2.373  15.506  1.3952  1.6482 -0.2423
  886MPD2    N112998   4.476   1.890  15.681 -0.4497  0.5740  0.1444
  886MPD2    H712999   4.529   1.874  15.595  0.1708 -0.5906  0.7367
  887MPD2     C13000   0.270   1.974  15.328 -0.5545 -0.1746  0.5521
  887MPD2    C113001   0.234   2.002  15.458 -0.8097 -0.7250 -0.2328
  887MPD2    C213002   0.224   2.133  15.496 -0.2533  0.4600 -0.0890
  887MPD2    C313003   0.274   2.241  15.420 -0.3915  0.4782  0.0141
  887MPD2    C413004   0.327   2.212  15.297 -0.2291  0.4144  0.0735
  887MPD2    C513005   0.317   2.079  15.259 -0.0871 -0.7094 -0.3440
  887MPD2     H13006   0.197   2.162  15.597 -0.3733  1.6307 -0.4524
  887MPD2    H113007   0.368   2.279  15.221 -0.2545  0.6937  0.3057
  887MPD2    H213008   0.271   1.873  15.288  2.2458 -0.2865  0.9420
  887MPD2    H313009   0.354   2.051  15.161  0.1096  0.5820 -0.6371
  887MPD2     N13010   0.257   2.367  15.472 -0.0508 -0.0706  0.2240
  887MPD2    H513011   0.201   2.382  15.555 -1.5188  0.4753 -0.8797
  887MPD2    N113012   0.199   1.911  15.558  1.0073  0.1431 -0.5933
  887MPD2    H713013   0.152   1.952  15.639 -2.1270 -0.7974 -1.9112
  888MPD2     C13014   2.646   2.297  15.259 -0.2912  0.0850 -0.2212
  888MPD2    C113015   2.514   2.349  15.253  0.5392 -0.4370  0.2710
  888MPD2    C213016   2.488   2.480  15.278 -0.3752  0.0409  0.6784
  888MPD2    C313017   2.598   2.561  15.306 -0.3121 -0.0321  0.8403
  888MPD2    C413018   2.726   2.511  15.303  0.1659 -0.1360  0.3714
  888MPD2    C513019   2.751   2.378  15.279  0.3289  0.1041 -0.0535
  888MPD2     H13020   2.388   2.522  15.269  0.3692  1.4942 -0.8506
  888MPD2    H113021   2.816   2.570  15.315  0.7674 -1.0063  0.1989
  888MPD2    H213022   2.659   2.190  15.248 -0.8813 -0.0427  0.3052
  888MPD2    H313023   2.852   2.341  15.269 -0.8373 -2.9962 -0.4619
  888MPD2     N13024   2.567   2.686  15.347 -0.1043 -0.1735 -0.0015
  888MPD2    H513025   2.470   2.713  15.339  0.1264  1.3940  2.4735
  888MPD2    N113026   2.401   2.267  15.242  0.5144 -0.2386 -0.2375
  888MPD2    H713027   2.310   2.306  15.220  0.8506  1.1376  0.9142
  889MPD2     C13028   1.486   2.257  12.395  0.2713 -0.3114 -0.5071
  889MPD2    C113029   1.468   2.243  12.533 -0.0403 -0.5375 -0.0438
  889MPD2    C213030   1.422   2.352  12.600 -0.6698  0.1708  0.9172
  889MPD2    C313031   1.413   2.479  12.545  0.0421 -0.0199 -0.2326
  889MPD2    C413032   1.436   2.496  12.411  0.0644 -0.9996  0.1366
  889MPD2    C513033   1.480   2.382  12.343 -0.3710 -0.0895  0.2182
  889MPD2     H13034   1.416   2.342  12.708 -0.0466 -1.4856  0.8172
  889MPD2    H113035   1.436   2.584  12.349  1.5884  0.0280  1.5957
  889MPD2    H213036   1.547   2.183  12.346 -1.1049 -1.5357 -0.3559
  889MPD2    H313037   1.507   2.393  12.238  1.8068  1.3167  0.9325
  889MPD2     N13038   1.371   2.580  12.631  0.0682  0.1629 -0.4016
  889MPD2    H513039   1.344   2.555  12.725 -2.8359  2.6240 -0.5997
  889MPD2    N113040   1.445   2.115  12.597 -0.4458  1.3734 -0.7857
  889MPD2    H713041   1.419   2.119  12.695  0.4299  1.1688 -0.5442
  890MPD2     C13042   1.039   3.417  14.518  0.0468 -0.1453 -0.5562
  890MPD2    C113043   1.117   3.498  14.597  0.2574 -0.0527 -0.6184
  890MPD2    C213044   1.177   3.439  14.704 -0.1586  0.8970  0.5564
  890MPD2    C313045   1.162   3.297  14.729 -0.5077 -0.5732 -0.4408
  890MPD2    C413046   1.094   3.225  14.630 -0.3160  0.5359 -0.0178
  890MPD2    C513047   1.032   3.282  14.529  0.2123  0.5361  0.0352
  890MPD2     H13048   1.242   3.485  14.777 -1.4287  2.4190  0.7336
  890MPD2    H113049   1.069   3.120  14.644  0.0533  0.7107  1.9612
  890MPD2    H213050   1.004   3.463  14.426  1.0853 -0.0479 -0.9044
  890MPD2    H313051   0.974   3.220  14.461  0.6628 -0.5127  0.6075
  890MPD2     N13052   1.217   3.241  14.844  0.4922 -0.6522 -0.9793
  890MPD2    H513053   1.280   3.300  14.897  2.3894 -1.5584 -2.2177
  890MPD2    N113054   1.117   3.639  14.571 -0.2480  0.2497 -0.4949
  890MPD2    H713055   1.077   3.674  14.485 -2.0524 -3.0075 -0.9906
  891MPD2     C13056   3.993   2.137  16.634  0.3206  0.1419  0.2857
  891MPD2    C113057   3.930   2.158  16.752  0.7361 -0.3342  0.3976
  891MPD2    C213058   3.991   2.133  16.872 -0.7787  0.5799  0.0917
  891MPD2    C313059   4.111   2.062  16.868 -0.2703 -0.1410 -0.1769
  891MPD2    C413060   4.170   2.040  16.744 -0.4703 -0.7213 -0.4738
  891MPD2    C513061   4.113   2.070  16.620 -0.3649 -0.0103 -0.2180
  891MPD2     H13062   3.947   2.157  16.968 -0.1063 -1.8422  0.9931
  891MPD2    H113063   4.266   1.990  16.737 -0.2823 -0.4606  0.2416
  891MPD2    H213064   3.945   2.162  16.540 -1.1462 -2.8609  0.2385
  891MPD2    H313065   4.152   2.052  16.520 -1.4580 -0.9509 -0.4779
  891MPD2     N13066   4.171   2.044  16.992 -0.0610 -0.0836 -0.4915
  891MPD2    H513067   4.116   2.078  17.070 -0.6944 -0.1749 -0.9025
  891MPD2    N113068   3.802   2.226  16.737  0.0930 -0.0091 -0.0769
  891MPD2    H713069   3.764   2.244  16.645  0.0045  1.5945  0.2783
  892MPD2     C13070   0.011   2.841  14.945  0.1689  0.6112 -0.4935
  892MPD2    C113071   4.635   2.878  14.861  0.4524  0.1744 -0.4578
  892MPD2    C213072   4.653   2.868  14.732  0.3096 -0.0242  0.2777
  892MPD2    C313073   0.040   2.817  14.676 -0.2947 -0.0083 -0.2329
  892MPD2    C413074   0.145   2.777  14.757 -0.1704  0.5737  0.1338
  892MPD2    C513075   0.124   2.783  14.892 -0.3277 -1.3001 -0.8219
  892MPD2     H13076   4.567   2.883  14.667  0.3947 -1.4504 -0.1545
  892MPD2    H113077   0.247   2.749  14.734 -1.2575 -1.1699 -2.5859
  892MPD2    H213078   4.718   2.851  15.052 -1.6274  2.5325 -1.0029
  892MPD2    H313079   0.209   2.745  14.949  0.8300 -1.3659 -2.5881
  892MPD2     N13080   0.060   2.791  14.541  0.6159  0.2078 -0.0487
  892MPD2    H513081   0.149   2.749  14.518  1.6853  2.8602 -0.7054
  892MPD2    N113082   4.515   2.927  14.910  0.0787  0.4585  0.5290
  892MPD2    H713083   4.449   2.960  14.840 -0.6701  0.0077  1.0297
  893MPD2     C13084   0.988   1.818   1.786  0.9310 -0.1135  0.5167
  893MPD2    C113085   1.076   1.910   1.841  0.4120 -0.3179  0.2116
  893MPD2    C213086   1.032   2.034   1.881 -0.6191 -0.2089  0.2637
  893MPD2    C313087   0.895   2.062   1.859  0.4382 -0.1535 -0.1196
  893MPD2    C413088   0.811   1.972   1.799 -0.2630 -0.2310 -0.3182
  893MPD2    C513089   0.856   1.853   1.756  0.0741  0.5985 -0.6922
  893MPD2     H13090   1.098   2.106   1.928 -0.4896  0.4570 -0.9588
  893MPD2    H113091   0.707   1.991   1.777  0.2975  0.5677 -2.2625
  893MPD2    H213092   1.023   1.723   1.746 -0.9686 -1.8732  3.0147
  893MPD2    H313093   0.789   1.792   1.697 -2.1607  1.0034  1.4118
  893MPD2     N13094   0.830   2.184   1.888  0.7066 -0.3323  0.0781
  893MPD2    H513095   0.729   2.186   1.884  0.7437  0.0249 -0.7159
  893MPD2    N113096   1.211   1.868   1.877  0.5589  0.0923  0.7889
  893MPD2    H713097   1.269   1.945   1.907  0.8218  0.4446 -0.6207
  894MPD2     C13098   3.724   4.358   0.674 -0.8894  0.7232 -0.2898
  894MPD2    C113099   3.758   4.240   0.733 -0.9251  0.1284  0.0908
  894MPD2    C213100   3.884   4.230   0.792  0.2788 -0.1162 -0.4072
  894MPD2    C313101   3.980   4.325   0.788 -0.3388 -0.6691 -0.2466
  894MPD2    C413102   3.941   4.440   0.724  1.0644  0.0508  0.2084
  894MPD2    C513103   3.824   4.450   0.666  0.1072  0.8079 -0.3785
  894MPD2     H13104   3.901   4.131   0.834 -0.6181 -0.4642 -0.8430
  894MPD2    H113105   4.006   4.526   0.720  0.9669  0.1263  0.2575
  894MPD2    H213106   3.639   4.365   0.608 -0.5950 -1.1082 -0.8811
  894MPD2    H313107   3.798   4.537   0.606 -0.3233  0.5649 -0.5398
  894MPD2     N13108   4.107   4.305   0.855  1.2302 -0.7324  0.2038
  894MPD2    H513109   4.128   4.222   0.909 -2.0259 -0.7299  1.4790
  894MPD2    N113110   3.670   4.128   0.746  0.3123 -0.1409  0.3268
  894MPD2    H713111   3.708   4.044   0.790 -0.5550  0.8621  2.9738
  895MPD2     C13112   4.176   2.374  13.302  0.7913  0.2295  0.0285
  895MPD2    C113113   4.042   2.395  13.309 -0.0574 -0.1312 -0.7769
  895MPD2    C213114   3.956   2.308  13.239 -0.0412 -0.2249  0.1437
  895MPD2    C313115   4.009   2.222  13.148 -0.5530  0.0214  0.1450
  895MPD2    C413116   4.144   2.194  13.140  0.1629  0.4024 -0.9580
  895MPD2    C513117   4.217   2.265  13.226  0.1948 -0.3427 -0.1948
  895MPD2     H13118   3.849   2.326  13.236 -0.1195 -0.8250 -0.4947
  895MPD2    H113119   4.187   2.117  13.077 -1.9876  1.3151 -3.5234
  895MPD2    H213120   4.246   2.420  13.370  0.8833  0.7261 -0.3914
  895MPD2    H313121   4.317   2.231  13.250  0.2375  1.2969  1.9701
  895MPD2     N13122   3.923   2.166  13.056 -0.2701  0.6926 -0.0158
  895MPD2    H513123   3.825   2.186  13.074 -0.2771 -0.9315  1.7788
  895MPD2    N113124   3.989   2.492  13.388 -0.7758 -0.1773  0.1869
  895MPD2    H713125   3.888   2.494  13.393 -0.7278  2.0502  0.3107
  896MPD2     C13126   0.700   4.695   2.013  0.0320 -0.5876 -0.1406
  896MPD2    C113127   0.749   4.638   1.898  0.0592 -0.0931 -0.6066
  896MPD2    C213128   0.674   4.543   1.831 -0.2106 -0.1586 -0.1978
  896MPD2    C313129   0.544   4.509   1.870 -0.2173 -0.0805  0.0983
  896MPD2    C413130   0.497   4.574   1.984 -0.9890  0.0273 -0.0826
  896MPD2    C513131   0.569   4.665   2.050  0.4482  0.4113  0.3211
  896MPD2     H13132   0.715   4.495   1.743  1.6002  1.0454  0.0044
  896MPD2    H113133   0.396   4.556   2.018 -0.0876 -2.6185  1.2183
  896MPD2    H213134   0.750   0.051   2.065 -2.4992  1.4642 -0.9123
  896MPD2    H313135   0.534   4.698   2.147 -0.7404  1.9353 -0.6225
  896MPD2     N13136   0.462   4.443   1.776  0.1742 -0.2124  0.1604
  896MPD2    H513137   0.507   4.411   1.691 -1.8819  0.6907 -1.2729
  896MPD2    N113138   0.883   4.670   1.860 -0.0350  0.5194  0.3351
  896MPD2    H713139   0.917   0.021   1.918 -0.8584  1.1776 -0.0622
  897MPD2     C13140   2.233   1.629  10.915  0.1704  0.0339  0.3716
  897MPD2    C113141   2.203   1.747  10.859  0.1661  0.0988 -0.0411
  897MPD2    C213142   2.149   1.852  10.931  0.5493  0.1189 -0.2485
  897MPD2    C313143   2.119   1.829  11.062 -0.5607 -0.2287  0.4143
  897MPD2    C413144   2.138   1.697  11.114  0.1062 -0.8888  0.2164
  897MPD2    C513145   2.183   1.594  11.035 -0.2173 -0.0291  0.2272
  897MPD2     H13146   2.119   1.944  10.882  0.6507 -0.1721 -0.8483
  897MPD2    H113147   2.105   1.662  11.210 -0.0599 -1.1013  0.0818
  897MPD2    H213148   2.286   1.549  10.865  0.5274  1.3663 -1.3863
  897MPD2    H313149   2.188   1.495  11.080 -0.4991 -0.6365 -1.0608
  897MPD2     N13150   2.045   1.928  11.130  0.6542 -0.2565  0.1480
  897MPD2    H513151   2.027   2.016  11.082 -1.5964 -0.1165  1.2510
  897MPD2    N113152   2.243   1.766  10.726  0.2289 -0.0446  0.1734
  897MPD2    H713153   2.282   1.689  10.673  1.2234 -0.2553  1.2075
  898MPD2     C13154   4.011   2.807  17.485 -0.0727  0.1624  0.6595
  898MPD2    C113155   4.129   2.799  17.413  0.8073 -0.1030 -0.2339
  898MPD2    C213156   4.162   2.900  17.330 -0.2213  0.5328 -0.0404
  898MPD2    C313157   4.086   3.015  17.315 -0.1791  0.4164  0.5080
  898MPD2    C413158   3.962   3.011  17.376  0.0508 -0.1220  0.3564
  898MPD2    C513159   3.931   2.917  17.472  0.2047 -0.0828 -0.2969
  898MPD2     H13160   4.259   2.892  17.283  0.5195 -1.1126  1.7567
  898MPD2    H113161   3.894   3.094  17.360  0.4769  0.3957  1.1837
  898MPD2    H213162   3.976   2.738  17.560 -1.3737  1.1151  0.9283
  898MPD2    H313163   3.846   2.935  17.537  1.6725  1.0468  1.3228
  898MPD2     N13164   4.133   3.115  17.234  0.3004  0.3448  0.0738
  898MPD2    H513165   4.229   3.104  17.203 -0.5435 -1.6259 -1.8375
  898MPD2    N113166   4.213   2.687  17.419  0.5983 -0.9428  0.0445
  898MPD2    H713167   4.293   2.678  17.357  0.1534  1.6610 -0.8718
  899MPD2     C13168   0.617   2.994  17.581 -0.0580  0.4394  0.1701
  899MPD2    C113169   0.527   3.089  17.538 -0.0833 -0.2122  0.6180
  899MPD2    C213170   0.410   3.104  17.605 -0.1411 -0.4463  0.2883
  899MPD2    C313171   0.362   3.006  17.693 -0.5127  0.4722  0.3263
  899MPD2    C413172   0.453   2.905   0.027  0.1370  0.2079  0.2023
  899MPD2    C513173   0.573   2.897  17.665 -0.2843 -0.3908  0.5767
  899MPD2     H13174   0.345   3.187  17.581 -1.7502 -1.6962  0.3842
  899MPD2    H113175   0.428   2.844   0.113  2.3414  0.6236  1.1306
  899MPD2    H213176   0.715   2.978  17.539 -0.8173 -1.2130 -0.9710
  899MPD2    H313177   0.639   2.814  17.688  0.2466  0.1055  0.8757
  899MPD2     N13178   0.235   3.007   0.054  0.2006  0.2728  0.2795
  899MPD2    H513179   0.223   2.932   0.122  3.3824 -0.0231  0.4820
  899MPD2    N113180   0.569   3.170  17.433  0.3203  0.2466  0.2615
  899MPD2    H713181   0.662   3.150  17.397 -0.0672 -1.0667 -0.0163
  900MPD2     C13182   4.722   0.490  12.332  0.1075 -0.2084 -0.4461
  900MPD2    C113183   4.645   0.400  12.257 -0.8083  0.2283 -0.7189
  900MPD2    C213184   4.560   0.455  12.159 -0.1791  0.1961  0.0384
  900MPD2    C313185   4.537   0.590  12.146 -0.2612  0.8607 -0.7668
  900MPD2    C413186   4.612   0.678  12.223 -0.4428 -0.4462  0.1393
  900MPD2    C513187   4.700   0.628  12.312 -0.1022  0.4731  0.3788
  900MPD2     H13188   4.504   0.391  12.091  3.4816 -1.8665 -0.9980
  900MPD2    H113189   4.599   0.786  12.232 -0.7387 -0.4408 -0.3406
  900MPD2    H213190   0.059   0.454  12.413 -0.4877  0.6761  0.4030
  900MPD2    H313191   0.026   0.697  12.379 -1.0866  1.3544  0.2263
  900MPD2     N13192   4.442   0.639  12.055 -0.0135  0.0711 -0.2831
  900MPD2    H513193   4.384   0.575  12.001 -0.2420  1.3015 -1.5124
  900MPD2    N113194   4.674   0.263  12.277  0.1073  0.2584  0.1729
  900MPD2    H713195   0.024   0.251  12.344  2.8009  2.6533 -2.4560
  901MPD2     C13196   4.266   4.039  12.567 -0.7343  0.2371  1.0039
  901MPD2    C113197   4.394   4.041  12.608  0.1327  0.1906  0.1538
  901MPD2    C213198   4.463   4.156  12.601 -0.5469  0.1833 -0.2526
  901MPD2    C313199   4.412   4.268  12.530  0.5605  0.8399  0.3102
  901MPD2    C413200   4.277   4.277  12.504  0.2027 -0.6397  0.3031
  901MPD2    C513201   4.212   4.153  12.514 -0.1198 -0.4083  0.2149
  901MPD2     H13202   4.569   4.154  12.624 -0.8592  2.0992  1.3133
  901MPD2    H113203   4.227   4.365  12.464 -1.4553 -0.7436  2.1688
  901MPD2    H213204   4.209   3.946  12.563 -0.7408  0.5085 -4.3890
  901MPD2    H313205   4.106   4.139  12.492 -0.1830 -0.1506  0.3457
  901MPD2     N13206   4.504   4.368  12.492 -0.9481  0.0215  0.7292
  901MPD2    H513207   4.592   4.380  12.541 -1.3956 -3.8989  2.4261
  901MPD2    N113208   4.447   3.917  12.647  0.4410 -0.3526  0.3238
  901MPD2    H713209   4.392   3.836  12.619  1.2992 -0.9173  0.2897
  902MPD2     C13210   3.198   3.070  13.284 -0.4557  0.1789  0.0748
  902MPD2    C113211   3.237   3.200  13.247  0.1889  0.2738  0.1265
  902MPD2    C213212   3.359   3.217  13.183  0.4684  0.0422 -0.1623
  902MPD2    C313213   3.444   3.108  13.144  0.5155  0.0037 -0.2960
  902MPD2    C413214   3.409   2.988  13.200 -0.7012  0.8191 -0.5403
  902MPD2    C513215   3.288   2.964  13.266 -0.6714  0.2316  0.7922
  902MPD2     H13216   3.388   3.317  13.153  0.6499 -0.3145 -1.1893
  902MPD2    H113217   3.474   2.902  13.194 -2.6294 -0.7597  1.1317
  902MPD2    H213218   3.101   3.054  13.330  0.8950 -0.5454  2.7168
  902MPD2    H313219   3.268   2.865  13.307  1.4899 -0.3012  0.5886
  902MPD2     N13220   3.557   3.114  13.056  0.2832  0.0648  0.8573
  902MPD2    H513221   3.612   3.030  13.043 -2.4016 -1.5913  0.2154
  902MPD2    N113222   3.143   3.307  13.270 -0.1732  0.6574 -0.3482
  902MPD2    H713223   3.045   3.283  13.275  0.1182 -0.3797  0.2964
  903MPD2     C13224   3.720   3.504  12.310  0.3275 -0.1480  0.2654
  903MPD2    C113225   3.711   3.369  12.343  0.4123 -0.2223  1.2486
  903MPD2    C213226   3.659   3.272  12.252 -0.5742  0.7321  0.5922
  903MPD2    C313227   3.605   3.322  12.136 -0.2800  0.0393  0.0581
  903MPD2    C413228   3.596   3.458  12.109 -0.2529  0.0407 -0.0140
  903MPD2    C513229   3.659   3.544  12.193  0.1870  0.4598  0.5709
  903MPD2     H13230   3.660   3.165  12.267  1.1581  0.2719 -2.7451
  903MPD2    H113231   3.540   3.505  12.029 -0.6565 -1.5860 -0.6962
  903MPD2    H213232   3.765   3.572  12.381  0.2718  0.4511 -0.2751
  903MPD2    H313233   3.644   3.650  12.176 -0.8913  0.1527 -0.3754
  903MPD2     N13234   3.547   3.217  12.056  0.1247 -0.3391  0.0313
  903MPD2    H513235   3.551   3.126  12.101  3.9515  1.0804  2.5827
  903MPD2    N113236   3.756   3.318  12.467 -0.1465 -0.0913 -0.1511
  903MPD2    H713237   3.752   3.218  12.478 -2.8581  0.2118  1.7557
  904MPD2     C13238   3.604   1.918  13.399 -0.8148  0.1809 -0.0850
  904MPD2    C113239   3.577   1.946  13.533  0.2859  0.1828 -0.0296
  904MPD2    C213240   3.680   2.010  13.603  0.5260 -0.4075  0.6285
  904MPD2    C313241   3.800   2.037  13.550 -0.2829 -0.1222 -0.0110
  904MPD2    C413242   3.823   2.016  13.415 -0.4232  0.1595  0.7234
  904MPD2    C513243   3.721   1.957  13.344 -0.3443 -0.3363  0.5246
  904MPD2     H13244   3.666   2.032  13.708 -0.5218  4.0278 -0.4351
  904MPD2    H113245   3.919   2.036  13.368 -1.7072 -0.1104 -1.9747
  904MPD2    H213246   3.536   1.878  13.325 -0.9764  0.4515 -0.0811
  904MPD2    H313247   3.745   1.948  13.238  0.0664  1.2989  0.4788
  904MPD2     N13248   3.905   2.090  13.634 -0.1446 -0.2151 -0.4735
  904MPD2    H513249   3.881   2.127  13.725  4.0318  2.1805 -0.3174
  904MPD2    N113250   3.451   1.921  13.573 -0.1616  0.0694  0.2433
  904MPD2    H713251   3.383   1.886  13.506  0.7393  0.6404 -0.9702
  905MPD2     C13252   3.026   2.160  13.089 -0.0653  0.1458 -0.8353
  905MPD2    C113253   3.137   2.119  13.168  0.1677  0.0556 -0.0769
  905MPD2    C213254   3.263   2.092  13.107 -0.0030  0.0914  0.4209
  905MPD2    C313255   3.264   2.072  12.968  0.3091 -0.2024  0.3389
  905MPD2    C413256   3.150   2.098  12.888 -0.3819  0.4531  0.7645
  905MPD2    C513257   3.037   2.155  12.950 -0.5539  0.5406 -0.5084
  905MPD2     H13258   3.349   2.057  13.163 -0.3610 -0.0556  0.8827
  905MPD2    H113259   3.153   2.062  12.786 -0.5737 -0.5739  1.1198
  905MPD2    H213260   2.933   2.185  13.139 -0.6260 -0.4991 -1.5751
  905MPD2    H313261   2.946   2.165  12.892 -1.0253 -0.2372  0.0923
  905MPD2     N13262   3.384   2.031  12.903  0.2393 -0.2369  0.0307
  905MPD2    H513263   3.391   1.988  12.811 -2.2927  1.0554 -0.7464
  905MPD2    N113264   3.107   2.107  13.304  0.1183 -0.0516 -0.2736
  905MPD2    H713265   3.013   2.129  13.334  0.5332 -1.0211  1.7654
  906MPD2     C13266   0.641   2.201  11.560  0.7499  0.8064 -0.5202
  906MPD2    C113267   0.641   2.095  11.470  0.1137 -0.2888  0.2185
  906MPD2    C213268   0.550   1.990  11.493  0.0876 -0.4371 -1.2075
  906MPD2    C313269   0.468   1.988  11.608  0.3333 -0.8620  0.0224
  906MPD2    C413270   0.475   2.091  11.692 -0.6411 -0.0772 -0.0497
  906MPD2    C513271   0.554   2.205  11.672  0.5808 -0.7125  0.2685
  906MPD2     H13272   0.550   1.899  11.433 -1.5811 -0.8456 -0.5790
  906MPD2    H113273   0.405   2.089  11.775  1.5202  0.6512  1.7851
  906MPD2    H213274   0.701   2.291  11.561  1.6290  0.2279 -2.3115
  906MPD2    H313275   0.560   2.292  11.736  0.3244  0.1031 -0.8063
  906MPD2     N13276   0.372   1.881  11.619  0.0325 -0.0417  0.1571
  906MPD2    H513277   0.391   1.803  11.556 -1.4820  0.3624 -0.7935
  906MPD2    N113278   0.721   2.088  11.353 -0.7917 -0.7196  0.1542
  906MPD2    H713279   0.713   2.007  11.292 -1.0181 -0.2890 -0.3924
  907MPD2     C13280   4.359   1.204  15.694 -0.1178  0.5594 -0.5702
  907MPD2    C113281   4.406   1.076  15.711  0.1346  0.5131 -0.1230
  907MPD2    C213282   4.465   1.044  15.835  0.0482 -0.4897  0.0658
  907MPD2    C313283   4.460   1.128  15.940 -0.2441  0.0370 -0.9920
  907MPD2    C413284   4.409   1.252  15.924  0.4209  0.2848  0.2304
  907MPD2    C513285   4.353   1.287  15.801 -0.4197  0.8325  0.2074
  907MPD2     H13286   4.510   0.948  15.857  0.8472 -0.0724  0.2383
  907MPD2    H113287   4.393   1.324  16.004  1.6646 -0.0909  0.8081
  907MPD2    H213288   4.311   1.245  15.606 -1.5600 -1.7317 -0.8317
  907MPD2    H313289   4.304   1.382  15.784 -2.0491 -0.0962 -0.3187
  907MPD2     N13290   4.513   1.089  16.062 -0.6484 -0.6070  0.6021
  907MPD2    H513291   4.564   1.001  16.057 -1.5138 -0.9122 -3.2735
  907MPD2    N113292   4.428   0.992  15.605  0.8140 -0.9373 -0.3103
  907MPD2    H713293   4.474   0.904  15.626  0.3074 -0.8967  0.9291
  908MPD2     C13294   1.978   1.404   9.925 -0.1273 -0.7266  0.1547
  908MPD2    C113295   2.079   1.347   9.991 -0.3577  0.6135 -0.2099
  908MPD2    C213296   2.144   1.421  10.091 -0.3399 -0.0224 -0.5160
  908MPD2    C313297   2.105   1.558  10.113 -0.6097  0.3494  0.7118
  908MPD2    C413298   2.004   1.616  10.040 -0.2557 -0.3672  0.3344
  908MPD2    C513299   1.940   1.528   9.950 -0.4646 -0.1946 -0.4106
  908MPD2     H13300   2.220   1.369  10.148 -2.1541  1.2065  3.0133
  908MPD2    H113301   1.966   1.717  10.048 -0.1899 -0.6636  4.4049
  908MPD2    H213302   1.925   1.354   9.845 -1.1620  0.3334  0.1654
  908MPD2    H313303   1.868   1.575   9.883 -0.6208  1.1399  0.7148
  908MPD2     N13304   2.172   1.638  10.209 -0.9288  0.0114  0.1202
  908MPD2    H513305   2.251   1.601  10.262 -0.4184  1.3228  0.2771
  908MPD2    N113306   2.107   1.221   9.942 -0.2325  0.1913  0.5267
  908MPD2    H713307   2.046   1.182   9.870  1.1099  1.5865 -1.3652
  909MPD2     C13308   2.681   4.433  11.643 -0.2099  0.0771  1.0422
  909MPD2    C113309   2.599   4.525  11.577  0.1377  0.5311  0.2563
  909MPD2    C213310   2.535   4.618  11.650  0.4898  0.2440 -0.2102
  909MPD2    C313311   2.545   4.616  11.787 -0.4558  0.1662 -0.2434
  909MPD2    C413312   2.614   4.512  11.857  0.2234  0.4068 -0.2003
  909MPD2    C513313   2.690   4.426  11.778 -0.6924  0.1246 -0.4320
  909MPD2     H13314   2.479   4.701  11.608  0.2379 -0.9201 -2.1392
  909MPD2    H113315   2.620   4.514  11.966  1.2174  1.6066 -0.2774
  909MPD2    H213316   2.747   4.369  11.585 -0.8320 -0.2980  0.7502
  909MPD2    H313317   2.755   4.349  11.817 -2.0753 -0.9822 -0.3191
  909MPD2     N13318   2.472   4.708  11.866  0.0713  0.0651 -0.5449
  909MPD2    H513319   2.419   0.048  11.809 -2.6706 -0.9835  0.8071
  909MPD2    N113320   2.600   4.541  11.437 -0.4965  0.0925 -0.3672
  909MPD2    H713321   2.553   4.622  11.399 -0.4083 -0.8863 -2.5623
  910MPD2     C13322   3.531   1.536  15.600 -0.2434  0.2035  0.4153
  910MPD2    C113323   3.655   1.483  15.580  0.3827 -0.2209  0.0682
  910MPD2    C213324   3.713   1.486  15.452  0.0154  0.3393  0.0193
  910MPD2    C313325   3.643   1.555  15.347 -0.4248  0.5970  0.0898
  910MPD2    C413326   3.519   1.608  15.376 -0.2336 -0.5650 -0.0243
  910MPD2    C513327   3.456   1.595  15.495 -0.5130 -0.4580 -0.8468
  910MPD2     H13328   3.806   1.433  15.435  1.2094  1.6672  2.3485
  910MPD2    H113329   3.465   1.664  15.300  0.9252  0.0951 -0.3623
  910MPD2    H213330   3.483   1.541  15.697  1.1690 -0.5789  1.1487
  910MPD2    H313331   3.366   1.653  15.515 -0.6673 -1.4914  1.3668
  910MPD2     N13332   3.681   1.543  15.214  0.2942  0.1327  0.1944
  910MPD2    H513333   3.618   1.589  15.149 -0.7276 -0.4941  0.7494
  910MPD2    N113334   3.729   1.420  15.687 -0.3766 -0.4321  0.0302
  910MPD2    H713335   3.816   1.384  15.648 -0.3114 -1.1679  0.8467
  911MPD2     C13336   2.087   1.768  16.454  0.0907 -0.4090  0.6344
  911MPD2    C113337   2.119   1.895  16.503 -0.2992 -0.3496 -0.2942
  911MPD2    C213338   2.036   2.005  16.473  0.1057 -0.1841  0.0393
  911MPD2    C313339   1.942   1.988  16.376 -0.2392 -0.3067 -0.0305
  911MPD2    C413340   1.924   1.865  16.320 -0.2881 -0.4103  0.0576
  911MPD2    C513341   2.002   1.758  16.354 -0.2501  0.2241 -0.0022
  911MPD2     H13342   2.068   2.102  16.510 -2.4585  1.0076 -0.8488
  911MPD2    H113343   1.851   1.846  16.242 -1.0360  1.4991  0.3129
  911MPD2    H213344   2.145   1.678  16.472  0.7277 -0.5745 -2.2160
  911MPD2    H313345   1.983   1.666  16.299  0.2376 -0.2159  0.5716
  911MPD2     N13346   1.872   2.100  16.317 -0.3878 -0.8404 -0.0203
  911MPD2    H513347   1.806   2.084  16.242  1.8822 -2.0378 -1.7496
  911MPD2    N113348   2.237   1.905  16.573  0.4739  0.7111 -0.0092
  911MPD2    H713349   2.300   1.826  16.587  0.3183  0.7271  0.7780
  912MPD2     C13350   1.750   1.817  15.729 -0.5630 -0.2545  0.6736
  912MPD2    C113351   1.730   1.850  15.860  0.7781  0.1923 -0.0493
  912MPD2    C213352   1.716   1.745  15.954  0.4211  0.0874  0.4346
  912MPD2    C313353   1.718   1.609  15.910 -0.0894  0.7933  0.1119
  912MPD2    C413354   1.736   1.583  15.776 -0.3120  0.3579  0.8923
  912MPD2    C513355   1.757   1.687  15.693 -0.1361 -0.3440 -0.5395
  912MPD2     H13356   1.693   1.763  16.058 -0.1441 -3.0186  0.8576
  912MPD2    H113357   1.727   1.484  15.734  1.4477  1.2996 -1.7773
  912MPD2    H213358   1.782   1.893  15.659 -0.5995 -0.7999  0.0661
  912MPD2    H313359   1.773   1.662  15.589 -0.1113 -1.2995 -0.3094
  912MPD2     N13360   1.709   1.503  16.009  0.3154  0.4484 -0.3550
  912MPD2    H513361   1.686   1.540  16.101 -2.1914 -0.8592 -0.4536
  912MPD2    N113362   1.737   1.988  15.894  0.0382 -0.1030 -0.2112
  912MPD2    H713363   1.764   2.055  15.823 -0.8688  0.2320 -0.2356
  913MPD2     C13364   1.968   3.550   9.741  0.0334 -0.0397  0.6816
  913MPD2    C113365   2.046   3.564   9.854  0.4314 -0.0210 -0.2686
  913MPD2    C213366   2.152   3.657   9.853  0.4136  0.4010  0.3189
  913MPD2    C313367   2.183   3.729   9.740  0.4760  0.0564  0.0051
  913MPD2    C413368   2.100   3.716   9.627  0.1827  0.3988  0.6558
  913MPD2    C513369   1.999   3.621   9.631  0.2686 -0.1432 -0.1581
  913MPD2     H13370   2.217   3.660   9.939  1.1395 -1.6898 -0.1354
  913MPD2    H113371   2.132   3.757   9.532 -0.5005  0.1805  0.3266
  913MPD2    H213372   1.881   3.489   9.720  0.0313 -0.4114  1.8021
  913MPD2    H313373   1.939   3.603   9.542  0.9732  1.8550 -1.0195
  913MPD2     N13374   2.291   3.819   9.726  0.1036 -0.3023 -0.2978
  913MPD2    H513375   2.300   3.864   9.636  0.3098  1.0108  0.3782
  913MPD2    N113376   2.008   3.487   9.969  0.8913  0.2716  0.6235
  913MPD2    H713377   1.922   3.435   9.952  1.4720  0.3907 -2.5773
  914MPD2     C13378   0.398   4.048  12.097  0.4311  1.2897  0.1474
  914MPD2    C113379   0.285   4.120  12.149 -0.1080 -0.3092 -0.8292
  914MPD2    C213380   0.204   4.049  12.238 -0.1227 -0.2791  0.1710
  914MPD2    C313381   0.220   3.919  12.272  0.1009  0.1360 -0.0883
  914MPD2    C413382   0.325   3.849  12.215 -0.1613  0.1674  0.2291
  914MPD2    C513383   0.416   3.912  12.127 -0.6317 -0.1172 -0.5270
  914MPD2     H13384   0.116   4.097  12.280  0.3450  0.8176 -0.0874
  914MPD2    H113385   0.348   3.747  12.243 -1.0603 -0.6569 -2.0331
  914MPD2    H213386   0.480   4.086  12.035 -0.4116  2.1655 -0.4374
  914MPD2    H313387   0.506   3.873  12.081  0.0507 -0.0595  0.7635
  914MPD2     N13388   0.118   3.856  12.345 -0.3682 -0.0646  0.0311
  914MPD2    H513389   0.065   3.918  12.405  1.2688 -0.5533  1.9585
  914MPD2    N113390   0.268   4.254  12.106 -0.9460 -0.0086 -0.3962
  914MPD2    H713391   0.339   4.302  12.051  1.4574  0.1547  2.8351
  915MPD2     C13392   3.538   3.730  16.040  0.2212  0.2483 -0.2897
  915MPD2    C113393   3.406   3.759  16.004 -0.4527  0.0828 -0.8143
  915MPD2    C213394   3.318   3.807  16.096 -0.3896 -0.6347 -0.2675
  915MPD2    C313395   3.364   3.811  16.226  0.6071  0.3056  0.3228
  915MPD2    C413396   3.494   3.773  16.263  0.3067  0.0512  0.0238
  915MPD2    C513397   3.581   3.731  16.165 -0.2839 -0.1382 -0.1867
  915MPD2     H13398   3.211   3.819  16.079 -0.0731  1.8063 -0.4442
  915MPD2    H113399   3.538   3.765  16.361 -0.4148 -1.4971  0.2301
  915MPD2    H213400   3.608   3.701  15.963  0.5667 -1.5356  0.6912
  915MPD2    H313401   3.676   3.683  16.185 -0.9325 -0.5825  1.9167
  915MPD2     N13402   3.267   3.838  16.328  0.2642  0.8948  0.2671
  915MPD2    H513403   3.173   3.856  16.292 -0.1262 -0.7262  0.4795
  915MPD2    N113404   3.372   3.737  15.869 -0.7839 -0.1338 -0.4646
  915MPD2    H713405   3.440   3.686  15.815  0.2398  2.2725 -1.4769
  916MPD2     C13406   1.414   1.823  15.789 -0.0403  0.1552 -0.1032
  916MPD2    C113407   1.406   1.710  15.872  0.0437  0.2730 -0.6015
  916MPD2    C213408   1.385   1.589  15.812  0.1208 -0.3641 -0.1622
  916MPD2    C313409   1.385   1.580  15.676  1.1374  0.2842 -0.1463
  916MPD2    C413410   1.423   1.682  15.603  0.1810  0.3217  0.3219
  916MPD2    C513411   1.435   1.802  15.659 -0.0053 -0.1152  0.8428
  916MPD2     H13412   1.364   1.500  15.869  0.4339  1.5862  3.0326
  916MPD2    H113413   1.439   1.685  15.496 -2.8631 -1.4510 -0.1838
  916MPD2    H213414   1.432   1.925  15.823 -2.0723  0.4697  0.0207
  916MPD2    H313415   1.462   1.893  15.606 -0.2489  0.0200  0.9493
  916MPD2     N13416   1.366   1.453  15.612 -0.0577  0.3100 -0.5318
  916MPD2    H513417   1.360   1.377  15.679 -4.0451  0.4599 -0.7447
  916MPD2    N113418   1.396   1.742  16.011 -0.3969 -0.2191 -0.8541
  916MPD2    H713419   1.386   1.841  16.030 -0.0268 -0.3330 -0.0722
  917MPD2     C13420   1.419   4.420  10.820 -0.0040  0.3482 -0.2554
  917MPD2    C113421   1.454   4.474  10.939  0.0117  0.0931 -0.0178
  917MPD2    C213422   1.573   4.544  10.946  0.3010  1.1772  0.1550
  917MPD2    C313423   1.649   4.562  10.832  0.0504 -0.1625 -0.1984
  917MPD2    C413424   1.609   4.507  10.713 -0.2735 -0.0366  0.1167
  917MPD2    C513425   1.490   4.440  10.703  0.4813 -0.3364 -0.3319
  917MPD2     H13426   1.606   4.592  11.038 -1.4536 -0.6890  1.7797
  917MPD2    H113427   1.670   4.512  10.624 -1.2019 -3.1369 -0.7009
  917MPD2    H213428   1.320   4.379  10.810 -0.8620  1.7817  2.1417
  917MPD2    H313429   1.442   4.418  10.609 -0.7019  0.1513  0.1539
  917MPD2     N13430   1.765   4.638  10.824  0.1416  0.0466  0.6257
  917MPD2    H513431   1.817   4.632  10.737 -2.3032  2.7672 -1.0303
  917MPD2    N113432   1.360   4.456  11.041  0.3808  0.3956  0.7228
  917MPD2    H713433   1.300   4.376  11.024  0.6008  0.6505 -1.1735
  918MPD2     C13434   1.320   0.078  12.015 -0.0691  0.6638  0.2641
  918MPD2    C113435   1.425   0.023  11.939 -0.1833 -0.0271 -0.8433
  918MPD2    C213436   1.399   4.703  11.805 -0.1907 -0.1665 -0.0970
  918MPD2    C313437   1.272   4.705  11.753  0.2543  0.2066 -0.3269
  918MPD2    C413438   1.169   0.020  11.838 -0.1879 -0.5628 -0.8194
  918MPD2    C513439   1.194   0.076  11.959  0.1999 -0.0516  0.2085
  918MPD2     H13440   1.486   4.676  11.745  1.5406 -1.4924  2.9967
  918MPD2    H113441   1.065   0.023  11.806 -0.2886  0.5606 -0.3653
  918MPD2    H213442   1.332   0.105  12.120 -0.1481 -1.0813  0.7160
  918MPD2    H313443   1.111   0.122  12.012 -1.8076  0.4196 -3.3322
  918MPD2     N13444   1.248   4.643  11.623 -0.1749  0.6055 -1.0446
  918MPD2    H513445   1.328   4.607  11.573  0.2953 -1.6301  1.3182
  918MPD2    N113446   1.553   0.001  11.995 -0.1419  0.7356  0.2616
  918MPD2    H713447   1.616   4.680  11.929  1.5769  0.6877  1.9454
  919MPD2     C13448   1.907   3.941  11.529  0.2678  0.0408  0.0997
  919MPD2    C113449   1.903   3.805  11.515 -0.5500  0.3422 -0.5310
  919MPD2    C213450   1.879   3.755  11.387 -0.9381 -0.1482 -0.1168
  919MPD2    C313451   1.866   3.835  11.278  0.1210 -0.6971 -0.2335
  919MPD2    C413452   1.897   3.968  11.291 -0.2305 -0.1935 -0.0165
  919MPD2    C513453   1.915   4.022  11.420 -0.4066  0.3736 -0.1159
  919MPD2     H13454   1.891   3.648  11.376 -1.6758 -0.6154  3.6851
  919MPD2    H113455   1.892   4.030  11.202 -2.7888 -0.9495 -0.4163
  919MPD2    H213456   1.899   3.992  11.624 -1.7921 -2.7488  1.4409
  919MPD2    H313457   1.929   4.129  11.423  2.4486  0.0408 -1.4187
  919MPD2     N13458   1.838   3.779  11.151  0.3839  0.0465 -0.2505
  919MPD2    H513459   1.854   3.841  11.073 -0.8497  0.6108 -0.0523
  919MPD2    N113460   1.904   3.712  11.625 -0.8063  0.0785  0.5191
  919MPD2    H713461   1.880   3.740  11.720 -0.1648 -3.5316  1.7703
  920MPD2     C13462   1.897   3.845  10.172  0.3920  0.7098 -0.2314
  920MPD2    C113463   1.776   3.765  10.176  0.5941 -0.6006  0.4520
  920MPD2    C213464   1.744   3.707  10.295  0.0814  0.0588  0.3654
  920MPD2    C313465   1.813   3.737  10.412  0.1227  0.0233  0.0180
  920MPD2    C413466   1.914   3.833  10.407 -0.5326  0.1811 -0.0115
  920MPD2    C513467   1.956   3.881  10.291 -0.1158 -0.2789  0.0790
  920MPD2     H13468   1.669   3.629  10.298  0.8761 -0.8067 -2.2769
  920MPD2    H113469   1.966   3.872  10.494  0.2013 -0.6610 -0.0773
  920MPD2    H213470   1.939   3.881  10.079  1.7278 -2.8615 -0.9891
  920MPD2    H313471   2.038   3.953  10.288  0.1336 -0.5218  1.2500
  920MPD2     N13472   1.766   3.682  10.539 -0.0685  0.2080 -0.4412
  920MPD2    H513473   1.685   3.620  10.538 -0.3618  0.5870 -0.3736
  920MPD2    N113474   1.705   3.731  10.057  0.0017  0.8570 -0.0672
  920MPD2    H713475   1.630   3.662  10.060 -0.9485  1.9473  1.2654
  921MPD2     C13476   3.056   2.360  17.155  0.0306  0.2300 -0.5601
  921MPD2    C113477   3.084   2.344  17.021  0.8084 -0.7043  0.1048
  921MPD2    C213478   2.995   2.271  16.942  0.1745 -0.0391  0.0891
  921MPD2    C313479   2.871   2.229  16.992  0.1361 -0.4192 -0.1043
  921MPD2    C413480   2.840   2.256  17.124  0.0341  0.1949 -0.3320
  921MPD2    C513481   2.936   2.312  17.204  0.7494  0.1495 -0.4270
  921MPD2     H13482   3.018   2.249  16.838  1.8739  1.1017  0.2233
  921MPD2    H113483   2.743   2.244  17.171 -0.0135  1.2112 -0.1743
  921MPD2    H213484   3.129   2.402  17.224  2.2852 -2.1639 -1.4874
  921MPD2    H313485   2.903   2.346  17.302 -1.2723 -0.0923 -1.0170
  921MPD2     N13486   2.785   2.164  16.908  0.7641  0.0881 -0.6018
  921MPD2    H513487   2.814   2.153  16.811  0.3658 -1.2171 -0.5775
  921MPD2    N113488   3.212   2.381  16.972 -0.3804  0.2086  0.1014
  921MPD2    H713489   3.275   2.427  17.037  0.6861 -0.4751 -0.4448
  922MPD2     C13490   3.382   0.059  17.019 -0.3619  0.5639 -0.0768
  922MPD2    C113491   3.474   0.023  17.119  0.3055 -0.9925 -0.3490
  922MPD2    C213492   3.439   4.638  17.193  0.3987  0.1187 -0.5308
  922MPD2    C313493   3.328   4.565  17.154 -0.7810  0.0375 -0.2499
  922MPD2    C413494   3.251   4.596  17.049  0.1882  0.2088  0.6141
  922MPD2    C513495   3.277   4.709  16.981 -0.2603 -0.0288 -0.6862
  922MPD2     H13496   3.503   4.612  17.276 -0.8070  0.9368  0.6560
  922MPD2    H113497   3.165   4.536  17.021 -0.7968  1.0835  1.7134
  922MPD2    H213498   3.395   0.146  16.956 -1.5354 -1.0550 -2.5472
  922MPD2    H313499   3.225   0.014  16.890  0.4695  2.8957 -0.1368
  922MPD2     N13500   3.279   4.460  17.233 -0.6238  0.8775  0.8593
  922MPD2    H513501   3.198   4.403  17.211 -0.8163  1.0520  1.1108
  922MPD2    N113502   3.576   0.113  17.163 -0.4001  0.2208 -0.0721
  922MPD2    H713503   3.621   0.080  17.247 -2.0677  1.6630  1.3863
  923MPD2     C13504   0.319   1.999   9.700 -0.3829  0.4143 -0.3029
  923MPD2    C113505   0.363   2.126   9.669 -0.5822  0.1436 -0.0367
  923MPD2    C213506   0.450   2.186   9.758 -0.8913 -0.3547  0.6650
  923MPD2    C313507   0.509   2.115   9.864 -0.0453 -0.2452 -0.4341
  923MPD2    C413508   0.455   1.990   9.899 -0.0164 -0.1130  0.7514
  923MPD2    C513509   0.366   1.936   9.812 -0.2526 -0.6827 -0.1897
  923MPD2     H13510   0.479   2.289   9.739 -0.1296 -0.8828 -1.0536
  923MPD2    H113511   0.479   1.936   9.990  0.3631  0.2922  0.8872
  923MPD2    H213512   0.263   1.935   9.633 -1.4213  0.9366  0.0625
  923MPD2    H313513   0.332   1.836   9.832  2.7249 -1.4310  1.1039
  923MPD2     N13514   0.601   2.188   9.952 -0.0531 -0.0812 -0.3770
  923MPD2    H513515   0.605   2.285   9.923  0.0441 -0.5139 -1.7968
  923MPD2    N113516   0.315   2.191   9.550 -0.1737  0.0578 -0.0346
  923MPD2    H713517   0.248   2.130   9.503 -0.5552  0.8327 -0.5079
  924MPD2     C13518   0.362   0.367  16.406  0.0092 -0.5097 -0.5303
  924MPD2    C113519   0.252   0.384  16.330 -1.0414  0.1552  0.2245
  924MPD2    C213520   0.210   0.516  16.315 -0.0315  0.1900  0.5903
  924MPD2    C313521   0.257   0.632  16.383 -0.1660 -0.0043 -0.1033
  924MPD2    C413522   0.361   0.600  16.469 -0.6090 -0.0257 -0.0666
  924MPD2    C513523   0.403   0.468  16.491  0.3349 -0.2613 -0.9350
  924MPD2     H13524   0.131   0.533  16.243  1.1494  0.9640 -0.5065
  924MPD2    H113525   0.410   0.674  16.531 -0.8711  1.1300 -1.2489
  924MPD2    H213526   0.400   0.268  16.427  1.8727  0.2120 -0.4541
  924MPD2    H313527   0.483   0.442  16.559 -0.8271 -1.9139 -0.2039
  924MPD2     N13528   0.213   0.766  16.365  0.6534 -0.9352 -0.2216
  924MPD2    H513529   0.261   0.842  16.413 -2.4393 -0.2989  1.8565
  924MPD2    N113530   0.194   0.275  16.266  0.5073  0.1888 -0.5722
  924MPD2    H713531   0.247   0.189  16.274  1.0880  0.7670  1.8659
  925MPD2     C13532   3.163   2.068  14.501  0.5596 -0.6534 -0.3156
  925MPD2    C113533   3.206   2.190  14.553 -0.1192  0.3204 -0.3979
  925MPD2    C213534   3.275   2.199  14.682  0.0479  0.8356  0.5701
  925MPD2    C313535   3.265   2.098  14.771  0.5226  0.0408 -0.1737
  925MPD2    C413536   3.211   1.978  14.717  0.6587 -0.1476 -0.2174
  925MPD2    C513537   3.164   1.962  14.591 -0.0846  0.7891  0.1499
  925MPD2     H13538   3.304   2.299  14.714 -0.8406  1.1572  0.3821
  925MPD2    H113539   3.216   1.889  14.779 -1.6642  0.1015  0.3133
  925MPD2    H213540   3.133   2.050  14.398  0.5897  0.0615 -0.4481
  925MPD2    H313541   3.129   1.866  14.554 -0.1215  1.2589 -1.0428
  925MPD2     N13542   3.299   2.103  14.906 -0.4471 -0.3794  0.5272
  925MPD2    H513543   3.288   2.017  14.959  1.0187 -1.0914 -0.2980
  925MPD2    N113544   3.194   2.303  14.469 -0.0245 -0.1028  0.2862
  925MPD2    H713545   3.237   2.389  14.501  0.4147  0.1673 -1.0281
  926MPD2     C13546   2.614   1.567  13.293  0.3590  0.6834  0.1869
  926MPD2    C113547   2.501   1.636  13.247 -0.0660 -0.9147 -0.4608
  926MPD2    C213548   2.505   1.711  13.131  0.3769 -0.5127 -0.1583
  926MPD2    C313549   2.617   1.707  13.048  0.4878 -0.1675  0.3807
  926MPD2    C413550   2.727   1.638  13.088  1.1568  0.7274  0.5536
  926MPD2    C513551   2.720   1.563  13.201 -0.0079 -0.2771 -0.1000
  926MPD2     H13552   2.416   1.766  13.101  0.2812  0.0453  1.1610
  926MPD2    H113553   2.817   1.629  13.028 -0.3039  0.3270 -1.5846
  926MPD2    H213554   2.603   1.503  13.379 -0.3156 -1.1483 -1.2752
  926MPD2    H313555   2.807   1.505  13.228  0.7740  0.1824 -1.6000
  926MPD2     N13556   2.638   1.784  12.931 -0.3277  0.9867 -0.8931
  926MPD2    H513557   2.728   1.776  12.886 -0.1388 -0.4919 -0.2541
  926MPD2    N113558   2.374   1.642  13.316  0.0886  0.0859 -0.4306
  926MPD2    H713559   2.304   1.698  13.269 -0.1328 -2.2946 -2.9410
  927MPD2     C13560   2.264   3.266   0.660 -0.4416 -0.3094  0.3515
  927MPD2    C113561   2.152   3.294   0.582 -0.5046 -0.0117  0.7008
  927MPD2    C213562   2.170   3.313   0.450  0.4271  0.2851 -0.2581
  927MPD2    C313563   2.290   3.319   0.397 -0.1454  0.7772  0.0686
  927MPD2    C413564   2.401   3.305   0.478 -0.5644 -0.6690  0.3963
  927MPD2    C513565   2.390   3.273   0.610 -0.3302 -0.4115  0.2777
  927MPD2     H13566   2.084   3.327   0.386  0.4136 -0.9691 -0.5240
  927MPD2    H113567   2.500   3.320   0.437 -0.3541 -2.0203  0.4045
  927MPD2    H213568   2.259   3.241   0.766 -1.1084 -1.4930  0.0381
  927MPD2    H313569   2.476   3.252   0.672  0.8409 -1.1017 -1.6009
  927MPD2     N13570   2.302   3.344   0.255 -0.5197  0.3808 -0.6008
  927MPD2    H513571   2.221   3.381   0.207 -0.1156  1.2720 -0.5958
  927MPD2    N113572   2.028   3.285   0.648 -0.3211  0.3575  0.2759
  927MPD2    H713573   2.028   3.230   0.734 -1.2522 -1.4114 -0.8490
  928MPD2     C13574   4.403   1.419   0.640 -0.2852 -0.0291  0.1703
  928MPD2    C113575   4.431   1.525   0.735  0.9524  0.2804 -0.2459
  928MPD2    C213576   4.532   1.618   0.703 -0.0877  0.1266 -0.3279
  928MPD2    C313577   4.593   1.614   0.577 -0.3354 -0.4949  0.2008
  928MPD2    C413578   4.552   1.527   0.482 -0.2839  0.4850  0.2507
  928MPD2    C513579   4.457   1.433   0.513 -0.1031  0.4165  0.0301
  928MPD2     H13580   4.567   1.684   0.782 -1.1867 -1.1743  1.2698
  928MPD2    H113581   4.596   1.521   0.383 -0.4591 -1.4350  0.2881
  928MPD2    H213582   4.331   1.341   0.662  1.0252 -0.9033  1.3333
  928MPD2    H313583   4.423   1.359   0.441  1.2573 -0.1446 -0.0279
  928MPD2     N13584   4.702   1.695   0.541  0.4392  0.3811 -0.0601
  928MPD2    H513585   0.029   1.684   0.454 -0.1655 -0.7485 -0.2799
  928MPD2    N113586   4.379   1.512   0.867  0.2420  0.4044 -0.2355
  928MPD2    H713587   4.336   1.422   0.887  1.0800 -0.3809 -1.9779
  929MPD2     C13588   0.289   1.967  10.387  0.4448 -0.1526 -0.5125
  929MPD2    C113589   0.174   1.905  10.425 -0.2869  0.7491  0.3499
  929MPD2    C213590   0.065   1.881  10.339 -0.1054 -0.4166  0.8244
  929MPD2    C313591   0.068   1.946  10.214  0.7139 -0.4014  0.3750
  929MPD2    C413592   0.184   2.010  10.175 -0.6196 -0.2475  0.1587
  929MPD2    C513593   0.295   2.015  10.260 -0.3694  0.1140 -0.5061
  929MPD2     H13594   4.692   1.851  10.374  0.3268 -0.5738  1.9164
  929MPD2    H113595   0.189   2.065  10.082  1.3870 -0.8283 -0.0591
  929MPD2    H213596   0.374   1.990  10.450  0.5743  0.7627 -1.0246
  929MPD2    H313597   0.388   2.059  10.226 -0.7782 -0.3558 -2.1894
  929MPD2     N13598   4.676   1.957  10.134  0.2783 -0.7863 -0.0396
  929MPD2    H513599   4.676   2.028  10.060 -1.1763  0.5983  1.2924
  929MPD2    N113600   0.161   1.868  10.557 -0.5281 -0.2474  0.4496
  929MPD2    H713601   0.238   1.895  10.618 -0.2280  0.3806 -0.2210
  930MPD2     C13602   2.338   4.116  14.866 -0.1510 -0.0658  0.7841
  930MPD2    C113603   2.243   4.136  14.762  0.1169 -0.8521  0.7745
  930MPD2    C213604   2.173   4.032  14.718 -0.5468  0.0050  0.1718
  930MPD2    C313605   2.187   3.907  14.774  0.6137  0.7837  0.0652
  930MPD2    C413606   2.280   3.883  14.872  0.3777 -1.0142  0.2533
  930MPD2    C513607   2.357   3.991  14.913 -0.2223  0.0004  0.4317
  930MPD2     H13608   2.110   4.037  14.630 -1.5400 -0.5407  0.8560
  930MPD2    H113609   2.291   3.790  14.926  1.9779 -0.4500  0.8830
  930MPD2    H213610   2.398   4.201  14.897  0.8510 -0.6419  0.4135
  930MPD2    H313611   2.437   3.970  14.983  1.0079 -0.7269 -1.2084
  930MPD2     N13612   2.096   3.813  14.716  0.3083  0.2173 -0.1106
  930MPD2    H513613   2.035   3.847  14.642  1.6613  1.0163 -0.8625
  930MPD2    N113614   2.247   4.264  14.705  0.7256 -0.3846 -0.2109
  930MPD2    H713615   2.328   4.324  14.706 -0.0301  0.6483 -0.1704
  931MPD2     C13616   2.035   2.680   0.831  0.2951  0.1319  0.0219
  931MPD2    C113617   1.943   2.759   0.891  0.3436  0.1576  0.0334
  931MPD2    C213618   1.907   2.738   1.023 -0.2921 -0.2149 -0.4948
  931MPD2    C313619   1.982   2.642   1.093  0.4493 -0.2588  0.3840
  931MPD2    C413620   2.069   2.557   1.025  0.2830  0.4184  0.0305
  931MPD2    C513621   2.099   2.578   0.895 -0.5391 -0.0882 -1.0489
  931MPD2     H13622   1.839   2.806   1.074 -0.9820  0.7035 -2.6493
  931MPD2    H113623   2.127   2.477   1.070 -0.3097  0.7310  1.3614
  931MPD2    H213624   2.060   2.701   0.727 -0.1928 -0.7221 -0.2688
  931MPD2    H313625   2.169   2.512   0.844  2.1028  1.4373  0.5879
  931MPD2     N13626   1.964   2.627   1.231  0.1217  0.5623 -0.5250
  931MPD2    H513627   1.999   2.546   1.281 -1.4644  1.5623  2.1656
  931MPD2    N113628   1.879   2.857   0.810  0.3855  0.6447  0.0022
  931MPD2    H713629   1.925   2.874   0.721 -0.2600  0.3705 -0.3792
  932MPD2     C13630   3.401   2.745  11.217  0.0832 -0.3296  0.0365
  932MPD2    C113631   3.496   2.814  11.278  0.4334 -0.0127  0.0366
  932MPD2    C213632   3.517   2.798  11.409 -1.1954  0.0490  0.3284
  932MPD2    C313633   3.440   2.709  11.483 -0.0264 -0.2494  0.6763
  932MPD2    C413634   3.347   2.630  11.419  0.0109  0.1937 -0.5275
  932MPD2    C513635   3.322   2.656  11.286 -0.7630  0.1847  0.6684
  932MPD2     H13636   3.596   2.854  11.460 -0.4933  0.3374 -1.0833
  932MPD2    H113637   3.283   2.555  11.464 -1.1509  1.6454  0.2343
  932MPD2    H213638   3.374   2.753  11.112  1.5750 -2.6566 -0.5413
  932MPD2    H313639   3.241   2.603  11.237 -1.9150 -0.3831  3.2213
  932MPD2     N13640   3.464   2.678  11.622  0.2143  1.1887 -0.3669
  932MPD2    H513641   3.418   2.595  11.659  2.0186  0.2785 -0.1464
  932MPD2    N113642   3.569   2.914  11.208  0.3049 -0.1751 -0.0276
  932MPD2    H713643   3.629   2.974  11.265  1.0361 -0.0565 -0.9286
  933MPD2     C13644   4.018   1.732   1.703 -0.3371 -0.2552  0.1053
  933MPD2    C113645   4.032   1.776   1.578 -0.1800 -0.5397  0.2059
  933MPD2    C213646   3.957   1.883   1.538  0.2135 -0.0544 -0.1259
  933MPD2    C313647   3.888   1.951   1.634 -0.0051  0.5249  0.4630
  933MPD2    C413648   3.883   1.916   1.766 -0.4003 -0.8633 -0.3006
  933MPD2    C513649   3.934   1.796   1.794  0.1814  0.0737  0.0785
  933MPD2     H13650   3.955   1.918   1.436  1.9146 -2.6782 -1.0772
  933MPD2    H113651   3.824   1.973   1.837 -2.4201 -3.4891  0.1192
  933MPD2    H213652   4.072   1.642   1.733  3.0363  1.3739 -1.0510
  933MPD2    H313653   3.935   1.775   1.900  2.9022  1.9654  0.4423
  933MPD2     N13654   3.828   2.073   1.589  0.0121  0.6745 -0.3381
  933MPD2    H513655   3.832   2.101   1.491  0.9405 -0.3308 -0.5918
  933MPD2    N113656   4.093   1.682   1.490 -0.0161 -0.5058 -0.2271
  933MPD2    H713657   4.143   1.601   1.525  0.4293 -0.0430  0.2091
  934MPD2     C13658   0.599   4.268   2.076 -0.3570 -0.1822 -0.4290
  934MPD2    C113659   0.695   4.227   1.982 -0.4588 -0.0868 -0.6594
  934MPD2    C213660   0.649   4.145   1.886  0.0740 -0.5385  0.5131
  934MPD2    C313661   0.520   4.091   1.872  0.2480 -0.3056 -0.3218
  934MPD2    C413662   0.427   4.133   1.967 -0.2237 -0.3952 -0.2959
  934MPD2    C513663   0.474   4.211   2.078  0.3116 -0.0770  0.6668
  934MPD2     H13664   0.723   4.112   1.814 -2.0166 -0.7602 -1.5466
  934MPD2    H113665   0.327   4.092   1.964 -1.1029  1.5593  2.5329
  934MPD2    H213666   0.620   4.338   2.156 -0.3500  3.4017 -3.6142
  934MPD2    H313667   0.404   4.233   2.158  0.0072  0.7995  0.1658
  934MPD2     N13668   0.485   3.996   1.776  0.6358 -0.6613 -0.8232
  934MPD2    H513669   0.387   3.970   1.775  1.1541 -2.6884  1.0612
  934MPD2    N113670   0.826   4.281   1.973  0.0869  0.2278  0.0453
  934MPD2    H713671   0.884   4.272   1.890  1.5649 -0.4860  1.1732
  935MPD2     C13672   0.992   3.272   1.341 -0.3829  0.5705 -0.0025
  935MPD2    C113673   0.881   3.274   1.265 -0.0741  0.4567  0.3045
  935MPD2    C213674   0.791   3.376   1.277 -0.2396  0.0849  0.3206
  935MPD2    C313675   0.807   3.475   1.369 -0.6662 -0.2295  0.7759
  935MPD2    C413676   0.921   3.476   1.443  0.3340  0.5422  0.7326
  935MPD2    C513677   1.010   3.372   1.435  0.5063  0.3308  0.0560
  935MPD2     H13678   0.699   3.372   1.220 -0.4200 -1.2670  0.6985
  935MPD2    H113679   0.951   3.557   1.509 -0.1387 -0.9692  2.8138
  935MPD2    H213680   1.070   3.197   1.349  0.3266  1.2795 -0.2638
  935MPD2    H313681   1.101   3.366   1.494  0.8466 -3.4406 -0.8363
  935MPD2     N13682   0.715   3.574   1.406 -0.5363  0.9027  0.5458
  935MPD2    H513683   0.737   3.618   1.494  1.3490 -0.2736  0.6576
  935MPD2    N113684   0.848   3.177   1.170 -0.9175  0.5998 -0.0815
  935MPD2    H713685   0.767   3.192   1.112  0.1927  2.6941 -1.1090
  936MPD2     C13686   4.325   0.832  13.104 -0.0044  0.2087 -0.2209
  936MPD2    C113687   4.386   0.936  13.039  0.9788  0.0817  0.0759
  936MPD2    C213688   4.369   0.942  12.903 -0.4935  0.6520 -0.7838
  936MPD2    C313689   4.287   0.856  12.834 -0.7683  0.0848 -0.5081
  936MPD2    C413690   4.230   0.749  12.902  0.3471 -0.3992 -0.0656
  936MPD2    C513691   4.243   0.737  13.039 -0.1218 -0.2286 -0.3818
  936MPD2     H13692   4.403   1.035  12.857  2.8682  0.5299  1.4626
  936MPD2    H113693   4.159   0.688  12.848  1.9952 -1.8010 -0.6614
  936MPD2    H213694   4.352   0.813  13.207  0.4422 -1.3384 -0.6249
  936MPD2    H313695   4.191   0.658  13.092 -0.3277 -0.0023 -0.2492
  936MPD2     N13696   4.258   0.864  12.698 -0.1981 -0.0557 -0.5332
  936MPD2    H513697   4.182   0.804  12.669 -1.3078  0.7528  0.7088
  936MPD2    N113698   4.456   1.044  13.100 -0.2525  0.6890  0.0676
  936MPD2    H713699   4.504   1.114  13.045 -2.1086  0.6029 -1.6838
  937MPD2     C13700   1.957   2.885  11.622 -0.3415 -0.5060  0.3126
  937MPD2    C113701   1.975   3.008  11.561 -0.1920 -0.0457 -0.6832
  937MPD2    C213702   2.054   3.011  11.442 -0.0484  0.0168  0.2452
  937MPD2    C313703   2.087   2.889  11.373  0.0061 -0.5256 -0.1937
  937MPD2    C413704   2.058   2.773  11.438  0.1654 -0.4074 -0.3963
  937MPD2    C513705   1.989   2.768  11.557  0.0214 -0.1770  0.5029
  937MPD2     H13706   2.081   3.105  11.395  0.3454 -0.1323  0.1786
  937MPD2    H113707   2.101   2.681  11.398  0.5598 -0.3872 -0.0263
  937MPD2    H213708   1.915   2.874  11.722 -0.1265  1.4868  0.6286
  937MPD2    H313709   1.982   2.678  11.617 -1.2592  0.0342  0.6870
  937MPD2     N13710   2.170   2.892  11.254  0.3760 -0.6313 -0.0651
  937MPD2    H513711   2.195   2.983  11.217 -0.2672  0.6115  2.5746
  937MPD2    N113712   1.969   3.130  11.642  0.1974 -0.7784 -0.0665
  937MPD2    H713713   1.981   3.213  11.584  1.4189  0.1094  1.4787
  938MPD2     C13714   4.050   3.614   1.049 -0.8594 -0.2995 -0.9778
  938MPD2    C113715   4.154   3.548   0.990 -0.0315 -0.8341  0.3068
  938MPD2    C213716   4.161   3.416   1.002 -0.0201 -0.1792  0.2367
  938MPD2    C313717   4.076   3.343   1.083 -0.6895 -0.6064 -0.7105
  938MPD2    C413718   3.977   3.408   1.147  0.7260 -0.9155  0.4754
  938MPD2    C513719   3.967   3.544   1.128  0.6594 -0.0732  0.1756
  938MPD2     H13720   4.240   3.362   0.950 -0.2746 -0.0319 -0.2973
  938MPD2    H113721   3.907   3.347   1.204  1.5566 -2.5921 -0.3115
  938MPD2    H213722   4.041   3.722   1.045 -1.3779 -0.2785  0.8593
  938MPD2    H313723   3.893   3.605   1.179  1.9466  1.3290  0.3933
  938MPD2     N13724   4.083   3.208   1.103 -0.4848  0.0838  0.2670
  938MPD2    H513725   4.010   3.166   1.159 -1.5644  1.0827 -0.4067
  938MPD2    N113726   4.254   3.614   0.911 -0.1783  0.4323 -1.0303
  938MPD2    H713727   4.333   3.559   0.879 -0.6470 -0.7660 -0.1270
  939MPD2     C13728   1.126   0.058   1.387  0.2382 -0.3730 -0.0602
  939MPD2    C113729   1.150   0.172   1.320 -0.6682  0.7689 -0.3698
  939MPD2    C213730   1.217   0.171   1.199 -0.8709  0.1597 -0.1842
  939MPD2    C313731   1.255   0.049   1.139 -0.1731 -0.0864 -0.3409
  939MPD2    C413732   1.221   4.655   1.206  0.8004  0.4347  0.4071
  939MPD2    C513733   1.156   4.663   1.329 -0.4256 -0.5607  0.7051
  939MPD2     H13734   1.237   0.271   1.162  1.3263 -0.0819  0.3865
  939MPD2    H113735   1.249   4.557   1.169  0.4533  0.4775  0.0268
  939MPD2    H213736   1.069   0.049   1.479 -0.8649  0.3456 -0.6675
  939MPD2    H313737   1.138   4.572   1.386 -0.0710 -3.1820 -3.3305
  939MPD2     N13738   1.306   0.047   1.007  0.3323 -0.9253  0.1518
  939MPD2    H513739   1.307   0.140   0.965 -0.4084 -0.5033  1.0908
  939MPD2    N113740   1.115   0.297   1.368  0.5868  0.3923  0.1687
  939MPD2    H713741   1.135   0.377   1.308  1.1663 -1.0796 -1.5971
  940MPD2     C13742   0.387   1.061  13.000 -0.1220  0.1187  0.2630
  940MPD2    C113743   0.475   0.956  13.000  0.3065  0.2169 -0.3576
  940MPD2    C213744   0.497   0.888  12.881  0.3170  0.4288  0.9421
  940MPD2    C313745   0.433   0.918  12.759  0.5254 -0.3521  0.0534
  940MPD2    C413746   0.353   1.030  12.764  0.2000 -0.3083 -0.0033
  940MPD2    C513747   0.329   1.093  12.882  0.4036 -0.5425  0.6046
  940MPD2     H13748   0.559   0.799  12.886  0.7570  0.7491  1.2049
  940MPD2    H113749   0.294   1.060  12.678  2.1456 -2.0000 -1.9265
  940MPD2    H213750   0.364   1.121  13.088  0.5536 -0.4230  0.8160
  940MPD2    H313751   0.248   1.165  12.883  1.8684  1.1246 -1.9305
  940MPD2     N13752   0.430   0.832  12.644  0.5402  0.6089  0.1069
  940MPD2    H513753   0.358   0.849  12.575 -0.7692 -1.0634  1.0579
  940MPD2    N113754   0.546   0.925  13.119  0.0811  0.0588  0.4036
  940MPD2    H713755   0.629   0.868  13.104 -0.7627 -1.4945  1.6422
  941MPD2     C13756   4.700   0.021  10.706  0.1809  0.4175 -0.6141
  941MPD2    C113757   4.603   0.023  10.613 -0.0992 -0.1197  0.1455
  941MPD2    C213758   4.476   0.001  10.653  0.5435 -0.3239 -0.3908
  941MPD2    C313759   4.449   4.700  10.788  0.2579 -0.0551 -0.2563
  941MPD2    C413760   4.552   4.699  10.880 -0.0854 -1.2274 -0.6941
  941MPD2    C513761   4.676   0.006  10.840  0.3517 -1.1317  0.3776
  941MPD2     H13762   4.406   4.718  10.570  0.0166 -1.3763  0.1665
  941MPD2    H113763   4.525   4.685  10.984 -1.7778  1.4316 -0.7580
  941MPD2    H213764   0.081   0.030  10.685 -0.1361  0.9286 -2.0322
  941MPD2    H313765   0.030   0.007  10.914  0.5729 -0.7866  0.1357
  941MPD2     N13766   4.324   4.661  10.842 -0.5070 -0.0916 -0.4178
  941MPD2    H513767   4.323   4.638  10.941  0.0995 -0.2128 -0.4428
  941MPD2    N113768   4.618   0.066  10.480  0.1867 -0.6070  0.1413
  941MPD2    H713769   4.543   0.055  10.412 -1.0555  0.3091  1.3702
  942MPD2     C13770   4.626   2.170   8.911  0.5496 -0.8288 -0.7309
  942MPD2    C113771   4.633   2.128   9.044  0.4557  0.3913 -0.2055
  942MPD2    C213772   0.029   2.103   9.104 -0.0107  0.3574 -0.5903
  942MPD2    C313773   0.144   2.150   9.048  0.0541 -1.3823  0.4697
  942MPD2    C413774   0.147   2.196   8.919 -0.0658 -0.9025 -0.4008
  942MPD2    C513775   0.023   2.208   8.852  0.7267  0.1867  0.6050
  942MPD2     H13776   0.029   2.063   9.205  2.9642 -1.1294 -1.1742
  942MPD2    H113777   0.234   2.223   8.860 -0.2091  0.2059 -0.1103
  942MPD2    H213778   4.535   2.192   8.857 -1.3961 -5.2269  0.7991
  942MPD2    H313779   0.032   2.262   8.758  0.6496 -1.1112 -0.1420
  942MPD2     N13780   0.273   2.134   9.109  0.3450  0.1985  0.4915
  942MPD2    H513781   0.349   2.164   9.048  1.1013  0.6490  1.6517
  942MPD2    N113782   4.517   2.096   9.123  0.5555  0.5016 -0.0109
  942MPD2    H713783   4.543   2.050   9.210  2.7630 -2.0365 -1.9645
  943MPD2     C13784   3.385   0.168   9.766  0.0260  0.5550  0.0894
  943MPD2    C113785   3.494   0.082   9.784  0.0670  0.1768 -0.4635
  943MPD2    C213786   3.608   0.106   9.708 -0.0295 -0.5449 -0.3862
  943MPD2    C313787   3.608   0.209   9.616  1.0748  0.3668 -0.0445
  943MPD2    C413788   3.505   0.300   9.613  0.1086 -0.2682 -0.0737
  943MPD2    C513789   3.391   0.277   9.681  0.2050  0.5151 -0.7681
  943MPD2     H13790   3.691   0.038   9.720 -0.2871 -0.5559  1.2944
  943MPD2    H113791   3.506   0.377   9.537 -1.8181 -0.7037 -0.5504
  943MPD2    H213792   3.302   0.152   9.835  0.4868 -0.3964  0.4327
  943MPD2    H313793   3.300   0.334   9.669  0.8947  1.5931 -0.8270
  943MPD2     N13794   3.702   0.227   9.509  0.2326  0.0851  0.2390
  943MPD2    H513795   3.686   0.298   9.438  1.0123 -0.6083 -0.6193
  943MPD2    N113796   3.484   4.705   9.880 -0.5411 -0.4370  0.8458
  943MPD2    H713797   3.387   4.681   9.894 -0.8682 -0.7116 -2.0068
  944MPD2     C13798   2.549   3.647  11.041  0.6238  0.6863 -0.4459
  944MPD2    C113799   2.542   3.745  10.943 -0.1249 -0.0965  0.1757
  944MPD2    C213800   2.486   3.867  10.970  0.3720 -0.1844 -0.0175
  944MPD2    C313801   2.429   3.891  11.095  0.1339 -0.1905 -0.2696
  944MPD2    C413802   2.445   3.794  11.188  0.5559 -0.5598  0.2922
  944MPD2    C513803   2.503   3.680  11.162  0.0651 -0.3002  0.0451
  944MPD2     H13804   2.495   3.941  10.892 -0.1925 -0.1360 -0.0323
  944MPD2    H113805   2.407   3.813  11.288 -0.9943  1.2264 -0.6202
  944MPD2    H213806   2.588   3.547  11.023 -0.6103 -0.3035  2.5492
  944MPD2    H313807   2.507   3.605  11.240 -2.0714 -1.5521 -1.0652
  944MPD2     N13808   2.358   4.010  11.110  0.3522  0.1505  0.0446
  944MPD2    H513809   2.340   4.070  11.030  1.4212 -1.8521 -1.6920
  944MPD2    N113810   2.595   3.713  10.816 -0.3645  0.2941  0.3204
  944MPD2    H713811   2.646   3.625  10.808 -0.2578  0.1558  2.2980
    1TCq1    O113812   4.712   4.398  14.615 -0.0090  0.0370  0.7447
    1TCq1    C113813   0.121   4.400  14.639  1.2441  0.1221  0.1788
    1TCq1    O213814   0.179   4.330  14.721  0.8323  0.1640  0.3478
    1TCq1    C213815   0.167   4.511  14.558  0.1022 -0.2823  0.3950
    1TCq1    C313816   0.090   4.572  14.459 -0.0563 -0.0090  0.4447
    1TCq1    C413817   0.142   4.681  14.393 -0.5088 -0.0060 -0.2876
    1TCq1    C513818   0.260   0.009  14.430 -0.2631 -0.2680 -0.0118
    1TCq1    C613819   0.329   4.678  14.527 -0.4698  0.0175  0.9647
    1TCq1    C713820   0.282   4.567  14.597 -0.0628  0.5808 -0.0521
    1TCq1    C813821   0.450   0.017  14.589 -0.4410  0.4563  0.5560
    1TCq1    O413822   0.507   4.672  14.672 -0.4607  0.5254 -0.3237
    1TCq1    C913823   0.070   0.016  14.281  0.2702 -0.0319  0.3593
    1TCq1    O513824   4.724   4.673  14.208 -0.0819 -0.2023 -0.4309
    1TCq1    O613825   0.100   0.134  14.251 -0.2044 -0.2758  0.1861
    1TCq1    H113826   4.694   4.494  14.604 -0.5205 -0.0362  0.9433
    1TCq1    H213827   0.002   4.526  14.415  0.5905 -0.1248 -0.7509
    1TCq1    H313828   0.307   0.088  14.373  0.4661  0.6075  1.8090
    1TCq1    H413829   0.335   4.534  14.685 -1.5902  1.8326  1.3354
    2MPD2     C13830   0.839   0.376  14.590 -0.1446 -0.0105  1.0805
    2MPD2    C113831   0.726   0.423  14.511 -0.4299  0.4817 -0.0221
    2MPD2    C213832   0.610   0.346  14.506  0.2640  0.1231  0.0596
    2MPD2    C313833   0.598   0.219  14.562  0.8705  0.1931 -0.1365
    2MPD2    C413834   0.710   0.167  14.620  0.6014 -0.4182 -0.1254
    2MPD2    C513835   0.824   0.241  14.642 -0.2502 -0.1474  0.3915
    2MPD2     H13836   0.529   0.374  14.438  0.3203 -1.0203 -0.4673
    2MPD2    H113837   0.721   0.065  14.656 -1.7590 -0.8158 -0.5393
    2MPD2    H213838   0.930   0.434  14.604 -0.1278 -0.2891  2.1008
    2MPD2    H313839   0.916   0.207  14.689 -0.2625 -0.5998  0.0891
    2MPD2     N13840   0.480   0.147  14.544  0.4629  0.3831  0.1656
    2MPD2    H513841   0.409   0.193  14.487 -0.6892  0.3687  1.5866
    2MPD2    N113842   0.731   0.556  14.458 -0.4375 -0.8044 -0.2058
    2MPD2    H713843   0.821   0.601  14.471 -1.0458  0.6566 -1.0231
    3TMC2    C113844   0.659   0.779  14.412 -0.0790  0.1296  0.2966
    3TMC2    C213845   0.562   0.875  14.441 -0.4856 -0.6795  0.1025
    3TMC2    C313846   0.586   1.000  14.390 -0.4393  0.1910 -0.2083
    3TMC2    C413847   0.756   0.801  14.324  0.1368  0.2815  0.5031
    3TMC2    C513848   0.755   0.918  14.254 -0.0104 -0.7866 -0.0126
    3TMC2    C613849   0.670   1.023  14.284  0.6102  0.1264 -0.7734
    3TMC2     C13850   0.622   0.638  14.447 -0.2453 -0.0943 -0.2630
    3TMC2     O13851   0.501   0.619  14.464  0.2173 -0.4497  0.2492
    3TMC2     H13852   0.489   0.861  14.520 -1.7126 -2.3359 -1.3264
    3TMC2    H113853   0.832   0.724  14.318  1.3902  1.3361  2.8204
    3TMC2    H213854   0.668   1.121  14.238 -1.4901 -0.2505 -1.5182
    3TMC2    C713855   0.857   0.934  14.153 -0.4491 -0.2442  0.1436
    3TMC2    C813856   0.498   1.110  14.432 -0.3927 -0.0043  0.4176
    3TMC2    O113857   0.946   0.854  14.160 -0.2075 -0.4369 -0.0418
    3TMC2    O213858   0.435   1.186  14.358  0.7091 -0.0479  0.4231
    3TMC2    O513859   0.469   1.083  14.559 -0.0867  0.5798  0.2712
    3TMC2    H513860   0.552   1.052  14.600  0.1229  1.0694  0.2135
    4MPD2     C13861   0.031   2.041  13.342 -0.6538 -0.2251 -0.2003
    4MPD2    C113862   0.103   1.980  13.235 -0.6993 -0.4638 -0.2089
    4MPD2    C213863   0.200   1.877  13.251 -0.4665 -0.5998 -0.2435
    4MPD2    C313864   0.219   1.828  13.377 -0.7613 -0.2681  0.2825
    4MPD2    C413865   0.154   1.884  13.485  0.6481 -1.2668 -0.8159
    4MPD2    C513866   0.063   1.990  13.465 -0.4477 -0.5857 -0.6707
    4MPD2     H13867   0.261   1.830  13.174 -0.9450 -0.6783 -0.5727
    4MPD2    H113868   0.176   1.863  13.589 -0.0708  1.1520 -0.1729
    4MPD2    H213869   4.682   2.119  13.328  0.7964  0.9846 -1.0963
    4MPD2    H313870   0.010   2.039  13.546 -2.0401 -0.8134 -1.5654
    4MPD2     N13871   0.324   1.734  13.387  0.5251  0.9803 -0.3148
    4MPD2    H513872   0.388   1.725  13.309  1.1287 -1.0018  0.4036
    4MPD2    N113873   0.072   2.030  13.109  0.7248  0.1223  0.2824
    4MPD2    H713874   0.003   2.103  13.103 -0.8756 -1.2451  2.2228
    5TCq2    C113875   0.371   1.671  13.502 -0.1519  0.3760 -0.1951
    5TCq2    O213876   0.314   1.656  13.608  0.0072  0.1139  0.0808
    5TCq2    C213877   0.474   1.571  13.476  0.2250 -0.1568 -0.2832
    5TCq2    C313878   0.510   1.528  13.346  0.1745  0.2453  0.2004
    5TCq2    C413879   0.588   1.415  13.338 -0.0148 -0.1929  0.3823
    5TCq2    C513880   0.643   1.358  13.447 -0.5316  0.1222  0.0172
    5TCq2    C613881   0.611   1.412  13.570  1.0149  0.3184  0.2764
    5TCq2    C713882   0.533   1.523  13.585  0.0314 -0.6545  0.0156
    5TCq2    C813883   0.667   1.361  13.691  0.4777 -0.2979 -0.6758
    5TCq2    O413884   0.608   1.386  13.799 -0.5831  0.6715 -0.7293
    5TCq2    C913885   0.615   1.364  13.204  0.0933  0.6677  0.1742
    5TCq2    O513886   0.548   1.416  13.108 -0.0458  0.7490  0.8725
    5TCq2    O613887   0.707   1.285  13.182 -0.1187  0.1462  0.5178
    5TCq2    H213888   0.470   1.574  13.256 -2.2860 -1.2455  0.5214
    5TCq2    H313889   0.694   1.264  13.428  0.7362  0.7065  0.5654
    5TCq2    H413890   0.531   1.578  13.679  1.3882 -0.3230 -0.1430
    6MPD1     C13891   4.089   3.468  11.954  0.2059  0.5452  0.0089
    6MPD1    C113892   4.056   3.465  12.089 -0.3179  0.2189 -0.5339
    6MPD1    C213893   4.108   3.364  12.172  1.2092  0.1112  0.3261
    6MPD1    C313894   4.176   3.265  12.107  0.1169 -0.6970 -0.9767
    6MPD1    C413895   4.202   3.265  11.969  0.8624  0.0055  0.0662
    6MPD1    C513896   4.163   3.367  11.892  0.6878  0.5681  0.3585
    6MPD1     H13897   4.072   3.360  12.274  0.8810 -1.7665  0.1271
    6MPD1    H113898   4.271   3.192  11.927  1.0737 -0.1114  0.6252
    6MPD1    H213899   4.057   3.550  11.890  0.0450 -0.3871 -1.1123
    6MPD1    H313900   4.174   3.371  11.785  0.4763 -0.0459  0.3082
    6MPD1     N13901   4.231   3.155  12.187 -0.3344 -0.6700  0.0207
    6MPD1    H513902   4.280   3.083  12.135 -2.7400 -1.3852 -1.2378
    6MPD1    N113903   3.994   3.578  12.141  0.3183  0.4876 -0.2928
    6MPD1    H613904   3.955   3.622  12.058  0.4615  0.7038 -0.2444
    6MPD1    H713905   3.924   3.559  12.213  2.4704 -2.3496  1.0787
    7MPD2     C13906   4.315   2.671  12.951  0.5134  0.1451  0.1801
    7MPD2    C113907   4.323   2.625  12.823 -0.9280 -0.6382 -0.1277
    7MPD2    C213908   4.364   2.491  12.804  0.3492  0.8646  0.0419
    7MPD2    C313909   4.392   2.410  12.914  0.0085 -0.0970  0.0214
    7MPD2    C413910   4.388   2.462  13.040 -0.0262 -0.2677  0.5467
    7MPD2    C513911   4.347   2.595  13.055  0.4810  0.1301 -0.4318
    7MPD2     H13912   4.357   2.443  12.707  0.6140  2.1463 -0.6022
    7MPD2    H113913   4.408   2.410  13.133 -0.2291 -1.0372  0.1612
    7MPD2    H213914   4.280   2.771  12.974  0.3278 -0.1369  1.1099
    7MPD2    H313915   4.348   2.637  13.155  4.6444  0.5340 -0.6737
    7MPD2     N13916   4.439   2.280  12.894  0.3565  0.1928 -0.1331
    7MPD2    H513917   4.454   2.227  12.979  0.8410 -0.1582 -0.4327
    7MPD2    N113918   4.288   2.692  12.709  0.7811 -0.4437 -0.1445
    7MPD2    H713919   4.293   2.640  12.622 -0.6338  0.9836 -1.0975
    8TMC3    C113920   4.554   2.098  12.785  0.1796 -0.1616  0.0841
    8TMC3    C213921   4.644   2.087  12.891  0.2637 -0.0719 -0.0503
    8TMC3    C313922   0.040   2.024  12.873  0.2769 -0.1251 -0.1738
    8TMC3    C413923   4.605   2.063  12.656  0.6807 -0.2375 -0.5617
    8TMC3    C513924   0.008   2.035  12.641 -0.2004 -0.3518 -0.7700
    8TMC3    C613925   0.090   2.010  12.745  0.7507  0.7320  0.1283
    8TMC3     C13926   4.465   2.217  12.770 -0.4981 -0.3734 -0.4918
    8TMC3     O13927   4.457   2.251  12.654  0.4288 -0.9567 -0.1621
    8TMC3     H13928   4.607   2.113  12.990  0.3857 -2.0967  0.5380
    8TMC3    H113929   4.535   2.056  12.573 -4.1800  0.9945  3.4514
    8TMC3    H213930   0.190   1.973  12.723  0.3188 -0.3839  0.0534
    8TMC3    C713931   0.060   2.128  12.540  0.5382 -0.5543 -0.5513
    8TMC3    C813932   0.124   1.988  12.985  0.5417  0.4279 -0.7747
    8TMC3    O113933   0.168   2.102  12.488 -0.1611 -0.8312 -0.2499
    8TMC3    O213934   0.226   1.925  12.960 -0.1130 -0.3558  0.3059
    9TMC3    C113935   4.284   3.027  12.390  0.6971 -0.2189 -0.7076
    9TMC3    C213936   4.362   2.950  12.314  0.2244  0.3647  0.4169
    9TMC3    C313937   4.418   2.839  12.370 -0.4349  0.0590 -0.5428
    9TMC3    C413938   4.239   2.991  12.514  0.5673  0.3020 -0.1471
    9TMC3    C513939   4.299   2.879  12.571  0.2014 -0.0958  0.4244
    9TMC3    C613940   4.397   2.807  12.503 -0.0749  0.2170 -0.1129
    9TMC3     C13941   4.224   3.143  12.329  0.6961 -0.2033  0.2355
    9TMC3     O13942   4.154   3.208  12.409 -0.1534 -0.2811  0.2838
    9TMC3     H13943   4.405   2.970  12.216  0.4448 -1.3256  0.1655
    9TMC3    H113944   4.167   3.040  12.579 -0.0958 -0.5266 -0.2582
    9TMC3    H213945   4.454   2.728  12.552 -0.6879 -0.5607 -0.6484
    9TMC3    C713946   4.271   2.827  12.697  0.0351  0.8007  0.1522
    9TMC3    C813947   4.496   2.746  12.287 -0.4473  0.5901  0.0735
    9TMC3    O113948   4.248   2.915  12.782 -0.2943  0.0905  0.1974
    9TMC3    O213949   4.557   2.799  12.196  0.3487  0.0151  0.1970
   10MPD2     C13950   0.112   2.371  12.383  0.7316 -0.0508  0.5366
   10MPD2    C113951   4.714   2.335  12.435 -0.1078  0.3991  0.8863
   10MPD2    C213952   4.604   2.410  12.411  0.1777  0.3399 -0.1812
   10MPD2    C313953   4.613   2.531  12.340  0.2348  0.1820 -0.4254
   10MPD2    C413954   0.009   2.569  12.296 -0.2008  0.3254 -0.0924
   10MPD2    C513955   0.120   2.484  12.308 -0.9051  0.1323 -0.3748
   10MPD2     H13956   4.510   2.393  12.461 -1.1501 -0.2970 -2.9045
   10MPD2    H113957   0.023   2.657  12.235  0.7957 -1.0407 -1.8175
   10MPD2    H213958   0.194   2.303  12.401 -1.4546 -3.0297 -0.7000
   10MPD2    H313959   0.211   2.519  12.261 -0.2457 -0.6365  0.3480
   10MPD2     N13960   4.499   2.621  12.342  0.2446 -0.4885 -0.5690
   10MPD2    H513961   4.414   2.592  12.389 -0.3108 -0.6134 -1.6532
   10MPD2    N113962   4.695   2.229  12.523  0.0186  0.0562  0.1633
   10MPD2    H713963   4.609   2.227  12.576 -0.3564 -1.5479 -0.5005
   11MPD2     C13964   0.990   1.019  13.892  0.0410 -0.0817  0.2172
   11MPD2    C113965   0.877   1.078  13.941 -0.2772 -0.6312  0.1836
   11MPD2    C213966   0.810   1.181  13.870  0.7575  0.0599  0.7950
   11MPD2    C313967   0.859   1.222  13.748 -0.3806  0.2877 -0.1459
   11MPD2    C413968   0.984   1.170  13.705 -0.4748  0.7410  0.0698
   11MPD2    C513969   1.055   1.079  13.785  0.0626  0.4599  0.5950
   11MPD2     H13970   0.717   1.216  13.913  1.0605  1.0566  0.6315
   11MPD2    H113971   1.021   1.197  13.607 -0.4208 -1.6048 -0.5729
   11MPD2    H213972   1.027   0.926  13.933  0.7718 -0.6454 -1.7314
   11MPD2    H313973   1.146   1.041  13.741  0.3994  1.1169  0.7302
   11MPD2     N13974   0.792   1.309  13.665  0.3649 -0.1381 -0.2539
   11MPD2    H513975   0.831   1.329  13.573 -0.2685  2.6245  0.0888
   11MPD2    N113976   0.812   1.027  14.060 -0.4131 -0.0141 -0.0403
   11MPD2    H713977   0.730   1.084  14.078 -1.1315 -0.5402 -1.6453
    1MPD1     C13978   3.417   2.932   0.189 -0.5409  0.4452  0.6572
    1MPD1    C113979   3.539   2.862   0.205 -0.4462  0.1153  0.1670
    1MPD1    C213980   3.587   2.796   0.090 -0.5358 -0.7306 -0.0012
    1MPD1    C313981   3.515   2.798  17.675  0.0117  0.7804 -0.3269
    1MPD1    C413982   3.403   2.873  17.665  0.8386 -0.6181 -0.2667
    1MPD1    C513983   3.350   2.937   0.071 -0.5197  0.2999 -0.2882
    1MPD1     H13984   3.684   2.750   0.091  0.3947  1.1889 -1.9100
    1MPD1    H113985   3.352   2.874  17.570 -0.7724 -0.7487  0.5921
    1MPD1    H213986   3.371   2.992   0.267  0.6840  1.7366  0.3675
    1MPD1    H313987   3.260   2.996   0.055 -0.9848 -0.8157 -1.7421
    1MPD1     N13988   3.565   2.734  17.556 -0.4303  0.3640 -0.6447
    1MPD1    H513989   3.512   2.764  17.474 -1.0332 -0.7822 -0.6653
    1MPD1    N113990   3.625   2.894   0.303 -0.2925  0.1546 -0.0026
    1MPD1    H613991   3.671   2.805   0.321  0.9219  0.6130 -0.8785
    1MPD1    H713992   3.567   2.910   0.386 -2.2615 -0.1450 -1.3159
    2MPD1     C13993   4.289   2.387  16.817 -0.1635 -0.4404 -0.1942
    2MPD1    C113994   4.170   2.413  16.764  0.0085  0.8186 -1.0644
    2MPD1    C213995   4.068   2.442  16.841  0.4442 -0.7070 -0.7728
    2MPD1    C313996   4.080   2.443  16.981 -0.8480 -0.9724  0.0610
    2MPD1    C413997   4.201   2.397  17.035 -0.2331  0.1438  0.1280
    2MPD1    C513998   4.301   2.360  16.945  0.1813 -0.2372  0.1834
    2MPD1     H13999   3.976   2.480  16.797  2.5699  1.1897 -3.5597
    2MPD1    H114000   4.226   2.410  17.140  1.8286  2.5529 -0.6656
    2MPD1    H214001   4.370   2.378  16.746 -1.8117 -0.6549 -2.0686
    2MPD1    H314002   4.396   2.319  16.979 -0.1877 -1.4427 -0.2236
    2MPD1     N14003   3.976   2.495  17.057  0.1479 -0.5567 -0.1670
    2MPD1    H514004   3.899   2.531  17.002  0.5038 -0.3951 -0.5580
    2MPD1    N114005   4.159   2.447  16.629  0.4121 -0.0341  0.1311
    2MPD1    H614006   4.243   2.439  16.572  0.7597  1.9379  0.3800
    2MPD1    H714007   4.074   2.416  16.583  0.0019 -0.0911  0.9234
    3TMC3    C114008   3.834   2.523  17.237 -0.8214  0.3555  0.1824
    3TMC3    C214009   3.730   2.531  17.145  0.7078  0.5308  0.1181
    3TMC3    C314010   3.606   2.565  17.192 -0.2455  0.4428 -0.6736
    3TMC3    C414011   3.819   2.562  17.368 -0.1219 -0.7336 -0.1528
    3TMC3    C514012   3.698   2.607  17.401  0.4515 -0.1136 -0.0628
    3TMC3    C614013   3.591   2.604  17.318  0.5052 -0.1425 -0.4299
    3TMC3     C14014   3.964   2.478  17.195 -0.3793  0.2002  0.7793
    3TMC3     O14015   4.040   2.455  17.288  0.5778 -0.0641  0.5757
    3TMC3     H14016   3.741   2.479  17.051 -1.6275 -1.3843  0.9345
    3TMC3    H114017   3.896   2.555  17.444  1.3734 -0.8608 -1.6946
    3TMC3    H214018   3.501   2.655  17.349  0.9776  0.3669  0.1079
    3TMC3    C714019   3.676   2.661  17.541 -0.3201  0.5282  0.4621
    3TMC3    C814020   3.507   2.611  17.101 -0.2731  0.3858 -1.0349
    3TMC3    O114021   3.758   2.620  17.624 -0.4834 -0.3650 -0.0455
    3TMC3    O214022   3.390   2.596  17.128 -0.4064  0.0397  0.1771
    4MPD1     C14023   3.362   2.903  16.690 -0.1817  0.1199  0.2274
    4MPD1    C114024   3.486   2.843  16.668  0.0609 -0.5390 -0.0498
    4MPD1    C214025   3.545   2.780  16.772 -0.1575 -0.0412  0.5318
    4MPD1    C314026   3.483   2.749  16.891  0.3824 -0.1283  0.0260
    4MPD1    C414027   3.361   2.799  16.902 -0.4500 -0.2137  0.3481
    4MPD1    C514028   3.299   2.877  16.807 -0.3379 -0.6980  0.7458
    4MPD1     H14029   3.647   2.745  16.758 -0.4018 -0.5846  0.0888
    4MPD1    H114030   3.291   2.768  16.978 -0.2474  0.1162  0.6650
    4MPD1    H214031   3.314   2.964  16.615 -1.1718  0.6733  1.3226
    4MPD1    H314032   3.204   2.928  16.816  0.4601  1.1601 -1.3607
    4MPD1     N14033   3.554   2.674  16.987 -0.1931 -0.2266 -0.5739
    4MPD1    H514034   3.653   2.655  16.972 -0.1523 -0.4378 -0.0435
    4MPD1    N114035   3.562   2.876  16.554  0.5977 -0.6841 -0.2351
    4MPD1    H614036   3.645   2.818  16.546  0.0253 -1.4844 -0.3877
    4MPD1    H714037   3.499   2.878  16.473 -2.4325  1.4336  2.1519
    1TCq1    O114038   4.179   2.678  12.181 -0.0540 -0.3133 -0.3643
    1TCq1    C114039   4.102   2.776  12.140  0.5456 -0.9729  0.3584
    1TCq1    O214040   4.060   2.868  12.204  0.3536  0.5866 -0.3352
    1TCq1    C214041   4.060   2.747  12.003  0.0099  0.1061  0.4829
    1TCq1    C314042   4.039   2.624  11.961  0.0016  0.1209 -0.0003
    1TCq1    C414043   4.010   2.609  11.831 -0.8383 -0.3369  0.2507
    1TCq1    C514044   3.978   2.714  11.748 -0.0476 -0.1530  0.1191
    1TCq1    C614045   3.987   2.838  11.795 -0.3902 -0.2127  0.2455
    1TCq1    C714046   4.042   2.854  11.916 -0.0970 -0.0214 -0.5216
    1TCq1    C814047   3.972   2.947  11.707  0.4559  0.3868 -0.1137
    1TCq1    O414048   3.996   2.921  11.589  0.1631 -0.5052 -0.3454
    1TCq1    C914049   3.980   2.476  11.790  0.7127  1.1199  0.1093
    1TCq1    O514050   3.955   2.455  11.671  0.0121 -0.1333  0.2762
    1TCq1    O614051   4.012   2.379  11.865  0.0746 -0.3222 -0.7177
    1TCq1    H114052   4.213   2.631  12.101 -0.3963  1.8703 -1.7695
    1TCq1    H214053   4.048   2.541  12.030 -3.7395 -0.4411 -0.1567
    1TCq1    H314054   3.912   2.699  11.663  0.0236  0.2121 -0.0038
    1TCq1    H414055   4.063   2.945  11.969  0.3197 -0.3421 -0.1397
    2MPD1     C14056   3.803   3.423  11.600 -1.2309  0.2792  0.2090
    2MPD1    C114057   3.790   3.402  11.733  0.2766 -0.6241 -0.7274
    2MPD1    C214058   3.840   3.282  11.786 -0.6064 -0.4427  0.1904
    2MPD1    C314059   3.895   3.179  11.710  0.0972 -0.3589 -0.8360
    2MPD1    C414060   3.918   3.213  11.578  0.0453  0.0084 -0.1621
    2MPD1    C514061   3.875   3.334  11.525 -0.7620 -0.2789 -1.0037
    2MPD1     H14062   3.824   3.272  11.892  0.8139  1.8565  0.6032
    2MPD1    H114063   3.971   3.150  11.508 -0.5152 -0.3087 -0.3018
    2MPD1    H214064   3.766   3.508  11.545  2.9841  2.2289  0.3436
    2MPD1    H314065   3.903   3.343  11.421 -3.1246 -0.8220 -1.6861
    2MPD1     N14066   3.926   3.061  11.774  0.2818 -0.7839  0.0785
    2MPD1    H514067   3.903   3.050  11.873  1.5422 -2.1325  0.2217
    2MPD1    N114068   3.741   3.500  11.817 -0.6353 -0.1196 -0.2062
    2MPD1    H614069   3.650   3.531  11.785 -1.0376  0.2834  1.3139
    2MPD1    H714070   3.732   3.454  11.908 -1.6698  0.6516  0.0777
    1TCq1    O114071   4.521   1.794   8.853 -0.3351  0.1626  0.0461
    1TCq1    C114072   4.612   1.805   8.951 -0.1217  0.0333 -0.9268
    1TCq1    O214073   4.592   1.764   9.065 -0.0185  0.0614 -0.1463
    1TCq1    C214074   0.012   1.795   8.878  0.1359 -0.1804 -0.3601
    1TCq1    C314075   0.030   1.876   8.769 -0.0533 -0.0479  0.2539
    1TCq1    C414076   0.157   1.884   8.718 -0.2016 -0.3291  0.5490
    1TCq1    C514077   0.263   1.860   8.798  0.1666  0.2008  0.2367
    1TCq1    C614078   0.242   1.786   8.906 -0.6702  0.2875 -0.1054
    1TCq1    C714079   0.116   1.731   8.934 -0.0010  0.5074 -0.7312
    1TCq1    C814080   0.339   1.764   9.015 -0.1092  0.2916  0.0699
    1TCq1    O414081   0.299   1.700   9.111  0.1605 -0.3040 -0.2595
    1TCq1    C914082   0.173   1.969   8.601  0.5576  0.3666 -0.0579
    1TCq1    O514083   0.075   2.003   8.533 -0.8122 -0.1415 -0.7803
    1TCq1    O614084   0.289   1.969   8.554  0.0768  0.0546 -0.4110
    1TCq1    H114085   4.563   1.815   8.766  0.7009  1.0897  0.7722
    1TCq1    H214086   4.680   1.949   8.739 -1.2676 -0.9332  1.1476
    1TCq1    H314087   0.362   1.901   8.780  0.6345 -0.7978  0.5804
    1TCq1    H414088   0.102   1.673   9.024  0.9904 -0.9440 -1.4866
    2MPD1     C14089   0.815   1.762   9.193 -0.0358 -0.0282 -0.1597
    2MPD1    C114090   0.806   1.858   9.095 -0.6573 -0.8527  0.0910
    2MPD1    C214091   0.693   1.864   9.016  0.0464  0.8291 -0.0951
    2MPD1    C314092   0.579   1.793   9.055 -0.2168 -0.3926 -0.2593
    2MPD1    C414093   0.589   1.708   9.156 -0.5807  0.5614  0.9536
    2MPD1    C514094   0.701   1.695   9.227  0.4923  0.7956 -0.6928
    2MPD1     H14095   0.692   1.938   8.936  2.7215  2.2231  1.1676
    2MPD1    H114096   0.515   1.635   9.186 -1.5007  1.2469  0.3491
    2MPD1    H214097   0.906   1.739   9.247 -1.2664 -0.9547  1.5357
    2MPD1    H314098   0.692   1.622   9.306 -1.7178 -0.7325 -2.3443
    2MPD1     N14099   0.460   1.811   8.986  0.3112 -0.2079 -0.1245
    2MPD1    H514100   0.471   1.866   8.901  0.3723  0.3997  0.2771
    2MPD1    N114101   0.922   1.902   9.043  0.1120  0.0570  0.1579
    2MPD1    H614102   0.989   1.925   9.116  0.4279  0.7079 -0.3377
    2MPD1    H714103   0.901   1.982   8.984  2.1849  0.2621 -0.2964
    1MPD1     C14104   1.110   2.113  12.259 -0.2640 -0.6723 -0.2815
    1MPD1    C114105   1.211   2.164  12.174 -0.1372 -0.9722  0.5152
    1MPD1    C214106   1.183   2.281  12.112  0.7968 -0.2061  0.3611
    1MPD1    C314107   1.085   2.370  12.145  0.6494 -0.3886 -0.2933
    1MPD1    C414108   0.994   2.322  12.242  0.1200  0.1872  0.3997
    1MPD1    C514109   1.005   2.197  12.302 -0.1138  0.5057 -0.8451
    1MPD1     H14110   1.253   2.305  12.033 -0.7085  2.2529 -0.2230
    1MPD1    H114111   0.936   2.395  12.296 -3.2369 -2.0129 -0.2317
    1MPD1    H214112   1.114   2.016  12.308 -2.4592  0.8146  2.8285
    1MPD1    H314113   0.935   2.174  12.381  0.2990  1.0513 -0.3167
    1MPD1     N14114   1.077   2.495  12.080 -0.9947  0.0608 -0.2353
    1MPD1    H514115   1.148   2.512  12.009 -0.9423 -1.9368 -0.6661
    1MPD1    N114116   1.296   2.068  12.124 -0.0225 -0.5592  0.2764
    1MPD1    H614117   1.321   2.007  12.202 -1.5466 -0.5342  0.7848
    1MPD1    H714118   1.384   2.106  12.090 -0.2537  1.3398  1.7329
    2MPD1     C14119   0.040   3.450  10.444  0.0309 -0.1895 -0.7095
    2MPD1    C114120   0.164   3.506  10.463 -0.5913 -0.1855 -0.2759
    2MPD1    C214121   0.268   3.423  10.483 -0.0293  0.2983  0.2607
    2MPD1    C314122   0.246   3.281  10.494  0.4185  0.2000 -0.0063
    2MPD1    C414123   0.118   3.237  10.484  0.5439 -0.4466 -0.4786
    2MPD1    C514124   0.020   3.323  10.472  0.1169 -0.2454 -0.0742
    2MPD1     H14125   0.366   3.469  10.480  0.1703 -0.2720 -1.9725
    2MPD1    H114126   0.090   3.133  10.498  2.0015 -0.8381 -0.4599
    2MPD1    H214127   4.679   3.510  10.417  0.5353 -0.1384 -2.2374
    2MPD1    H314128   4.644   3.283  10.469 -0.2347  0.8676 -3.4532
    2MPD1     N14129   0.349   3.183  10.507  0.1116 -1.2675  0.2375
    2MPD1    H514130   0.320   3.085  10.504 -1.3525 -0.7909 -1.1579
    2MPD1    N114131   0.182   3.639  10.429 -0.6152  0.2355  0.2912
    2MPD1    H614132   0.102   3.693  10.461 -1.8209 -1.4190  0.0614
    2MPD1    H714133   0.259   3.683  10.479 -0.6963 -0.0389  0.6606
    3MPD1     C14134   0.357   2.419  10.116 -0.1718  0.0131  0.3389
    3MPD1    C114135   0.403   2.530  10.055 -0.9239 -0.0712 -1.0489
    3MPD1    C214136   0.465   2.627  10.127 -0.3493  0.1922  0.5246
    3MPD1    C314137   0.460   2.624  10.270  0.3143  0.6085 -0.4935
    3MPD1    C414138   0.404   2.514  10.329 -0.2917  0.2291 -0.1128
    3MPD1    C514139   0.357   2.408  10.252  0.9180 -0.2914  0.0854
    3MPD1     H14140   0.496   2.722  10.085  0.1124 -0.2205 -0.0631
    3MPD1    H114141   0.400   2.508  10.437 -1.4258 -0.0133 -0.1662
    3MPD1    H214142   0.309   2.341  10.058 -0.1431  0.2883 -0.0570
    3MPD1    H314143   0.309   2.324  10.302  0.8544 -0.1936  0.1874
    3MPD1     N14144   0.507   2.735  10.346 -0.3303 -0.8868  0.0674
    3MPD1    H514145   0.521   2.816  10.287 -0.3031 -1.1888 -0.3422
    3MPD1    N114146   0.408   2.528   9.918  0.2462  0.0042 -0.3363
    3MPD1    H614147   0.412   2.624   9.884  1.4919 -1.6717 -4.8876
    3MPD1    H714148   0.323   2.490   9.877  0.6941 -0.0434 -1.2189
    4MPD2     C14149   0.719   3.224  11.824 -0.5230  0.0094  0.5131
    4MPD2    C114150   0.852   3.208  11.842 -0.6501  0.6994 -0.7625
    4MPD2    C214151   0.941   3.267  11.758 -0.6859  0.6181 -0.2085
    4MPD2    C314152   0.893   3.357  11.662 -0.7064 -0.0480 -0.2403
    4MPD2    C414153   0.758   3.382  11.645  0.0813  0.0016 -0.1248
    4MPD2    C514154   0.673   3.317  11.728  0.5168 -0.7786  0.0756
    4MPD2     H14155   1.047   3.259  11.779 -1.0970 -1.6754  0.9654
    4MPD2    H114156   0.720   3.449  11.568 -0.6025  0.4518  0.6137
    4MPD2    H214157   0.650   3.162  11.880 -0.0093  1.4510  2.7611
    4MPD2    H314158   0.567   3.329  11.711  0.9299  2.6440 -0.0647
    4MPD2     N14159   0.984   3.418  11.569  0.2784  0.8404 -0.1705
    4MPD2    H514160   0.942   3.466  11.490  0.4981  0.1942 -0.6835
    4MPD2    N114161   0.904   3.117  11.932 -0.9778 -0.2490  0.1245
    4MPD2    H714162   1.004   3.105  11.919 -0.6824  2.5885 -0.2774
    5TMC3    C114163   0.914   2.917  12.061  0.9505  0.8408  0.5106
    5TMC3    C214164   0.892   2.791  12.043  1.0900  0.0883 -1.1753
    5TMC3    C314165   0.994   2.710  12.017 -0.0344  0.6381  0.2905
    5TMC3    C414166   1.042   2.959  12.064 -0.3809 -0.0120 -0.1419
    5TMC3    C514167   1.150   2.879  12.025  0.0493 -0.2022  0.2168
    5TMC3    C614168   1.126   2.748  12.010 -0.5034 -0.0118  0.1698
    5TMC3     C14169   0.832   3.016  11.997  0.0519  0.0299 -0.1849
    5TMC3     O14170   0.710   3.000  12.013  0.1778  0.1143 -0.2738
    5TMC3     H14171   0.787   2.766  12.041  0.6837  1.6024  1.2725
    5TMC3    H114172   1.065   3.061  12.091 -0.7670  0.3434 -1.1515
    5TMC3    H214173   1.196   2.683  11.959  0.5801  0.1936  1.4028
    5TMC3    C714174   1.228   2.950  11.929 -0.3832  0.5380 -0.0895
    5TMC3    C814175   0.967   2.582  12.085  0.0826  0.3119  0.0112
    5TMC3    O114176   1.165   3.039  11.875  0.5337  0.1292 -0.3886
    5TMC3    O214177   0.872   2.572  12.164  0.1370  0.5383  0.0221
    6TMC3    C114178   0.565   3.097  10.546  0.1305  0.4979  0.9318
    6TMC3    C214179   0.530   2.983  10.482 -0.8079  0.0735 -0.0248
    6TMC3    C314180   0.602   2.871  10.513 -0.1452 -0.5655 -0.2675
    6TMC3    C414181   0.659   3.103  10.641  0.2544 -0.0440  0.4030
    6TMC3    C514182   0.713   2.986  10.680 -0.0594 -0.2287  0.7586
    6TMC3    C614183   0.693   2.868  10.613  0.3710  0.1900  0.4490
    6TMC3     C14184   0.482   3.217  10.524 -0.1604  1.0473 -0.0726
    6TMC3     O14185   0.537   3.323  10.545 -0.1457 -0.1461  0.1512
    6TMC3     H14186   0.458   2.981  10.401 -0.9295  0.6736  0.0718
    6TMC3    H114187   0.688   3.198  10.684  0.0815  0.1836  0.0194
    6TMC3    H214188   0.747   2.777  10.636 -1.0437 -0.8854 -0.5065
    6TMC3    C714189   0.819   3.002  10.777  0.4657 -0.0648  0.1563
    6TMC3    C814190   0.552   2.741  10.476 -0.0444  1.0302  0.0231
    6TMC3    O114191   0.823   3.106  10.841  0.3269 -0.2808  0.3273
    6TMC3    O214192   0.565   2.655  10.564  0.1151  0.5258 -0.0996
    7MPD2     C14193   1.596   3.028  11.595 -0.1631  0.6244 -0.1026
    7MPD2    C114194   1.489   3.108  11.628 -0.3422  0.0772  0.1606
    7MPD2    C214195   1.408   3.072  11.738  0.0762 -0.4724 -0.2943
    7MPD2    C314196   1.433   2.945  11.803  0.9322 -0.4642  0.4886
    7MPD2    C414197   1.546   2.877  11.770  0.1070 -0.3434 -0.5264
    7MPD2    C514198   1.624   2.914  11.665  0.1380 -0.4560  0.6602
    7MPD2     H14199   1.321   3.136  11.747  0.1326 -0.3765 -0.4281
    7MPD2    H114200   1.564   2.782  11.818 -0.3467 -1.4045 -2.4464
    7MPD2    H214201   1.664   3.052  11.513  0.6629 -0.8146  0.1652
    7MPD2    H314202   1.710   2.851  11.643  0.3084  0.1777 -0.4571
    7MPD2     N14203   1.349   2.887  11.905 -0.2178 -0.3216  0.3408
    7MPD2    H514204   1.376   2.801  11.951  0.7012 -1.6381 -2.6404
    7MPD2    N114205   1.443   3.219  11.550  0.3171 -0.0276 -0.1783
    7MPD2    H714206   1.371   3.277  11.592 -1.6576 -0.9770 -2.2196
    8TMC3    C114207   1.390   3.345  11.368  0.1752  0.8203  0.4933
    8TMC3    C214208   1.338   3.294  11.253 -0.0260 -0.4222 -0.3412
    8TMC3    C314209   1.209   3.327  11.226  0.4801  0.2528 -0.0322
    8TMC3    C414210   1.312   3.423  11.448  0.0400  0.8921 -0.5227
    8TMC3    C514211   1.180   3.442  11.431  0.6546 -0.2775 -0.3230
    8TMC3    C614212   1.121   3.400  11.316 -0.1505 -0.1024 -0.0127
    8TMC3     C14213   1.493   3.262  11.425 -0.1130  0.1234 -0.1782
    8TMC3     O14214   1.573   3.211  11.350 -0.5046 -0.2789 -0.4152
    8TMC3     H14215   1.396   3.242  11.177  2.6784  1.3839  0.4463
    8TMC3    H114216   1.360   3.457  11.539 -2.5328 -1.6607  1.7887
    8TMC3    H214217   1.013   3.404  11.300 -0.2288 -1.3888  0.1855
    8TMC3    C714218   1.120   3.398  11.556  0.1352 -0.1326  0.5018
    8TMC3    C814219   1.138   3.214  11.151  0.3642  0.6449 -0.3573
    8TMC3    O114220   1.200   3.332  11.623  0.6096 -0.4544  0.0924
    8TMC3    O214221   1.014   3.215  11.139  0.2978 -0.7466  0.5842
    9MPD2     C14222   1.275   2.918  10.981  0.1712 -0.2987 -0.0125
    9MPD2    C114223   1.175   3.004  11.013  0.3071 -0.3787 -0.4719
    9MPD2    C214224   1.054   2.993  10.954 -0.5255 -0.4593  0.3764
    9MPD2    C314225   1.033   2.902  10.853 -0.8147  0.7579  0.1374
    9MPD2    C414226   1.127   2.800  10.829 -0.2887  0.3913 -0.0993
    9MPD2    C514227   1.252   2.818  10.891 -0.0109 -0.0146  0.2316
    9MPD2     H14228   0.984   3.071  10.982  0.7746  0.7695  0.2297
    9MPD2    H114229   1.121   2.737  10.741 -0.6055 -0.2143  0.3563
    9MPD2    H214230   1.372   2.917  11.030  0.0748  3.4860  0.2380
    9MPD2    H314231   1.327   2.750  10.853 -0.6089  0.1382 -1.2221
    9MPD2     N14232   0.915   2.903  10.776 -0.1649  0.1493  0.1684
    9MPD2    H514233   0.905   2.820  10.719  0.7374  0.4662 -0.4498
    9MPD2    N114234   1.215   3.106  11.108 -0.2020 -0.0338 -0.3931
    9MPD2    H714235   1.300   3.088  11.160 -1.4012 -0.1768  1.4981
    1MPD1     C14236   1.478   1.205  17.167  0.2374  0.5852 -0.6387
    1MPD1    C114237   1.535   1.181  17.044  0.3593 -0.3506 -0.2544
    1MPD1    C214238   1.453   1.157  16.939  0.5774  0.2358 -0.0073
    1MPD1    C314239   1.318   1.168  16.951  0.0182  0.2022 -0.3078
    1MPD1    C414240   1.266   1.188  17.075 -0.7791  0.0213  0.7882
    1MPD1    C514241   1.343   1.208  17.183  0.0343 -0.0608 -0.1790
    1MPD1     H14242   1.496   1.126  16.845  0.7136  0.5535 -0.0486
    1MPD1    H114243   1.161   1.186  17.099 -1.2279 -0.5985 -1.1974
    1MPD1    H214244   1.534   1.212  17.259  1.5991  1.8997 -1.5510
    1MPD1    H314245   1.302   1.216  17.283 -1.0254  0.5006 -0.6528
    1MPD1     N14246   1.232   1.158  16.833 -0.4652  0.1316 -0.0212
    1MPD1    H514247   1.132   1.148  16.841 -0.3867  0.2398  1.1953
    1MPD1    N114248   1.670   1.152  17.041  0.2806 -0.8380 -0.6738
    1MPD1    H614249   1.714   1.179  16.953  1.1814  0.1190  0.0655
    1MPD1    H714250   1.719   1.205  17.112 -0.9674  0.4609 -0.7743
    2MPD1     C14251   0.834   1.755  16.035 -0.4012 -0.2503  1.1058
    2MPD1    C114252   0.957   1.694  16.024  0.1275  1.0498 -0.0049
    2MPD1    C214253   0.993   1.602  16.123 -0.2128 -0.2588 -0.0462
    2MPD1    C314254   0.904   1.556  16.219 -0.3739 -0.7293  0.4234
    2MPD1    C414255   0.778   1.605  16.223  0.1531 -0.1961 -0.2782
    2MPD1    C514256   0.748   1.700  16.131 -0.0851 -0.7617  0.1197
    2MPD1     H14257   1.098   1.572  16.122  0.3233  1.6558 -1.0791
    2MPD1    H114258   0.705   1.581  16.299 -0.3636 -2.6719 -1.5726
    2MPD1    H214259   0.804   1.836  15.970 -0.1795 -0.8705  0.2332
    2MPD1    H314260   0.648   1.741  16.138 -0.4715 -1.5025 -1.1766
    2MPD1     N14261   0.938   1.448  16.310 -0.3256 -0.0397 -0.8664
    2MPD1    H514262   0.863   1.408  16.365 -0.2626 -0.9389 -1.4457
    2MPD1    N114263   1.051   1.748  15.941 -0.0888 -0.1829 -0.1567
    2MPD1    H614264   1.008   1.762  15.850  2.7212  1.7436 -1.1873
    2MPD1    H714265   1.132   1.688  15.929 -0.7212 -0.9059 -0.8066
    3TCq2    C114266   1.059   1.380  16.314 -0.1074 -0.6386  0.2049
    3TCq2    O214267   1.163   1.396  16.258  0.3941 -0.0315 -0.0479
    3TCq2    C214268   1.063   1.276  16.418  1.1719  0.1945  0.3302
    3TCq2    C314269   0.946   1.213  16.459  0.4011 -0.3982 -0.0797
    3TCq2    C414270   0.952   1.128  16.565 -1.1322 -0.3154 -1.0576
    3TCq2    C514271   1.066   1.114  16.642 -0.0842  0.2477  0.5656
    3TCq2    C614272   1.177   1.177  16.596 -0.5112 -0.3700  0.2024
    3TCq2    C714273   1.183   1.259  16.486  0.1157  0.0019 -0.3518
    3TCq2    C814274   1.279   1.184  16.704 -0.2436  0.2115 -0.0739
    3TCq2    O414275   1.381   1.243  16.669  0.4590  0.6021 -0.0733
    3TCq2    C914276   0.828   1.062  16.612  0.4690 -0.3937  0.3289
    3TCq2    O514277   0.824   1.020  16.732 -0.0141  0.2889  0.0121
    3TCq2    O614278   0.731   1.070  16.538  0.1051  0.2029  0.4031
    3TCq2    H214279   0.860   1.201  16.395 -1.4994 -1.5423  2.6983
    3TCq2    H314280   1.064   1.034  16.715  0.5959 -0.3702 -0.0833
    3TCq2    H414281   1.271   1.323  16.477 -1.4261  2.0788 -0.5961
    1TCq1    O114282   3.593   0.344  12.675  0.2971 -0.0507 -0.0186
    1TCq1    C114283   3.590   0.477  12.696 -0.7645  0.0015 -0.4041
    1TCq1    O214284   3.625   0.563  12.614 -0.9226 -0.2386 -0.1862
    1TCq1    C214285   3.595   0.492  12.841  0.0654  0.1054  0.0467
    1TCq1    C314286   3.495   0.435  12.908 -0.3194  0.4035  0.2072
    1TCq1    C414287   3.480   0.468  13.043 -0.3245  0.0305 -0.0243
    1TCq1    C514288   3.562   0.569  13.094  0.3216  0.3698  0.6021
    1TCq1    C614289   3.668   0.624  13.021 -0.4529  0.6775 -0.2617
    1TCq1    C714290   3.679   0.588  12.894  0.5527  0.0109  0.6898
    1TCq1    C814291   3.782   0.701  13.083  0.5618  0.2666 -0.4216
    1TCq1    O414292   3.871   0.733  13.008  0.0385 -0.0288 -0.1752
    1TCq1    C914293   3.377   0.409  13.131  0.2703 -0.2475 -0.2981
    1TCq1    O514294   3.302   0.321  13.080 -0.2153 -0.2630  0.7052
    1TCq1    O614295   3.397   0.419  13.255  0.0787  0.2044  0.1202
    1TCq1    H114296   3.559   0.297  12.754  0.7009 -1.2411 -0.5522
    1TCq1    H214297   3.434   0.351  12.877 -2.0872  0.9279  2.2390
    1TCq1    H314298   3.541   0.597  13.197  0.6826  0.0482  0.7660
    1TCq1    H414299   3.758   0.630  12.834  1.9000 -0.2567  2.2752
    2MPD2     C14300   3.972   0.853  13.246  0.7204  0.2532 -0.0516
    2MPD2    C114301   3.887   0.757  13.297 -0.6105 -0.3010  0.0656
    2MPD2    C214302   3.896   0.722  13.431  0.0386 -0.2872  0.0466
    2MPD2    C314303   3.993   0.783  13.510  0.4164 -0.5171  0.3073
    2MPD2    C414304   4.082   0.871  13.454 -0.1276 -0.5765  0.7470
    2MPD2    C514305   4.063   0.911  13.328  1.0561  0.3871 -0.2085
    2MPD2     H14306   3.829   0.650  13.477  1.6525 -1.2847  0.8133
    2MPD2    H114307   4.147   0.937  13.511  0.0232  0.4677 -0.6172
    2MPD2    H214308   3.972   0.871  13.139 -1.1255  1.5037  0.1629
    2MPD2    H314309   4.125   0.986  13.281  0.4546  1.1566  0.2324
    2MPD2     N14310   3.996   0.743  13.644  0.1982  0.3761 -0.1227
    2MPD2    H514311   3.927   0.679  13.682  1.2151 -2.5823 -3.2753
    2MPD2    N114312   3.791   0.692  13.219  0.7333 -0.6473  0.8226
    2MPD2    H714313   3.725   0.629  13.264  0.8451 -1.4348 -0.1069
    3TCq1    O114314   3.750   0.866  14.198 -0.4933 -0.8258  0.1268
    3TCq1    C114315   3.748   0.781  14.095  0.0830 -0.1936  0.6081
    3TCq1    O214316   3.656   0.764  14.016  0.0644  0.5003  0.0859
    3TCq1    C214317   3.885   0.748  14.049 -0.2317 -0.0081  0.1142
    3TCq1    C314318   3.988   0.749  14.134  0.0399  0.3783  0.2492
    3TCq1    C414319   4.117   0.729  14.089  0.0485 -0.1980 -0.0244
    3TCq1    C514320   4.148   0.731  13.960  1.2655 -0.1897 -0.2914
    3TCq1    C614321   4.044   0.751  13.868 -0.5687 -1.2436  1.0949
    3TCq1    C714322   3.910   0.744  13.916  0.3190 -0.3644 -0.0804
    3TCq1    C814323   4.085   0.786  13.735  0.0407  0.5800  0.1464
    3TCq1    O414324   4.198   0.826  13.713 -0.1335  0.0850 -0.1777
    3TCq1    C914325   4.225   0.704  14.179  0.0634  0.0986  0.0143
    3TCq1    O514326   4.334   0.658  14.134 -0.1920  0.0776  0.3848
    3TCq1    O614327   4.199   0.730  14.301 -0.3961 -0.3576 -0.0826
    3TCq1    H114328   3.836   0.860  14.246  0.0179 -2.1725 -0.9571
    3TCq1    H214329   3.969   0.737  14.240  0.2851 -1.2582  0.1125
    3TCq1    H314330   4.250   0.726  13.923  0.0725 -1.8919 -3.3941
    3TCq1    H414331   3.827   0.762  13.849  0.8661  0.1628 -0.6218
    1MPD2     C14332   3.364   1.156  15.231 -0.2392  0.2731  0.1537
    1MPD2    C114333   3.381   1.022  15.211 -0.0287 -0.1907 -0.6953
    1MPD2    C214334   3.510   0.965  15.246 -0.3992 -0.4284  0.3955
    1MPD2    C314335   3.606   1.043  15.291  0.5352  0.5504  0.3250
    1MPD2    C414336   3.588   1.180  15.312  0.8139 -0.5827 -0.6914
    1MPD2    C514337   3.463   1.238  15.278 -0.6533  0.5600 -0.8763
    1MPD2     H14338   3.532   0.861  15.223  0.2920  0.1265 -1.4207
    1MPD2    H114339   3.664   1.248  15.347 -0.5083 -0.1527  1.3600
    1MPD2    H214340   3.268   1.206  15.222 -0.7272 -1.0579 -1.8865
    1MPD2    H314341   3.450   1.345  15.291 -1.2057  0.5604 -1.3990
    1MPD2     N14342   3.729   0.982  15.330 -0.4973  0.3908  0.0886
    1MPD2    H514343   3.731   0.884  15.305 -2.1997  0.5985 -0.8478
    1MPD2    N114344   3.275   0.946  15.158  0.1653 -0.2450 -0.4684
    1MPD2    H714345   3.193   0.997  15.127  1.3510  0.8148 -1.8390
    2TMC3    C114346   3.188   0.747  15.065 -0.0481  0.1612 -0.2693
    2TMC3    C214347   3.199   0.609  15.063 -0.3225 -0.4056 -0.5761
    2TMC3    C314348   3.202   0.542  14.943 -0.5633  0.3852  1.0358
    2TMC3    C414349   3.158   0.814  14.948 -0.1680  0.7098  0.2963
    2TMC3    C514350   3.135   0.741  14.835 -0.0630 -0.1954 -0.9503
    2TMC3    C614351   3.153   0.606  14.833 -0.4346 -0.1968  0.1371
    2TMC3     C14352   3.277   0.809  15.154 -0.5563 -0.0753  0.8696
    2TMC3     O14353   3.360   0.730  15.182 -0.0125 -0.4540 -0.4558
    2TMC3     H14354   3.223   0.551  15.151  1.8628  0.2327 -0.7747
    2TMC3    H114355   3.125   0.917  14.943 -2.6816 -0.1903 -1.3438
    2TMC3    H214356   3.132   0.543  14.747 -0.0770  2.2286 -1.7238
    2TMC3    C714357   3.054   0.787  14.718  0.2637  0.3703 -0.3259
    2TMC3    C814358   3.318   0.463  14.912 -0.2647 -0.3498 -0.0287
    2TMC3    O114359   2.974   0.708  14.668 -0.4121  0.1061  0.1569
    2TMC3    O214360   3.326   0.394  14.810  0.4826  0.7456  0.2961
    3TCq1    O114361   2.847   1.934  14.354 -0.5493 -0.4112  0.7920
    3TCq1    C114362   2.877   1.868  14.248  0.1353  0.1928 -0.0038
    3TCq1    O214363   2.901   1.918  14.141 -0.1353  0.1014 -0.0113
    3TCq1    C214364   2.944   1.761  14.302 -0.0943  0.2763 -0.7921
    3TCq1    C314365   3.082   1.761  14.282  0.2619  0.1178  0.4612
    3TCq1    C414366   3.156   1.658  14.326 -0.1765 -0.7207 -0.5724
    3TCq1    C514367   3.095   1.562  14.399  0.1969  0.2382  0.5986
    3TCq1    C614368   2.958   1.570  14.425  0.0210 -0.5847 -0.1532
    3TCq1    C714369   2.883   1.675  14.380 -0.2475 -0.1898 -0.0489
    3TCq1    C814370   2.888   1.447  14.448 -0.2824  0.2335 -0.2362
    3TCq1    O414371   2.776   1.434  14.401  0.0163 -0.4578 -0.7703
    3TCq1    C914372   3.290   1.654  14.283  0.6911  0.7773 -0.6369
    3TCq1    O514373   3.330   1.721  14.185  0.0233 -0.3168 -0.0956
    3TCq1    O614374   3.370   1.607  14.367 -0.4200  0.2548  0.3839
    3TCq1    H114375   2.859   1.871  14.428  2.6749  0.5690  1.1349
    3TCq1    H214376   3.139   1.826  14.217 -0.1440 -0.4663 -0.4737
    3TCq1    H314377   3.156   1.474  14.418  1.0899  0.7199 -0.0093
    3TCq1    H414378   2.776   1.662  14.376 -0.0994 -1.4832 -0.0243
    4MPD2     C14379   2.792   1.171  14.494 -0.0020 -0.0614  0.4139
    4MPD2    C114380   2.917   1.218  14.533  0.0020  0.0635  0.1936
    4MPD2    C214381   3.005   1.138  14.605  1.0473 -0.1805  0.3636
    4MPD2    C314382   2.981   1.001  14.630 -0.3865  0.1393  0.3397
    4MPD2    C414383   2.855   0.956  14.593 -0.3866 -0.6340 -0.3825
    4MPD2    C514384   2.766   1.043  14.526 -0.0129 -0.1344  0.0356
    4MPD2     H14385   3.092   1.186  14.649  0.3639 -0.1273  1.6813
    4MPD2    H114386   2.818   0.855  14.608 -1.5619 -0.4224 -1.8318
    4MPD2    H214387   2.713   1.228  14.447  0.3873  0.9450  0.9836
    4MPD2    H314388   2.672   0.999  14.497  1.1394 -4.1012  2.3680
    4MPD2     N14389   3.074   0.920  14.693 -0.4640  0.0212  0.2686
    4MPD2    H514390   3.161   0.964  14.723 -0.4618 -1.4480  2.4003
    4MPD2    N114391   2.958   1.355  14.524 -0.2325 -0.2153  0.4706
    4MPD2    H714392   3.048   1.376  14.567  0.3374 -3.4214  0.9087
    5TMC2    C114393   3.955   0.712  15.337 -0.6556  0.5981 -0.9670
    5TMC2    C214394   4.059   0.738  15.256 -0.0515  0.4345  0.3677
    5TMC2    C314395   4.097   0.872  15.241 -0.5634  0.2003 -0.1691
    5TMC2    C414396   3.902   0.807  15.423  0.2339  0.3859  0.2148
    5TMC2    C514397   3.946   0.936  15.410  0.5837  0.3957  0.5092
    5TMC2    C614398   4.044   0.969  15.320  0.1332 -0.0687 -0.3914
    5TMC2     C14399   3.847   0.653  15.262 -0.2242  0.2439 -0.6269
    5TMC2     O14400   3.737   0.694  15.298  0.5370 -0.3520 -0.4821
    5TMC2     H14401   4.097   0.667  15.184  0.0256  0.6217  0.2233
    5TMC2    H114402   3.810   0.795  15.480  0.1185 -0.0166 -0.0558
    5TMC2    H214403   4.073   1.073  15.328  0.6158 -0.5555  4.4731
    5TMC2    C714404   3.840   1.034  15.392 -0.5066  0.1311  0.2184
    5TMC2    C814405   4.173   0.909  15.121 -0.5511  0.1810 -0.3463
    5TMC2    O114406   3.874   1.147  15.402 -0.4717 -0.0747  0.3944
    5TMC2    O214407   4.242   0.819  15.074  0.0479  0.6175 -0.0175
    5TMC2    O514408   4.207   1.039  15.127 -0.0459  0.0931 -0.3235
    5TMC2    H514409   4.144   1.105  15.163  2.7123  1.2873  2.2865
    6MPD2     C14410   3.601   0.376  14.909  0.2649  0.3149 -0.0209
    6MPD2    C114411   3.558   0.487  14.976 -0.0691 -0.0192 -0.6988
    6MPD2    C214412   3.650   0.552  15.056 -0.1028 -0.1157  0.1455
    6MPD2    C314413   3.785   0.514  15.066 -0.5348 -0.1162  0.0588
    6MPD2    C414414   3.825   0.414  14.987  0.0962  0.3705  0.6911
    6MPD2    C514415   3.731   0.342  14.915  0.3162  0.1677  0.3493
    6MPD2     H14416   3.605   0.629  15.117 -0.1226  1.0208 -1.3038
    6MPD2    H114417   3.926   0.375  14.988  0.6204  1.7528  0.7669
    6MPD2    H214418   3.541   0.304  14.854  0.7820 -1.2181  1.4095
    6MPD2    H314419   3.760   0.250  14.865  1.0696  0.3127  0.5074
    6MPD2     N14420   3.882   0.570  15.158  0.4208  0.4180  0.0954
    6MPD2    H514421   3.976   0.533  15.161  0.9314  1.4898 -2.1068
    6MPD2    N114422   3.423   0.529  14.978  0.2946 -0.0709  0.2849
    6MPD2    H714423   3.395   0.604  15.040 -1.2647  0.3614 -0.9468
  945NH4     N114424   1.200   1.155   8.464  0.2237 -0.5698  0.1854
  945NH4     H214425   1.278   1.088   8.448  1.4701  1.2960 -1.6059
  945NH4     H314426   1.217   1.246   8.417 -0.0494  0.4193  2.0241
  945NH4     H414427   1.197   1.167   8.567 -3.0622 -0.0565  0.0228
  945NH4     H514428   1.109   1.121   8.427  0.5017  0.1802 -1.1848
  946SOD     NA14429   0.980   3.869   0.731 -0.1993  0.3125 -0.1533
  947SOD     NA14430   4.007   3.125   0.210  0.2387 -0.1832  0.2279
  948SOD     NA14431   0.467   0.698   8.888 -0.2187 -0.1350  0.2073
  949SOD     NA14432   3.547   1.780  14.209  0.2768 -0.4652  0.1500
  950SOD     NA14433   3.953   1.988   1.184 -0.1431  0.3756 -0.0120
  951SOD     NA14434   3.120   0.748  10.959  0.4419 -0.0066 -0.0223
  952SOD     NA14435   1.861   0.404   2.153 -0.0185  0.1289  0.2155
  953SOD     NA14436   3.393   0.922  10.905 -0.0347  0.2905 -0.2198
  954SOD     NA14437   4.665   2.217  11.632 -0.1927 -0.2997 -0.1698
  955SOD     NA14438   0.976   2.305   6.835 -0.4984 -0.6303 -0.0098
  956SOD     NA14439   0.791   2.466  14.141 -0.1737  0.3437 -0.1039
  957SOD     NA14440   3.501   3.022   8.088 -0.0683  0.0542 -0.0561
  958SOD     NA14441   4.061   2.692  15.864  0.2824 -0.5333  0.2568
  959SOD     NA14442   2.749   2.211   7.401 -0.1403  0.5177 -0.1723
  960SOD     NA14443   2.890   0.325  12.927 -0.0358  0.6181  0.5770
  961SOD     NA14444   4.698   2.371   1.868 -0.5879  0.1271 -0.2083
  962SOD     NA14445   3.274   3.031   5.362 -0.3741  0.0126  0.2019
  963SOD     NA14446   1.831   3.742   0.248 -0.0989  0.1772  0.3492
  964SOD     NA14447   2.743   0.425  14.969 -0.2989 -0.1118  0.4919
  965SOD     NA14448   2.766   3.459   1.759 -0.0262  0.1312 -0.3770
  966SOD     NA14449   3.631   4.350  10.636 -0.3317 -0.2940 -0.2090
  967SOD     NA14450   2.162   0.442   3.911  0.2342  0.4119  0.2773
  968SOD     NA14451   4.041   0.647   9.222 -0.3431  0.2960 -0.1638
  969SOD     NA14452   2.173   0.483  16.239  0.1868 -0.3016 -0.0312
  970SOD     NA14453   1.323   0.959   1.271 -0.4398 -0.0074  0.3361
  971SOD     NA14454   4.433   0.471  11.601 -0.0661  0.1534  0.3984
  972SOD     NA14455   4.549   0.730  14.040  0.3214  0.2755 -0.3237
  973SOD     NA14456   4.212   0.600  11.431 -0.3656  0.2857 -0.4166
  974SOD     NA14457   3.944   4.243  11.859  0.2410  0.1394  0.2543
  975SOD     NA14458   3.460   4.135  10.504 -0.2526 -0.0413 -0.1149
  976SOD     NA14459   4.675   0.558  14.299 -0.0238 -0.1853  0.0072
  977SOD     NA14460   1.257   1.320  16.069 -0.0533 -0.1840 -0.2246
  978SOD     NA14461   2.003   3.575  13.825  0.3330 -0.0908 -0.3957
  979SOD     NA14462   4.634   3.408   1.400  0.0163  0.3524 -0.3677
  980SOD     NA14463   2.494   1.370  13.636  0.1694 -0.0303  0.4181
  981SOD     NA14464   1.978   1.475   2.044 -0.7073  0.2249 -0.2884
  982SOD     NA14465   3.197   3.576  10.410  0.0235  0.0380 -0.3193
  983SOD     NA14466   0.399   3.182  16.368 -0.3149  0.1794 -0.7970
  984SOD     NA14467   2.065   1.171   1.094 -0.0204 -0.2698 -0.3321
  985SOD     NA14468   2.843   0.319  11.294  0.3585  0.0377  0.0339
  986SOD     NA14469   3.566   0.520  15.658 -0.1404  0.4530  0.3288
  987SOD     NA14470   4.624   1.735  16.059 -0.0217  0.2663  0.0309
  988SOD     NA14471   0.168   2.622  17.336  0.4613  0.1391 -0.1335
  989SOD     NA14472   3.663   2.298  11.546  0.3564 -0.0359 -0.4474
  990SOD     NA14473   3.511   0.276   5.042 -0.1992  0.2263 -0.2109
  991SOD     NA14474   0.334   0.776  15.459 -0.3465 -0.0250 -0.5679
  992SOD     NA14475   0.662   1.338  12.953  0.1607  0.3351  0.0906
  993SOD     NA14476   4.662   0.277  14.185 -0.0946  0.1392 -0.5566
  994SOD     NA14477   0.495   0.061  12.860 -0.3240  0.8409 -0.1204
  995SOD     NA14478   0.968   0.486   4.395 -0.2961  0.3126 -0.2964
  996SOD     NA14479   3.199   1.393  12.719  0.0808 -0.2925  0.4771
  997SOD     NA14480   0.711   4.470   3.603  0.1178  0.2590  0.2801
  998SOD     NA14481   3.733   0.237  11.491 -0.0596  0.1028 -0.1641
  999SOD     NA14482   3.916   2.217  11.704  0.0497  0.3791 -0.5407
 1000SOD     NA14483   3.049   1.794   6.130  0.4020  0.2660 -0.4932
 1001SOD     NA14484   4.032   1.745  14.253  0.5163 -0.0734 -0.3605
 1002SOD     NA14485   2.096   0.033   9.719  0.1462 -0.6574  0.1655
 1003SOD     NA14486   3.922   4.390  10.379  0.0551 -0.4562 -0.6118
 1004SOD     NA14487   4.396   0.709  14.382 -0.0791 -0.4357 -0.3281
 1005SOD     NA14488   0.759   1.913  15.555 -0.0472  0.0287 -0.1312
 1006SOD     NA14489   3.749   4.642  10.492  0.0995  0.2738  0.3073
 1007SOD     NA14490   3.400   0.614   6.942  0.1339 -0.0855  0.1804
 1008SOD     NA14491   4.315   4.633  10.110 -0.0069  0.1766 -0.1177
 1009SOD     NA14492   0.575   1.774  10.904  0.0115 -0.3788  0.0616
 1010SOD     NA14493   3.133   1.813  10.460  0.4578 -0.1431  0.0310
 1011SOL     OW14494   3.406   1.727  14.583 -0.1165 -0.0819 -0.0059
 1011SOL    HW114495   3.383   1.690  14.498  0.3492 -0.8800  0.2143
 1011SOL    HW214496   3.401   1.643  14.630 -0.9292 -0.7127 -1.2283
 1012SOL     OW14497   0.193   0.445   9.363 -0.2053 -0.4317  0.0152
 1012SOL    HW114498   0.192   0.363   9.412  1.2765 -1.4257 -1.6334
 1012SOL    HW214499   0.280   0.483   9.371 -0.0373 -1.0477  1.1442
 1013SOL     OW14500   3.972   3.626   7.692  0.4056 -0.3614  0.0370
 1013SOL    HW114501   3.922   3.707   7.684  0.5635 -0.3810 -1.1709
 1013SOL    HW214502   3.912   3.574   7.745  0.3724 -1.3452 -0.9586
 1014SOL     OW14503   1.110   0.540   9.178 -0.1862  0.0012  0.0976
 1014SOL    HW114504   1.095   0.449   9.207  1.0267 -0.7173 -1.5141
 1014SOL    HW214505   1.080   0.586   9.256 -0.1538  0.6286 -0.2596
 1015SOL     OW14506   0.819   3.585  10.396 -0.5777  0.1592  0.0195
 1015SOL    HW114507   0.763   3.612  10.469 -2.4135 -1.4791 -0.7555
 1015SOL    HW214508   0.756   3.623  10.334 -1.2585 -0.8456  0.0876
 1016SOL     OW14509   4.187   2.985   4.955 -0.4775 -0.1262  0.1581
 1016SOL    HW114510   4.258   2.958   5.013  0.7836  2.6736 -0.0436
 1016SOL    HW214511   4.111   2.932   4.976  1.3156 -2.4350  0.8321
 1017SOL     OW14512   2.276   0.645  11.293  0.3580  0.3156  0.1644
 1017SOL    HW114513   2.277   0.578  11.361 -1.6182 -0.2169 -0.3213
 1017SOL    HW214514   2.192   0.628  11.250 -0.2916  2.2144  0.6723
 1018SOL     OW14515   1.198   0.370   5.909  0.1684  0.2579 -0.3635
 1018SOL    HW114516   1.134   0.439   5.922  0.4221  0.3483  0.3526
 1018SOL    HW214517   1.279   0.409   5.940  0.2072  0.6475 -0.9430
 1019SOL     OW14518   3.044   3.243   4.183 -0.2483 -0.0299 -0.0334
 1019SOL    HW114519   3.078   3.166   4.137  2.3881  2.8727 -2.8839
 1019SOL    HW214520   3.086   3.319   4.144  1.7337 -2.2758 -2.2688
 1020SOL     OW14521   1.907   0.060  13.013  0.2364 -0.0072  0.6078
 1020SOL    HW114522   1.933   0.144  13.052  0.2991 -0.9988  2.7390
 1020SOL    HW214523   1.991   0.019  13.034 -0.7798 -2.3272  0.1323
 1021SOL     OW14524   1.954   2.628   4.360 -0.1233  0.2554 -0.6199
 1021SOL    HW114525   1.917   2.542   4.340  0.7858 -0.1110 -0.7497
 1021SOL    HW214526   1.913   2.653   4.443 -0.1216  3.0949 -1.4726
 1022SOL     OW14527   2.834   0.036   8.618 -0.2225 -0.3649  0.2233
 1022SOL    HW114528   2.914   0.043   8.671 -1.0554 -0.6012  1.5096
 1022SOL    HW214529   2.778   0.099   8.663  0.8623 -2.2129  4.1610
 1023SOL     OW14530   0.160   2.101   6.148  0.1289  0.0980  0.3149
 1023SOL    HW114531   0.135   2.154   6.224  1.1436 -1.4054  1.7177
 1023SOL    HW214532   0.149   2.169   6.081 -0.9202 -0.4623 -0.0780
 1024SOL     OW14533   4.299   1.523   5.558  0.1077  0.7663  0.2843
 1024SOL    HW114534   4.318   1.566   5.641  2.0720  0.2600  0.1164
 1024SOL    HW214535   4.229   1.462   5.581 -0.4076  0.9926 -0.6581
 1025SOL     OW14536   1.740   2.436   1.891  0.5690 -0.4637  0.1716
 1025SOL    HW114537   1.728   2.355   1.941  2.8265 -0.6648  0.3985
 1025SOL    HW214538   1.740   2.404   1.801  0.8555  1.6280 -0.5687
 1026SOL     OW14539   0.142   0.237   6.476 -0.5450 -0.2782 -0.0572
 1026SOL    HW114540   0.057   0.255   6.436 -0.9724 -3.9435 -0.7587
 1026SOL    HW214541   0.128   0.147   6.506 -1.7685 -0.6564 -1.7480
 1027SOL     OW14542   0.785   2.818   5.566 -0.3304 -0.9560  0.2583
 1027SOL    HW114543   0.752   2.732   5.541  0.0114 -0.9524 -0.2002
 1027SOL    HW214544   0.873   2.806   5.532 -0.6675  0.3780 -1.1105
 1028SOL     OW14545   3.332   1.147   8.309 -0.0429  0.0269  0.2370
 1028SOL    HW114546   3.351   1.106   8.225 -0.2083  0.8921 -0.2133
 1028SOL    HW214547   3.342   1.076   8.373 -1.6200 -1.1410 -0.8389
 1029SOL     OW14548   2.714   3.100   3.616  0.3100 -0.3578  0.2659
 1029SOL    HW114549   2.660   3.027   3.585 -0.3243  1.7109 -3.4730
 1029SOL    HW214550   2.732   3.145   3.534 -0.5911 -0.8348 -0.1989
 1030SOL     OW14551   0.687   2.431   0.527 -0.2535  0.4097 -0.8295
 1030SOL    HW114552   0.717   2.508   0.574  0.2734 -0.1775 -0.1945
 1030SOL    HW214553   0.620   2.403   0.591  1.9487  1.1813  1.8151
 1031SOL     OW14554   4.681   4.611   1.948 -0.1376 -0.1678 -0.2176
 1031SOL    HW114555   4.690   4.624   2.043  4.1297 -0.8186 -0.5266
 1031SOL    HW214556   0.046   4.630   1.923 -0.1929  0.4653  0.0646
 1032SOL     OW14557   0.899   2.247   4.734 -0.3857 -0.5963  0.2381
 1032SOL    HW114558   0.831   2.243   4.800 -2.1253 -0.7348 -1.5525
 1032SOL    HW214559   0.861   2.314   4.677  0.0167  1.3442  2.2531
 1033SOL     OW14560   2.273   3.720   8.759  0.0868  0.1359  0.2488
 1033SOL    HW114561   2.238   3.771   8.832  0.5173  0.7738  0.0124
 1033SOL    HW214562   2.249   3.633   8.791 -0.4681  0.4712  0.7262
 1034SOL     OW14563   2.014   2.674  16.524 -0.1966  0.7040 -0.0639
 1034SOL    HW114564   1.929   2.631  16.509  0.3694 -0.2396 -0.5278
 1034SOL    HW214565   2.038   2.637  16.609  0.1640  1.4967  0.1812
 1035SOL     OW14566   0.069   3.492   0.307 -0.0382 -0.5422 -0.0743
 1035SOL    HW114567   0.045   3.534   0.389 -0.9153 -0.4278 -0.3825
 1035SOL    HW214568   0.026   3.552   0.246  1.8292 -0.4280 -1.2700
 1036SOL     OW14569   4.579   2.129   3.076 -0.3517  0.1732  0.2429
 1036SOL    HW114570   4.667   2.158   3.052 -0.1822 -0.7240 -0.2313
 1036SOL    HW214571   4.606   2.071   3.147  0.8058  1.6891  1.0505
 1037SOL     OW14572   2.259   2.123  13.817 -0.0515  0.5194  0.2062
 1037SOL    HW114573   2.314   2.149  13.891  1.2327  0.2112 -0.6345
 1037SOL    HW214574   2.202   2.199  13.802  0.8520  1.6525  2.5360
 1038SOL     OW14575   1.767   0.417   5.377 -0.2074 -0.1735 -0.2579
 1038SOL    HW114576   1.675   0.417   5.350  0.5007 -1.7233 -2.6663
 1038SOL    HW214577   1.810   0.355   5.318  0.9504  1.3254 -0.9979
 1039SOL     OW14578   0.061   3.868  11.554  0.4674  0.1900  0.1696
 1039SOL    HW114579   4.698   3.855  11.521 -0.6410 -0.3493  3.4201
 1039SOL    HW214580   0.067   3.806  11.627 -2.3610  1.4045  1.4161
 1040SOL     OW14581   4.412   1.522  17.046  0.6515 -0.1304  0.1892
 1040SOL    HW114582   4.437   1.564  16.964 -0.9030  0.6814  0.1404
 1040SOL    HW214583   4.408   1.431  17.015 -2.9682 -0.6671  2.2579
 1041SOL     OW14584   4.422   2.190   3.310 -0.0255 -0.4390 -0.2823
 1041SOL    HW114585   4.437   2.196   3.215  0.4424  0.8404 -0.1331
 1041SOL    HW214586   4.332   2.221   3.312  0.8057  2.0820 -1.5710
 1042SOL     OW14587   1.754   2.596   0.173 -0.3388 -0.4567 -0.0156
 1042SOL    HW114588   1.815   2.656   0.129 -0.5821  0.2969  0.6584
 1042SOL    HW214589   1.681   2.656   0.188  0.9069  1.2159 -0.6176
 1043SOL     OW14590   4.503   0.885  11.205 -0.9031  0.0231 -0.0984
 1043SOL    HW114591   4.592   0.850  11.214 -0.8293  0.8382  2.3468
 1043SOL    HW214592   4.492   0.920  11.294  0.2463 -1.5920  0.6741
 1044SOL     OW14593   0.967   3.771  13.263  0.0222 -0.0926 -0.3370
 1044SOL    HW114594   0.906   3.703  13.233 -0.5033 -0.4429  1.5249
 1044SOL    HW214595   0.963   3.748  13.356  3.2165  1.1301  0.0994
 1045SOL     OW14596   0.134   2.130   6.704  0.5566  0.4102  0.2058
 1045SOL    HW114597   0.155   2.044   6.741 -1.9466  0.0336  0.7966
 1045SOL    HW214598   0.215   2.181   6.708  0.7323  0.1152  0.3726
 1046SOL     OW14599   1.825   2.596   4.095  0.5949  0.5385  0.2556
 1046SOL    HW114600   1.917   2.598   4.118  0.5660  0.4930  0.3757
 1046SOL    HW214601   1.788   2.673   4.139 -0.4945 -1.1359  2.2646
 1047SOL     OW14602   2.090   1.966   2.328 -0.1223  0.1538 -0.1951
 1047SOL    HW114603   2.066   1.984   2.418  1.5029 -1.0887  0.4925
 1047SOL    HW214604   2.185   1.954   2.329 -0.0240  0.7753 -2.1399
 1048SOL     OW14605   1.279   3.122   4.901 -0.2640 -0.6598 -1.0268
 1048SOL    HW114606   1.184   3.132   4.909  0.0698 -0.4853  2.6080
 1048SOL    HW214607   1.300   3.214   4.917  1.8114 -1.2093 -0.5007
 1049SOL     OW14608   1.892   2.930   4.298 -0.1578  0.0029 -0.1923
 1049SOL    HW114609   1.899   3.002   4.361  0.0624 -0.2796  0.1055
 1049SOL    HW214610   1.951   2.862   4.329 -1.0036  0.3612  2.2342
 1050SOL     OW14611   1.491   3.073   4.152 -0.2648 -0.2066  0.3231
 1050SOL    HW114612   1.437   3.104   4.225  0.8953 -0.1356  1.1685
 1050SOL    HW214613   1.432   3.027   4.093  0.0379  1.9952 -1.6822
 1051SOL     OW14614   1.057   1.844   3.524  0.6344 -0.1103  0.0020
 1051SOL    HW114615   1.130   1.884   3.572  1.4137 -0.2543 -1.0785
 1051SOL    HW214616   1.002   1.919   3.502 -0.5832 -1.0006  0.0174
 1052SOL     OW14617   4.192   4.284  12.192  0.2514 -0.3479 -0.1053
 1052SOL    HW114618   4.130   4.280  12.265  0.9585 -0.8211  0.4649
 1052SOL    HW214619   4.259   4.347  12.217  2.5127 -2.3758 -1.1182
 1053SOL     OW14620   4.111   2.757   8.890 -0.4465  0.1581 -0.4378
 1053SOL    HW114621   4.077   2.846   8.900 -0.8396  0.1105 -1.3941
 1053SOL    HW214622   4.205   2.772   8.893 -0.0403 -2.7127  2.0966
 1054SOL     OW14623   2.839   3.237   9.290  0.0639 -0.1029 -0.1933
 1054SOL    HW114624   2.783   3.257   9.364 -1.5026  0.1546 -1.4484
 1054SOL    HW214625   2.815   3.298   9.220 -1.9477 -0.6367  0.0508
 1055SOL     OW14626   0.742   4.506   3.392  0.2327 -0.2062  0.2181
 1055SOL    HW114627   0.826   4.497   3.347 -0.3383 -1.5154 -0.5965
 1055SOL    HW214628   0.677   4.479   3.327  1.5787  0.7227 -1.5011
 1056SOL     OW14629   1.420   3.433  13.240 -0.4198  0.3016 -0.0338
 1056SOL    HW114630   1.352   3.496  13.215 -2.0238 -1.5117 -0.2426
 1056SOL    HW214631   1.493   3.476  13.197  0.1097 -0.8277 -0.2678
 1057SOL     OW14632   0.030   4.223  14.910  0.5350  0.1484  0.5718
 1057SOL    HW114633   0.080   4.226  14.828  2.2498 -0.7748  1.6098
 1057SOL    HW214634   0.054   4.139  14.947  0.1244 -0.6431 -0.9460
 1058SOL     OW14635   1.101   1.965  17.583  0.7771  0.3602 -0.4251
 1058SOL    HW114636   1.119   1.895  17.521 -0.0378 -0.3108  0.0974
 1058SOL    HW214637   1.171   1.936  17.640  1.2103  1.1525 -0.5507
 1059SOL     OW14638   0.087   2.487  11.897  0.5216  0.6758 -0.1822
 1059SOL    HW114639   0.050   2.517  11.980  0.3887  0.0758 -0.0234
 1059SOL    HW214640   0.168   2.538  11.898  0.5446  0.6086  0.8947
 1060SOL     OW14641   3.833   1.742  13.603  0.5312 -0.2108  0.2088
 1060SOL    HW114642   3.914   1.713  13.562 -0.2701 -1.9037 -0.1501
 1060SOL    HW214643   3.814   1.814  13.542  0.2828  1.6788  2.4937
 1061SOL     OW14644   4.700   1.134   0.544 -0.1507 -0.2193 -0.6386
 1061SOL    HW114645   4.721   1.101   0.632  2.6013 -1.4889 -1.7761
 1061SOL    HW214646   4.709   1.057   0.488  1.4042 -0.8698  0.4942
 1062SOL     OW14647   3.153   0.459   2.453 -0.7775  0.2597  0.1213
 1062SOL    HW114648   3.167   0.533   2.393  1.7761 -0.1576  0.1851
 1062SOL    HW214649   3.232   0.405   2.447  0.3007  1.6522  1.6438
 1063SOL     OW14650   2.451   4.631   4.760 -0.3812 -0.1348  0.6298
 1063SOL    HW114651   2.438   4.557   4.701 -0.9571  0.0691  0.4945
 1063SOL    HW214652   2.373   4.683   4.742 -0.3172 -0.7367 -1.4284
 1064SOL     OW14653   2.240   1.771  12.269 -0.0485  0.5637 -0.4179
 1064SOL    HW114654   2.222   1.696  12.326  1.8324 -0.1224 -0.7257
 1064SOL    HW214655   2.334   1.754  12.261 -0.1519  1.2739 -3.0804
 1065SOL     OW14656   1.873   3.156   7.202  0.3324 -0.0061  0.5355
 1065SOL    HW114657   1.878   3.246   7.233  0.6739  0.9654 -2.4408
 1065SOL    HW214658   1.820   3.175   7.125  2.7049  1.2166 -0.7737
 1066SOL     OW14659   3.620   1.977   0.944 -0.4806 -0.5887  0.0361
 1066SOL    HW114660   3.680   2.024   1.002  0.9750 -0.2451 -1.7057
 1066SOL    HW214661   3.619   1.897   0.995 -3.2111 -1.0558 -0.7479
 1067SOL     OW14662   2.490   0.859   5.345 -0.2678  0.0665 -0.4318
 1067SOL    HW114663   2.570   0.814   5.372 -1.7576 -2.9891 -1.0388
 1067SOL    HW214664   2.492   0.940   5.397 -0.1817  0.9081 -1.7480
 1068SOL     OW14665   2.810   1.693   2.940  0.0539  0.1223 -0.4894
 1068SOL    HW114666   2.742   1.681   2.874  0.1388  1.1270 -0.7604
 1068SOL    HW214667   2.870   1.619   2.931  1.1521  0.9229  0.1622
 1069SOL     OW14668   2.965   3.205   8.833 -0.1626  0.0170  0.0095
 1069SOL    HW114669   2.904   3.167   8.897 -0.0080  0.7135  0.5688
 1069SOL    HW214670   2.960   3.300   8.840  0.5899  0.0478  0.1444
 1070SOL     OW14671   2.070   3.050  10.757 -0.0104  0.0416 -0.0977
 1070SOL    HW114672   2.013   3.103  10.702 -0.1564 -0.3748 -0.3541
 1070SOL    HW214673   2.131   3.013  10.693  0.2052 -0.8817  0.6406
 1071SOL     OW14674   0.235   2.621   5.119 -0.7049  0.2981  0.6022
 1071SOL    HW114675   0.314   2.599   5.167 -1.0089  0.8070  1.3390
 1071SOL    HW214676   0.202   2.694   5.171 -2.0490  0.7629 -0.8943
 1072SOL     OW14677   3.872   0.416   6.175 -0.7148 -0.2349  0.5868
 1072SOL    HW114678   3.783   0.386   6.197 -0.7691 -0.4270  0.1147
 1072SOL    HW214679   3.910   0.331   6.152  0.0832  0.2950 -0.0383
 1073SOL     OW14680   1.541   3.255   3.052  0.6677 -0.1043 -0.2687
 1073SOL    HW114681   1.445   3.247   3.052  0.7283 -0.8161  0.6681
 1073SOL    HW214682   1.558   3.327   3.113  0.9622 -0.3785 -0.0264
 1074SOL     OW14683   1.902   1.324  10.264 -0.5395 -0.1036  0.0472
 1074SOL    HW114684   1.919   1.354  10.353 -0.4766  1.9288 -0.6485
 1074SOL    HW214685   1.989   1.317  10.224 -0.6699  0.7608 -0.3829
 1075SOL     OW14686   4.087   1.170  13.144 -0.0410 -0.2805  0.0049
 1075SOL    HW114687   3.999   1.203  13.161 -1.3029 -3.8944  0.4044
 1075SOL    HW214688   4.144   1.228  13.195 -1.4814 -0.3472  1.6754
 1076SOL     OW14689   4.654   0.228  13.954  0.4055  0.1277 -0.0152
 1076SOL    HW114690   4.642   0.140  13.917 -0.5657  0.7082 -1.1139
 1076SOL    HW214691   4.577   0.272  13.918  1.1609  0.0417 -1.7552
 1077SOL     OW14692   2.841   1.873   9.833 -0.2388 -0.8290  0.5656
 1077SOL    HW114693   2.752   1.895   9.861  0.0550  1.6740 -0.4258
 1077SOL    HW214694   2.898   1.878   9.910 -0.2131  5.1928  0.1414
 1078SOL     OW14695   2.507   2.174   8.732  0.1338  0.1252  0.5179
 1078SOL    HW114696   2.439   2.109   8.721  1.3772 -0.8102 -1.5862
 1078SOL    HW214697   2.530   2.194   8.641  3.6299 -0.5931  1.2322
 1079SOL     OW14698   1.881   3.539   5.056  0.3478  0.4124 -0.3395
 1079SOL    HW114699   1.920   3.458   5.023 -1.1257 -0.0568 -0.9110
 1079SOL    HW214700   1.911   3.611   5.001  2.7734  0.3398  0.9087
 1080SOL     OW14701   1.501   2.110   3.946  0.2209 -0.2675 -0.3241
 1080SOL    HW114702   1.480   2.060   4.025 -0.1632 -1.1211 -0.9709
 1080SOL    HW214703   1.540   2.048   3.884  4.1834  0.5572  1.3000
 1081SOL     OW14704   2.976   0.655   8.252  0.1732 -0.2502 -0.1008
 1081SOL    HW114705   2.924   0.575   8.240  1.1206 -0.8263 -0.3771
 1081SOL    HW214706   3.061   0.624   8.221  0.8057  0.7246  0.6931
 1082SOL     OW14707   0.757   0.130  16.996 -0.6251  0.0206 -0.3406
 1082SOL    HW114708   0.694   0.150  17.065 -3.1270 -0.4530 -2.4944
 1082SOL    HW214709   0.789   0.218  16.973 -2.7439  0.9048  0.0909
 1083SOL     OW14710   2.689   1.232   9.260  0.0226 -0.3195  0.2144
 1083SOL    HW114711   2.636   1.301   9.300 -0.7062 -1.2570  0.8542
 1083SOL    HW214712   2.770   1.278   9.280  0.5517 -1.3082  0.3371
 1084SOL     OW14713   2.973   4.301   4.059 -0.2310  0.4898 -0.2882
 1084SOL    HW114714   2.937   4.230   4.006 -0.8234  0.2562  0.4175
 1084SOL    HW214715   2.904   4.364   4.040  0.9381  1.9915  0.4405
 1085SOL     OW14716   3.024   1.125   9.668 -0.4152  0.1885  0.3038
 1085SOL    HW114717   2.936   1.160   9.682 -0.5837 -1.0807  2.2775
 1085SOL    HW214718   3.073   1.125   9.750  0.5608  2.3897 -0.2729
 1086SOL     OW14719   3.166   2.569   9.458 -0.2482 -0.1394  0.3584
 1086SOL    HW114720   3.255   2.548   9.429  0.4036  1.6700  1.0508
 1086SOL    HW214721   3.140   2.651   9.415 -1.1645 -0.3878  0.4425
 1087SOL     OW14722   4.035   3.083   3.841  0.7182  0.3822 -0.5159
 1087SOL    HW114723   4.055   3.141   3.768  0.1033  0.6377 -0.4803
 1087SOL    HW214724   3.950   3.049   3.814  0.5622  1.6270 -1.5689
 1088SOL     OW14725   4.328   3.627   2.303 -0.2585 -0.6767  0.4476
 1088SOL    HW114726   4.403   3.572   2.322 -0.4083 -0.9399  0.2769
 1088SOL    HW214727   4.268   3.597   2.371  1.5688 -2.3233  1.2850
 1089SOL     OW14728   2.354   3.457  16.450 -0.5111  0.0500 -0.3327
 1089SOL    HW114729   2.356   3.363  16.466  1.4174  0.3688  1.2688
 1089SOL    HW214730   2.268   3.476  16.413  0.3261  3.6389 -0.4391
 1090SOL     OW14731   0.456   3.104   7.374  0.1168 -0.2138 -0.0791
 1090SOL    HW114732   0.409   3.115   7.456  0.6500 -0.0588  0.2031
 1090SOL    HW214733   0.519   3.176   7.377  1.2244 -1.1490 -0.8701
 1091SOL     OW14734   0.552   2.976  10.152  0.1666 -0.1252  0.6661
 1091SOL    HW114735   0.574   2.994  10.061  1.0055 -1.4493  0.6116
 1091SOL    HW214736   0.489   3.048  10.160  1.2352  0.5267  3.4143
 1092SOL     OW14737   3.963   4.140   5.230  0.5250 -0.3553  0.2612
 1092SOL    HW114738   4.009   4.057   5.219  0.7655 -0.0524 -0.9800
 1092SOL    HW214739   3.892   4.105   5.285 -0.3979 -0.3528 -0.9445
 1093SOL     OW14740   0.044   3.502   5.765 -0.0242  0.1436  0.0431
 1093SOL    HW114741   0.121   3.555   5.781  0.3439 -1.0328  2.1052
 1093SOL    HW214742   4.689   3.554   5.753  0.1063 -0.2813 -2.6240
 1094SOL     OW14743   3.049   4.679   6.635 -0.7826 -0.1422  0.0578
 1094SOL    HW114744   3.042   0.002   6.553  2.0774 -1.0921 -0.7426
 1094SOL    HW214745   3.053   4.587   6.607  0.8420  0.2583 -0.9967
 1095SOL     OW14746   1.391   3.678   2.742 -0.5568 -0.3711  0.6357
 1095SOL    HW114747   1.359   3.751   2.795 -1.4354 -1.1217  1.1342
 1095SOL    HW214748   1.395   3.714   2.653 -1.4220  0.3565  0.8962
 1096SOL     OW14749   4.647   4.067   2.329  0.1561 -0.6081  0.1680
 1096SOL    HW114750   4.699   3.995   2.365 -0.1863 -1.1160 -0.3521
 1096SOL    HW214751   4.643   4.032   2.240 -1.3429  2.2037 -0.8646
 1097SOL     OW14752   2.806   2.753   3.771 -0.6658 -0.0116  0.7110
 1097SOL    HW114753   2.713   2.764   3.750 -0.8326  0.4422  1.6969
 1097SOL    HW214754   2.813   2.658   3.767  0.6792  0.2351 -2.5919
 1098SOL     OW14755   2.128   4.142   5.954  0.6683  0.3621 -0.5888
 1098SOL    HW114756   2.112   4.234   5.937  0.1175  0.3023 -0.3957
 1098SOL    HW214757   2.221   4.142   5.930  1.2139 -0.6109  1.5553
 1099SOL     OW14758   4.352   0.070   4.147  0.5601  0.1370 -0.4235
 1099SOL    HW114759   4.373   0.154   4.105  0.6408 -1.6420 -3.9286
 1099SOL    HW214760   4.286   0.042   4.084  0.3104 -0.9456  0.3190
 1100SOL     OW14761   2.110   2.045   2.861 -0.0706 -0.6682 -0.5681
 1100SOL    HW114762   2.136   2.085   2.943  1.3599 -1.8943 -0.4115
 1100SOL    HW214763   2.197   2.016   2.831 -0.1456 -0.9560 -0.5096
 1101SOL     OW14764   2.492   1.671  16.829  0.2620 -0.7239 -0.1233
 1101SOL    HW114765   2.585   1.651  16.841 -0.1948 -2.5239  0.4327
 1101SOL    HW214766   2.457   1.619  16.902  0.2203  0.3560  0.6287
 1102SOL     OW14767   3.361   3.527   3.515 -0.5124  0.0245  0.1387
 1102SOL    HW114768   3.330   3.492   3.598  0.6325 -1.4580 -0.0602
 1102SOL    HW214769   3.291   3.591   3.499 -1.4888 -1.2798 -0.8556
 1103SOL     OW14770   4.662   4.461  15.961 -0.2812 -0.3753  0.3063
 1103SOL    HW114771   4.700   4.458  16.049  0.6074  1.7223 -0.0018
 1103SOL    HW214772   4.640   4.554  15.959  1.6762  0.1465  3.1763
 1104SOL     OW14773   2.796   2.367   7.537  0.0264  0.1973 -0.3087
 1104SOL    HW114774   2.764   2.433   7.598 -1.1804  2.3429 -3.2975
 1104SOL    HW214775   2.877   2.342   7.583 -0.5569 -1.6538 -0.2762
 1105SOL     OW14776   3.137   4.235   9.753  0.3445  0.2868 -0.2302
 1105SOL    HW114777   3.054   4.191   9.769 -0.2623  0.1906 -3.6761
 1105SOL    HW214778   3.142   4.290   9.831 -0.2531  0.6797 -0.4714
 1106SOL     OW14779   4.705   2.146   3.366  0.1519  0.2926  0.1362
 1106SOL    HW114780   4.660   2.061   3.362 -0.4277  0.6722 -1.3111
 1106SOL    HW214781   4.640   2.205   3.330  2.2616  1.9162 -1.0325
 1107SOL     OW14782   2.213   0.601   1.078 -0.6079 -0.1953 -0.6206
 1107SOL    HW114783   2.158   0.550   1.137  0.3407  1.2251  1.5153
 1107SOL    HW214784   2.249   0.521   1.040 -1.9133 -0.2733 -1.6819
 1108SOL     OW14785   4.448   2.335  10.216 -0.3387 -0.4555  0.5459
 1108SOL    HW114786   4.455   2.369  10.305 -0.5037 -2.5914  1.3614
 1108SOL    HW214787   4.373   2.385  10.183 -0.4557  0.0794  1.6003
 1109SOL     OW14788   0.174   2.513   8.829  0.3762  0.6748 -0.6842
 1109SOL    HW114789   0.127   2.451   8.885  1.7960 -0.3353 -0.6048
 1109SOL    HW214790   0.162   2.588   8.886 -0.6115 -0.1288  0.1682
 1110SOL     OW14791   3.520   4.366   6.354  0.7950  0.1998  0.7852
 1110SOL    HW114792   3.581   4.309   6.307  0.2191 -1.4728  2.0665
 1110SOL    HW214793   3.474   4.405   6.280  0.8723 -1.0799  0.0579
 1111SOL     OW14794   3.821   0.900   9.502 -0.0841 -0.2080 -0.4222
 1111SOL    HW114795   3.737   0.930   9.536  1.2502  0.0956  2.6762
 1111SOL    HW214796   3.863   0.985   9.514  1.9808 -0.7675 -3.6558
 1112SOL     OW14797   2.903   3.622   1.377 -0.0875  0.4619  0.2405
 1112SOL    HW114798   2.935   3.549   1.324  1.8608 -0.2233  2.3512
 1112SOL    HW214799   2.862   3.684   1.317 -1.8170 -0.5082  0.4385
 1113SOL     OW14800   1.523   0.075  14.109 -0.2197 -0.3211 -0.2047
 1113SOL    HW114801   1.467   4.724  14.122 -0.7472  0.2548  0.8989
 1113SOL    HW214802   1.505   0.091  14.016 -2.1954 -0.3111  0.1864
 1114SOL     OW14803   4.054   3.668   5.846  0.1755 -0.0495  0.7690
 1114SOL    HW114804   4.077   3.613   5.771  0.0611 -1.1057  1.4972
 1114SOL    HW214805   4.083   3.751   5.809  1.0917 -1.8724 -2.5839
 1115SOL     OW14806   2.349   0.366   3.807 -0.6152  0.1769 -0.6065
 1115SOL    HW114807   2.359   0.384   3.713 -0.5280  0.5348 -0.5281
 1115SOL    HW214808   2.436   0.338   3.835 -1.4685 -0.6846  1.2127
 1116SOL     OW14809   1.564   2.795   6.452  0.1348 -1.1323 -0.6509
 1116SOL    HW114810   1.496   2.801   6.385 -0.8479  2.1983  0.6760
 1116SOL    HW214811   1.578   2.700   6.453 -0.6597 -1.2511 -0.9779
 1117SOL     OW14812   0.960   0.573   5.621 -0.1884 -0.0389  0.2552
 1117SOL    HW114813   0.973   0.489   5.665  1.0616 -0.0468 -0.1424
 1117SOL    HW214814   0.934   0.636   5.689 -0.2229 -1.7057  1.8004
 1118SOL     OW14815   3.768   2.248   6.907 -0.8007  0.5267 -0.2676
 1118SOL    HW114816   3.802   2.162   6.929 -0.9610  0.6058  0.2836
 1118SOL    HW214817   3.790   2.295   6.988  0.2967 -1.4340  0.5519
 1119SOL     OW14818   0.862   1.714   7.474 -0.0421 -0.2789 -0.2857
 1119SOL    HW114819   0.790   1.775   7.491  1.7685  1.4960  1.0592
 1119SOL    HW214820   0.856   1.704   7.379 -0.6810  0.3838 -0.3229
 1120SOL     OW14821   1.103   1.879   4.724  0.3624  0.2618 -0.2651
 1120SOL    HW114822   1.188   1.893   4.766  0.8220  1.9690 -1.7569
 1120SOL    HW214823   1.097   1.785   4.704  0.1586 -0.1262  1.6493
 1121SOL     OW14824   1.779   0.748   3.464 -0.3336 -0.5113  0.1513
 1121SOL    HW114825   1.840   0.783   3.529 -1.2504  2.3913 -0.5464
 1121SOL    HW214826   1.811   0.796   3.387 -1.1156  1.1754  0.8733
 1122SOL     OW14827   3.105   2.964   2.300  0.8708 -0.0535  0.7479
 1122SOL    HW114828   3.130   2.887   2.248 -1.8697  1.3621 -2.6143
 1122SOL    HW214829   3.152   3.033   2.253  1.4069  0.8281  2.5806
 1123SOL     OW14830   2.862   2.696  12.581 -0.1090  0.3698 -0.4972
 1123SOL    HW114831   2.773   2.714  12.612 -0.8929 -2.5217 -1.0450
 1123SOL    HW214832   2.868   2.601  12.586 -3.3026  0.2144  0.4524
 1124SOL     OW14833   3.904   3.906   1.201 -0.2465  0.5449 -0.5668
 1124SOL    HW114834   3.889   3.931   1.292  2.2675 -0.7598  0.2222
 1124SOL    HW214835   3.816   3.871   1.188 -0.2408 -0.0976  1.1249
 1125SOL     OW14836   1.218   0.263   0.279  0.3592 -0.4010  0.1159
 1125SOL    HW114837   1.262   0.213   0.211  0.1936  1.0235 -1.0369
 1125SOL    HW214838   1.291   0.266   0.340 -0.3477  1.0789  0.8845
 1126SOL     OW14839   3.015   2.068   4.952  0.2317  0.0706  0.0118
 1126SOL    HW114840   3.102   2.066   4.913 -0.4016  1.2905 -1.4799
 1126SOL    HW214841   2.966   2.123   4.890 -0.2711 -0.0723  0.2829
 1127SOL     OW14842   4.638   3.795   6.191  0.3744 -0.3573  1.0330
 1127SOL    HW114843   4.594   3.721   6.233  0.1210 -0.2705  0.9180
 1127SOL    HW214844   4.558   3.846   6.180  1.3375  0.8306 -0.5136
 1128SOL     OW14845   0.028   3.951  16.760 -0.0167 -0.1916  0.5508
 1128SOL    HW114846   0.066   4.021  16.813 -0.1283  1.0360 -0.9976
 1128SOL    HW214847   4.713   3.902  16.832 -0.8534 -0.4085 -0.0673
 1129SOL     OW14848   3.537   3.804  14.155 -0.5919  0.1357 -0.3480
 1129SOL    HW114849   3.451   3.846  14.151 -1.5808 -2.0443 -1.3912
 1129SOL    HW214850   3.547   3.788  14.061  1.9516 -0.0876 -0.0545
 1130SOL     OW14851   1.630   1.890   2.221 -0.5450 -0.0297  0.6415
 1130SOL    HW114852   1.608   1.866   2.311  0.8366 -1.3422  0.6171
 1130SOL    HW214853   1.577   1.971   2.220 -1.2264 -0.4712  0.6600
 1131SOL     OW14854   0.206   1.649   7.498 -0.6564 -0.0327 -0.5665
 1131SOL    HW114855   0.288   1.689   7.528 -0.0901 -1.5407 -0.0822
 1131SOL    HW214856   0.247   1.581   7.445 -1.0989 -0.0897 -0.8361
 1132SOL     OW14857   3.921   0.282  13.227 -0.2765  0.0492  0.2495
 1132SOL    HW114858   3.993   0.246  13.279 -0.5378 -0.4494  0.2573
 1132SOL    HW214859   3.961   0.279  13.140  2.7348 -0.1787  1.6533
 1133SOL     OW14860   0.517   0.395  11.703 -0.3710  0.1679 -0.2841
 1133SOL    HW114861   0.537   0.310  11.743 -1.2341 -0.2114 -0.6512
 1133SOL    HW214862   0.601   0.420  11.665  0.0290 -0.2752  0.3085
 1134SOL     OW14863   4.404   2.112   6.701  0.0824 -0.1431 -0.1842
 1134SOL    HW114864   4.459   2.037   6.680  1.2451  0.3568  1.0142
 1134SOL    HW214865   4.458   2.163   6.762 -0.3776  1.2099 -0.8995
 1135SOL     OW14866   4.719   1.827   4.917  0.3645  0.1041 -0.4721
 1135SOL    HW114867   0.072   1.810   4.970  0.9312  0.3595 -1.2335
 1135SOL    HW214868   4.663   1.886   4.967  0.7944  0.4164 -0.3595
 1136SOL     OW14869   1.129   0.894   5.727 -0.1514 -0.2656 -0.4088
 1136SOL    HW114870   1.070   0.843   5.782  1.8601 -3.8630 -1.6244
 1136SOL    HW214871   1.197   0.829   5.709 -1.3052 -0.5999 -3.6728
 1137SOL     OW14872   1.158   1.496   2.636 -0.3967  0.0848  0.4466
 1137SOL    HW114873   1.211   1.471   2.712 -2.5018 -0.6060  1.6894
 1137SOL    HW214874   1.215   1.564   2.602  1.0371 -1.2571  0.1529
 1138SOL     OW14875   0.211   4.539   6.811 -0.5324 -0.0931  0.0244
 1138SOL    HW114876   0.285   4.480   6.796  0.0765  0.5414  0.5258
 1138SOL    HW214877   0.244   4.602   6.876  1.0616 -2.6037  1.6578
 1139SOL     OW14878   1.148   2.542   3.784  0.4681 -0.7600  0.0980
 1139SOL    HW114879   1.150   2.552   3.879 -3.1205 -1.7175  0.2908
 1139SOL    HW214880   1.200   2.461   3.780  2.0735  0.1145  3.1465
 1140SOL     OW14881   1.263   1.715   3.063 -0.3097 -0.4778 -0.3305
 1140SOL    HW114882   1.221   1.798   3.040  1.5633  0.3128 -0.8958
 1140SOL    HW214883   1.294   1.682   2.979  3.6632  1.0003  0.5424
 1141SOL     OW14884   1.640   4.427   9.105  0.1735 -0.0277  0.0409
 1141SOL    HW114885   1.731   4.420   9.076  0.2301 -0.1086  0.2399
 1141SOL    HW214886   1.607   4.338   9.098 -1.8052  0.7975 -1.2833
 1142SOL     OW14887   3.091   2.962  12.383  0.1993  0.0236 -0.2243
 1142SOL    HW114888   3.040   3.010  12.317  0.3056 -0.2164 -0.4783
 1142SOL    HW214889   3.146   2.910  12.326  0.9164  0.0733  0.4231
 1143SOL     OW14890   2.924   1.202   2.558 -0.7363 -0.2036  0.2526
 1143SOL    HW114891   2.975   1.261   2.613 -2.3055  0.1220  1.3501
 1143SOL    HW214892   2.995   1.154   2.514  0.2542 -0.8591  2.5481
 1144SOL     OW14893   1.689   3.847   8.639 -0.1253  0.1732 -0.1751
 1144SOL    HW114894   1.690   3.929   8.688 -1.2892  0.5817 -0.8424
 1144SOL    HW214895   1.687   3.785   8.712  2.7208  2.4748  1.8436
 1145SOL     OW14896   4.433   2.293   4.496 -0.5460  0.3623 -0.2769
 1145SOL    HW114897   4.381   2.372   4.480  0.4883  0.7733 -1.5431
 1145SOL    HW214898   4.501   2.330   4.553  0.3543  2.4243 -2.6928
 1146SOL     OW14899   1.455   0.270   4.373  0.0984 -0.1805  0.8228
 1146SOL    HW114900   1.510   0.216   4.430 -0.6935 -1.2500  0.5714
 1146SOL    HW214901   1.378   0.217   4.351 -0.9820  1.3425  0.9214
 1147SOL     OW14902   2.611   3.627   2.147  0.3296 -0.8481  0.7748
 1147SOL    HW114903   2.602   3.680   2.226 -0.5485  1.5926 -0.9616
 1147SOL    HW214904   2.577   3.693   2.087  0.7558  0.3135  1.8058
 1148SOL     OW14905   3.803   2.860  15.979 -0.2600  0.3791 -0.4779
 1148SOL    HW114906   3.818   2.766  15.977 -2.2196  0.0348  1.6897
 1148SOL    HW214907   3.773   2.882  15.891  0.0071 -1.4704 -1.0237
 1149SOL     OW14908   2.332   1.759  15.467 -0.7947  0.1061 -0.4585
 1149SOL    HW114909   2.426   1.766  15.453 -1.1425 -2.0585 -3.8734
 1149SOL    HW214910   2.318   1.723  15.555  1.3660  0.4259  0.0205
 1150SOL     OW14911   4.167   2.820   5.569  0.1602 -0.2285 -0.3785
 1150SOL    HW114912   4.198   2.749   5.625 -0.7283  1.0168  1.6907
 1150SOL    HW214913   4.109   2.778   5.507  0.8834 -0.9126 -0.5981
 1151SOL     OW14914   3.588   1.598   9.504 -0.2438 -0.3585 -0.3420
 1151SOL    HW114915   3.523   1.662   9.535  1.1560  0.6859  0.4475
 1151SOL    HW214916   3.650   1.581   9.575  0.9015  0.3851 -1.1737
 1152SOL     OW14917   0.269   4.048   6.861 -0.0515  0.2110 -0.1022
 1152SOL    HW114918   0.208   4.121   6.847 -0.6220 -0.4115 -0.8068
 1152SOL    HW214919   0.332   4.085   6.923 -0.1217 -0.4387  0.3505
 1153SOL     OW14920   4.688   2.475  11.674 -0.4546  0.2309  0.2109
 1153SOL    HW114921   4.721   2.477  11.764 -2.2099  0.6365  0.8589
 1153SOL    HW214922   4.627   2.548  11.686 -0.1493  0.4904  0.1502
 1154SOL     OW14923   0.073   0.354   7.572 -0.0873 -0.2640  0.3060
 1154SOL    HW114924   4.722   0.380   7.623  1.1956  0.3271  1.9117
 1154SOL    HW214925   0.108   0.301   7.643 -2.6234 -0.1396  1.6584
 1155SOL     OW14926   1.745   2.335  12.695 -0.6290  0.4800 -0.1587
 1155SOL    HW114927   1.724   2.345  12.787  0.3477 -1.1018  0.2339
 1155SOL    HW214928   1.666   2.294  12.659 -0.4960  2.3155 -2.5627
 1156SOL     OW14929   1.726   2.807  16.831 -0.3202  0.2293  0.3627
 1156SOL    HW114930   1.662   2.744  16.799  0.1335 -0.1852  0.2820
 1156SOL    HW214931   1.678   2.889  16.841  1.1049  0.9966  1.0115
 1157SOL     OW14932   1.801   4.075   4.905  0.2398 -0.1098 -0.3048
 1157SOL    HW114933   1.806   4.107   4.815  2.4815  1.1486  0.2415
 1157SOL    HW214934   1.747   4.147   4.937  0.8464 -0.4754  1.5766
 1158SOL     OW14935   4.199   4.536   4.519  0.3548  0.4194 -0.7487
 1158SOL    HW114936   4.257   4.606   4.488  0.4656 -0.1006 -1.7099
 1158SOL    HW214937   4.217   4.473   4.449 -1.4162 -0.7280 -0.1474
 1159SOL     OW14938   1.424   2.114   4.323 -0.1150  0.5357 -0.2289
 1159SOL    HW114939   1.494   2.109   4.388  0.3756  1.5594 -0.6801
 1159SOL    HW214940   1.402   2.207   4.333 -1.9250 -0.2383  2.9954
 1160SOL     OW14941   3.017   2.406  11.623  0.1793 -0.1545 -0.0835
 1160SOL    HW114942   3.060   2.411  11.538  1.3674  4.1974  0.7809
 1160SOL    HW214943   2.946   2.343  11.612  2.2806 -2.0470 -2.9087
 1161SOL     OW14944   1.190   4.644   6.811 -0.4479 -0.0288 -0.3331
 1161SOL    HW114945   1.134   4.716   6.781 -1.5539 -0.4480  0.7173
 1161SOL    HW214946   1.246   4.621   6.738  0.5084  0.4125  0.2651
 1162SOL     OW14947   0.505   0.438   2.866 -0.0602  0.7190  0.0283
 1162SOL    HW114948   0.503   0.413   2.773  0.0804  1.2395 -0.1174
 1162SOL    HW214949   0.427   0.387   2.890  1.4093 -1.6211 -0.2239
 1163SOL     OW14950   0.182   2.810   1.178 -0.0765  0.1519  0.3534
 1163SOL    HW114951   0.270   2.784   1.149 -0.8840  0.2626 -2.1459
 1163SOL    HW214952   0.183   2.755   1.257  1.6073 -1.3100 -0.6824
 1164SOL     OW14953   0.779   1.280   3.339  0.2551  0.4296  0.0969
 1164SOL    HW114954   0.789   1.192   3.373  0.1276  0.5405  0.4193
 1164SOL    HW214955   0.836   1.282   3.262  1.1795 -0.6806  0.7532
 1165SOL     OW14956   3.166   3.199   3.813 -0.0982 -0.4755  0.0287
 1165SOL    HW114957   3.243   3.228   3.862 -0.1718  0.2075 -0.2561
 1165SOL    HW214958   3.150   3.115   3.856  1.7223 -0.6301  0.3979
 1166SOL     OW14959   2.697   0.501   4.898 -0.3080 -0.1838 -0.1519
 1166SOL    HW114960   2.672   0.481   4.988 -0.9811 -0.7673 -0.4755
 1166SOL    HW214961   2.703   0.597   4.903  1.8915 -0.4301  2.3111
 1167SOL     OW14962   0.935   4.631   7.313 -0.3262 -0.3080 -0.2892
 1167SOL    HW114963   0.958   4.615   7.222 -1.5954  1.8790 -0.9774
 1167SOL    HW214964   1.007   4.688   7.339  0.8170 -1.0748 -1.7509
 1168SOL     OW14965   4.655   2.741   2.043  0.3324 -0.0392 -0.7471
 1168SOL    HW114966   4.635   2.653   2.012 -2.9915  1.6719 -3.4326
 1168SOL    HW214967   4.611   2.797   1.980  0.6265  0.0641 -0.8618
 1169SOL     OW14968   4.177   0.011   1.427  0.1059 -0.4767  0.0643
 1169SOL    HW114969   4.126   4.708   1.503 -1.4861 -0.1082 -0.8671
 1169SOL    HW214970   4.130   4.690   1.357  0.2610 -0.5830  0.0288
 1170SOL     OW14971   0.608   1.148  16.323 -0.3359  0.2112 -0.2195
 1170SOL    HW114972   0.680   1.131  16.261 -2.4501 -0.7476 -2.4072
 1170SOL    HW214973   0.651   1.134  16.408 -3.2040 -2.0408  0.8526
 1171SOL     OW14974   2.424   0.417   7.998  0.3477 -0.1274  0.0309
 1171SOL    HW114975   2.453   0.429   8.089 -0.1111 -0.5635  0.2357
 1171SOL    HW214976   2.494   0.474   7.968 -0.1360  0.8493  0.7469
 1172SOL     OW14977   1.935   1.704   7.429  0.8890  0.5933  0.7336
 1172SOL    HW114978   1.941   1.791   7.389  0.0906  0.7114  0.8791
 1172SOL    HW214979   1.850   1.673   7.399  1.3041  2.4640 -2.3128
 1173SOL     OW14980   2.516   3.074   4.655  0.3349 -0.5471  0.6584
 1173SOL    HW114981   2.582   3.136   4.623 -0.5368 -0.6187 -1.2326
 1173SOL    HW214982   2.529   3.008   4.588  1.2450 -1.6086  1.8632
 1174SOL     OW14983   1.648   0.036   7.789 -0.3321  0.2615  0.7985
 1174SOL    HW114984   1.596   0.002   7.861  0.4963  2.2920  2.3590
 1174SOL    HW214985   1.722   0.074   7.837  3.2791 -1.4479 -3.4015
 1175SOL     OW14986   4.065   2.234   3.767 -0.1680  0.2526  0.6130
 1175SOL    HW114987   4.159   2.235   3.747  0.0877  0.9701  1.8865
 1175SOL    HW214988   4.016   2.242   3.685  1.3842  1.8435 -0.1866
 1176SOL     OW14989   0.118   2.464  13.840  0.4355 -0.5148 -0.2435
 1176SOL    HW114990   0.059   2.462  13.764 -0.1403 -3.6103  0.2974
 1176SOL    HW214991   0.075   2.412  13.908  0.4398 -0.6619 -0.3531
 1177SOL     OW14992   3.071   0.927   9.277 -0.6604  0.5013  0.0931
 1177SOL    HW114993   3.128   0.980   9.333 -2.3968  2.2171  0.2479
 1177SOL    HW214994   3.022   0.883   9.347 -0.6292  0.8485  0.3339
 1178SOL     OW14995   0.501   3.893  14.218 -0.5588  0.1010 -0.3366
 1178SOL    HW114996   0.514   3.858  14.306  0.7338  0.1332 -0.5148
 1178SOL    HW214997   0.581   3.871  14.172 -1.4703 -1.8974 -0.9383
 1179SOL     OW14998   2.784   1.394   7.195  0.5970 -0.1830  0.2196
 1179SOL    HW114999   2.846   1.456   7.233  0.6333 -1.9352  3.0536
 1179SOL    HW215000   2.729   1.454   7.145  1.7890 -0.9362 -2.0020
 1180SOL     OW15001   0.030   0.227   8.141 -0.5096 -0.5126  0.1904
 1180SOL    HW115002   0.082   0.280   8.202 -1.1805 -0.5155  0.7626
 1180SOL    HW215003   4.673   0.225   8.189 -1.4688  0.6404 -1.4258
 1181SOL     OW15004   0.149   0.374   7.035  0.0777 -0.8207  0.5268
 1181SOL    HW115005   0.189   0.434   7.098 -0.7414  1.9950 -1.6233
 1181SOL    HW215006   0.224   0.322   7.004  0.2090 -0.1936 -0.1921
 1182SOL     OW15007   0.446   0.487  11.165  0.1403 -0.4406 -0.1617
 1182SOL    HW115008   0.418   0.565  11.118  2.4305  0.3116 -0.2725
 1182SOL    HW215009   0.540   0.504  11.172 -0.3691  2.2698  0.1094
 1183SOL     OW15010   3.208   0.933   6.616 -0.1888  1.0986  0.3059
 1183SOL    HW115011   3.120   0.959   6.587 -0.4952 -0.1748  0.1169
 1183SOL    HW215012   3.235   1.005   6.673  0.0024 -0.0411  1.6486
 1184SOL     OW15013   2.992   2.924   9.874 -0.0346  0.1570  0.0849
 1184SOL    HW115014   3.041   2.945   9.795  1.6434 -0.1619  1.0499
 1184SOL    HW215015   3.017   2.997   9.930  1.6234 -0.8404  0.6270
 1185SOL     OW15016   3.753   4.374   1.387 -0.3725 -0.1666  0.0869
 1185SOL    HW115017   3.783   4.350   1.474 -1.2198 -1.1151  0.1137
 1185SOL    HW215018   3.823   4.336   1.334  0.7488  0.1123  1.3760
 1186SOL     OW15019   4.337   1.882   4.189 -0.9221  0.5660  0.4847
 1186SOL    HW115020   4.301   1.860   4.275  2.2299 -0.1176  1.6036
 1186SOL    HW215021   4.394   1.957   4.208 -0.1621  0.2870 -0.6961
 1187SOL     OW15022   4.141   2.465  10.185 -0.2079 -0.5122  0.0310
 1187SOL    HW115023   4.089   2.528  10.135 -2.6055 -1.2998  1.4970
 1187SOL    HW215024   4.140   2.390  10.127 -0.8015 -1.1740  0.8880
 1188SOL     OW15025   3.208   0.688   2.690  0.2979 -0.0445 -0.2927
 1188SOL    HW115026   3.251   0.692   2.604 -0.3693 -0.5142 -0.6443
 1188SOL    HW215027   3.282   0.714   2.745 -1.0873  2.5903  0.3319
 1189SOL     OW15028   1.547   3.149   2.377  0.2402 -0.1509  0.1264
 1189SOL    HW115029   1.460   3.147   2.417  0.1446 -3.7238 -0.3210
 1189SOL    HW215030   1.589   3.225   2.419 -1.0190  1.5900 -1.7526
 1190SOL     OW15031   4.352   3.060  11.256 -0.5890 -0.2255  0.1982
 1190SOL    HW115032   4.287   3.058  11.327 -0.3038  0.3031  0.4762
 1190SOL    HW215033   4.412   2.996  11.294  1.6689  2.6036  1.3700
 1191SOL     OW15034   4.146   3.756   8.047  0.2899  0.8094 -0.3215
 1191SOL    HW115035   4.199   3.775   8.124 -0.1673 -0.5126  0.3247
 1191SOL    HW215036   4.154   3.661   8.043  2.0488  0.9412  0.2530
 1192SOL     OW15037   2.024   1.621  16.910  0.6952  0.1522  0.7074
 1192SOL    HW115038   1.980   1.585  16.987 -0.7417  0.0692 -0.1598
 1192SOL    HW215039   1.993   1.555  16.848 -1.7031  1.1750  0.8432
 1193SOL     OW15040   4.451   3.485   4.732  0.1637 -0.2543  0.3450
 1193SOL    HW115041   4.431   3.579   4.730 -1.7060 -0.6743 -1.7846
 1193SOL    HW215042   4.487   3.482   4.820 -0.1097  0.4072  0.4822
 1194SOL     OW15043   2.421   1.364   8.846  0.3091 -0.6060 -0.1501
 1194SOL    HW115044   2.346   1.420   8.865  0.2178 -0.8678  0.2484
 1194SOL    HW215045   2.391   1.329   8.762 -2.1295 -0.7780  0.8218
 1195SOL     OW15046   1.726   0.073  15.124 -0.4411 -0.2341 -0.0804
 1195SOL    HW115047   1.790   0.094  15.056 -0.3354 -0.5011 -0.0632
 1195SOL    HW215048   1.650   0.108  15.078 -2.2632 -1.4672  1.9885
 1196SOL     OW15049   2.044   3.866   2.387 -0.3359 -0.1452 -0.0686
 1196SOL    HW115050   2.101   3.908   2.322  1.0427 -3.0176 -0.6957
 1196SOL    HW215051   1.964   3.848   2.337 -0.2647 -1.1724  0.2015
 1197SOL     OW15052   2.232   2.578   9.986 -0.3164 -0.7427  0.3877
 1197SOL    HW115053   2.326   2.595   9.993 -0.7256  1.5927  0.2268
 1197SOL    HW215054   2.195   2.641   9.924 -0.2364 -1.4120 -0.3392
 1198SOL     OW15055   1.880   1.709   5.357  0.2386 -0.3329  0.5267
 1198SOL    HW115056   1.914   1.787   5.400 -0.2612  1.0782 -1.6635
 1198SOL    HW215057   1.788   1.712   5.386  0.4559  1.5102  1.0287
 1199SOL     OW15058   2.813   1.719   5.404 -0.1675  0.5172  0.1709
 1199SOL    HW115059   2.853   1.682   5.483 -1.0315 -1.9179 -0.5547
 1199SOL    HW215060   2.795   1.643   5.350 -0.8763  1.5146 -0.9752
 1200SOL     OW15061   3.269   1.347   1.506  0.5629  0.0099 -0.1886
 1200SOL    HW115062   3.193   1.292   1.487  2.2830 -2.4327  0.0072
 1200SOL    HW215063   3.326   1.329   1.431 -0.9789 -2.9237 -0.6773
 1201SOL     OW15064   0.557   0.679   6.216 -0.0183 -0.2388  0.2758
 1201SOL    HW115065   0.621   0.735   6.259  2.0693 -1.2381 -1.5354
 1201SOL    HW215066   0.492   0.674   6.286 -1.1845 -0.5957 -0.8337
 1202SOL     OW15067   1.158   3.680   7.688  0.7595 -0.2388  0.3922
 1202SOL    HW115068   1.117   3.625   7.755  1.2883 -1.1798 -0.0433
 1202SOL    HW215069   1.246   3.696   7.722  1.7642 -0.5057 -2.1428
 1203SOL     OW15070   3.509   0.249   5.988  0.1670 -0.1867  0.3227
 1203SOL    HW115071   3.546   0.259   5.900  0.3277  0.2752  0.4440
 1203SOL    HW215072   3.416   0.239   5.966  0.4560 -1.2321 -0.4048
 1204SOL     OW15073   3.006   3.493   2.900 -0.1557 -0.2702 -0.0446
 1204SOL    HW115074   3.027   3.476   2.808  0.4948 -0.3624  0.1211
 1204SOL    HW215075   2.919   3.532   2.895 -0.1903 -0.3019  0.3330
 1205SOL     OW15076   0.733   3.519   8.532 -0.0415  0.5885 -0.1352
 1205SOL    HW115077   0.743   3.614   8.523 -1.1179  0.7229 -0.0129
 1205SOL    HW215078   0.661   3.515   8.595 -1.5414 -1.3478 -1.9635
 1206SOL     OW15079   4.475   1.432  17.639  0.2715 -0.4514  0.4877
 1206SOL    HW115080   4.435   1.425   0.023  0.7658  0.3069  0.7760
 1206SOL    HW215081   4.458   1.524  17.621  0.3952 -1.1681 -3.3037
 1207SOL     OW15082   2.396   0.540   3.008 -0.0969 -0.2491  0.3303
 1207SOL    HW115083   2.349   0.542   2.924 -0.1559 -1.3956  0.3291
 1207SOL    HW215084   2.472   0.481   2.999  1.0143  0.9928  1.6752
 1208SOL     OW15085   0.320   4.001   6.409 -0.4771  0.1478  0.5932
 1208SOL    HW115086   0.379   3.999   6.334 -0.1714 -1.6450  0.8693
 1208SOL    HW215087   0.230   4.010   6.377 -1.0746 -1.1370  1.9219
 1209SOL     OW15088   3.026   3.526   8.379 -0.2903  0.3488  0.1239
 1209SOL    HW115089   3.015   3.552   8.470 -3.6087  3.2086 -1.0653
 1209SOL    HW215090   2.943   3.564   8.348 -0.2401 -1.7024 -2.5495
 1210SOL     OW15091   1.270   1.966   3.228  0.4577  0.8408  0.4038
 1210SOL    HW115092   1.311   2.050   3.209  0.0637  1.0307  0.3923
 1210SOL    HW215093   1.177   1.986   3.238  0.4465  1.7530 -1.5485
 1211SOL     OW15094   1.413   3.389   6.392 -0.1073  0.2052 -0.4728
 1211SOL    HW115095   1.340   3.327   6.394 -1.6361  1.9967 -1.0931
 1211SOL    HW215096   1.482   3.353   6.447 -0.0445 -0.7269 -1.1499
 1212SOL     OW15097   1.284   1.818  14.883 -0.3411  0.3397  0.3811
 1212SOL    HW115098   1.189   1.831  14.879 -0.3143  0.2822 -0.5563
 1212SOL    HW215099   1.289   1.734  14.927 -0.0153 -0.0701 -0.4474
 1213SOL     OW15100   4.226   0.424  13.925 -0.5358  0.0595  0.0965
 1213SOL    HW115101   4.302   0.378  13.889 -0.8336  0.2454 -0.7666
 1213SOL    HW215102   4.265   0.503  13.962  0.4005 -1.0726  1.5448
 1214SOL     OW15103   2.440   4.531   8.247 -0.2242 -0.1593  0.0361
 1214SOL    HW115104   2.454   4.451   8.298 -1.9828  1.1611  2.5761
 1214SOL    HW215105   2.513   4.522   8.186  1.3324 -0.1550  1.9052
 1215SOL     OW15106   1.863   0.725   5.161 -0.2951 -0.7411  0.1141
 1215SOL    HW115107   1.782   0.739   5.112  0.9828  1.8834 -1.2549
 1215SOL    HW215108   1.898   0.650   5.112 -2.2083 -3.4325  2.8912
 1216SOL     OW15109   4.043   0.104   5.385 -0.1537 -0.0968 -0.0549
 1216SOL    HW115110   4.000   0.036   5.334 -1.5828  1.7371 -1.3075
 1216SOL    HW215111   4.056   0.167   5.314 -0.6786  0.1018  0.0214
 1217SOL     OW15112   3.097   0.838   1.694 -0.0635  0.0429  0.8673
 1217SOL    HW115113   3.086   0.749   1.727 -1.5820 -0.1765 -0.2506
 1217SOL    HW215114   3.101   0.822   1.600  0.3186  2.4390  0.4903
 1218SOL     OW15115   0.011   2.984   3.688 -0.1080 -0.0322 -0.2987
 1218SOL    HW115116   0.084   3.043   3.706 -0.8091  1.0864 -1.1256
 1218SOL    HW215117   0.005   2.945   3.775  1.2568 -2.3984 -1.2569
 1219SOL     OW15118   2.374   4.493  17.557  0.2638  0.2564  0.4563
 1219SOL    HW115119   2.306   4.466  17.618  0.9244  1.0379  1.5461
 1219SOL    HW215120   2.324   4.466  17.481  1.9230 -1.8386  0.1009
 1220SOL     OW15121   1.009   1.754  12.355 -0.4300 -0.2415  0.8268
 1220SOL    HW115122   0.917   1.779  12.358  0.1249  2.1717 -2.0626
 1220SOL    HW215123   1.023   1.709  12.438 -1.3934 -1.3718  0.3683
 1221SOL     OW15124   1.603   2.762   5.414 -0.2621  0.2552  0.1580
 1221SOL    HW115125   1.653   2.842   5.434  0.1904  0.3189 -1.2481
 1221SOL    HW215126   1.669   2.701   5.382  0.2128  1.3534 -0.9717
 1222SOL     OW15127   3.427   3.120   3.002  0.1470 -0.6267  0.3014
 1222SOL    HW115128   3.412   3.042   2.949  1.3357  0.0612 -1.0513
 1222SOL    HW215129   3.339   3.138   3.035 -0.0273  0.4516 -0.7586
 1223SOL     OW15130   1.778   3.986   7.152 -0.0799 -0.5856 -0.9961
 1223SOL    HW115131   1.750   4.069   7.191  0.0988  0.3478 -2.8323
 1223SOL    HW215132   1.767   4.004   7.058  0.4001  0.8303 -0.7795
 1224SOL     OW15133   0.432   2.085   6.401 -0.0157 -0.1074  0.0676
 1224SOL    HW115134   0.414   2.178   6.409  2.2082  0.5522 -2.5311
 1224SOL    HW215135   0.478   2.062   6.482  1.4728  0.7102 -0.5537
 1225SOL     OW15136   1.185   2.688   2.954  0.6207 -0.2473 -0.4006
 1225SOL    HW115137   1.192   2.739   2.873  0.9728  0.2399 -0.0578
 1225SOL    HW215138   1.194   2.758   3.018 -2.2140  0.7371 -1.0570
 1226SOL     OW15139   2.159   2.244   2.468 -0.2004 -0.0658 -0.3400
 1226SOL    HW115140   2.111   2.161   2.476  0.9404 -0.9445 -2.4914
 1226SOL    HW215141   2.171   2.267   2.560  0.5886 -1.2246 -0.1513
 1227SOL     OW15142   1.854   4.364   2.713 -0.0172 -0.6063 -0.2761
 1227SOL    HW115143   1.790   4.341   2.645  0.9549 -2.8282 -0.4285
 1227SOL    HW215144   1.929   4.382   2.656 -0.4071 -1.4187 -1.0538
 1228SOL     OW15145   2.898   2.333  13.377 -0.6667  0.2350  0.0345
 1228SOL    HW115146   2.814   2.306  13.341  0.4011  0.3404 -2.5673
 1228SOL    HW215147   2.873   2.413  13.425  0.1598  1.7858 -2.1034
 1229SOL     OW15148   4.652   2.927  11.801 -0.2158 -0.3932  0.2262
 1229SOL    HW115149   4.695   2.893  11.879  0.7520  3.9974  1.6278
 1229SOL    HW215150   4.672   3.021  11.805 -2.8999  0.1908  0.3243
 1230SOL     OW15151   3.438   1.088   4.673  0.6575  0.4289  0.4348
 1230SOL    HW115152   3.392   1.156   4.722  1.6614  0.2138  1.6750
 1230SOL    HW215153   3.503   1.137   4.622  1.0417 -0.4320  0.1025
 1231SOL     OW15154   1.122   2.393   6.655 -0.1341 -0.2235  0.2955
 1231SOL    HW115155   1.121   2.459   6.585 -1.5322 -0.0199  0.4957
 1231SOL    HW215156   1.161   2.314   6.619 -1.2928  0.3279 -2.1869
 1232SOL     OW15157   2.744   3.697   3.924 -0.4671 -0.1972 -0.4957
 1232SOL    HW115158   2.754   3.791   3.938  1.5072 -0.1547 -2.0993
 1232SOL    HW215159   2.684   3.673   3.995 -2.1555  0.5176 -1.6969
 1233SOL     OW15160   0.747   0.133   8.827  0.2641  0.2271  0.3444
 1233SOL    HW115161   0.789   0.064   8.878  2.3229  1.8293  0.7989
 1233SOL    HW215162   0.823   0.189   8.811 -0.2953  0.5672 -1.1457
 1234SOL     OW15163   3.330   1.279  17.052  0.6396  0.7505 -0.4298
 1234SOL    HW115164   3.387   1.326  17.113  1.4697  1.0853 -1.4611
 1234SOL    HW215165   3.334   1.348  16.986  0.4549  0.0456 -1.1752
 1235SOL     OW15166   1.550   1.871   0.476 -0.4396 -0.3944 -0.4387
 1235SOL    HW115167   1.490   1.811   0.521 -0.6324 -0.2995 -0.5672
 1235SOL    HW215168   1.508   1.952   0.506  1.2156 -0.2347  1.4141
 1236SOL     OW15169   1.434   3.617   0.992  0.2903 -0.3517 -0.5212
 1236SOL    HW115170   1.485   3.535   0.989  2.5264  1.0132  0.3186
 1236SOL    HW215171   1.343   3.593   1.009  1.3019 -3.1116  0.9989
 1237SOL     OW15172   3.209   3.865   3.051 -0.0814 -0.0878 -0.5100
 1237SOL    HW115173   3.273   3.798   3.028 -1.6516 -1.9131  0.4221
 1237SOL    HW215174   3.142   3.801   3.075 -0.7406  0.7428 -0.1573
 1238SOL     OW15175   0.301   2.724  11.627  0.2902 -0.0921  0.3030
 1238SOL    HW115176   0.380   2.778  11.624  0.5423 -0.4575  0.2718
 1238SOL    HW215177   0.278   2.718  11.719 -0.5725  1.8108  0.2168
 1239SOL     OW15178   1.073   3.522   7.183 -0.1272  0.0967 -0.1385
 1239SOL    HW115179   1.162   3.503   7.215  0.1549 -0.0229 -0.9912
 1239SOL    HW215180   1.069   3.455   7.115 -0.5088 -1.0511  0.9970
 1240SOL     OW15181   3.843   1.912   6.410 -0.4956 -0.5769 -0.0590
 1240SOL    HW115182   3.906   1.866   6.466 -1.6818 -2.0759  0.0466
 1240SOL    HW215183   3.854   1.854   6.334  1.0710  1.7843 -1.6230
 1241SOL     OW15184   3.969   3.295   8.465  0.1181  0.5288 -0.4328
 1241SOL    HW115185   4.024   3.308   8.388  2.1695 -0.4796  0.8413
 1241SOL    HW215186   3.977   3.383   8.501 -0.5788 -0.2939  1.7263
 1242SOL     OW15187   2.405   2.129   7.174 -0.0880  0.3253  0.3398
 1242SOL    HW115188   2.492   2.095   7.193 -0.7684 -0.6812  1.6627
 1242SOL    HW215189   2.348   2.079   7.232  0.1353  0.2295  0.4752
 1243SOL     OW15190   3.073   2.577   4.969 -0.2414  0.2924  0.2370
 1243SOL    HW115191   3.168   2.574   4.956  0.1669  1.2377  3.0914
 1243SOL    HW215192   3.043   2.498   4.923 -0.0451 -0.1428  0.8656
 1244SOL     OW15193   2.874   2.763  13.803 -0.0218  1.2254  0.1173
 1244SOL    HW115194   2.872   2.713  13.884  0.5361  0.9525 -0.0365
 1244SOL    HW215195   2.888   2.697  13.734 -0.4788  1.1797  0.0661
 1245SOL     OW15196   0.201   3.800   6.712  0.1653 -0.2494 -0.2357
 1245SOL    HW115197   0.271   3.789   6.647  1.8178  3.1164  1.0172
 1245SOL    HW215198   0.214   3.893   6.728  2.5663 -0.9783  2.0281
 1246SOL     OW15199   0.904   0.319  11.764 -0.3391 -0.1061  0.0498
 1246SOL    HW115200   0.994   0.351  11.771  0.2061 -1.2418 -1.5922
 1246SOL    HW215201   0.888   0.349  11.674 -1.4571 -2.3200 -0.5027
 1247SOL     OW15202   4.630   0.281   7.816 -0.4710  0.6042  0.4233
 1247SOL    HW115203   4.713   0.250   7.852 -0.1021  0.1383 -0.8146
 1247SOL    HW215204   4.576   0.281   7.895 -1.7447  1.9778 -0.4575
 1248SOL     OW15205   0.472   3.063   1.199 -0.0140 -0.3613 -0.1471
 1248SOL    HW115206   0.495   2.991   1.258  2.2071  0.5393  0.1046
 1248SOL    HW215207   0.475   3.133   1.264  0.3246 -1.4769  1.0524
 1249SOL     OW15208   1.863   2.984   6.754 -0.2041  0.2430 -0.0837
 1249SOL    HW115209   1.870   3.058   6.694  1.6347  0.0376 -0.1125
 1249SOL    HW215210   1.912   2.913   6.712  0.0030  0.3500 -0.0209
 1250SOL     OW15211   0.111   2.069  14.272  0.3850  0.3269 -0.1876
 1250SOL    HW115212   0.021   2.057  14.241 -0.4300  2.4286  1.4264
 1250SOL    HW215213   0.103   2.103  14.361  0.6752 -3.3506  1.2636
 1251SOL     OW15214   0.712   4.121   6.596  0.0906  0.1437  0.3970
 1251SOL    HW115215   0.773   4.140   6.668 -0.1768 -1.6015  1.1075
 1251SOL    HW215216   0.741   4.031   6.579  0.2683 -0.0311  1.6168
 1252SOL     OW15217   2.844   1.527   8.035 -0.2861 -0.0381  0.0542
 1252SOL    HW115218   2.874   1.457   8.093 -0.2670 -2.1544 -2.5349
 1252SOL    HW215219   2.761   1.489   8.007 -0.7499  0.9112  0.1419
 1253SOL     OW15220   4.615   0.176   6.321  0.6575  0.0060  0.3695
 1253SOL    HW115221   4.579   0.249   6.371 -4.5329 -1.7139 -0.8688
 1253SOL    HW215222   4.537   0.154   6.271  0.6061  1.7868 -0.3458
 1254SOL     OW15223   0.503   3.922   3.697  0.7968 -0.5702  0.2480
 1254SOL    HW115224   0.510   3.970   3.615  0.4392  0.4929  0.8422
 1254SOL    HW215225   0.420   3.873   3.696  1.6169 -2.0386  3.2178
 1255SOL     OW15226   0.630   3.860   5.685 -0.5139 -0.2049  0.1029
 1255SOL    HW115227   0.687   3.888   5.613 -0.8528  2.7168  0.9494
 1255SOL    HW215228   0.569   3.934   5.685  0.7995  0.8937  2.6755
 1256SOL     OW15229   1.134   3.934   0.873  0.2522  0.1907 -0.2183
 1256SOL    HW115230   1.153   3.988   0.950 -1.0181 -0.6757  0.7045
 1256SOL    HW215231   1.225   3.930   0.844  0.6782  0.2366  1.0931
 1257SOL     OW15232   4.223   1.022   3.325 -0.2640  0.3264  0.5590
 1257SOL    HW115233   4.254   1.067   3.247  1.7562 -1.3169  0.4027
 1257SOL    HW215234   4.129   1.034   3.310 -0.4082  0.4138  1.5401
 1258SOL     OW15235   4.676   1.225   4.756 -0.0907 -0.3934  0.0708
 1258SOL    HW115236   4.615   1.225   4.682  0.7109  1.5867 -0.5720
 1258SOL    HW215237   0.011   1.296   4.736  0.8590 -0.7544  1.5904
 1259SOL     OW15238   4.028   0.948   4.971  0.0662 -0.0434 -0.3789
 1259SOL    HW115239   3.963   0.979   5.034 -0.8051 -0.8223 -0.8899
 1259SOL    HW215240   3.998   0.996   4.894  3.0161  2.0784 -0.2315
 1260SOL     OW15241   3.221   3.423  12.419  0.2057 -0.4495  0.1142
 1260SOL    HW115242   3.314   3.440  12.431  0.2498 -0.9780  0.5034
 1260SOL    HW215243   3.216   3.331  12.445  0.1072  0.1156  2.0989
 1261SOL     OW15244   3.237   3.765   5.037 -0.3384 -0.5842  0.5642
 1261SOL    HW115245   3.240   3.717   4.954  1.8471  0.9339 -0.2479
 1261SOL    HW215246   3.326   3.748   5.065 -0.0419 -1.4448 -0.9309
 1262SOL     OW15247   2.590   2.428  11.130 -0.2153  0.0427 -0.4999
 1262SOL    HW115248   2.540   2.482  11.192  2.5592 -1.0735  2.7166
 1262SOL    HW215249   2.647   2.388  11.196  0.1308  2.3636  0.6081
 1263SOL     OW15250   2.368   1.054  14.775 -0.1976  0.5930  0.2225
 1263SOL    HW115251   2.383   0.990  14.844  0.1871  1.8094  1.2725
 1263SOL    HW215252   2.452   1.100  14.774 -0.4840  1.1362  0.7872
 1264SOL     OW15253   3.621   0.329   3.915  0.3369  0.2712  0.2181
 1264SOL    HW115254   3.642   0.397   3.978  0.9026  0.7183 -0.4535
 1264SOL    HW215255   3.654   0.384   3.844 -3.3657  0.1234 -1.5926
 1265SOL     OW15256   3.800   1.208   2.306 -0.7368 -0.1253  0.3872
 1265SOL    HW115257   3.794   1.274   2.375 -2.3368  0.4311 -0.2747
 1265SOL    HW215258   3.854   1.144   2.351 -2.2357 -2.1585 -0.6835
 1266SOL     OW15259   2.006   4.617   6.985  0.4216  0.3661  0.9372
 1266SOL    HW115260   1.988   4.703   7.023  0.8164  0.3373  1.1942
 1266SOL    HW215261   1.950   4.605   6.909  1.3939 -1.1166  0.4629
 1267SOL     OW15262   3.978   3.584   3.660  0.4863 -0.5297 -0.0140
 1267SOL    HW115263   3.985   3.496   3.624 -0.6312 -0.4709 -0.3576
 1267SOL    HW215264   3.889   3.614   3.641  0.3195  0.3415  2.0448
 1268SOL     OW15265   2.108   1.273  17.347 -0.4390  0.2948  0.2361
 1268SOL    HW115266   2.177   1.239  17.404 -0.9729  0.4093  0.9576
 1268SOL    HW215267   2.158   1.349  17.317  0.4890 -1.2137 -2.0585
 1269SOL     OW15268   0.529   3.226   3.076 -0.1072  0.0616  0.2807
 1269SOL    HW115269   0.542   3.189   3.163 -1.4486 -0.8228  0.1132
 1269SOL    HW215270   0.517   3.144   3.028  0.9578  0.2761 -0.3379
 1270SOL     OW15271   1.510   3.874   2.258 -0.1760 -0.8091 -0.0637
 1270SOL    HW115272   1.430   3.901   2.213 -0.7361 -3.9806 -0.9610
 1270SOL    HW215273   1.562   3.876   2.178  1.0089  0.9493  0.7604
 1271SOL     OW15274   3.930   1.970   2.558 -0.0080  0.3660 -0.6017
 1271SOL    HW115275   4.016   1.929   2.556  0.1598  0.7556 -1.4670
 1271SOL    HW215276   3.894   1.923   2.633  2.8430  0.1062  0.6004
 1272SOL     OW15277   3.471   2.656   5.225 -0.5795  0.3888 -0.0231
 1272SOL    HW115278   3.403   2.592   5.244  1.8821 -1.8878  1.0861
 1272SOL    HW215279   3.440   2.728   5.281  1.2244  0.2155  1.1914
 1273SOL     OW15280   1.734   2.726   3.163  0.1467 -0.3974 -0.0231
 1273SOL    HW115281   1.711   2.788   3.094  1.0824  0.4032  0.3823
 1273SOL    HW215282   1.793   2.779   3.217  0.1624  1.7552 -2.1717
 1274SOL     OW15283   2.028   4.030   9.455  0.5506  0.1215 -0.0184
 1274SOL    HW115284   1.992   4.030   9.544  1.8848  0.6128  0.5286
 1274SOL    HW215285   1.980   3.956   9.420 -0.2945  0.4903  0.3473
 1275SOL     OW15286   3.990   3.251   2.437 -0.0411  0.5156 -0.6886
 1275SOL    HW115287   3.923   3.183   2.427 -0.1357  0.5074  0.0274
 1275SOL    HW215288   3.934   3.328   2.425 -0.9998  0.3206  2.4587
 1276SOL     OW15289   2.066   3.937   7.753  0.4050 -0.7318  0.1667
 1276SOL    HW115290   2.048   3.968   7.841  0.6659 -0.4036  0.1036
 1276SOL    HW215291   2.066   3.842   7.761  2.8907 -0.6394  1.2945
 1277SOL     OW15292   4.587   3.197   5.136 -0.4288 -0.1806  0.3412
 1277SOL    HW115293   4.651   3.126   5.139 -1.1233 -0.8833 -1.5277
 1277SOL    HW215294   4.611   3.244   5.056 -0.1867 -0.7891  0.0573
 1278SOL     OW15295   1.572   2.476   4.186  0.1066 -0.1905 -0.2197
 1278SOL    HW115296   1.630   2.400   4.181 -1.1512 -1.0376 -1.7665
 1278SOL    HW215297   1.631   2.550   4.204 -1.0025  0.6774 -0.1572
 1279SOL     OW15298   3.180   1.834   9.011  0.3039  0.4232  0.7364
 1279SOL    HW115299   3.187   1.767   8.942 -1.2497  0.6440  0.3772
 1279SOL    HW215300   3.266   1.820   9.050  1.7973 -0.5053 -2.9229
 1280SOL     OW15301   3.529   4.523   5.619 -0.5399 -0.1763 -0.1837
 1280SOL    HW115302   3.572   4.451   5.666 -1.0322  0.0873  0.6717
 1280SOL    HW215303   3.566   4.519   5.531  0.6930  1.6234  0.2720
 1281SOL     OW15304   2.889   0.920   3.096  1.0274  0.0084 -0.3323
 1281SOL    HW115305   2.821   0.986   3.091  0.0036 -1.0698 -0.5314
 1281SOL    HW215306   2.924   0.922   3.185  1.1423 -0.7546 -0.3580
 1282SOL     OW15307   4.474   0.954   2.144 -0.1539  0.1509  0.1199
 1282SOL    HW115308   4.565   0.925   2.140 -0.3992 -0.4535 -1.1250
 1282SOL    HW215309   4.482   1.048   2.133  0.5382 -0.1013 -1.4164
 1283SOL     OW15310   2.521   0.155   7.450  0.1218  0.5029 -0.6239
 1283SOL    HW115311   2.534   0.064   7.426 -0.3340  0.5681 -1.1020
 1283SOL    HW215312   2.517   0.201   7.366 -1.9963 -0.8694 -1.2633
 1284SOL     OW15313   4.603   0.426   6.101 -0.5705 -0.1464 -0.7673
 1284SOL    HW115314   4.603   0.424   6.197 -1.4391  1.4005 -0.7444
 1284SOL    HW215315   4.697   0.426   6.083 -0.1745 -0.1702  1.3175
 1285SOL     OW15316   2.873   2.055   2.212 -0.0915  0.2410  0.2861
 1285SOL    HW115317   2.916   2.139   2.204 -0.3675  0.0738 -3.0183
 1285SOL    HW215318   2.933   2.005   2.268 -2.3455  0.0184  2.5356
 1286SOL     OW15319   4.524   1.632   6.583 -0.3262  0.7611  0.4143
 1286SOL    HW115320   4.472   1.583   6.519 -0.4212  0.3511  0.8085
 1286SOL    HW215321   4.453   1.692   6.604 -1.6909 -1.5649  2.4379
 1287SOL     OW15322   0.941   1.367  15.219  0.3585 -0.4358 -0.0289
 1287SOL    HW115323   0.880   1.428  15.260  0.6696 -0.9950  1.2558
 1287SOL    HW215324   1.021   1.418  15.235  1.1394 -1.7395  0.1769
 1288SOL     OW15325   2.146   2.421   7.990 -0.2303 -0.3010  0.3708
 1288SOL    HW115326   2.052   2.420   8.009 -0.6252  0.4215 -1.5296
 1288SOL    HW215327   2.182   2.494   8.040 -0.2902  0.2829 -0.4288
 1289SOL     OW15328   3.275   1.583  11.354 -0.1333  0.3531  0.2148
 1289SOL    HW115329   3.245   1.543  11.272 -0.1326 -0.0781  0.4279
 1289SOL    HW215330   3.320   1.662  11.323 -0.9988  0.0949 -1.7325
 1290SOL     OW15331   0.084   4.220   7.654 -0.4095 -0.0403  0.1056
 1290SOL    HW115332   0.141   4.194   7.581 -1.4564  0.8949 -1.0342
 1290SOL    HW215333   0.148   4.260   7.713 -0.5993  1.2402 -0.5436
 1291SOL     OW15334   3.309   2.413   8.465  0.2986  0.5176 -0.7198
 1291SOL    HW115335   3.393   2.381   8.433 -0.1191 -1.2776 -0.0018
 1291SOL    HW215336   3.310   2.357   8.542 -1.3397  2.1818  0.5123
 1292SOL     OW15337   3.000   2.320   9.995 -0.8739 -0.3713  0.8160
 1292SOL    HW115338   3.080   2.351  10.038  0.0276 -2.0828  0.3819
 1292SOL    HW215339   2.983   2.242  10.049 -1.1468 -0.7183  0.2217
 1293SOL     OW15340   4.601   1.721   3.489 -0.1989 -0.0408  0.0205
 1293SOL    HW115341   4.587   1.799   3.543 -2.3708 -0.2049 -0.3034
 1293SOL    HW215342   4.533   1.663   3.523  1.1589 -2.2069 -1.0061
 1294SOL     OW15343   3.695   2.227   4.254  0.0523 -0.6482  0.2745
 1294SOL    HW115344   3.647   2.307   4.275 -0.5088 -1.3924  1.8126
 1294SOL    HW215345   3.769   2.218   4.313 -0.9174  0.7623  1.7156
 1295SOL     OW15346   1.472   0.053  14.642 -0.2131 -0.6383  0.3200
 1295SOL    HW115347   1.489   0.129  14.586 -3.5895  0.9540  1.5221
 1295SOL    HW215348   1.470   4.703  14.582 -0.2926 -1.8535  1.8385
 1296SOL     OW15349   0.679   4.112   2.609 -0.1220  0.2021 -0.3856
 1296SOL    HW115350   0.724   4.098   2.692 -1.4029 -1.4829  0.0402
 1296SOL    HW215351   0.584   4.115   2.621 -0.1976 -0.8079 -0.7328
 1297SOL     OW15352   2.510   4.008   2.739 -0.0904 -0.4203 -0.5234
 1297SOL    HW115353   2.511   4.037   2.830  1.0653  0.6412 -0.8839
 1297SOL    HW215354   2.521   3.913   2.748  0.7938 -0.1741  0.8759
 1298SOL     OW15355   1.049   0.225   0.664  0.1136 -0.0889  0.0302
 1298SOL    HW115356   0.996   0.285   0.715 -2.0479  0.3905 -2.7892
 1298SOL    HW215357   1.125   0.281   0.650 -0.1938  0.5152  0.8103
 1299SOL     OW15358   0.930   1.024   2.815 -0.2454  0.0786 -0.2637
 1299SOL    HW115359   0.999   0.976   2.859 -1.0558 -0.9019 -0.0710
 1299SOL    HW215360   0.977   1.106   2.800  1.5557 -1.0351 -0.6896
 1300SOL     OW15361   1.327   0.193   7.779  0.3280  0.1763  0.0701
 1300SOL    HW115362   1.332   0.250   7.856 -1.5187 -0.1756  0.4438
 1300SOL    HW215363   1.279   0.117   7.812 -0.2868 -0.4144 -2.2306
 1301SOL     OW15364   3.178   4.452  14.718  0.0416 -0.3310 -0.6075
 1301SOL    HW115365   3.213   4.532  14.679  1.2941 -0.2705  0.6541
 1301SOL    HW215366   3.137   4.487  14.796 -2.5187  0.6281 -2.3870
 1302SOL     OW15367   0.471   3.290   7.088 -0.3712  0.0963  0.0080
 1302SOL    HW115368   0.416   3.226   7.133  0.7320 -3.0375 -3.0942
 1302SOL    HW215369   0.417   3.369   7.090  1.1919  1.1462  0.9051
 1303SOL     OW15370   1.476   4.002   5.497  0.1056  0.4434 -0.2230
 1303SOL    HW115371   1.443   4.055   5.424 -1.6821 -0.4265 -0.0623
 1303SOL    HW215372   1.568   4.001   5.472  0.5207  2.0583  1.2032
 1304SOL     OW15373   1.965   1.146   9.642  0.1138 -0.0369 -0.5239
 1304SOL    HW115374   1.954   1.240   9.625  1.1867  0.3972  1.1592
 1304SOL    HW215375   2.023   1.121   9.570  1.2019  2.3870 -0.4955
 1305SOL     OW15376   0.956   3.688   6.976 -0.3861  0.2016 -0.2560
 1305SOL    HW115377   0.905   3.765   7.001 -0.7210 -0.4200  0.9917
 1305SOL    HW215378   0.948   3.626   7.048  1.5050 -1.0506 -1.1008
 1306SOL     OW15379   2.756   1.008   2.649  0.2816 -0.0421  0.3933
 1306SOL    HW115380   2.823   1.068   2.616 -1.4363  1.5811 -0.1257
 1306SOL    HW215381   2.813   0.937   2.677 -0.7529 -1.0721 -0.1190
 1307SOL     OW15382   1.023   3.349   7.752 -0.6943 -0.3846 -0.1047
 1307SOL    HW115383   1.058   3.416   7.811 -0.4880  0.0467 -0.7262
 1307SOL    HW215384   1.078   3.361   7.675 -0.1365  1.4249  0.5705
 1308SOL     OW15385   2.552   1.081  12.653  0.1231 -0.2893 -0.1162
 1308SOL    HW115386   2.607   1.083  12.731  1.5293 -2.9788 -1.0432
 1308SOL    HW215387   2.490   1.011  12.671 -1.7873  1.1482 -1.0169
 1309SOL     OW15388   0.639   1.000  15.621  0.0114  0.3062  0.1589
 1309SOL    HW115389   0.606   1.055  15.692  0.9059 -1.5178  2.0141
 1309SOL    HW215390   0.718   0.958  15.656 -0.3662  1.1331  1.9817
 1310SOL     OW15391   3.921   2.990   6.867  0.2759 -0.1975 -0.0482
 1310SOL    HW115392   3.895   3.062   6.809 -3.8777 -1.9650 -0.3646
 1310SOL    HW215393   3.834   2.964   6.896  0.2264 -0.3007 -0.2951
 1311SOL     OW15394   1.329   4.015   8.643  0.1578  0.7917  0.4074
 1311SOL    HW115395   1.347   3.970   8.561 -1.1052 -0.3236  0.7476
 1311SOL    HW215396   1.282   3.951   8.697 -1.2651  0.3558 -1.3662
 1312SOL     OW15397   1.956   4.364   7.414  0.3462  0.0690 -0.1468
 1312SOL    HW115398   1.979   4.297   7.350 -0.7187 -0.5102  0.0714
 1312SOL    HW215399   1.966   4.443   7.362 -1.8212 -0.3096 -1.1233
 1313SOL     OW15400   2.418   0.208   7.181 -0.3213  0.3662  0.0883
 1313SOL    HW115401   2.345   0.182   7.237  0.0741  0.2866  0.5633
 1313SOL    HW215402   2.370   0.209   7.098 -1.9818  0.6588  1.0314
 1314SOL     OW15403   0.875   3.370   4.831 -0.1741 -0.2048  0.1574
 1314SOL    HW115404   0.787   3.406   4.842  0.7941  1.5921  1.8102
 1314SOL    HW215405   0.928   3.449   4.837  1.6247 -1.1763 -3.0452
 1315SOL     OW15406   3.116   3.131   0.732 -0.0900  0.4443  0.3401
 1315SOL    HW115407   3.188   3.172   0.780  0.0026 -1.4177  1.7849
 1315SOL    HW215408   3.161   3.084   0.661 -1.4440 -0.4334  0.0651
 1316SOL     OW15409   4.402   0.290   7.168  0.8702  0.1366 -0.1719
 1316SOL    HW115410   4.323   0.315   7.120  0.9077  0.0820 -0.2619
 1316SOL    HW215411   4.466   0.304   7.098 -0.4043 -0.2306 -1.4222
 1317SOL     OW15412   1.668   1.294   8.317 -0.3984 -0.5767  0.5919
 1317SOL    HW115413   1.656   1.216   8.263  1.7097 -0.6005  0.1411
 1317SOL    HW215414   1.758   1.284   8.350  0.4046  1.6921 -0.9009
 1318SOL     OW15415   3.207   2.136   1.995  0.8166  0.0340 -0.1444
 1318SOL    HW115416   3.238   2.050   1.966  0.1206  0.2253 -1.4724
 1318SOL    HW215417   3.289   2.185   1.994  0.9142 -0.1174  1.0907
 1319SOL     OW15418   2.347   2.875   7.935 -0.0583 -0.4033  0.7422
 1319SOL    HW115419   2.326   2.934   8.007  0.1136 -0.2707  0.6851
 1319SOL    HW215420   2.395   2.805   7.978  0.9793 -1.4903 -2.1632
 1320SOL     OW15421   4.481   0.245  13.029 -0.0252  0.4865 -0.2790
 1320SOL    HW115422   4.450   0.292  13.107 -2.0027 -1.4133  0.1097
 1320SOL    HW215423   4.504   0.314  12.967 -1.1811  1.1350  0.0138
 1321SOL     OW15424   3.557   2.949  10.029 -0.3670 -0.1660 -0.2423
 1321SOL    HW115425   3.521   2.921   9.946 -0.2319 -1.5089  0.1574
 1321SOL    HW215426   3.486   3.006  10.058  0.2155 -0.8125  2.5154
 1322SOL     OW15427   0.752   2.130   5.856 -0.2992 -0.9083 -0.6403
 1322SOL    HW115428   0.683   2.186   5.890  1.3450  0.8901 -0.2293
 1322SOL    HW215429   0.700   2.068   5.805  0.2756 -1.9121 -0.0017
 1323SOL     OW15430   1.551   4.182   6.587 -0.1430  0.0040 -0.3735
 1323SOL    HW115431   1.613   4.135   6.531 -3.6006 -1.4692 -2.9499
 1323SOL    HW215432   1.567   4.271   6.557 -2.2780 -0.2673 -2.3093
 1324SOL     OW15433   2.019   0.301   8.093 -0.2968  0.3394  0.2634
 1324SOL    HW115434   1.957   0.369   8.120 -2.1212 -0.8736 -0.8821
 1324SOL    HW215435   1.966   0.249   8.032 -0.1581  0.9382 -0.3578
 1325SOL     OW15436   4.717   4.531   2.427  0.2362 -0.1888  0.6609
 1325SOL    HW115437   4.680   4.460   2.375  2.4181 -0.3087 -0.7494
 1325SOL    HW215438   0.064   4.477   2.461 -0.3172 -0.0098  2.0995
 1326SOL     OW15439   1.314   3.582   3.711 -0.6613 -0.7009  0.1553
 1326SOL    HW115440   1.330   3.671   3.742  1.1765 -0.0604 -2.7157
 1326SOL    HW215441   1.390   3.552   3.662 -0.2081  1.9209 -0.6975
 1327SOL     OW15442   0.394   0.701  11.002  0.1434  0.2306  0.4356
 1327SOL    HW115443   0.312   0.668  10.965 -0.0089 -0.8792  1.7704
 1327SOL    HW215444   0.366   0.792  11.009 -0.8384 -0.2178  2.3374
 1328SOL     OW15445   3.693   3.996   6.991 -0.2051 -0.3362  0.2337
 1328SOL    HW115446   3.600   3.979   6.972 -0.6491 -1.7726  3.7634
 1328SOL    HW215447   3.726   3.998   6.901 -0.2819  0.0897  0.2126
 1329SOL     OW15448   0.820   1.688  15.629 -0.2754 -0.0447  0.0856
 1329SOL    HW115449   0.832   1.596  15.650  2.9968  0.7198  1.6329
 1329SOL    HW215450   0.910   1.704  15.602 -0.7028  1.0572 -0.7087
 1330SOL     OW15451   1.669   2.749   4.290 -0.3406  0.1285 -0.0840
 1330SOL    HW115452   1.630   2.784   4.210  0.1448  1.4179  0.2397
 1330SOL    HW215453   1.741   2.809   4.313  0.4257 -1.0519  0.5754
 1331SOL     OW15454   0.362   4.435   4.964 -0.5263  0.4307  0.6311
 1331SOL    HW115455   0.371   4.341   4.980 -0.6545  0.4127  0.5883
 1331SOL    HW215456   0.384   4.436   4.871 -1.2283 -1.6289  0.4489
 1332SOL     OW15457   1.883   3.502  13.992  0.4109  0.2202  0.2767
 1332SOL    HW115458   1.788   3.486  13.997  0.1585  1.2705 -1.1909
 1332SOL    HW215459   1.906   3.474  14.080 -1.2550 -0.1486  0.6037
 1333SOL     OW15460   1.488   3.188  16.046 -0.2227 -0.5787 -0.0710
 1333SOL    HW115461   1.580   3.191  16.020  0.1969 -2.0536  1.2620
 1333SOL    HW215462   1.447   3.253  15.990  0.4849  1.1042  1.3374
 1334SOL     OW15463   4.086   2.818   3.694  0.1678  0.2030 -0.5757
 1334SOL    HW115464   4.055   2.884   3.756 -0.1509 -0.9264  0.4574
 1334SOL    HW215465   4.022   2.824   3.623 -0.1837  2.4020 -0.0831
 1335SOL     OW15466   1.814   0.793   6.814  0.3781 -0.6683  0.4186
 1335SOL    HW115467   1.800   0.702   6.786 -0.6840 -0.3366 -0.1204
 1335SOL    HW215468   1.905   0.788   6.843  1.0335 -0.5217 -1.6472
 1336SOL     OW15469   2.617   2.450  10.868  0.2370  0.5096 -0.4738
 1336SOL    HW115470   2.703   2.488  10.852  0.7791  0.7895  2.9967
 1336SOL    HW215471   2.615   2.438  10.963 -1.8547  0.7937 -0.4776
 1337SOL     OW15472   1.209   1.144   9.019 -0.7126 -0.5492  0.1642
 1337SOL    HW115473   1.120   1.172   8.996 -0.8322 -1.1086 -0.0310
 1337SOL    HW215474   1.206   1.051   8.998 -0.6702 -0.7594  1.0631
 1338SOL     OW15475   0.170   3.624   7.711 -0.6373  0.0916  0.7610
 1338SOL    HW115476   0.230   3.608   7.783  0.5006  0.4843 -0.0981
 1338SOL    HW215477   0.200   3.557   7.650 -1.6281 -0.0386  0.4181
 1339SOL     OW15478   0.038   2.860   7.942 -0.3487 -0.2711 -0.9390
 1339SOL    HW115479   4.697   2.863   7.873 -0.8399 -0.6285 -0.4858
 1339SOL    HW215480   0.078   2.947   7.945 -0.5513 -0.2090  0.0663
 1340SOL     OW15481   4.681   2.262  10.100  0.0909  0.2337  0.0154
 1340SOL    HW115482   4.698   2.350  10.066 -0.0125  0.8630  1.5961
 1340SOL    HW215483   4.595   2.268  10.141  0.6833  0.2458  1.2385
 1341SOL     OW15484   0.152   3.829   4.804  0.4582  0.2669  0.4983
 1341SOL    HW115485   0.212   3.787   4.741  0.3367 -1.4299  1.5034
 1341SOL    HW215486   0.159   3.923   4.788  0.5848  0.2726  0.5865
 1342SOL     OW15487   2.431   0.021  11.351  0.3766  0.0203 -1.0798
 1342SOL    HW115488   2.457   0.085  11.285  0.4341 -0.6739 -1.7313
 1342SOL    HW215489   2.397   0.068  11.426  2.0364 -2.2787  1.1240
 1343SOL     OW15490   4.006   2.028  11.788 -0.3312  0.0625 -0.1457
 1343SOL    HW115491   4.079   1.987  11.740 -1.3933 -1.0255 -0.8509
 1343SOL    HW215492   3.962   1.957  11.834 -1.9286  0.3388 -1.2390
 1344SOL     OW15493   1.517   0.635   3.198 -0.2355 -0.6287  0.1308
 1344SOL    HW115494   1.512   0.720   3.241 -0.5167 -0.8270  0.4906
 1344SOL    HW215495   1.441   0.639   3.140 -2.0502 -2.1241  2.4082
 1345SOL     OW15496   1.642   2.682   9.469  0.2373 -0.5344 -0.3233
 1345SOL    HW115497   1.660   2.755   9.409  0.2851 -0.3123 -0.0404
 1345SOL    HW215498   1.646   2.604   9.414 -2.0636 -0.4438 -0.6166
 1346SOL     OW15499   2.523   4.695  10.851 -0.3225 -0.2428  0.0962
 1346SOL    HW115500   2.557   0.053  10.819  0.7925 -0.5163  0.5718
 1346SOL    HW215501   2.529   4.719  10.944  2.0276 -0.8684  0.0869
 1347SOL     OW15502   3.942   1.560   6.575  0.7985 -0.4954  0.5933
 1347SOL    HW115503   3.885   1.628   6.612 -0.5963 -0.5566 -1.4142
 1347SOL    HW215504   3.906   1.534   6.490  0.7776 -0.1361  0.4905
 1348SOL     OW15505   1.061   2.440   7.241  0.2440  0.4860  0.6003
 1348SOL    HW115506   1.086   2.433   7.333  1.7655 -0.7331  0.0934
 1348SOL    HW215507   1.018   2.525   7.238  1.1978  0.9640  0.4599
 1349SOL     OW15508   0.416   3.520   6.660  0.0344  0.0866  0.3414
 1349SOL    HW115509   0.444   3.607   6.630 -0.8816  0.2586 -0.0115
 1349SOL    HW215510   0.366   3.542   6.739 -2.0164 -0.3023 -0.8647
 1350SOL     OW15511   3.050   3.317   2.367 -0.1504  0.0702  0.3378
 1350SOL    HW115512   3.138   3.310   2.405 -0.0497 -1.2215 -0.1129
 1350SOL    HW215513   3.025   3.225   2.373 -0.9485  0.2428 -0.4487
 1351SOL     OW15514   4.679   2.157   1.983 -0.3685 -0.3397 -0.1770
 1351SOL    HW115515   4.644   2.108   2.058 -1.9893 -0.1367 -0.7961
 1351SOL    HW215516   0.004   2.091   1.935 -1.4890 -1.0619 -0.3735
 1352SOL     OW15517   1.669   4.216   7.218 -0.3073 -0.0660 -0.4081
 1352SOL    HW115518   1.681   4.267   7.298 -1.8569 -2.3317  1.2565
 1352SOL    HW215519   1.574   4.225   7.209 -0.4244 -0.7115  0.2048
 1353SOL     OW15520   4.583   2.261   7.516 -0.1296  0.1745 -0.1298
 1353SOL    HW115521   4.556   2.283   7.427  0.9569  0.5043 -0.3796
 1353SOL    HW215522   4.514   2.200   7.541  0.1933  0.0866  0.5449
 1354SOL     OW15523   0.417   1.008   9.216 -0.0605 -0.0692 -0.3919
 1354SOL    HW115524   0.398   1.006   9.310 -3.1952  1.3971 -1.0127
 1354SOL    HW215525   0.489   1.071   9.207 -0.9315  1.0323  0.3113
 1355SOL     OW15526   0.045   1.558   0.083 -0.1158  0.1593 -0.3164
 1355SOL    HW115527   0.098   1.629   0.119  0.6352  0.1314 -1.3815
 1355SOL    HW215528   4.686   1.600   0.067 -0.5427 -0.0822  1.3132
 1356SOL     OW15529   1.168   3.322  13.685 -0.3241  0.1744 -0.1711
 1356SOL    HW115530   1.091   3.269  13.704 -0.8723  0.0207 -2.8221
 1356SOL    HW215531   1.215   3.306  13.767  0.9143 -4.1845 -1.7427
 1357SOL     OW15532   2.727   0.164  12.511 -0.2976 -0.0269  0.3883
 1357SOL    HW115533   2.701   0.101  12.578 -1.4411  0.2034  0.1623
 1357SOL    HW215534   2.656   0.227  12.505  0.3690  0.7647  0.8781
 1358SOL     OW15535   4.280   3.352  12.611 -0.6533  0.4695  0.0016
 1358SOL    HW115536   4.240   3.297  12.678 -0.5999 -1.6693 -1.7285
 1358SOL    HW215537   4.213   3.344  12.544  0.4466  0.7904 -1.1490
 1359SOL     OW15538   2.543   0.882  15.699  0.1198  0.3110 -0.5076
 1359SOL    HW115539   2.551   0.833  15.780  1.1892  0.1981 -0.6816
 1359SOL    HW215540   2.557   0.974  15.722  1.2274  0.1581 -0.5522
 1360SOL     OW15541   2.280   1.243   6.753  0.1347  0.2683 -0.0369
 1360SOL    HW115542   2.188   1.267   6.742  0.8380  2.5023 -1.0688
 1360SOL    HW215543   2.319   1.325   6.784  1.9569 -1.1168  1.3595
 1361SOL     OW15544   2.172   1.577   7.421 -0.0724 -0.1032  0.0089
 1361SOL    HW115545   2.168   1.626   7.339  0.4640  1.4669  0.9367
 1361SOL    HW215546   2.090   1.607   7.462 -0.4591 -0.8766 -0.1962
 1362SOL     OW15547   3.061   3.072   5.445  0.4571  0.0835 -0.7166
 1362SOL    HW115548   3.028   3.159   5.471 -0.4071 -0.7208  0.8905
 1362SOL    HW215549   2.980   3.022   5.434  1.3989 -0.9596 -2.8648
 1363SOL     OW15550   2.243   1.112  14.554 -0.1553 -0.5278  0.3021
 1363SOL    HW115551   2.187   1.035  14.549 -0.7577 -0.0243 -0.8682
 1363SOL    HW215552   2.301   1.094  14.628 -0.0959 -0.6260  0.2309
 1364SOL     OW15553   1.341   1.174   0.044  0.2367  0.5131  1.0153
 1364SOL    HW115554   1.333   1.140  17.657 -0.6133 -1.0485  1.6829
 1364SOL    HW215555   1.413   1.236   0.037  1.4341 -1.0705 -0.8556
 1365SOL     OW15556   1.980   4.206   0.638 -0.0280  0.0910  0.2561
 1365SOL    HW115557   1.969   4.172   0.727  2.1505 -1.9028 -0.2378
 1365SOL    HW215558   1.910   4.168   0.585 -0.8988 -0.3995  1.7796
 1366SOL     OW15559   2.887   0.733   0.052  0.6506  0.9413 -0.5409
 1366SOL    HW115560   2.868   0.684   0.132 -1.4270  1.3960 -0.7579
 1366SOL    HW215561   2.954   0.677   0.014  0.0280 -1.1340  1.4066
 1367SOL     OW15562   1.994   3.629   3.948  0.3317 -0.1013 -0.6850
 1367SOL    HW115563   1.971   3.669   3.864  0.1909 -2.3721 -1.7164
 1367SOL    HW215564   2.052   3.700   3.976 -0.3067  0.2406 -0.2222
 1368SOL     OW15565   3.407   4.065   3.067  0.2670 -0.1212 -0.3608
 1368SOL    HW115566   3.334   4.004   3.055 -0.1215  0.3778 -0.5909
 1368SOL    HW215567   3.366   4.149   3.043  1.3169  1.0901  2.1007
 1369SOL     OW15568   1.564   2.515   6.518  0.2015 -0.2359 -0.4993
 1369SOL    HW115569   1.598   2.488   6.433  2.2115  2.6466 -0.6027
 1369SOL    HW215570   1.577   2.428   6.558 -0.7264  1.3737  3.3145
 1370SOL     OW15571   3.863   3.864  13.493  0.9588  1.0135 -0.6242
 1370SOL    HW115572   3.946   3.899  13.525  1.0664  0.9846 -0.8691
 1370SOL    HW215573   3.832   3.929  13.430  0.2044  1.8402  0.6161
 1371SOL     OW15574   3.299   2.897   8.495  0.5571  0.0359  0.3059
 1371SOL    HW115575   3.271   2.834   8.562  1.1927  1.3124  1.7521
 1371SOL    HW215576   3.331   2.972   8.544  3.2668 -0.1551 -1.1969
 1372SOL     OW15577   4.276   4.051  16.128  0.5235  0.2571 -0.2217
 1372SOL    HW115578   4.349   4.067  16.189  0.0006  0.5679  0.3295
 1372SOL    HW215579   4.297   3.963  16.099  1.1680  0.6843 -1.0606
 1373SOL     OW15580   0.700   3.047   6.240  0.3428 -0.0440  0.5360
 1373SOL    HW115581   0.733   3.008   6.159 -1.6118  0.6490 -0.6001
 1373SOL    HW215582   0.721   3.140   6.230 -1.6363  0.5958  2.2886
 1374SOL     OW15583   1.606   2.517  11.695 -0.2590 -0.1379  0.2975
 1374SOL    HW115584   1.607   2.484  11.785  0.6208  0.4570  0.5010
 1374SOL    HW215585   1.662   2.454  11.649  3.9579  2.9960  1.1586
 1375SOL     OW15586   0.168   1.727   9.370  0.5156  0.2747  0.2180
 1375SOL    HW115587   0.124   1.780   9.437  2.6336  0.1810  1.6799
 1375SOL    HW215588   0.163   1.786   9.295 -0.2776  0.6819  0.5870
 1376SOL     OW15589   3.874   1.240   8.204 -0.2068  0.0664  0.3475
 1376SOL    HW115590   3.806   1.176   8.226  1.3363 -1.2148  1.3923
 1376SOL    HW215591   3.907   1.218   8.118 -3.6361 -1.9899 -0.4472
 1377SOL     OW15592   3.695   3.066   5.540 -0.1198 -0.3278 -0.0630
 1377SOL    HW115593   3.637   3.141   5.527 -0.9005 -1.0605 -0.8319
 1377SOL    HW215594   3.751   3.068   5.463  2.0600 -0.2322  1.5224
 1378SOL     OW15595   3.035   0.172   3.513  0.0906 -0.2133  0.4528
 1378SOL    HW115596   3.039   0.263   3.542  0.5355 -0.6947  1.8871
 1378SOL    HW215597   2.959   0.190   3.459  1.5612 -0.6113 -1.7546
 1379SOL     OW15598   3.107   3.649   5.974 -0.2076 -0.4687 -0.2424
 1379SOL    HW115599   3.152   3.565   5.983 -0.7623 -0.8003 -0.5584
 1379SOL    HW215600   3.016   3.623   5.989 -0.0607  1.3952  3.6393
 1380SOL     OW15601   4.310   4.639   7.198 -0.2697 -0.1594 -0.2736
 1380SOL    HW115602   4.223   4.641   7.158 -0.0235  3.1637 -0.6620
 1380SOL    HW215603   4.363   4.633   7.118 -0.8824 -2.2708 -0.5169
 1381SOL     OW15604   4.696   3.375   6.920  0.1778 -0.4296  0.0192
 1381SOL    HW115605   4.696   3.380   6.824 -1.0908  2.6543  0.1856
 1381SOL    HW215606   0.038   3.442   6.938 -0.2015  0.6272 -2.5193
 1382SOL     OW15607   0.741   1.140  12.889 -0.1839 -0.7225  0.1591
 1382SOL    HW115608   0.832   1.119  12.909  0.0974  0.7144  0.3962
 1382SOL    HW215609   0.709   1.050  12.880 -1.9904 -0.2215  1.7182
 1383SOL     OW15610   0.255   3.374   5.492 -0.1487 -0.1165  0.0874
 1383SOL    HW115611   0.345   3.359   5.522  0.0068  2.6237  1.0200
 1383SOL    HW215612   0.214   3.296   5.527 -2.1987  0.2123 -1.6142
 1384SOL     OW15613   2.681   2.781   4.228  0.1624 -0.3410  0.7078
 1384SOL    HW115614   2.685   2.784   4.323  1.5941  1.6591  0.5914
 1384SOL    HW215615   2.665   2.873   4.206 -1.8062 -0.1030  3.2024
 1385SOL     OW15616   1.397   3.254   8.294  0.7154 -0.0967 -0.4788
 1385SOL    HW115617   1.450   3.175   8.305  2.4912  1.3730  1.5759
 1385SOL    HW215618   1.358   3.229   8.211  1.1034 -1.1292 -0.3514
 1386SOL     OW15619   2.786   2.026  10.633 -0.0641  0.3993  0.4383
 1386SOL    HW115620   2.693   2.023  10.655 -0.4168  1.7971 -0.9007
 1386SOL    HW215621   2.805   1.933  10.650 -4.5270 -0.5475  0.2134
 1387SOL     OW15622   2.181   0.073   1.117  0.3575  0.6289  0.2715
 1387SOL    HW115623   2.275   0.078   1.130  0.0745  1.2847  1.9524
 1387SOL    HW215624   2.145   0.024   1.191  2.3400 -3.3318 -1.3594
 1388SOL     OW15625   0.263   3.484   4.928 -0.4075 -0.3532 -0.1361
 1388SOL    HW115626   0.328   3.431   4.881 -1.1825  0.1960 -1.8109
 1388SOL    HW215627   0.310   3.517   5.004 -1.6834  0.0989  0.4437
 1389SOL     OW15628   3.438   2.943   1.923 -0.2141  0.0621  0.2430
 1389SOL    HW115629   3.461   2.886   1.997 -1.1139 -2.1428 -1.1714
 1389SOL    HW215630   3.519   2.994   1.915  0.1415 -0.7514 -1.3708
 1390SOL     OW15631   3.571   4.616   7.135 -0.0882 -0.3022 -0.3728
 1390SOL    HW115632   3.532   4.648   7.216 -0.4066 -2.0746  0.1778
 1390SOL    HW215633   3.622   4.691   7.105 -0.8779  1.4195  2.5687
 1391SOL     OW15634   2.425   1.788   6.016  0.0116 -0.4766 -0.1054
 1391SOL    HW115635   2.466   1.710   6.054 -0.1703 -0.8010 -0.5896
 1391SOL    HW215636   2.369   1.812   6.090  1.2955  1.6591  0.1834
 1392SOL     OW15637   0.637   0.321  12.244  0.7086  0.2321 -0.4741
 1392SOL    HW115638   0.632   0.306  12.338 -0.8321  2.6635 -0.1763
 1392SOL    HW215639   0.609   0.235  12.215 -1.6013  0.3182  1.5356
 1393SOL     OW15640   1.788   2.771   6.042  0.2269 -0.0948  0.2256
 1393SOL    HW115641   1.721   2.788   6.108  0.0183 -0.2002  0.0415
 1393SOL    HW215642   1.741   2.731   5.968 -0.5170 -0.8489  1.1017
 1394SOL     OW15643   2.538   0.041  15.004  0.3759 -0.2189  0.0266
 1394SOL    HW115644   2.521   4.674  14.982 -1.5420  0.2691 -0.5139
 1394SOL    HW215645   2.608   0.057  14.941 -0.0330  1.7148  0.0719
 1395SOL     OW15646   2.197   1.380   5.070  0.0344  0.9764 -0.2820
 1395SOL    HW115647   2.241   1.336   4.997  1.0843  0.7876  0.4561
 1395SOL    HW215648   2.167   1.466   5.041 -0.9101  0.3958 -0.9982
 1396SOL     OW15649   4.675   1.189  13.919 -0.5121  0.3153 -0.6643
 1396SOL    HW115650   0.012   1.196  13.846 -0.6508  2.3881 -0.5667
 1396SOL    HW215651   4.718   1.248  13.981 -0.5562  1.4787 -1.7455
 1397SOL     OW15652   0.910   3.365   4.174 -0.4934 -0.0558 -0.9666
 1397SOL    HW115653   0.906   3.282   4.127 -0.0138 -0.1175 -0.9015
 1397SOL    HW215654   0.834   3.418   4.151 -0.4185  0.4870  0.0263
 1398SOL     OW15655   4.660   0.698  14.708 -0.0294 -0.5668  0.0451
 1398SOL    HW115656   4.565   0.708  14.716 -0.0912 -0.3582 -1.0352
 1398SOL    HW215657   4.687   0.742  14.790  1.6494  1.3756 -1.5417
 1399SOL     OW15658   0.277   0.075  15.863 -0.1538 -0.6925 -0.2664
 1399SOL    HW115659   0.266   4.707  15.844 -0.9910 -0.0766 -2.8816
 1399SOL    HW215660   0.359   0.070  15.911 -0.2295  0.2963 -0.0322
 1400SOL     OW15661   3.748   2.008   7.076 -0.4730  0.2490  0.6046
 1400SOL    HW115662   3.667   1.971   7.041 -0.9355 -0.6901  2.6617
 1400SOL    HW215663   3.719   2.054   7.155 -0.9195  2.5026 -0.8657
 1401SOL     OW15664   1.796   0.337   1.746 -0.0681  0.0158  0.2975
 1401SOL    HW115665   1.709   0.374   1.764 -1.4041 -2.0331 -1.8958
 1401SOL    HW215666   1.823   0.314   1.835  0.2708 -3.4478 -0.6814
 1402SOL     OW15667   4.307   0.504   4.096 -0.0309  0.1608 -0.2701
 1402SOL    HW115668   4.395   0.468   4.097  0.2857  0.9202 -1.1550
 1402SOL    HW215669   4.316   0.568   4.166  1.3138 -1.7065  1.2685
 1403SOL     OW15670   4.212   4.204   6.856  0.0298 -0.4517 -0.0352
 1403SOL    HW115671   4.170   4.163   6.931  0.4844 -1.1937 -0.1855
 1403SOL    HW215672   4.283   4.252   6.898 -0.4704  0.8157 -0.6418
 1404SOL     OW15673   4.027   0.510   3.351  0.2683  0.7632 -0.2116
 1404SOL    HW115674   4.069   0.581   3.304  1.8292 -0.7864 -1.1708
 1404SOL    HW215675   3.964   0.565   3.397  0.2401 -1.1172  2.0132
 1405SOL     OW15676   3.858   3.138   6.192 -0.3788  0.4691 -0.3539
 1405SOL    HW115677   3.889   3.079   6.123  2.9721  0.6018  1.0458
 1405SOL    HW215678   3.924   3.102   6.251 -1.4068 -0.6776  0.0831
 1406SOL     OW15679   3.470   2.910   2.457  0.3671 -0.6840 -0.2842
 1406SOL    HW115680   3.480   2.821   2.423  1.2729  0.7559 -3.7492
 1406SOL    HW215681   3.476   2.967   2.380  1.1754 -0.6836 -0.2199
 1407SOL     OW15682   1.437   3.907   4.067  0.1824 -0.1121  1.1558
 1407SOL    HW115683   1.379   3.858   4.126 -1.9970  0.0699 -0.8243
 1407SOL    HW215684   1.524   3.882   4.098 -0.0653 -0.7796  1.3194
 1408SOL     OW15685   1.436   1.370   4.424 -0.3170 -0.5724 -0.1936
 1408SOL    HW115686   1.498   1.311   4.466 -1.2675 -0.3542  1.4807
 1408SOL    HW215687   1.485   1.427   4.365 -0.0443  0.3168  0.8912
 1409SOL     OW15688   3.895   2.538   7.321  0.1870 -0.2602 -0.0094
 1409SOL    HW115689   3.911   2.632   7.313  0.7458 -0.3063  0.6277
 1409SOL    HW215690   3.972   2.517   7.374  1.4659  0.2489 -1.6529
 1410SOL     OW15691   1.284   3.444   0.416 -0.1363 -0.1085 -0.1042
 1410SOL    HW115692   1.192   3.466   0.428 -0.3976 -0.8658 -0.7168
 1410SOL    HW215693   1.310   3.418   0.505 -0.4733 -0.9773 -0.2700
 1411SOL     OW15694   3.640   1.804  17.057 -0.1816  0.3327  0.1033
 1411SOL    HW115695   3.661   1.894  17.084 -0.7632  1.1396 -2.1396
 1411SOL    HW215696   3.559   1.824  17.010  0.6201 -0.2895 -1.5498
 1412SOL     OW15697   3.503   2.769   8.666 -0.0862  0.0562 -0.2310
 1412SOL    HW115698   3.596   2.793   8.659 -0.4062  1.3794  0.1803
 1412SOL    HW215699   3.517   2.690   8.717  0.8748  0.1416 -0.3572
 1413SOL     OW15700   3.875   2.291   3.543 -0.0233  0.1052 -0.0899
 1413SOL    HW115701   3.819   2.279   3.620  0.3696  1.1592  0.3601
 1413SOL    HW215702   3.844   2.379   3.521 -1.2114 -0.5965 -1.2592
 1414SOL     OW15703   0.167   0.849  12.519 -0.8732 -0.1206 -0.2724
 1414SOL    HW115704   0.194   0.925  12.467  2.2157  0.1494  1.7280
 1414SOL    HW215705   0.095   0.872  12.577 -0.2389 -2.6454  1.5052
 1415SOL     OW15706   2.239   1.953   7.295  0.2868 -0.3641  0.0297
 1415SOL    HW115707   2.224   1.870   7.252  1.9896  0.2386 -1.7594
 1415SOL    HW215708   2.237   1.916   7.383 -2.2640 -0.4518 -0.0785
 1416SOL     OW15709   1.431   3.527   7.553 -0.9794  0.8249  0.1681
 1416SOL    HW115710   1.414   3.598   7.615  2.3423  0.8033  1.0981
 1416SOL    HW215711   1.463   3.571   7.474 -0.5345  1.8495  0.9164
 1417SOL     OW15712   0.593   2.508   2.392  0.1062 -0.6666 -0.5834
 1417SOL    HW115713   0.555   2.559   2.321  0.5000  1.7765  0.9672
 1417SOL    HW215714   0.605   2.576   2.458  1.3740 -0.5481 -0.9459
 1418SOL     OW15715   0.384   3.314   1.323 -0.6734  0.7020 -0.3230
 1418SOL    HW115716   0.391   3.269   1.408  0.7048 -0.0056 -0.8034
 1418SOL    HW215717   0.448   3.385   1.332  1.1055 -1.0531  0.9499
 1419SOL     OW15718   2.225   4.122  10.432  0.3572  0.0461  0.2400
 1419SOL    HW115719   2.198   4.212  10.451  2.0756  0.5613  0.1810
 1419SOL    HW215720   2.195   4.117  10.341  1.2695  0.9346 -0.1054
 1420SOL     OW15721   3.015   3.831   8.139  0.0882  0.3432  0.7670
 1420SOL    HW115722   2.994   3.747   8.099  2.6383  0.0433  0.0236
 1420SOL    HW215723   3.067   3.868   8.066  1.5938 -0.0967  1.6104
 1421SOL     OW15724   3.520   1.086   2.335 -0.3809  0.1773 -0.3838
 1421SOL    HW115725   3.478   1.132   2.407 -0.9074  1.6969 -1.6692
 1421SOL    HW215726   3.594   1.144   2.319 -0.8966  0.9330 -0.0439
 1422SOL     OW15727   1.613   2.108   6.911  0.3003 -0.0180  0.7584
 1422SOL    HW115728   1.706   2.128   6.918  0.3853 -0.0184 -0.3964
 1422SOL    HW215729   1.598   2.031   6.966 -0.1261  1.9324  3.3289
 1423SOL     OW15730   3.476   0.044   3.602 -0.2267  0.2592  0.1502
 1423SOL    HW115731   3.431   4.688   3.583  1.7933 -0.0737 -3.1637
 1423SOL    HW215732   3.436   0.073   3.684  4.2480  0.7641  2.1841
 1424SOL     OW15733   2.760   2.571  11.649 -0.9654 -0.1376 -0.0709
 1424SOL    HW115734   2.817   2.495  11.640 -0.6241 -0.1745  2.3412
 1424SOL    HW215735   2.727   2.588  11.561 -3.6727  1.1100  1.1757
 1425SOL     OW15736   1.348   2.657   2.274  0.1516 -0.3493 -0.3776
 1425SOL    HW115737   1.392   2.736   2.305  2.2855 -1.6381 -0.0931
 1425SOL    HW215738   1.327   2.624   2.361  0.7996 -0.5443 -0.2939
 1426SOL     OW15739   0.586   1.080   7.542  0.7647  0.2715  0.0244
 1426SOL    HW115740   0.663   1.022   7.545 -0.2154 -1.0714 -1.0549
 1426SOL    HW215741   0.526   1.013   7.510  2.3331 -0.6820 -0.9450
 1427SOL     OW15742   4.169   0.281   6.532 -0.2042  0.1109  0.3742
 1427SOL    HW115743   4.134   0.229   6.460  1.2930 -0.9891  0.4369
 1427SOL    HW215744   4.205   0.219   6.596  1.3174  3.0041  2.3498
 1428SOL     OW15745   1.688   2.490   8.773  0.1740  0.4196  0.2104
 1428SOL    HW115746   1.678   2.577   8.735  1.5760  0.0873 -0.9237
 1428SOL    HW215747   1.742   2.507   8.850  0.8475 -1.2593  0.1055
 1429SOL     OW15748   4.487   4.349   6.535 -0.0186 -0.5549 -0.5638
 1429SOL    HW115749   4.547   4.376   6.606 -1.1401 -0.0237  0.1814
 1429SOL    HW215750   4.462   4.261   6.566 -0.9447 -0.0440  0.1445
 1430SOL     OW15751   4.194   2.048   6.010  0.0581  0.4618 -0.3673
 1430SOL    HW115752   4.186   2.072   6.102  2.2615  0.4743 -0.1815
 1430SOL    HW215753   4.210   2.134   5.970  1.3205 -0.6647 -2.3099
 1431SOL     OW15754   4.336   3.130  15.747  0.1346  0.3048  0.1970
 1431SOL    HW115755   4.403   3.064  15.765  1.0484  1.1748 -0.0015
 1431SOL    HW215756   4.386   3.196  15.699 -0.7580  0.2277 -0.8161
 1432SOL     OW15757   4.256   1.103   8.938  0.2210 -0.1160  0.0071
 1432SOL    HW115758   4.280   1.194   8.919 -1.1368  0.2668  0.1038
 1432SOL    HW215759   4.217   1.110   9.026 -0.0949 -2.7515  0.0600
 1433SOL     OW15760   2.316   4.165   8.963  0.2902 -0.6184  0.6715
 1433SOL    HW115761   2.359   4.239   8.922 -1.9640  0.5415  0.3652
 1433SOL    HW215762   2.328   4.097   8.897 -0.8496 -0.3176  0.1602
 1434SOL     OW15763   0.004   1.443   7.920 -0.0451 -0.5421 -0.3736
 1434SOL    HW115764   0.005   1.367   7.978 -2.2804  0.0975  0.4932
 1434SOL    HW215765   0.057   1.412   7.846  2.0992  0.0544  0.9335
 1435SOL     OW15766   2.248   2.176   1.226 -0.7246 -0.0297  0.7632
 1435SOL    HW115767   2.318   2.235   1.196 -1.8685  0.8826 -0.1261
 1435SOL    HW215768   2.300   2.142   1.299 -0.8847  2.4778  2.0424
 1436SOL     OW15769   0.457   4.657  15.318 -0.7570 -0.1947  0.5915
 1436SOL    HW115770   0.459   4.668  15.223 -1.1698 -0.4832  0.5479
 1436SOL    HW215771   0.549   4.656  15.344 -0.4815 -0.1585 -0.3620
 1437SOL     OW15772   3.982   1.877   4.181 -0.8153  0.2060 -0.3102
 1437SOL    HW115773   3.981   1.951   4.120 -1.6564 -0.5021 -1.1706
 1437SOL    HW215774   3.938   1.914   4.257 -1.1390  2.2761 -1.4873
 1438SOL     OW15775   0.782   4.548  13.663 -0.5856  0.1196  0.3842
 1438SOL    HW115776   0.715   4.483  13.688  1.8718 -2.1050  1.1760
 1438SOL    HW215777   0.775   4.543  13.567 -0.5271  2.9310  0.2330
 1439SOL     OW15778   3.192   4.202  12.777  0.1279  0.2118 -0.6977
 1439SOL    HW115779   3.111   4.250  12.757 -0.2577 -0.6934 -1.3281
 1439SOL    HW215780   3.203   4.214  12.871 -0.2399  1.6649 -0.8486
 1440SOL     OW15781   0.385   0.544   3.599  0.1685  0.0509 -0.2871
 1440SOL    HW115782   0.300   0.551   3.557  0.4554  2.7757 -0.4028
 1440SOL    HW215783   0.424   0.495   3.526  0.8745 -0.5112  0.4596
 1441SOL     OW15784   0.513   2.081   3.865  0.0756 -0.8861  0.1472
 1441SOL    HW115785   0.586   2.027   3.835  0.3278 -0.2214 -0.4213
 1441SOL    HW215786   0.441   2.020   3.849  0.3971 -1.3418  0.3877
 1442SOL     OW15787   2.274   3.097   8.119  0.6363 -0.0583 -0.0742
 1442SOL    HW115788   2.193   3.132   8.156 -0.0431 -1.5988 -0.0943
 1442SOL    HW215789   2.314   3.167   8.066 -0.7289 -0.7860 -2.0673
 1443SOL     OW15790   2.799   2.416   0.239 -0.0538 -0.7351  0.0806
 1443SOL    HW115791   2.708   2.385   0.247 -0.8128  1.7038  0.7890
 1443SOL    HW215792   2.809   2.387   0.148 -1.2034 -0.4744 -0.1305
 1444SOL     OW15793   3.794   0.237   5.440 -0.2644 -0.0504  0.4302
 1444SOL    HW115794   3.741   0.189   5.503 -0.1409  0.7416  1.1336
 1444SOL    HW215795   3.867   0.175   5.436  0.7366  1.2536 -1.9281
 1445SOL     OW15796   3.445   1.776   9.647 -0.0413  0.4099  0.4555
 1445SOL    HW115797   3.373   1.754   9.707  0.4733 -0.0433  0.9122
 1445SOL    HW215798   3.478   1.862   9.673 -0.3729  0.8055 -0.4231
 1446SOL     OW15799   4.427   3.428   1.282  0.8033  0.4366  0.2439
 1446SOL    HW115800   4.373   3.502   1.310  1.0438  0.9043 -0.5528
 1446SOL    HW215801   4.435   3.435   1.187  1.2996 -2.0474  0.0914
 1447SOL     OW15802   4.260   1.710   6.569  0.6426 -0.0473 -0.1272
 1447SOL    HW115803   4.199   1.681   6.637 -0.4425 -0.0718 -1.1167
 1447SOL    HW215804   4.234   1.649   6.500 -0.2367 -1.3306  1.3251
 1448SOL     OW15805   2.222   3.560   2.704  0.1662  0.1804  0.6070
 1448SOL    HW115806   2.134   3.550   2.668  0.2858  0.5257  0.2302
 1448SOL    HW215807   2.227   3.488   2.768 -1.9199  0.4209  1.0389
 1449SOL     OW15808   1.197   2.793   2.655  0.1478  0.5606 -0.5413
 1449SOL    HW115809   1.132   2.862   2.643 -0.0843  0.0912 -2.0394
 1449SOL    HW215810   1.269   2.856   2.656 -0.3634  1.1094  1.4168
 1450SOL     OW15811   3.832   0.783   4.140  0.3979  0.1935  0.2678
 1450SOL    HW115812   3.859   0.818   4.225  0.3462  0.0951  0.3243
 1450SOL    HW215813   3.893   0.711   4.125  0.0167 -0.2317  0.7784
 1451SOL     OW15814   3.527   3.329   2.651  0.2474  0.1717  0.4334
 1451SOL    HW115815   3.582   3.253   2.636  1.2290  0.9217  0.2692
 1451SOL    HW215816   3.547   3.347   2.742  0.1285  0.7989  0.3329
 1452SOL     OW15817   2.983   4.511   8.796  0.6415 -0.2092  0.5265
 1452SOL    HW115818   3.015   4.601   8.790 -0.6115  0.1868 -0.3758
 1452SOL    HW215819   2.969   4.486   8.704 -0.4293  0.0126  0.6254
 1453SOL     OW15820   1.149   3.301  13.299 -0.2035 -0.2671 -0.3590
 1453SOL    HW115821   1.088   3.293  13.226 -0.0634 -1.5014 -0.3551
 1453SOL    HW215822   1.185   3.389  13.288 -1.3299  0.1211 -0.9353
 1454SOL     OW15823   1.835   2.361   9.376  0.1677 -0.3000 -0.1063
 1454SOL    HW115824   1.896   2.432   9.355  0.3500 -0.3261  0.3342
 1454SOL    HW215825   1.757   2.415   9.359 -2.2458 -3.2051  1.8437
 1455SOL     OW15826   1.052   0.523   6.754 -0.3305  0.3870 -0.4499
 1455SOL    HW115827   1.017   0.471   6.827 -4.0897  2.0593 -1.0924
 1455SOL    HW215828   1.141   0.492   6.737 -1.3618 -1.8877 -1.6484
 1456SOL     OW15829   3.896   1.821  14.429 -0.0689  0.1487  0.3984
 1456SOL    HW115830   3.829   1.864  14.376  1.5565 -0.3034 -2.0330
 1456SOL    HW215831   3.850   1.789  14.506  0.8841 -0.4139  0.7297
 1457SOL     OW15832   2.869   1.021   8.693 -0.2472  0.0578 -0.3855
 1457SOL    HW115833   2.791   1.063   8.731  1.0089  2.5791 -0.6156
 1457SOL    HW215834   2.851   1.033   8.600  1.1791  0.5532 -0.5920
 1458SOL     OW15835   4.247   1.768   8.807 -0.6990  0.0780  0.3218
 1458SOL    HW115836   4.330   1.765   8.856  0.8573  0.9635 -2.2449
 1458SOL    HW215837   4.237   1.862   8.789 -1.8739  0.3898  2.6534
 1459SOL     OW15838   1.175   0.807   4.487 -0.2610 -0.5703 -0.0193
 1459SOL    HW115839   1.203   0.718   4.506 -0.2560 -1.1551 -2.7359
 1459SOL    HW215840   1.156   0.799   4.393 -1.9022 -0.0532  0.2650
 1460SOL     OW15841   2.849   0.120  17.117 -0.9955 -0.5486  0.2019
 1460SOL    HW115842   2.826   0.145  17.027 -1.4875  2.8761  1.2800
 1460SOL    HW215843   2.882   0.030  17.112 -0.1937 -0.2350 -0.3168
 1461SOL     OW15844   2.833   3.094   1.326  0.1610  0.5019  0.6587
 1461SOL    HW115845   2.760   3.038   1.302  0.7331 -0.6230  1.5298
 1461SOL    HW215846   2.857   3.070   1.416  1.6911 -0.3579  0.0100
 1462SOL     OW15847   4.159   1.549   5.181  0.5060 -0.0323 -0.3679
 1462SOL    HW115848   4.206   1.565   5.099 -1.4373 -0.8078 -1.6384
 1462SOL    HW215849   4.217   1.506   5.243 -0.0978  0.2437  0.3993
 1463SOL     OW15850   0.935   0.733   8.150 -0.3555 -0.2204 -0.4470
 1463SOL    HW115851   0.877   0.809   8.157 -0.1047 -0.0142 -0.6004
 1463SOL    HW215852   0.878   0.680   8.094 -0.3345 -0.0748 -0.6038
 1464SOL     OW15853   3.420   2.395   3.408  0.1959 -0.4861 -0.5412
 1464SOL    HW115854   3.344   2.406   3.465  0.7800  0.2620  0.1107
 1464SOL    HW215855   3.379   2.337   3.345 -0.1212  0.7171 -1.4386
 1465SOL     OW15856   3.240   0.654   5.258 -0.0795  0.5023  0.2768
 1465SOL    HW115857   3.307   0.693   5.315  0.3219  1.5248 -0.8943
 1465SOL    HW215858   3.169   0.651   5.323 -0.5210  0.3595 -0.2131
 1466SOL     OW15859   3.746   1.014   8.322  0.0932 -0.3811  0.4078
 1466SOL    HW115860   3.668   1.004   8.377 -0.1053 -1.0456  0.0061
 1466SOL    HW215861   3.807   0.959   8.370  0.8559  1.9401  2.1070
 1467SOL     OW15862   4.715   3.614   3.237  0.1860 -0.3618 -0.1219
 1467SOL    HW115863   0.002   3.530   3.280  0.9900 -0.4011 -0.4377
 1467SOL    HW215864   0.051   3.601   3.165  0.4156  1.6362 -0.3068
 1468SOL     OW15865   3.388   1.753   2.594  0.0581  0.8418  0.4903
 1468SOL    HW115866   3.361   1.661   2.598 -3.5923  1.7890 -1.7952
 1468SOL    HW215867   3.306   1.797   2.572 -0.9480 -1.1905  0.1429
 1469SOL     OW15868   3.288   1.736  17.387  0.2600  0.4906 -0.2977
 1469SOL    HW115869   3.302   1.725  17.293 -1.2821 -0.7550 -0.3862
 1469SOL    HW215870   3.371   1.707  17.425 -0.3592 -1.5535 -0.5470
 1470SOL     OW15871   0.092   3.098  15.715  0.6333  0.4609  0.5395
 1470SOL    HW115872   0.081   3.191  15.696  1.6642  0.5767  0.4913
 1470SOL    HW215873   0.130   3.118  15.800  1.1020 -0.2549  0.4927
 1471SOL     OW15874   1.499   1.887   7.056  0.0690  0.2356  0.1346
 1471SOL    HW115875   1.549   1.871   7.136 -0.8304  0.8279  0.8212
 1471SOL    HW215876   1.508   1.809   7.001 -1.8105 -1.4992  2.3118
 1472SOL     OW15877   4.550   1.274   9.143  0.1747 -0.1705  0.6685
 1472SOL    HW115878   4.459   1.249   9.157 -0.2363  0.2543 -1.2061
 1472SOL    HW215879   4.552   1.361   9.183 -1.3193  0.5254 -0.7569
 1473SOL     OW15880   0.178   2.413   5.738  0.1235  0.2950 -0.2190
 1473SOL    HW115881   0.207   2.493   5.694 -0.0626  0.0478 -0.7898
 1473SOL    HW215882   0.200   2.349   5.670 -1.8411 -1.9816  1.3085
 1474SOL     OW15883   1.381   2.843   0.647  0.6213  0.3252  0.1727
 1474SOL    HW115884   1.295   2.815   0.618 -0.3923  5.3264 -1.6954
 1474SOL    HW215885   1.432   2.769   0.614 -0.2630  0.9473 -2.5746
 1475SOL     OW15886   0.457   2.425   3.718 -0.0000  0.0540  0.3747
 1475SOL    HW115887   0.387   2.488   3.736  0.9039  0.5843  1.9912
 1475SOL    HW215888   0.405   2.371   3.657 -0.7893  2.6689 -1.2773
 1476SOL     OW15889   1.969   4.387   9.288  0.0164 -0.1474  0.4299
 1476SOL    HW115890   2.062   4.407   9.287  0.2733 -1.2654  1.5461
 1476SOL    HW215891   1.941   4.389   9.197  1.1177 -0.4965  0.0905
 1477SOL     OW15892   0.938   0.223  15.365 -0.2718 -0.5046 -0.6669
 1477SOL    HW115893   0.898   0.174  15.436 -2.1442  3.2778  0.9299
 1477SOL    HW215894   0.975   0.296  15.415  0.7316  1.0030 -3.6183
 1478SOL     OW15895   1.692   2.990  13.077  0.4326  0.2122  0.3124
 1478SOL    HW115896   1.774   2.984  13.126  0.3199 -0.0155  0.4745
 1478SOL    HW215897   1.626   2.958  13.138  0.3879 -1.7377 -0.7380
 1479SOL     OW15898   1.413   4.133   7.589 -0.2228  0.0470  0.1688
 1479SOL    HW115899   1.413   4.229   7.591  0.8828  0.0346  0.6828
 1479SOL    HW215900   1.319   4.130   7.570  0.0598  2.3959 -1.6680
 1480SOL     OW15901   2.742   3.831   8.215 -0.1965  0.6676 -0.0815
 1480SOL    HW115902   2.713   3.768   8.282 -0.4718  1.3191  0.4119
 1480SOL    HW215903   2.837   3.825   8.208 -0.2052 -0.0940  0.3670
 1481SOL     OW15904   2.696   2.524   9.705  0.3116 -0.2938 -0.0521
 1481SOL    HW115905   2.740   2.592   9.755 -1.3009  0.6282  0.1278
 1481SOL    HW215906   2.754   2.499   9.632 -0.2955  1.4094 -1.1197
 1482SOL     OW15907   1.165   2.718  16.788  0.0909 -0.2013 -0.2584
 1482SOL    HW115908   1.137   2.731  16.698  1.9351  0.7038 -0.7012
 1482SOL    HW215909   1.240   2.662  16.770  0.6529  0.2729  0.5962
 1483SOL     OW15910   3.877   2.893   9.575  0.3488  0.0641 -0.7979
 1483SOL    HW115911   3.828   2.940   9.507 -1.6106  0.0744  0.6352
 1483SOL    HW215912   3.836   2.808   9.558 -2.3076  0.7575  2.1427
 1484SOL     OW15913   2.324   2.659   2.730  0.5696 -0.1222 -0.0236
 1484SOL    HW115914   2.233   2.660   2.701  0.2904 -0.4499  0.8318
 1484SOL    HW215915   2.331   2.741   2.780  1.7286 -0.2684  0.0587
 1485SOL     OW15916   1.163   0.098   7.495 -0.2242  0.1368  0.5266
 1485SOL    HW115917   1.195   0.043   7.423  1.1693  0.4147  0.9316
 1485SOL    HW215918   1.161   0.032   7.565 -0.1088 -0.7545 -0.3119
 1486SOL     OW15919   1.289   1.510   7.871 -1.0608 -0.1689  0.3329
 1486SOL    HW115920   1.276   1.533   7.963  1.6075 -0.6258  0.8325
 1486SOL    HW215921   1.370   1.561   7.862 -1.7078  0.7484 -0.2586
 1487SOL     OW15922   3.513   0.216  11.424  0.8562  0.2135 -0.0905
 1487SOL    HW115923   3.424   0.200  11.455  0.9836 -0.3985 -0.0385
 1487SOL    HW215924   3.496   0.290  11.367  0.3245 -0.5335 -0.8899
 1488SOL     OW15925   2.282   0.932   4.825  0.1522 -0.2175 -0.5187
 1488SOL    HW115926   2.314   0.844   4.804  0.9109  0.1532 -0.9426
 1488SOL    HW215927   2.308   0.937   4.917  0.8683  0.0826 -0.7346
 1489SOL     OW15928   1.092   1.751   9.899  0.1630  0.3569 -0.6435
 1489SOL    HW115929   1.062   1.667   9.935  0.9606  0.2563 -0.2071
 1489SOL    HW215930   1.126   1.802   9.973  0.5960  0.2898 -0.7961
 1490SOL     OW15931   1.471   3.726   4.749  0.1397 -0.3245 -0.5297
 1490SOL    HW115932   1.560   3.740   4.781 -0.4758  2.3377  0.0145
 1490SOL    HW215933   1.467   3.632   4.770 -0.6654 -0.9999 -3.7549
 1491SOL     OW15934   0.843   3.346   6.329 -0.0048  0.3675  0.1888
 1491SOL    HW115935   0.900   3.341   6.406 -0.9580  1.7313  0.9785
 1491SOL    HW215936   0.840   3.440   6.314 -0.5948  0.2519 -0.3951
 1492SOL     OW15937   2.292   3.555   6.901  0.0454 -0.0435 -0.0823
 1492SOL    HW115938   2.277   3.489   6.969 -0.7117 -0.1027 -0.3088
 1492SOL    HW215939   2.310   3.625   6.963  2.7632  0.1484 -1.0902
 1493SOL     OW15940   4.051   4.228   2.284  0.1960 -0.0923  0.3450
 1493SOL    HW115941   4.015   4.188   2.363  0.6579  1.1114  1.1631
 1493SOL    HW215942   4.146   4.223   2.286  0.3049  2.1464  0.2388
 1494SOL     OW15943   3.432   2.184  12.011  0.6418 -0.1779 -0.7795
 1494SOL    HW115944   3.421   2.090  12.027  1.2443 -0.2661 -0.8872
 1494SOL    HW215945   3.527   2.197  12.014  0.6411  0.1576 -2.0272
 1495SOL     OW15946   1.568   4.695   7.067  0.3907 -0.1843 -0.8245
 1495SOL    HW115947   1.582   4.702   7.161 -0.6067 -0.1006 -0.6785
 1495SOL    HW215948   1.472   4.702   7.065  0.3860 -0.1446 -0.4946
 1496SOL     OW15949   2.523   1.073   0.046 -0.0236 -0.4970 -0.1278
 1496SOL    HW115950   2.483   1.120   0.119  1.3870  0.0713  0.2782
 1496SOL    HW215951   2.537   1.145  17.687  2.0773  1.7045  2.9643
 1497SOL     OW15952   3.909   4.715  11.784 -0.1705 -0.5047 -0.1337
 1497SOL    HW115953   3.960   0.071  11.784 -0.9049 -0.0504  1.4889
 1497SOL    HW215954   3.969   4.648  11.817 -0.3162 -1.1014 -1.0790
 1498SOL     OW15955   1.347   3.725  12.932  0.0021 -0.1097 -0.3727
 1498SOL    HW115956   1.265   3.776  12.932 -0.3119 -0.5980  1.1773
 1498SOL    HW215957   1.332   3.674  13.012 -1.2339  0.1295 -0.4389
 1499SOL     OW15958   2.110   3.445   2.246  0.0381  0.1603 -0.1964
 1499SOL    HW115959   2.206   3.439   2.240 -0.1287  0.9356 -3.4186
 1499SOL    HW215960   2.080   3.396   2.169  0.5788 -1.2718  0.4910
 1500SOL     OW15961   3.535   3.430   6.651  0.5399 -0.2716 -0.4471
 1500SOL    HW115962   3.565   3.346   6.686  0.4842 -0.3850 -0.6708
 1500SOL    HW215963   3.573   3.488   6.717  2.4031 -2.6317  0.5515
 1501SOL     OW15964   0.942   0.490   5.992  0.0989  0.5315 -0.1154
 1501SOL    HW115965   0.991   0.501   6.073 -0.7907  1.2320  0.3200
 1501SOL    HW215966   0.849   0.490   6.014 -0.4966 -1.8455 -2.5769
 1502SOL     OW15967   2.017   1.277  16.536  0.2698  0.3311  0.1497
 1502SOL    HW115968   2.083   1.300  16.601 -0.1461 -1.1012  1.1028
 1502SOL    HW215969   2.067   1.277  16.455  1.1110  0.4767  0.6681
 1503SOL     OW15970   0.160   3.037   1.934 -0.6840 -0.0249 -0.1367
 1503SOL    HW115971   0.196   3.107   1.989  2.7578 -2.9965  1.4209
 1503SOL    HW215972   0.215   2.960   1.951  1.7372  1.4400 -1.3389
 1504SOL     OW15973   2.770   0.943   4.743  0.0262 -0.4748  0.6471
 1504SOL    HW115974   2.720   0.866   4.717  1.9570 -1.0411 -1.4754
 1504SOL    HW215975   2.856   0.907   4.722 -0.0952 -0.8484  0.7926
 1505SOL     OW15976   3.363   4.675   5.895 -0.0047  0.1179  0.1291
 1505SOL    HW115977   3.454   4.645   5.888  0.4322  1.7700 -1.2592
 1505SOL    HW215978   3.345   4.644   5.984 -1.3162 -0.0190 -0.1905
 1506SOL     OW15979   2.449   3.239   7.774 -0.3497  0.4325 -0.0071
 1506SOL    HW115980   2.499   3.173   7.725 -0.9848 -1.4122  1.8116
 1506SOL    HW215981   2.501   3.315   7.748 -0.0058  0.1632 -0.1128
 1507SOL     OW15982   0.603   0.285   4.998 -0.2529 -0.0254  0.0976
 1507SOL    HW115983   0.512   0.307   5.012 -0.3221 -2.0798  2.7805
 1507SOL    HW215984   0.631   0.269   5.088  3.6008 -0.8789 -1.2233
 1508SOL     OW15985   2.122   1.620  12.582 -0.6919  0.3636  0.2259
 1508SOL    HW115986   2.128   1.710  12.614  0.7179  0.4331 -0.2382
 1508SOL    HW215987   2.053   1.588  12.640 -0.4867 -1.6712 -0.6777
 1509SOL     OW15988   1.922   2.474  14.750 -0.2346  0.5725  0.0157
 1509SOL    HW115989   1.949   2.557  14.712  0.2875  0.5445  0.3321
 1509SOL    HW215990   1.837   2.459  14.709 -0.1552  0.2318 -0.0315
 1510SOL     OW15991   3.845   3.813   2.671  0.4713 -0.5025 -0.2168
 1510SOL    HW115992   3.754   3.842   2.674  0.5656 -0.0712 -1.5708
 1510SOL    HW215993   3.891   3.880   2.720 -0.5905 -1.0095  1.4419
 1511SOL     OW15994   1.843   2.348   6.722 -0.0590 -0.0741  0.5460
 1511SOL    HW115995   1.930   2.364   6.757  0.5409 -3.3827  0.5350
 1511SOL    HW215996   1.792   2.369   6.800  2.1066 -1.0348  2.2159
 1512SOL     OW15997   4.015   0.920  11.083  0.2124 -0.0387 -0.1948
 1512SOL    HW115998   4.094   0.947  11.036 -2.1250  1.0141 -3.5656
 1512SOL    HW215999   4.016   0.979  11.158 -1.3959 -0.0403 -0.1794
 1513SOL     OW16000   3.284   3.446   1.892  0.3104 -0.0166  0.7008
 1513SOL    HW116001   3.363   3.499   1.880  2.1949 -3.2436 -0.7738
 1513SOL    HW216002   3.296   3.375   1.830  1.6103  1.0816 -0.2893
 1514SOL     OW16003   3.423   1.785   5.925  0.4127  0.0333 -0.3981
 1514SOL    HW116004   3.403   1.848   5.855  1.0978  1.3040  0.5534
 1514SOL    HW216005   3.336   1.752   5.947 -0.0112  0.3711 -1.5732
 1515SOL     OW16006   0.829   1.696   8.225  0.0158 -0.3846  0.7492
 1515SOL    HW116007   0.855   1.785   8.249 -1.0132  0.5775 -1.6830
 1515SOL    HW216008   0.912   1.649   8.218 -0.1071 -0.2232 -1.6718
 1516SOL     OW16009   0.597   4.454  10.650  1.0335  0.2481 -0.7372
 1516SOL    HW116010   0.690   4.434  10.641  0.2572 -2.6348 -2.4179
 1516SOL    HW216011   0.601   4.548  10.634 -0.0789  0.5062  0.4780
 1517SOL     OW16012   3.300   0.561   8.441 -0.3519 -0.0712 -0.3882
 1517SOL    HW116013   3.321   0.627   8.374 -2.0482 -2.0636 -2.9071
 1517SOL    HW216014   3.206   0.545   8.433 -0.1664 -0.5820 -1.6460
 1518SOL     OW16015   2.805   0.041   8.042 -0.1717 -0.1182 -0.6117
 1518SOL    HW116016   2.734   4.704   8.059  1.5573 -2.0559 -0.5232
 1518SOL    HW216017   2.818   0.078   8.129  1.6751  2.4011 -1.9638
 1519SOL     OW16018   0.869   0.850  15.603 -0.0406  0.2472 -0.6765
 1519SOL    HW116019   0.919   0.814  15.677 -0.0303  1.4739 -0.0885
 1519SOL    HW216020   0.932   0.915  15.573 -1.2759  2.0179  0.5390
 1520SOL     OW16021   1.056   2.162   5.995  0.0306  0.3356  0.0350
 1520SOL    HW116022   1.013   2.120   5.922  0.1790 -1.4846  1.0003
 1520SOL    HW216023   0.983   2.177   6.055  1.3477  1.7388  1.2870
 1521SOL     OW16024   0.127   4.035  10.359  0.2158  0.0578 -0.8111
 1521SOL    HW116025   0.093   3.952  10.390  2.7694  0.0453  1.9858
 1521SOL    HW216026   0.196   4.056  10.422 -0.2557  0.4560 -0.4327
 1522SOL     OW16027   0.913   0.752  12.663  0.1018 -0.5485  0.0749
 1522SOL    HW116028   0.868   0.789  12.739  1.7624  1.0674  0.2857
 1522SOL    HW216029   0.852   0.767  12.591 -0.8689 -1.7191  0.6684
 1523SOL     OW16030   2.697   2.849   1.892  0.0120 -0.3283 -0.2811
 1523SOL    HW116031   2.783   2.882   1.866 -0.1636  0.2577 -0.1230
 1523SOL    HW216032   2.636   2.885   1.828 -1.6604 -0.1271  1.4207
 1524SOL     OW16033   0.632   2.409   8.920 -0.3090 -0.1512 -0.8575
 1524SOL    HW116034   0.587   2.434   9.000 -3.5349 -2.7837 -1.8487
 1524SOL    HW216035   0.639   2.480   8.855  3.0487 -0.5241 -0.9025
 1525SOL     OW16036   4.646   4.722   2.624  0.3863  0.4596 -0.5573
 1525SOL    HW116037   4.657   4.664   2.549  0.1088  0.9842 -0.9977
 1525SOL    HW216038   4.554   4.723   2.648  0.6187 -1.5102  0.3785
 1526SOL     OW16039   3.787   3.772   8.016  0.3752 -0.1062 -0.1207
 1526SOL    HW116040   3.774   3.779   8.111  0.9394  2.9270 -0.2418
 1526SOL    HW216041   3.880   3.793   8.007 -0.0294  2.3818  1.4005
 1527SOL     OW16042   4.387   3.320  13.778  0.0257 -0.3099 -0.4638
 1527SOL    HW116043   4.336   3.355  13.705 -2.8211  0.5530  1.9639
 1527SOL    HW216044   4.342   3.237  13.794 -1.5520  0.2883 -1.7826
 1528SOL     OW16045   0.633   0.817  16.469 -0.2311  0.2822  0.1893
 1528SOL    HW116046   0.641   0.764  16.548  2.1220 -0.1418 -0.3111
 1528SOL    HW216047   0.665   0.900  16.504  1.0134  0.0921 -0.4962
 1529SOL     OW16048   4.467   1.706   5.307  0.1282  0.1651 -0.5877
 1529SOL    HW116049   4.528   1.639   5.339 -1.9811  0.2981  3.7545
 1529SOL    HW216050   4.411   1.645   5.259  0.6556  0.0578 -1.0625
 1530SOL     OW16051   2.448   2.358   1.168  0.4033  0.7345  0.0196
 1530SOL    HW116052   2.533   2.314   1.158 -1.5240 -2.4730 -2.3991
 1530SOL    HW216053   2.463   2.406   1.250  0.4042 -1.0459  1.0868
 1531SOL     OW16054   4.592   0.404   6.975 -0.4129 -0.7467  0.2365
 1531SOL    HW116055   4.681   0.397   7.009  0.4118  2.0030 -1.3568
 1531SOL    HW216056   4.564   0.481   7.026  1.3635 -0.4670  0.7743
 1532SOL     OW16057   2.933   0.141   2.227  0.0803  0.3912  0.4092
 1532SOL    HW116058   2.930   0.045   2.225  0.4462  0.4056 -1.2539
 1532SOL    HW216059   2.942   0.159   2.320 -2.4631 -1.2012  0.9508
 1533SOL     OW16060   1.272   0.749   7.034 -0.3534  0.8885  0.1478
 1533SOL    HW116061   1.335   0.769   6.965 -0.3948  0.0250 -0.1405
 1533SOL    HW216062   1.333   0.725   7.103  1.0303  1.9666 -0.6984
 1534SOL     OW16063   0.054   3.575   2.505 -0.6100 -0.9760 -0.1538
 1534SOL    HW116064   0.126   3.551   2.447 -2.3899 -0.5679 -2.5158
 1534SOL    HW216065   0.098   3.557   2.588 -2.1066  0.4906  0.9518
 1535SOL     OW16066   0.482   2.771   1.371  0.1087 -0.2452  0.3913
 1535SOL    HW116067   0.476   2.815   1.456 -0.6779  0.0756  0.1633
 1535SOL    HW216068   0.573   2.744   1.380 -0.0500 -0.8049  0.2820
 1536SOL     OW16069   2.960   3.120   4.592 -0.3373  0.1848 -0.0004
 1536SOL    HW116070   2.950   3.161   4.677 -0.2864 -2.9665  1.5283
 1536SOL    HW216071   2.995   3.194   4.541  1.5631 -0.2986  0.6092
 1537SOL     OW16072   3.580   1.095   9.577 -0.5439  0.1979 -0.0618
 1537SOL    HW116073   3.655   1.148   9.550 -0.7653 -0.7512 -2.5713
 1537SOL    HW216074   3.524   1.159   9.622 -0.3657 -0.2852  0.8409
 1538SOL     OW16075   3.930   2.724   8.321  0.0766  0.1804 -0.6882
 1538SOL    HW116076   3.982   2.778   8.381  0.1069  0.1154 -0.6559
 1538SOL    HW216077   3.990   2.650   8.314  1.0509  0.8943 -0.0005
 1539SOL     OW16078   3.506   0.825   0.730 -0.2720  0.3711 -0.2750
 1539SOL    HW116079   3.481   0.743   0.773  0.5383  0.9917  1.3665
 1539SOL    HW216080   3.535   0.794   0.644  0.3445 -1.4293  0.5892
 1540SOL     OW16081   0.823   0.150  15.599 -0.0367  0.4857 -0.1766
 1540SOL    HW116082   0.750   0.101  15.636  1.1328 -1.3478 -0.3023
 1540SOL    HW216083   0.799   0.237  15.631 -0.9271 -1.2316  3.7986
 1541SOL     OW16084   1.945   0.236   2.024  0.1298  0.5144  0.0731
 1541SOL    HW116085   2.027   0.211   1.982 -0.4438 -1.0108 -0.1344
 1541SOL    HW216086   1.896   0.155   2.041  0.8476  0.6203  2.6908
 1542SOL     OW16087   2.760   0.549  14.753  0.2846  0.2845 -0.1617
 1542SOL    HW116088   2.697   0.620  14.763 -0.6070 -0.7468  1.5397
 1542SOL    HW216089   2.837   0.596  14.721  1.2419 -1.1971 -0.0530
 1543SOL     OW16090   3.210   4.284   6.928 -0.6764 -0.1361 -0.0623
 1543SOL    HW116091   3.224   4.215   6.993 -0.5321 -0.7242 -0.7210
 1543SOL    HW216092   3.204   4.237   6.846 -0.4626  2.3294 -1.4854
 1544SOL     OW16093   3.756   2.490  11.482 -0.1043 -0.4431 -0.4347
 1544SOL    HW116094   3.833   2.485  11.539  0.4781 -0.8523 -1.2644
 1544SOL    HW216095   3.800   2.519  11.402 -0.0911 -0.0418 -0.2832
 1545SOL     OW16096   4.587   0.069  15.777 -0.4410  0.4449  0.0959
 1545SOL    HW116097   4.559   0.159  15.765  0.5155  0.9343  1.5146
 1545SOL    HW216098   4.626   0.047  15.693 -1.9211  2.9862 -1.2401
 1546SOL     OW16099   1.649   3.418   9.432  0.0483  0.2370  0.0335
 1546SOL    HW116100   1.646   3.513   9.427 -1.5291  0.1135 -1.3658
 1546SOL    HW216101   1.572   3.413   9.488 -0.5444 -2.7968 -1.0484
 1547SOL     OW16102   4.084   4.703   8.275 -0.3799  0.3565  0.2254
 1547SOL    HW116103   4.076   4.713   8.370 -4.4037  1.7897 -0.2610
 1547SOL    HW216104   4.179   4.717   8.276 -0.2932 -0.0328 -2.0552
 1548SOL     OW16105   0.362   0.971  11.026 -0.4220  0.0091  0.1138
 1548SOL    HW116106   0.336   1.013  11.108 -4.2105 -0.7146 -0.7080
 1548SOL    HW216107   0.347   1.039  10.960  0.0069 -0.1862 -0.1862
 1549SOL     OW16108   3.154   0.105  17.236  0.1729  0.0960  0.3631
 1549SOL    HW116109   3.204   0.071  17.161 -1.0225 -3.3309  1.1312
 1549SOL    HW216110   3.083   0.143  17.185 -0.6282 -0.6851  0.9032
 1550SOL     OW16111   2.249   3.603  11.451 -0.6541  0.2502  0.0835
 1550SOL    HW116112   2.157   3.582  11.468 -0.7494 -0.8963 -1.8023
 1550SOL    HW216113   2.251   3.691  11.489  0.4517 -0.6355  2.0735
 1551SOL     OW16114   1.664   0.826  12.186 -0.2949  0.2592  0.5770
 1551SOL    HW116115   1.695   0.814  12.096 -1.0983  1.0357  0.1953
 1551SOL    HW216116   1.586   0.771  12.180  0.8044 -1.5682  3.0663
 1552SOL     OW16117   4.143   1.681   2.147 -0.3786 -0.1079 -0.1469
 1552SOL    HW116118   4.050   1.703   2.150  0.1526  1.9438  1.0341
 1552SOL    HW216119   4.144   1.606   2.207  1.3145 -1.6631 -2.1097
 1553SOL     OW16120   4.568   3.274   1.590  0.0984 -0.0207 -0.4137
 1553SOL    HW116121   4.607   3.226   1.663  0.0338 -2.5260 -2.0431
 1553SOL    HW216122   4.530   3.198   1.548 -0.0161 -0.5122  0.5778
 1554SOL     OW16123   4.262   0.984  16.426 -0.0068  0.3449  0.6877
 1554SOL    HW116124   4.250   1.079  16.427 -1.1209  0.2453 -1.4891
 1554SOL    HW216125   4.294   0.954  16.510 -1.9779 -1.2935  0.8715
 1555SOL     OW16126   1.522   0.632   8.964 -0.1980  0.2491  0.5462
 1555SOL    HW116127   1.567   0.690   8.903 -0.0021  0.7126  1.1258
 1555SOL    HW216128   1.528   0.544   8.927  2.3335  0.4582  0.4700
 1556SOL     OW16129   1.621   1.671  13.285 -0.2321 -0.3325  0.1362
 1556SOL    HW116130   1.564   1.654  13.210 -0.1490  1.1350 -0.2673
 1556SOL    HW216131   1.707   1.688  13.245 -0.6424 -1.1701 -1.0974
 1557SOL     OW16132   4.603   4.517   3.378 -0.5108 -0.5200  0.7125
 1557SOL    HW116133   4.607   4.546   3.286 -0.2953 -1.2867  0.4796
 1557SOL    HW216134   4.519   4.472   3.370 -0.0441 -1.0629 -1.2945
 1558SOL     OW16135   4.551   0.465   2.785  0.2492  0.1817  0.2672
 1558SOL    HW116136   4.516   0.434   2.868 -1.2657  0.0094 -0.4307
 1558SOL    HW216137   4.476   0.510   2.746  1.0177  0.8220 -0.4868
 1559SOL     OW16138   3.936   2.579   2.422  0.2247  0.3843 -0.0317
 1559SOL    HW116139   3.926   2.507   2.486  2.0962  0.3724  0.2520
 1559SOL    HW216140   4.019   2.556   2.380 -0.9962  1.1467 -2.8249
 1560SOL     OW16141   4.275   1.871   7.705  0.1066 -0.2802 -0.2712
 1560SOL    HW116142   4.341   1.815   7.664 -1.6982 -0.9636 -2.2750
 1560SOL    HW216143   4.256   1.827   7.788  1.5247 -1.4719 -0.5717
 1561SOL     OW16144   0.993   2.625   3.438 -0.1313  0.0282 -0.3919
 1561SOL    HW116145   0.950   2.689   3.382  2.3441  1.2526 -0.9267
 1561SOL    HW216146   1.088   2.642   3.433 -0.2329  0.9297  0.7014
 1562SOL     OW16147   1.348   3.165   4.350 -0.3854 -0.3799  0.4679
 1562SOL    HW116148   1.253   3.154   4.348 -0.5907  1.3999  0.0672
 1562SOL    HW216149   1.361   3.237   4.412  0.5465 -1.2995  1.3448
 1563SOL     OW16150   3.991   0.472   2.229 -0.0513 -0.0296 -0.0872
 1563SOL    HW116151   4.043   0.470   2.149 -1.0116 -1.2020 -0.7017
 1563SOL    HW216152   3.905   0.456   2.190 -0.6732  3.3398 -0.0582
 1564SOL     OW16153   3.427   0.385   5.448 -0.2733 -0.1107  0.5244
 1564SOL    HW116154   3.439   0.480   5.451  4.2060 -0.6152 -1.2930
 1564SOL    HW216155   3.462   0.368   5.360  1.0045 -0.4951  1.1186
 1565SOL     OW16156   2.346   3.205   1.839 -0.4519  0.0622 -0.4607
 1565SOL    HW116157   2.291   3.213   1.917  1.8441  2.3570  0.9278
 1565SOL    HW216158   2.292   3.231   1.765  0.9755 -1.1229 -1.9372
 1566SOL     OW16159   2.524   2.643   2.246  0.2250 -0.1409 -0.2713
 1566SOL    HW116160   2.431   2.658   2.263  0.5794 -0.9688  2.2518
 1566SOL    HW216161   2.544   2.574   2.308 -1.1321 -3.3904 -3.4860
 1567SOL     OW16162   1.454   0.954   8.988  0.5192  0.1333  0.1978
 1567SOL    HW116163   1.521   1.016   8.959  0.5480  0.0674  0.1237
 1567SOL    HW216164   1.466   0.961   9.083 -1.6396  1.1112  0.4115
 1568SOL     OW16165   0.976   1.564  14.247 -1.1877 -0.2714 -0.9667
 1568SOL    HW116166   0.988   1.496  14.181 -2.7036  0.5221 -2.0530
 1568SOL    HW216167   1.061   1.557  14.290 -0.2499  0.3554 -2.7465
 1569SOL     OW16168   2.711   3.456  10.838 -0.2697 -0.2060  0.1389
 1569SOL    HW116169   2.640   3.400  10.869 -0.6828  0.3389  0.1669
 1569SOL    HW216170   2.791   3.417  10.874 -0.1997  0.6794  0.9422
 1570SOL     OW16171   3.410   0.898  12.272 -0.3155 -0.1584  0.2159
 1570SOL    HW116172   3.377   0.815  12.238  0.7612 -0.9642  1.1342
 1570SOL    HW216173   3.484   0.905  12.212 -0.6220 -0.8163 -0.2358
 1571SOL     OW16174   3.706   2.198  12.486 -0.1727  0.0945  0.6020
 1571SOL    HW116175   3.680   2.248  12.564  1.6627 -1.1268  1.9861
 1571SOL    HW216176   3.695   2.108  12.517  0.1885 -0.5706 -1.1966
 1572SOL     OW16177   2.150   2.715   7.849 -0.0690  0.1876 -0.5278
 1572SOL    HW116178   2.164   2.637   7.902 -1.7237  0.8841  0.9250
 1572SOL    HW216179   2.224   2.774   7.864  1.3274 -1.6991  0.0527
 1573SOL     OW16180   2.139   3.473   5.426 -0.0650 -0.1262  0.4110
 1573SOL    HW116181   2.210   3.412   5.403  0.3140 -0.1628  1.6640
 1573SOL    HW216182   2.146   3.541   5.359 -0.9249 -0.8557 -0.4189
 1574SOL     OW16183   2.775   3.621   3.079  0.4416  0.3552  0.3088
 1574SOL    HW116184   2.762   3.538   3.125  1.9619  0.4825  0.9819
 1574SOL    HW216185   2.686   3.656   3.076  0.4165  0.0870 -2.3111
 1575SOL     OW16186   1.563   3.893   7.285 -0.5221 -0.1556 -0.3029
 1575SOL    HW116187   1.542   3.984   7.306 -0.3901  0.1381 -1.4806
 1575SOL    HW216188   1.652   3.892   7.250 -0.2143  0.0493  0.4786
 1576SOL     OW16189   0.437   3.581  13.439 -0.6052 -0.2783 -0.7181
 1576SOL    HW116190   0.460   3.652  13.380 -2.1060  0.7694 -0.0447
 1576SOL    HW216191   0.342   3.585  13.430 -0.3665  1.2561 -2.5576
 1577SOL     OW16192   1.737   1.118   0.894 -0.2724 -0.0864 -0.2136
 1577SOL    HW116193   1.706   1.087   0.809  0.8596 -0.3666 -0.5283
 1577SOL    HW216194   1.657   1.153   0.934  0.7781  2.4774 -0.3743
 1578SOL     OW16195   2.643   0.754   1.979  0.0752 -0.4581  0.5772
 1578SOL    HW116196   2.692   0.833   2.003 -3.6338  2.0120 -0.0108
 1578SOL    HW216197   2.620   0.727   2.067  1.7542 -0.8928  0.8862
 1579SOL     OW16198   3.375   0.918   1.675  0.6733  0.2245 -0.3495
 1579SOL    HW116199   3.392   0.867   1.754 -0.9872  0.4024  0.1340
 1579SOL    HW216200   3.302   0.971   1.707 -1.6826 -2.4096 -1.2454
 1580SOL     OW16201   1.941   1.892   9.084  0.3450  0.2043  0.6999
 1580SOL    HW116202   1.893   1.848   9.154 -0.3862 -0.9884 -0.5622
 1580SOL    HW216203   1.876   1.960   9.070  0.4577 -0.1782 -1.6538
 1581SOL     OW16204   1.808   3.302   8.214 -0.3362  0.1035 -0.0940
 1581SOL    HW116205   1.731   3.348   8.249 -0.3546 -0.9610  1.2585
 1581SOL    HW216206   1.802   3.348   8.131  1.0963  2.9216  1.3533
 1582SOL     OW16207   2.386   0.381  10.288  0.1830 -0.2459 -0.3943
 1582SOL    HW116208   2.451   0.417  10.347 -0.7274  2.7924 -1.2602
 1582SOL    HW216209   2.348   0.304  10.331  0.3723 -0.3639 -0.4403
 1583SOL     OW16210   0.787   2.776   3.808 -0.3490  0.5868 -0.2368
 1583SOL    HW116211   0.806   2.756   3.899 -1.0825  3.1981  0.4836
 1583SOL    HW216212   0.812   2.692   3.771 -0.9071  0.4096 -0.2155
 1584SOL     OW16213   1.627   3.851   3.629  0.5826 -0.1413 -1.0593
 1584SOL    HW116214   1.649   3.939   3.658  0.6707 -0.4443 -0.2226
 1584SOL    HW216215   1.552   3.866   3.571 -0.8714  0.1030  0.9012
 1585SOL     OW16216   1.267   2.290   5.085  0.2333 -1.1440  0.0082
 1585SOL    HW116217   1.318   2.262   5.009 -1.3292 -1.0074 -1.0961
 1585SOL    HW216218   1.221   2.361   5.041  0.3038 -2.1663 -1.7226
 1586SOL     OW16219   1.429   0.187   6.668 -0.6440 -0.3080 -0.0050
 1586SOL    HW116220   1.506   0.240   6.689 -1.3763  1.6261 -2.1397
 1586SOL    HW216221   1.373   0.192   6.745 -2.6235 -0.2694 -1.4259
 1587SOL     OW16222   3.137   1.057   2.130  0.1066  0.1199 -0.8894
 1587SOL    HW116223   3.065   1.094   2.080 -0.3153  1.8868  1.0061
 1587SOL    HW216224   3.098   0.973   2.154 -0.3190  1.1898  2.2256
 1588SOL     OW16225   3.542   3.672  14.412  0.0807 -0.6673  0.1873
 1588SOL    HW116226   3.602   3.609  14.371  1.5873  2.2009 -1.9797
 1588SOL    HW216227   3.513   3.733  14.344 -2.4472 -1.3268  0.6576
 1589SOL     OW16228   1.717   1.563   7.103 -0.3217  0.9140 -0.3476
 1589SOL    HW116229   1.770   1.483   7.109  2.0743  2.4362 -1.7184
 1589SOL    HW216230   1.637   1.533   7.059 -0.2888  2.0006 -1.1205
 1590SOL     OW16231   0.106   0.815   6.398 -0.5516 -0.2608  0.0427
 1590SOL    HW116232   0.038   0.772   6.450  1.1189  0.9654  3.2196
 1590SOL    HW216233   0.114   0.758   6.321 -2.5322 -1.0035  0.4012
 1591SOL     OW16234   1.905   2.445   7.118 -0.1320  0.8671 -1.0412
 1591SOL    HW116235   1.940   2.529   7.149  2.1429  0.0773 -1.4492
 1591SOL    HW216236   1.812   2.468   7.118  0.0364  1.5532 -1.2002
 1592SOL     OW16237   2.430   3.188   1.500  0.3649  0.2082  0.2274
 1592SOL    HW116238   2.407   3.139   1.421 -1.5155  0.0610  0.8726
 1592SOL    HW216239   2.359   3.251   1.492  0.9585  1.1135  2.1821
 1593SOL     OW16240   4.206   4.544   9.936  0.2288 -0.0246  0.1404
 1593SOL    HW116241   4.263   4.489   9.881  0.0965  0.7275 -0.7574
 1593SOL    HW216242   4.136   4.484   9.962  0.4233  1.3685  3.8330
 1594SOL     OW16243   0.452   1.063   0.168  0.1643  0.0054 -0.2641
 1594SOL    HW116244   0.527   1.006   0.185  0.4357  0.5657  0.4070
 1594SOL    HW216245   0.376   1.005   0.176  0.2088 -0.0183 -0.0366
 1595SOL     OW16246   4.157   2.980  16.490 -0.6219 -0.3346  0.4134
 1595SOL    HW116247   4.062   2.984  16.484 -0.7938 -1.6505  2.3686
 1595SOL    HW216248   4.176   2.916  16.559 -0.6034  0.5906  1.2640
 1596SOL     OW16249   2.316   1.806   2.618  0.1656 -0.1859 -0.3305
 1596SOL    HW116250   2.227   1.790   2.587 -0.7880 -0.8823  2.8110
 1596SOL    HW216251   2.327   1.741   2.687  2.4801  0.9928  0.4098
 1597SOL     OW16252   0.265   3.565  11.976  0.0695 -0.0263 -0.6904
 1597SOL    HW116253   0.327   3.541  11.907 -0.1429 -0.0089 -0.8884
 1597SOL    HW216254   0.285   3.500  12.043  0.1221 -1.5428 -2.1720
 1598SOL     OW16255   3.717   0.845   2.531  0.0106  0.5365  0.4633
 1598SOL    HW116256   3.655   0.826   2.460 -0.1313 -1.1517  1.0282
 1598SOL    HW216257   3.661   0.853   2.608 -2.2454 -1.6033 -0.9372
 1599SOL     OW16258   0.372   1.690  12.585  0.7251  0.1513 -0.2445
 1599SOL    HW116259   0.395   1.744  12.660 -0.4661 -2.1345  1.7544
 1599SOL    HW216260   0.354   1.763  12.525 -0.0130 -0.6623 -1.0182
 1600SOL     OW16261   0.656   2.461   8.066 -0.1096 -0.0587 -0.6630
 1600SOL    HW116262   0.582   2.521   8.067  0.6978  0.9296 -0.5554
 1600SOL    HW216263   0.708   2.491   7.992 -0.3282 -0.9046 -1.1677
 1601SOL     OW16264   1.695   0.361   6.547  0.2040  0.3963  0.3981
 1601SOL    HW116265   1.679   0.380   6.454 -1.7986  0.1486  0.6939
 1601SOL    HW216266   1.727   0.272   6.530 -1.0011 -0.7733  4.3544
 1602SOL     OW16267   4.202   0.800   5.745 -0.1220  0.1980 -0.4642
 1602SOL    HW116268   4.296   0.781   5.748 -0.4791 -1.5978 -0.4854
 1602SOL    HW216269   4.162   0.748   5.815 -0.7489 -0.6470 -1.4554
 1603SOL     OW16270   0.546   1.286  10.487 -0.0296 -0.2246  0.3973
 1603SOL    HW116271   0.600   1.218  10.526 -0.6285 -0.3970  0.9268
 1603SOL    HW216272   0.515   1.328  10.567 -1.1670 -1.6827  0.7215
 1604SOL     OW16273   2.207   2.449  15.096 -0.5763 -0.4067 -0.2039
 1604SOL    HW116274   2.117   2.425  15.072 -0.0841 -0.0940 -2.3657
 1604SOL    HW216275   2.216   2.524  15.037  0.7231 -1.0303 -0.7967
 1605SOL     OW16276   4.222   4.607  16.788  0.3761  0.5721  0.1671
 1605SOL    HW116277   4.285   4.668  16.828 -0.9398  1.8244  0.3530
 1605SOL    HW216278   4.176   4.682  16.750 -2.3956 -0.8426  0.7980
 1606SOL     OW16279   4.193   0.627   0.696  0.1628 -0.2544 -0.0705
 1606SOL    HW116280   4.214   0.672   0.615  2.3865  1.5938  1.5090
 1606SOL    HW216281   4.133   0.554   0.687  0.7574 -0.7421 -0.0499
 1607SOL     OW16282   0.988   0.452   6.989 -0.1899 -0.5097 -0.0477
 1607SOL    HW116283   0.932   0.499   7.052 -0.6948 -3.1682  1.4684
 1607SOL    HW216284   1.055   0.412   7.044  1.8882  1.4427 -1.1480
 1608SOL     OW16285   3.243   3.304   8.457 -0.0125  0.3564  0.2614
 1608SOL    HW116286   3.247   3.306   8.552  0.7811  1.7767  0.1991
 1608SOL    HW216287   3.199   3.385   8.432 -1.2238  0.2117  1.9697
 1609SOL     OW16288   2.903   1.227   2.974  0.0937  0.2179  0.1523
 1609SOL    HW116289   2.809   1.237   2.964  0.2434  0.5713 -0.9003
 1609SOL    HW216290   2.910   1.287   3.048  1.8163 -0.1964  0.3366
 1610SOL     OW16291   2.246   4.415   9.341 -0.0757 -0.8576  0.0049
 1610SOL    HW116292   2.310   4.358   9.297  0.0063 -0.1943 -0.7280
 1610SOL    HW216293   2.254   4.375   9.428  1.1944 -2.5588 -0.8781
 1611SOL     OW16294   1.775   1.121  16.586 -0.1430 -0.1908  0.3237
 1611SOL    HW116295   1.814   1.034  16.585 -0.0201 -0.1286 -0.3792
 1611SOL    HW216296   1.850   1.173  16.556 -0.0336  2.0356  4.4773
 1612SOL     OW16297   3.555   3.816   7.436 -0.1379  1.1128  0.8159
 1612SOL    HW116298   3.516   3.859   7.361 -1.9541 -3.3313 -0.7715
 1612SOL    HW216299   3.636   3.788   7.394 -1.7065 -0.8370 -0.9036
 1613SOL     OW16300   2.347   0.805   6.938  0.3682  0.5800 -0.3988
 1613SOL    HW116301   2.406   0.815   6.863 -0.9798 -0.8313 -1.6534
 1613SOL    HW216302   2.395   0.757   7.005 -0.5782  0.2393  0.0351
 1614SOL     OW16303   3.162   1.862   5.456  0.3498 -0.1954  0.3384
 1614SOL    HW116304   3.093   1.799   5.432  0.6379  0.3151 -1.8308
 1614SOL    HW216305   3.157   1.918   5.379  0.6730  0.2489  0.6441
 1615SOL     OW16306   0.979   1.314   1.880  0.3089 -0.5347  0.1799
 1615SOL    HW116307   0.953   1.385   1.938  0.2907 -0.9208  0.6470
 1615SOL    HW216308   0.928   1.321   1.799  1.5769 -2.0104 -0.7485
 1616SOL     OW16309   0.228   4.428   5.837 -0.7887 -0.0152  0.1623
 1616SOL    HW116310   0.276   4.504   5.871  1.6994 -0.3874 -2.4488
 1616SOL    HW216311   0.140   4.440   5.871 -0.3036  1.7224  0.8341
 1617SOL     OW16312   1.081   0.286   9.314 -0.1821  0.4994 -0.3263
 1617SOL    HW116313   1.006   0.244   9.355 -1.8755  2.2732 -1.5966
 1617SOL    HW216314   1.147   0.248   9.371  1.1475  1.6901 -1.0571
 1618SOL     OW16315   3.920   3.228   8.139  0.9110  0.3904  0.2358
 1618SOL    HW116316   3.997   3.273   8.174  1.7117 -1.6545  1.0850
 1618SOL    HW216317   3.922   3.146   8.188  1.5025 -0.8066 -1.8135
 1619SOL     OW16318   2.694   1.005   9.428 -0.5290  0.6427 -0.1153
 1619SOL    HW116319   2.680   1.062   9.352 -1.0968  1.3037  0.4956
 1619SOL    HW216320   2.656   1.051   9.502 -1.2002 -0.9491  0.5313
 1620SOL     OW16321   2.709   3.088  12.263 -0.0535 -0.5199  0.3224
 1620SOL    HW116322   2.711   3.109  12.170  2.1924 -0.5555  0.3403
 1620SOL    HW216323   2.618   3.109  12.284  0.0949 -0.3724  0.8162
 1621SOL     OW16324   1.255   0.731   2.110  0.3076 -0.2949 -0.2687
 1621SOL    HW116325   1.202   0.656   2.083  0.0589 -0.6324  1.1940
 1621SOL    HW216326   1.338   0.714   2.065  0.9553 -0.1626  0.8943
 1622SOL     OW16327   2.264   3.894   8.010  0.1953 -0.2692  0.2605
 1622SOL    HW116328   2.308   3.894   8.095 -0.1069 -1.2510  0.4132
 1622SOL    HW216329   2.198   3.962   8.023  1.2098  0.9985 -1.2088
 1623SOL     OW16330   3.445   2.667   7.813 -0.1477  0.4486  0.3049
 1623SOL    HW116331   3.495   2.732   7.863 -2.9179  3.6057 -1.0442
 1623SOL    HW216332   3.370   2.643   7.867  0.3084  0.1420  0.8102
 1624SOL     OW16333   2.554   1.091   5.449 -0.7083  0.0940 -0.0173
 1624SOL    HW116334   2.649   1.087   5.463 -0.7220 -0.1164  0.0248
 1624SOL    HW216335   2.514   1.175   5.469  0.3025  0.4777  0.3855
 1625SOL     OW16336   4.511   1.508   7.263  0.9572  0.3554 -0.8803
 1625SOL    HW116337   4.500   1.456   7.343  4.0325  0.6861 -0.2497
 1625SOL    HW216338   4.568   1.579   7.293  1.0925 -0.5720  1.0823
 1626SOL     OW16339   1.930   1.685   0.579  0.1995  0.3221  0.3474
 1626SOL    HW116340   1.975   1.755   0.627  2.3843  0.4539 -1.9220
 1626SOL    HW216341   1.875   1.735   0.519 -0.4243 -0.1656  0.5154
 1627SOL     OW16342   0.417   1.838  12.807 -0.0957  0.1002  0.2506
 1627SOL    HW116343   0.342   1.877  12.851 -0.5507 -0.1670 -0.2864
 1627SOL    HW216344   0.459   1.788  12.877 -0.0214  0.7672  0.6826
 1628SOL     OW16345   1.652   3.004   8.018 -0.6782 -0.1870  0.4916
 1628SOL    HW116346   1.747   3.006   8.029 -0.5516  0.9955 -0.8215
 1628SOL    HW216347   1.633   3.057   7.940  3.4324 -1.1607 -1.2057
 1629SOL     OW16348   0.404   3.546   7.852  0.1558 -0.4076 -0.0587
 1629SOL    HW116349   0.433   3.553   7.943  2.9892 -2.5189 -0.8299
 1629SOL    HW216350   0.414   3.456   7.824  2.0233 -0.1787 -0.1105
 1630SOL     OW16351   0.333   1.333   2.779  0.2752 -0.3372  0.8962
 1630SOL    HW116352   0.324   1.364   2.688 -0.9355  1.5269  1.6580
 1630SOL    HW216353   0.254   1.367   2.820 -0.6623  1.0023 -1.9876
 1631SOL     OW16354   3.039   1.780   4.720 -0.1244 -0.2447  0.1914
 1631SOL    HW116355   3.079   1.785   4.633 -0.4312 -1.5369 -0.0295
 1631SOL    HW216356   2.949   1.804   4.698 -0.9171 -1.4023  2.1636
 1632SOL     OW16357   1.701   2.613  15.659  0.2010 -0.5901  0.1839
 1632SOL    HW116358   1.689   2.610  15.564 -1.5527  0.8167  0.3623
 1632SOL    HW216359   1.608   2.621  15.677  0.3305  1.0049  0.1503
 1633SOL     OW16360   3.916   1.943   5.508  0.0978  0.0996 -0.3187
 1633SOL    HW116361   3.898   1.853   5.478 -0.0721  0.0186  0.0190
 1633SOL    HW216362   3.926   1.993   5.427  0.0616  1.9019  0.8035
 1634SOL     OW16363   1.652   3.374   7.223 -0.6579  0.5912  0.7652
 1634SOL    HW116364   1.592   3.373   7.149 -0.1286 -0.4057  0.3505
 1634SOL    HW216365   1.693   3.459   7.209 -0.1326  0.4001  1.1618
 1635SOL     OW16366   1.817   0.461   7.287  0.2730 -0.6876 -0.0492
 1635SOL    HW116367   1.899   0.496   7.253  0.1415 -0.8645 -0.5546
 1635SOL    HW216368   1.779   0.526   7.347 -0.6571 -1.3599  0.0901
 1636SOL     OW16369   1.375   1.560  17.116  0.8045 -0.6430 -0.3694
 1636SOL    HW116370   1.371   1.656  17.120  1.8031 -0.4858 -3.0339
 1636SOL    HW216371   1.398   1.554  17.023 -1.7832 -2.0554 -0.8991
 1637SOL     OW16372   0.707   4.363   8.259  0.2463  0.1759  0.4552
 1637SOL    HW116373   0.720   4.440   8.315  0.2754  1.1038 -0.8195
 1637SOL    HW216374   0.775   4.305   8.292  0.8584  0.6331  0.0049
 1638SOL     OW16375   0.603   4.575  12.770  0.3775  0.1725 -0.0863
 1638SOL    HW116376   0.686   4.528  12.763 -0.6840 -1.5024 -1.3280
 1638SOL    HW216377   0.626   4.653  12.719  1.3139  0.3398  0.5854
 1639SOL     OW16378   3.934   1.002   4.720 -0.1877 -0.3335  0.2694
 1639SOL    HW116379   3.854   1.052   4.701  1.2296  0.9387 -2.2751
 1639SOL    HW216380   3.901   0.912   4.710 -0.2323 -0.1573 -1.1509
 1640SOL     OW16381   2.363   3.885  10.419 -0.4633 -0.3670  0.5690
 1640SOL    HW116382   2.343   3.976  10.443  0.3087 -0.0811  0.1288
 1640SOL    HW216383   2.404   3.860  10.502  1.4580 -1.0137 -0.5846
 1641SOL     OW16384   2.652   2.183   1.167 -0.1828  0.2294  0.4721
 1641SOL    HW116385   2.640   2.115   1.234  0.4433 -0.1200  0.2366
 1641SOL    HW216386   2.702   2.128   1.106  0.1972  1.5344 -0.4003
 1642SOL     OW16387   0.801   0.864   3.699 -0.4494 -0.2376 -0.0018
 1642SOL    HW116388   0.766   0.893   3.783  0.2267 -0.6656  0.4266
 1642SOL    HW216389   0.761   0.777   3.698 -1.0575  0.0483 -0.4890
 1643SOL     OW16390   1.268   0.458   7.301 -0.2802  0.2253 -0.2370
 1643SOL    HW116391   1.332   0.527   7.285 -2.2511  1.9733 -0.6348
 1643SOL    HW216392   1.307   0.441   7.387  2.1192  0.5501 -1.2790
 1644SOL     OW16393   4.246   0.859   2.015 -0.4666 -0.2472  0.0253
 1644SOL    HW116394   4.307   0.915   2.063 -1.9401 -0.7808  2.5434
 1644SOL    HW216395   4.163   0.903   2.029 -0.4119 -0.5147  1.1672
 1645SOL     OW16396   0.763   3.166   6.980 -0.5351  0.2788  0.3128
 1645SOL    HW116397   0.681   3.190   7.024 -0.6977  1.6238 -0.7067
 1645SOL    HW216398   0.754   3.072   6.988  0.0106  0.2441  0.5221
 1646SOL     OW16399   4.665   1.673   7.450  0.4830 -0.1550  0.5901
 1646SOL    HW116400   0.032   1.657   7.471  1.0299  1.2068 -0.8039
 1646SOL    HW216401   4.649   1.763   7.480 -0.6441 -1.4379  3.8892
 1647SOL     OW16402   4.334   4.357   2.499 -0.4064 -0.3344  0.2902
 1647SOL    HW116403   4.367   4.274   2.463 -3.0063 -0.4506 -1.8321
 1647SOL    HW216404   4.274   4.383   2.428 -0.2884 -1.5752 -0.2761
 1648SOL     OW16405   0.163   2.267   1.795 -0.2942 -0.9724  0.4698
 1648SOL    HW116406   0.245   2.285   1.840  0.4449 -3.2855  0.0319
 1648SOL    HW216407   0.193   2.218   1.718  0.0816  0.5606 -0.3552
 1649SOL     OW16408   0.106   2.015   2.438 -0.0761 -0.0804 -0.0852
 1649SOL    HW116409   0.057   1.950   2.387  0.6675 -0.9286  0.2871
 1649SOL    HW216410   0.069   2.095   2.401  0.2593 -0.0765 -0.4140
 1650SOL     OW16411   3.471   4.024   6.269 -0.8133 -0.1014 -0.0103
 1650SOL    HW116412   3.389   4.069   6.288 -0.3285  0.0522  1.7705
 1650SOL    HW216413   3.508   4.055   6.352  1.7981  1.4306 -1.7492
 1651SOL     OW16414   2.796   2.585   3.544 -0.4815 -0.0513  0.4773
 1651SOL    HW116415   2.775   2.676   3.563  1.6520  0.1586  1.8189
 1651SOL    HW216416   2.891   2.591   3.537 -0.5974  1.9339  0.7001
 1652SOL     OW16417   2.545   1.607  16.375  0.0374 -0.4671  0.1305
 1652SOL    HW116418   2.583   1.695  16.380 -0.8593 -0.0358 -0.5594
 1652SOL    HW216419   2.471   1.612  16.435 -0.1554  0.3511 -0.1733
 1653SOL     OW16420   3.850   1.400   3.700 -0.0025 -0.0140 -0.3878
 1653SOL    HW116421   3.795   1.447   3.638 -0.4303 -0.7992 -0.6051
 1653SOL    HW216422   3.935   1.393   3.656  0.1253 -1.2912  0.0513
 1654SOL     OW16423   3.279   2.393  12.094  0.1930 -0.3307  0.1357
 1654SOL    HW116424   3.326   2.434  12.166 -0.0584  0.6574 -0.2600
 1654SOL    HW216425   3.313   2.305  12.108  0.7520  0.2770  2.5272
 1655SOL     OW16426   4.020   0.497   6.612 -0.2761 -0.0458 -0.1772
 1655SOL    HW116427   3.936   0.452   6.602 -1.0519  1.2276  0.5230
 1655SOL    HW216428   4.070   0.424   6.576 -1.4572  0.2802 -2.5046
 1656SOL     OW16429   3.509   1.261   8.017  0.1731  0.1857  0.0708
 1656SOL    HW116430   3.496   1.189   7.956 -0.7588 -0.5674  1.1615
 1656SOL    HW216431   3.509   1.212   8.100 -2.0286  1.3906  0.7575
 1657SOL     OW16432   1.532   0.445  16.179  0.2337 -0.0893  0.0290
 1657SOL    HW116433   1.602   0.416  16.120  0.3792 -0.3244  0.3130
 1657SOL    HW216434   1.517   0.530  16.139  0.1672  0.1477  0.5622
 1658SOL     OW16435   0.705   2.164   4.318 -0.4448 -0.5879  0.2336
 1658SOL    HW116436   0.679   2.122   4.400 -0.4072 -1.8683 -0.4146
 1658SOL    HW216437   0.722   2.092   4.258  3.5130  0.0002  0.6094
 1659SOL     OW16438   0.922   0.450   5.305  0.6443  0.1070 -0.6153
 1659SOL    HW116439   0.865   0.446   5.382  0.1327  2.0829 -0.9069
 1659SOL    HW216440   0.950   0.540   5.317 -1.1568  0.8116 -1.5600
 1660SOL     OW16441   1.343   3.619  14.333  0.0386 -0.4096  0.2326
 1660SOL    HW116442   1.348   3.543  14.391 -2.5052 -0.6060  0.2293
 1660SOL    HW216443   1.431   3.632  14.299 -0.3493  0.2221 -0.5321
 1661SOL     OW16444   3.888   1.549  16.770  0.1470 -0.2357 -0.3536
 1661SOL    HW116445   3.833   1.514  16.840  1.7933  2.1033  2.1091
 1661SOL    HW216446   3.939   1.620  16.810 -1.6679  0.2614  1.1009
 1662SOL     OW16447   3.274   4.532   9.619  0.0087 -0.3029 -0.4239
 1662SOL    HW116448   3.210   4.465   9.643  0.8622 -0.5784  1.0482
 1662SOL    HW216449   3.256   4.605   9.679 -1.1228 -0.3954 -0.6450
 1663SOL     OW16450   0.733   1.571  12.366 -0.3301  0.4007  0.5843
 1663SOL    HW116451   0.670   1.528  12.423  1.3213 -1.9575  0.6055
 1663SOL    HW216452   0.727   1.661  12.398 -1.3745  1.1111 -1.6062
 1664SOL     OW16453   4.279   0.485   1.178 -0.3414  0.9258 -0.5538
 1664SOL    HW116454   4.332   0.407   1.163  1.2338  1.1281  4.0884
 1664SOL    HW216455   4.248   0.510   1.091  0.2937  0.7546 -0.8286
 1665SOL     OW16456   3.268   3.932   1.949  0.4981  0.3718  0.0393
 1665SOL    HW116457   3.346   3.949   1.897  2.0076  2.9210  3.1982
 1665SOL    HW216458   3.208   3.991   1.902  1.8991  2.1071  0.4638
 1666SOL     OW16459   4.660   1.183   3.192 -0.0369  0.1116  0.2655
 1666SOL    HW116460   4.682   1.093   3.165  0.4803  1.0764 -2.5757
 1666SOL    HW216461   0.022   1.223   3.189 -0.6828  1.6120  1.5108
 1667SOL     OW16462   2.791   3.514   4.662 -0.2317  0.3409 -0.0156
 1667SOL    HW116463   2.857   3.532   4.595 -0.4921 -3.9268 -1.4136
 1667SOL    HW216464   2.846   3.538   4.737  0.5446 -0.4912 -0.3195
 1668SOL     OW16465   1.511   2.429   8.985 -0.2873 -0.0148  0.1911
 1668SOL    HW116466   1.511   2.338   9.013 -0.4645 -0.1160 -0.1465
 1668SOL    HW216467   1.564   2.421   8.906  0.3738 -0.6331  0.6926
 1669SOL     OW16468   2.696   0.871  17.259 -0.1775  0.5796 -0.2841
 1669SOL    HW116469   2.635   0.943  17.275  0.1510  1.0496 -1.1528
 1669SOL    HW216470   2.690   0.834  17.347 -0.4263 -0.9313 -0.9339
 1670SOL     OW16471   2.532   2.578   3.352  0.8033 -0.1341  0.1604
 1670SOL    HW116472   2.524   2.490   3.317  0.1838 -0.3320  0.8142
 1670SOL    HW216473   2.562   2.563   3.441  0.9152  0.1219  0.1680
 1671SOL     OW16474   2.817   1.009   2.309 -0.3292  0.3425  0.1538
 1671SOL    HW116475   2.778   1.097   2.315 -1.8083 -0.2154 -1.1668
 1671SOL    HW216476   2.813   0.999   2.214  0.6325  4.4583 -0.3097
 1672SOL     OW16477   1.930   3.876   3.227  0.0262  0.1197 -0.3702
 1672SOL    HW116478   1.951   3.905   3.138 -0.8053 -0.7066 -0.8304
 1672SOL    HW216479   1.840   3.907   3.233  0.4473  1.0580  1.0682
 1673SOL     OW16480   1.766   2.865   3.594 -0.3346  0.0165  0.4167
 1673SOL    HW116481   1.788   2.798   3.660  1.1929  1.2878  1.1950
 1673SOL    HW216482   1.696   2.816   3.551 -0.5682 -0.5360  1.3996
 1674SOL     OW16483   1.127   3.434   7.511  0.0826  0.0609 -0.2405
 1674SOL    HW116484   1.134   3.526   7.536 -2.2340  0.5103 -1.2691
 1674SOL    HW216485   1.173   3.443   7.427  2.8024 -4.3588  0.7663
 1675SOL     OW16486   4.488   3.879   6.943  0.0574 -0.3108 -0.3090
 1675SOL    HW116487   4.554   3.810   6.952 -1.2052 -1.1080  2.8730
 1675SOL    HW216488   4.408   3.846   6.983  0.2131  0.3757  0.5790
 1676SOL     OW16489   0.131   2.431  17.209 -1.0492 -0.1398  0.1464
 1676SOL    HW116490   0.146   2.451  17.117 -0.2962  0.5109  0.4190
 1676SOL    HW216491   0.071   2.357  17.202 -1.4099  0.1366  0.2992
 1677SOL     OW16492   1.375   4.060  15.943  0.3732  0.1068 -0.4327
 1677SOL    HW116493   1.392   4.147  15.978  1.7942  0.1178 -1.1629
 1677SOL    HW216494   1.426   4.062  15.862  0.1199 -0.5504 -0.6111
 1678SOL     OW16495   0.792   4.634   8.258 -0.5631 -0.4684 -0.2645
 1678SOL    HW116496   0.785   4.689   8.336  0.2167  1.6834 -1.7085
 1678SOL    HW216497   0.697   4.632   8.246 -0.4802  1.3001 -1.2073
 1679SOL     OW16498   4.447   0.637   6.041 -0.4904  0.2096 -0.3922
 1679SOL    HW116499   4.360   0.608   6.067 -0.2091 -1.7419 -1.6000
 1679SOL    HW216500   4.501   0.562   6.067  0.5909  1.8673  2.1193
 1680SOL     OW16501   4.139   4.558  11.833  0.1943  0.4495  0.6662
 1680SOL    HW116502   4.156   4.610  11.911 -1.7007 -0.1450  1.4828
 1680SOL    HW216503   4.182   4.474  11.849  1.1667  0.7779 -0.2366
 1681SOL     OW16504   2.556   3.033   0.666  0.4369  0.0031  0.6535
 1681SOL    HW116505   2.588   2.956   0.618  2.4507  1.2622 -0.0442
 1681SOL    HW216506   2.642   3.067   0.691  1.0252 -2.4550  1.9113
 1682SOL     OW16507   1.221   4.290  15.793 -0.7143  0.2236 -0.1643
 1682SOL    HW116508   1.164   4.280  15.869  0.5718  1.3808  0.9642
 1682SOL    HW216509   1.202   4.213  15.740  2.6883 -0.8827  0.2090
 1683SOL     OW16510   3.586   4.320   2.548  0.2856  0.5929  0.5677
 1683SOL    HW116511   3.557   4.308   2.458 -1.5319  2.6225  0.8721
 1683SOL    HW216512   3.623   4.408   2.550 -0.9096  1.0726  2.1361
 1684SOL     OW16513   1.622   3.016  10.453 -0.5177  0.6709  0.0372
 1684SOL    HW116514   1.710   2.980  10.441 -0.9195 -0.1355 -0.4595
 1684SOL    HW216515   1.605   3.025  10.359 -1.7468  1.7843  0.3544
 1685SOL     OW16516   2.378   4.140   5.878 -0.2465 -0.0499  0.2169
 1685SOL    HW116517   2.413   4.180   5.957 -2.1586 -0.2981  1.1762
 1685SOL    HW216518   2.450   4.170   5.822  0.3937  1.1237  1.6927
 1686SOL     OW16519   4.522   1.790   8.586 -0.4202  0.1020 -0.3263
 1686SOL    HW116520   4.571   1.821   8.510 -0.4098 -0.1191 -0.4103
 1686SOL    HW216521   4.489   1.707   8.551 -1.5767  0.8098 -0.9273
 1687SOL     OW16522   2.609   1.918  15.571  0.0544  0.0901  0.0204
 1687SOL    HW116523   2.580   1.998  15.526  1.0087  1.2447  1.4299
 1687SOL    HW216524   2.620   1.861  15.495 -1.4322 -1.1880  0.7607
 1688SOL     OW16525   3.482   2.411   6.270 -0.4384 -0.1301 -0.1564
 1688SOL    HW116526   3.441   2.392   6.354 -1.7515  0.5309 -0.6432
 1688SOL    HW216527   3.510   2.501   6.285 -1.2959 -0.3413  2.5906
 1689SOL     OW16528   2.360   2.238  11.150 -0.2657 -0.7983  0.0084
 1689SOL    HW116529   2.384   2.327  11.175  0.1984 -0.8470 -0.2723
 1689SOL    HW216530   2.284   2.226  11.208 -0.9350  2.0870 -0.2589
 1690SOL     OW16531   4.334   2.929   2.346 -0.1650 -0.8927  0.4152
 1690SOL    HW116532   4.292   2.919   2.432 -1.7734 -0.3779 -0.3064
 1690SOL    HW216533   4.302   3.016   2.321 -0.1548 -0.7232  0.9906
 1691SOL     OW16534   2.579   2.571   5.217 -0.1375 -0.8240  0.1469
 1691SOL    HW116535   2.635   2.543   5.289 -0.4616  0.7624  1.0211
 1691SOL    HW216536   2.589   2.667   5.214 -0.7427 -0.7683 -0.0318
 1692SOL     OW16537   1.479   3.292  14.402 -0.1823  0.3612  0.2301
 1692SOL    HW116538   1.546   3.279  14.335 -1.7644 -2.4184 -0.7891
 1692SOL    HW216539   1.528   3.285  14.484  1.6582  1.0587 -0.8002
 1693SOL     OW16540   2.475   2.830   1.476  0.4940  0.2235 -0.0609
 1693SOL    HW116541   2.458   2.737   1.460  0.0538  0.3932 -0.5805
 1693SOL    HW216542   2.383   2.852   1.492 -0.1410 -2.3849 -0.1904
 1694SOL     OW16543   1.428   3.739   7.764 -0.4182  0.2012  0.1973
 1694SOL    HW116544   1.392   3.790   7.836 -0.6107  0.2563  0.0606
 1694SOL    HW216545   1.485   3.801   7.719  0.2098  0.5393  1.4562
 1695SOL     OW16546   2.479   1.824   7.957 -0.0868  0.0700  0.3528
 1695SOL    HW116547   2.384   1.823   7.975  0.0003 -0.4838  0.8001
 1695SOL    HW216548   2.507   1.747   8.007 -0.3883 -0.5854 -0.4944
 1696SOL     OW16549   4.008   1.421   5.533 -0.2561 -0.0720  0.2561
 1696SOL    HW116550   4.045   1.383   5.613  0.3074  1.5569  0.7595
 1696SOL    HW216551   3.918   1.393   5.550  0.4437 -1.2523  2.0546
 1697SOL     OW16552   3.596   3.478   7.122  0.1034  0.1592 -0.8390
 1697SOL    HW116553   3.520   3.425   7.100  0.9063 -0.7132 -1.4959
 1697SOL    HW216554   3.546   3.541   7.175  1.2534  0.6597 -0.3596
 1698SOL     OW16555   4.049   3.823  14.336 -0.1265  0.1916 -0.5307
 1698SOL    HW116556   4.073   3.901  14.286 -3.2520  1.1798 -0.4496
 1698SOL    HW216557   3.959   3.806  14.309 -0.1333 -1.7257  0.6706
 1699SOL     OW16558   3.930   1.421  17.515 -0.0433  0.1205 -0.0282
 1699SOL    HW116559   3.952   1.377  17.597  0.9194  1.4750  0.4424
 1699SOL    HW216560   3.937   1.345  17.457  0.0474 -0.3267  0.5758
 1700SOL     OW16561   0.333   2.772  17.404  0.6997 -0.1945  1.0772
 1700SOL    HW116562   0.364   2.792  17.493 -0.0220  2.1811  0.7881
 1700SOL    HW216563   0.328   2.855  17.358  2.9826 -0.2617  0.6865
 1701SOL     OW16564   3.303   4.460   7.141  1.2704 -0.3982 -0.6492
 1701SOL    HW116565   3.220   4.445   7.094  0.6304 -0.1968  0.4121
 1701SOL    HW216566   3.370   4.492   7.081 -0.1457  1.4352 -1.2676
 1702SOL     OW16567   0.684   0.501   1.188 -0.0806  0.2185  0.1889
 1702SOL    HW116568   0.761   0.468   1.142 -0.3237  0.4333 -0.3656
 1702SOL    HW216569   0.659   0.588   1.155 -0.1182  0.4559  0.8318
 1703SOL     OW16570   0.797   2.626   5.320  0.3304  0.0058  0.0173
 1703SOL    HW116571   0.782   2.644   5.227  1.4107 -2.9480 -0.7353
 1703SOL    HW216572   0.864   2.558   5.308  0.5649  0.4798 -1.3598
 1704SOL     OW16573   1.084   4.257   5.312  0.1896 -0.1711  0.0643
 1704SOL    HW116574   1.020   4.187   5.302  1.5642 -1.4717  0.4600
 1704SOL    HW216575   1.028   4.323   5.270 -0.5374  0.3544  1.8881
 1705SOL     OW16576   1.271   0.739   3.045 -0.4306  0.0356 -0.3045
 1705SOL    HW116577   1.263   0.789   3.126  1.5516  0.3490 -0.2976
 1705SOL    HW216578   1.178   0.719   3.036 -0.5682  0.2434  0.6714
 1706SOL     OW16579   0.420   3.415   1.056 -0.1680 -0.6893 -0.2346
 1706SOL    HW116580   0.463   3.483   1.108 -1.3542  0.0357 -0.1893
 1706SOL    HW216581   0.404   3.347   1.121  0.8301 -1.0615 -0.3864
 1707SOL     OW16582   2.327   3.447   4.617 -0.0735 -0.5087  0.3412
 1707SOL    HW116583   2.266   3.478   4.550  2.4038  3.1030 -0.2236
 1707SOL    HW216584   2.271   3.446   4.695  1.4532 -0.6346  1.4291
 1708SOL     OW16585   1.847   2.601  15.948  0.2649 -0.7502 -0.1487
 1708SOL    HW116586   1.899   2.559  15.880  1.3349  0.1421  0.1125
 1708SOL    HW216587   1.915   2.661  15.980 -0.7120  0.1452  0.2460
 1709SOL     OW16588   1.418   2.495   0.291  0.0163 -0.0598 -0.2970
 1709SOL    HW116589   1.335   2.542   0.279  0.3386  0.3961 -0.7616
 1709SOL    HW216590   1.486   2.562   0.291  2.1528 -2.2277  0.2939
 1710SOL     OW16591   4.523   2.700  11.748  0.6347  0.2577  0.3194
 1710SOL    HW116592   4.480   2.717  11.665  0.5304  0.2215  0.3657
 1710SOL    HW216593   4.563   2.784  11.769  0.3061  0.5805 -0.3738
 1711SOL     OW16594   1.524   0.024  11.488  0.0998  0.1100  0.3080
 1711SOL    HW116595   1.600   4.714  11.533  0.4374  1.3969  0.7420
 1711SOL    HW216596   1.527   0.007  11.394  2.1746 -0.8761  0.5722
 1712SOL     OW16597   1.015   3.991   5.032 -0.1560  0.6850  0.6531
 1712SOL    HW116598   1.060   3.933   4.971 -1.4365 -1.3614  1.6676
 1712SOL    HW216599   1.009   4.075   4.986 -0.1589  0.3928  0.1233
 1713SOL     OW16600   1.553   3.507  15.224 -0.5168 -0.1228  0.2129
 1713SOL    HW116601   1.639   3.523  15.184 -0.3718 -1.1055  0.1475
 1713SOL    HW216602   1.580   3.435  15.281  1.2495  0.9141  0.7103
 1714SOL     OW16603   2.615   0.805   4.048 -0.0929  0.1722  0.2492
 1714SOL    HW116604   2.627   0.713   4.024 -2.5355  0.1091 -0.6737
 1714SOL    HW216605   2.666   0.841   3.975 -2.4179  1.1468 -0.8959
 1715SOL     OW16606   3.354   1.426   9.351 -0.9432  0.6711 -0.0313
 1715SOL    HW116607   3.349   1.521   9.361 -0.2946  0.4186  2.6162
 1715SOL    HW216608   3.297   1.385   9.416 -0.3505 -1.1866 -0.7043
 1716SOL     OW16609   2.703   2.555   1.695  0.6082  0.1440  0.2748
 1716SOL    HW116610   2.660   2.613   1.758 -1.3472 -1.4208  0.3782
 1716SOL    HW216611   2.635   2.488   1.696  0.0059  0.7812  2.1586
 1717SOL     OW16612   0.584   4.253   6.351  0.0651  0.1168 -0.2962
 1717SOL    HW116613   0.523   4.260   6.424  0.4178  0.6841 -0.0657
 1717SOL    HW216614   0.666   4.242   6.399 -0.1244 -3.2332 -0.7091
 1718SOL     OW16615   2.835   4.569   9.995 -0.3827 -0.1053 -0.2021
 1718SOL    HW116616   2.870   4.594  10.081  0.9202 -1.3909 -0.3508
 1718SOL    HW216617   2.759   4.517  10.019 -0.1043 -0.7577 -0.7331
 1719SOL     OW16618   0.374   2.816   7.344  0.2149 -0.3408  0.3625
 1719SOL    HW116619   0.400   2.908   7.347  0.4815 -0.4510  1.4680
 1719SOL    HW216620   0.448   2.774   7.388  0.0105  0.4400  1.4660
 1720SOL     OW16621   1.506   2.708   6.141  0.1251 -0.2299  0.4837
 1720SOL    HW116622   1.556   2.647   6.196  2.7836  1.3437 -0.1816
 1720SOL    HW216623   1.460   2.644   6.087  0.5966 -0.8188  0.7833
 1721SOL     OW16624   4.224   2.855   2.593 -0.0286 -0.1960 -0.4723
 1721SOL    HW116625   4.196   2.765   2.575 -0.3974 -0.3366  0.7799
 1721SOL    HW216626   4.136   2.893   2.591  0.3722  0.8607  1.7791
 1722SOL     OW16627   1.595   3.168   6.175 -0.5016  1.0411  0.2158
 1722SOL    HW116628   1.577   3.098   6.112 -0.5747  1.0843  0.1896
 1722SOL    HW216629   1.652   3.126   6.240 -1.6144  1.0979  1.2165
 1723SOL     OW16630   1.102   0.300   4.350 -0.3895  0.2121  0.0649
 1723SOL    HW116631   1.140   0.254   4.275 -0.7951  0.3078 -0.1969
 1723SOL    HW216632   1.107   0.237   4.421 -2.2638 -0.7744 -0.6874
 1724SOL     OW16633   0.942   1.318   3.670 -0.0571  0.0163 -0.0510
 1724SOL    HW116634   0.989   1.366   3.602  1.1097  0.6807  1.2405
 1724SOL    HW216635   1.002   1.319   3.745 -0.4944  0.0759  0.2937
 1725SOL     OW16636   0.893   0.746   5.894  0.0071  0.9395 -0.1784
 1725SOL    HW116637   0.944   0.670   5.922  0.6297  1.2003 -0.5897
 1725SOL    HW216638   0.844   0.765   5.974 -3.7121 -1.3420 -1.9604
 1726SOL     OW16639   3.357   1.549   7.655  0.4557 -0.2462 -0.5419
 1726SOL    HW116640   3.448   1.571   7.639  0.6946 -0.6932  0.1641
 1726SOL    HW216641   3.366   1.524   7.748  0.8574  1.3608 -0.1557
 1727SOL     OW16642   1.465   2.873   3.311  0.0346  0.2159 -0.3259
 1727SOL    HW116643   1.466   2.841   3.221  0.1766 -1.3623  0.2405
 1727SOL    HW216644   1.485   2.966   3.303 -0.0344  0.4878  2.5142
 1728SOL     OW16645   1.875   2.702   5.203  0.6835  0.4170 -0.3129
 1728SOL    HW116646   1.810   2.734   5.140 -0.0091 -2.6821 -1.1779
 1728SOL    HW216647   1.845   2.611   5.215  1.0567  0.4534  0.8452
 1729SOL     OW16648   1.027   1.928  13.392  0.3891 -0.2621 -0.2767
 1729SOL    HW116649   1.108   1.924  13.340 -1.0334  1.1532 -2.5582
 1729SOL    HW216650   1.028   1.837  13.423 -2.1154 -0.5259 -1.0380
 1730SOL     OW16651   2.698   0.110   1.572  0.3527 -0.8728  0.5278
 1730SOL    HW116652   2.613   0.077   1.541 -1.1309  0.8048  2.7256
 1730SOL    HW216653   2.658   0.138   1.655  2.0542  2.1047  0.3296
 1731SOL     OW16654   4.243   0.230   2.260 -0.2153 -0.3994  0.6117
 1731SOL    HW116655   4.198   0.146   2.249 -0.6800 -0.1179  0.3959
 1731SOL    HW216656   4.251   0.270   2.173 -1.4454 -0.7393  0.3484
 1732SOL     OW16657   0.273   4.222   7.451  0.0107  0.4256  0.1060
 1732SOL    HW116658   0.252   4.252   7.363  0.9469  0.8852  0.0394
 1732SOL    HW216659   0.363   4.253   7.444  0.3405 -0.1345  1.9183
 1733SOL     OW16660   4.046   4.513  12.135 -0.5230  0.4497  0.3906
 1733SOL    HW116661   4.004   4.454  12.197 -0.9736 -1.6472 -1.9536
 1733SOL    HW216662   4.134   4.478  12.124 -0.6735  0.2460 -0.1242
 1734SOL     OW16663   0.851   1.587   4.225 -0.4551  0.3532  0.3476
 1734SOL    HW116664   0.906   1.629   4.159 -0.1374 -1.9078 -0.8228
 1734SOL    HW216665   0.914   1.529   4.270  0.5488  0.2540 -1.1968
 1735SOL     OW16666   0.864   4.390  12.738 -0.6551  0.4943 -0.0689
 1735SOL    HW116667   0.866   4.345  12.654  0.9826 -2.5079  1.5489
 1735SOL    HW216668   0.944   4.443  12.740  1.2151 -2.3975  2.3714
 1736SOL     OW16669   2.047   0.501   3.709 -0.2197  0.0174 -0.3529
 1736SOL    HW116670   1.988   0.442   3.663  1.1368 -2.5571  1.2360
 1736SOL    HW216671   2.100   0.536   3.637 -0.8536  0.0241 -0.8234
 1737SOL     OW16672   3.301   2.252  11.778 -0.6671 -0.8975 -0.6290
 1737SOL    HW116673   3.232   2.187  11.789 -1.3344  0.1740  1.4186
 1737SOL    HW216674   3.339   2.249  11.866  1.0077  1.2936 -1.2728
 1738SOL     OW16675   0.947   1.963   8.317  0.0913 -0.3722  0.2944
 1738SOL    HW116676   1.038   1.964   8.285 -0.5675 -0.0140 -1.5586
 1738SOL    HW216677   0.960   1.921   8.402  0.7515  0.7747  0.7498
 1739SOL     OW16678   4.465   0.678  13.829  0.1610  0.0772  0.9413
 1739SOL    HW116679   4.414   0.731  13.769  1.0461 -0.2437 -0.1045
 1739SOL    HW216680   4.511   0.616  13.772 -1.7102  0.4324 -0.9131
 1740SOL     OW16681   1.023   4.293   0.957  0.1194 -0.1502  0.4764
 1740SOL    HW116682   1.059   4.329   0.877 -1.6001  0.4355 -0.0324
 1740SOL    HW216683   0.945   4.267   0.909  1.4583 -2.1082 -0.6548
 1741SOL     OW16684   2.317   0.841   0.303 -0.6409 -0.6068  0.0966
 1741SOL    HW116685   2.241   0.899   0.291  0.4298  0.4643 -1.4610
 1741SOL    HW216686   2.286   0.777   0.368 -0.4569  1.2839  2.0478
 1742SOL     OW16687   4.278   4.141   9.975 -0.6832 -0.0526  0.2189
 1742SOL    HW116688   4.370   4.165   9.987 -0.9611  0.8861  0.4430
 1742SOL    HW216689   4.269   4.144   9.880 -1.0300 -2.6320  0.1774
 1743SOL     OW16690   4.609   3.787  13.741  0.7411 -0.4765  0.4397
 1743SOL    HW116691   4.669   3.769  13.813 -0.9948 -3.1863  1.2202
 1743SOL    HW216692   4.530   3.746  13.776  0.8863 -0.4976  0.7473
 1744SOL     OW16693   4.067   0.679  12.284  0.4615  0.2559 -0.5130
 1744SOL    HW116694   4.015   0.757  12.263  1.6588  0.7948 -1.4426
 1744SOL    HW216695   4.067   0.636  12.199  1.5837  0.1744 -0.4605
 1745SOL     OW16696   4.541   1.613  16.830  0.1115 -0.2144 -0.1237
 1745SOL    HW116697   4.625   1.568  16.835  0.7071  0.7335 -1.5319
 1745SOL    HW216698   4.497   1.557  16.766  0.3372 -1.3935  0.7358
 1746SOL     OW16699   0.844   1.712  17.702  0.3226 -0.5940  0.0556
 1746SOL    HW116700   0.883   1.722   0.087 -3.4702 -3.6999  2.1093
 1746SOL    HW216701   0.922   1.680  17.656 -0.4177  0.7027 -2.0825
 1747SOL     OW16702   3.861   0.284  12.573 -0.6619 -0.1987 -0.6908
 1747SOL    HW116703   3.766   0.293  12.563 -0.9328  1.9104  3.8212
 1747SOL    HW216704   3.892   0.332  12.496 -3.4016  1.6177 -0.6375
 1748SOL     OW16705   3.735   1.101  14.953  0.3876 -0.1439  0.4967
 1748SOL    HW116706   3.737   1.090  14.858 -2.7290  0.3150  0.3751
 1748SOL    HW216707   3.644   1.097  14.983  0.5273  1.2229  1.1497
 1749SOL     OW16708   1.995   2.505   9.151 -0.1689  0.5674 -0.0785
 1749SOL    HW116709   1.994   2.566   9.077  0.0995  1.6247  0.7823
 1749SOL    HW216710   2.044   2.430   9.119  1.0075  1.2569  0.1120
 1750SOL     OW16711   1.194   3.452   4.706  0.5792 -0.1882 -0.0002
 1750SOL    HW116712   1.287   3.438   4.725  0.8307 -0.3695 -1.3669
 1750SOL    HW216713   1.178   3.485   4.794 -0.6182 -2.7134  0.7157
 1751SOL     OW16714   4.198   0.329   5.866  0.2173 -0.0367 -0.0789
 1751SOL    HW116715   4.173   0.295   5.780  0.7952  1.9782 -1.0375
 1751SOL    HW216716   4.282   0.282   5.874  0.6390  0.6536 -0.5289
 1752SOL     OW16717   0.106   2.380  17.587 -0.1837 -0.4481  0.4135
 1752SOL    HW116718   0.202   2.378  17.590 -0.0163  1.9808 -2.8882
 1752SOL    HW216719   0.087   2.474  17.584 -2.8875 -1.0000 -0.0858
 1753SOL     OW16720   1.909   0.480   9.120 -0.1760  0.1452  0.1588
 1753SOL    HW116721   1.993   0.466   9.164 -0.1276  0.0725  0.0437
 1753SOL    HW216722   1.867   0.548   9.172 -1.0919  0.6908 -1.3151
 1754SOL     OW16723   0.531   1.110   2.775 -0.5711 -0.5453  0.1308
 1754SOL    HW116724   0.575   1.062   2.845 -2.1641 -1.4622  0.4859
 1754SOL    HW216725   0.492   1.186   2.818 -0.5859 -0.1362 -0.5971
 1755SOL     OW16726   0.290   4.421   8.377  0.1946 -0.0616  0.2272
 1755SOL    HW116727   0.338   4.415   8.294  0.9670 -1.6595  0.7947
 1755SOL    HW216728   0.355   4.396   8.442  1.8958 -0.7828 -1.7432
 1756SOL     OW16729   0.027   4.568  13.096 -0.3235  0.3927  0.3196
 1756SOL    HW116730   4.681   4.609  13.047  1.3436  2.0599 -0.7003
 1756SOL    HW216731   0.032   4.489  13.043 -1.7488  2.4754 -2.9466
 1757SOL     OW16732   3.189   3.737   8.653 -0.7276  0.3322  0.1517
 1757SOL    HW116733   3.109   3.685   8.653 -0.7918  0.4005  2.0372
 1757SOL    HW216734   3.194   3.764   8.562  1.6387 -0.5990  0.0115
 1758SOL     OW16735   3.206   1.689   4.923 -0.1929  0.4092 -0.2039
 1758SOL    HW116736   3.157   1.724   4.849 -3.2520  0.2266  1.7461
 1758SOL    HW216737   3.170   1.602   4.940  0.6796  0.0260 -0.2762
 1759SOL     OW16738   2.768   2.494   8.039 -0.5277  0.6106 -0.2207
 1759SOL    HW116739   2.730   2.423   7.987  1.7883 -1.2425  0.5972
 1759SOL    HW216740   2.763   2.457   8.128 -0.5139  2.0868  0.3884
 1760SOL     OW16741   2.321   1.075   2.945 -0.3590 -0.3574 -0.0398
 1760SOL    HW116742   2.386   1.029   2.893  0.6075 -0.4595  1.2501
 1760SOL    HW216743   2.321   1.022   3.025 -1.6947 -0.9405 -0.4140
 1761SOL     OW16744   1.192   4.383   3.371 -0.0733  0.4258  0.0856
 1761SOL    HW116745   1.278   4.395   3.412 -0.3217  0.9863  0.4477
 1761SOL    HW216746   1.202   4.436   3.293 -0.2938 -1.7501 -1.4365
 1762SOL     OW16747   0.430   0.759   8.181  0.2857  0.3388  0.3000
 1762SOL    HW116748   0.435   0.845   8.140  0.6844 -0.1782 -0.7555
 1762SOL    HW216749   0.368   0.721   8.118  1.0191  0.1445 -0.3081
 1763SOL     OW16750   0.947   3.080   7.226  0.2725 -0.3626 -0.1076
 1763SOL    HW116751   0.991   3.005   7.185 -1.0353 -0.2910 -1.6350
 1763SOL    HW216752   0.909   3.121   7.148 -2.0702 -1.5687  0.3996
 1764SOL     OW16753   4.336   4.604   7.902  0.1239 -0.0844 -0.2256
 1764SOL    HW116754   4.366   4.615   7.992  0.3341  0.6542 -0.3818
 1764SOL    HW216755   4.387   4.528   7.876  0.9083 -0.0003  1.0777
 1765SOL     OW16756   2.086   3.264   5.074 -0.2541 -0.4096  0.2293
 1765SOL    HW116757   2.025   3.198   5.040 -1.4253  1.5099 -1.3454
 1765SOL    HW216758   2.163   3.238   5.024  0.4730  0.2080  1.0359
 1766SOL     OW16759   1.306   1.200   1.304 -0.3058  0.7735  0.3267
 1766SOL    HW116760   1.381   1.259   1.303  0.6445 -0.4160  3.8407
 1766SOL    HW216761   1.241   1.255   1.259  2.2635  2.2863 -1.5195
 1767SOL     OW16762   0.479   1.597   6.849 -0.0313 -0.2027  0.2965
 1767SOL    HW116763   0.400   1.651   6.850  0.0950 -0.0120 -0.6642
 1767SOL    HW216764   0.457   1.526   6.789  0.5446  0.9037 -1.1994
 1768SOL     OW16765   3.848   1.993   3.628  0.4475 -0.0811 -0.0611
 1768SOL    HW116766   3.868   1.904   3.600 -2.0341 -0.5041 -0.4365
 1768SOL    HW216767   3.926   2.043   3.603  0.9135 -1.0332 -0.5118
 1769SOL     OW16768   1.210   0.664   4.872 -0.1557  0.0658  0.4215
 1769SOL    HW116769   1.123   0.673   4.833  0.1938  1.2203 -0.1152
 1769SOL    HW216770   1.195   0.587   4.927  0.1403  0.5185  1.1383
 1770SOL     OW16771   0.777   1.079   1.699  0.6318  0.6618  0.0664
 1770SOL    HW116772   0.849   1.108   1.643  1.9537 -1.1742  0.8010
 1770SOL    HW216773   0.712   1.147   1.684 -0.4663 -0.3296  0.3196
 1771SOL     OW16774   2.103   4.321   3.077  0.5087  0.3306 -0.2694
 1771SOL    HW116775   2.101   4.263   3.001 -3.0655  1.4062 -1.0122
 1771SOL    HW216776   2.123   4.406   3.038 -1.4278  0.8609 -0.1477
 1772SOL     OW16777   0.112   2.631   8.060 -0.4017 -0.6090  0.3710
 1772SOL    HW116778   0.156   2.577   7.995 -0.5521 -0.4588  0.1425
 1772SOL    HW216779   0.069   2.700   8.010  1.8426  0.7199  0.2845
 1773SOL     OW16780   2.381   3.077   1.230 -0.3118 -0.4045 -0.0385
 1773SOL    HW116781   2.452   3.012   1.230 -0.2614 -0.3562  1.3152
 1773SOL    HW216782   2.365   3.094   1.138 -1.5974 -1.4905 -0.0157
 1774SOL     OW16783   2.121   2.527   6.313 -0.9396  0.3857 -0.6029
 1774SOL    HW116784   2.065   2.517   6.390  0.3480  2.0675  0.5505
 1774SOL    HW216785   2.065   2.585   6.263  0.3855  1.5789 -0.7027
 1775SOL     OW16786   0.390   2.099  14.572 -0.1787  0.4541  0.8959
 1775SOL    HW116787   0.421   2.043  14.643  0.9124 -0.8631 -0.6223
 1775SOL    HW216788   0.398   2.023  14.515  1.4948  1.3746 -0.1296
 1776SOL     OW16789   3.631   4.688   4.031 -0.0056 -0.0406 -0.7502
 1776SOL    HW116790   3.684   0.035   3.997  1.3072 -0.0444  1.2935
 1776SOL    HW216791   3.698   4.645   4.085 -0.4618  1.7840  1.2662
 1777SOL     OW16792   0.392   2.792   6.268 -0.4607  0.4505 -0.1259
 1777SOL    HW116793   0.483   2.819   6.271  0.1366 -1.5385 -0.5455
 1777SOL    HW216794   0.356   2.881   6.265 -0.3987  0.4596 -0.6011
 1778SOL     OW16795   1.320   3.632   0.733  0.2029 -0.1562  0.0098
 1778SOL    HW116796   1.349   3.555   0.781  1.4494  1.6399  2.1765
 1778SOL    HW216797   1.361   3.706   0.778 -0.7031 -0.8839  2.0054
 1779SOL     OW16798   4.383   3.119   9.582  0.4042 -0.1886  0.3845
 1779SOL    HW116799   4.298   3.077   9.567  0.5538  0.0198 -1.0135
 1779SOL    HW216800   4.397   3.083   9.670  0.5267 -0.9222  0.0685
 1780SOL     OW16801   3.430   0.662   7.157 -0.0220  0.3005  0.0984
 1780SOL    HW116802   3.512   0.712   7.159 -0.0138  0.2656  0.6957
 1780SOL    HW216803   3.403   0.691   7.244 -1.2489 -0.4149 -0.0443
 1781SOL     OW16804   3.859   3.351   7.434  0.2563  0.5738  0.2860
 1781SOL    HW116805   3.790   3.411   7.462  0.7117  0.8906  0.7316
 1781SOL    HW216806   3.826   3.270   7.473  0.7377  0.1548 -0.1786
 1782SOL     OW16807   4.469   4.002   3.940  0.4558  0.2896  0.2675
 1782SOL    HW116808   4.375   3.990   3.948  0.5756 -1.0675 -0.3940
 1782SOL    HW216809   4.486   3.957   3.858 -1.0250 -0.5886  0.4457
 1783SOL     OW16810   3.703   3.368   6.214  0.5131  0.2007  0.8672
 1783SOL    HW116811   3.721   3.441   6.154  0.2372  0.2940  0.8997
 1783SOL    HW216812   3.757   3.294   6.185  0.3449  1.8027 -3.5777
 1784SOL     OW16813   2.150   4.725   6.597  0.0719 -0.1973  0.0329
 1784SOL    HW116814   2.178   0.084   6.560  2.2160 -1.3057 -0.8875
 1784SOL    HW216815   2.229   4.698   6.645  0.8190  1.3544 -0.3274
 1785SOL     OW16816   2.817   0.018   0.512  0.2932 -0.0862 -0.4077
 1785SOL    HW116817   2.727   4.712   0.505  1.1363 -2.4926 -0.6640
 1785SOL    HW216818   2.820   0.065   0.595  1.7036 -0.6735 -0.1231
 1786SOL     OW16819   0.940   3.692   2.349 -0.5563 -0.3683  0.0893
 1786SOL    HW116820   0.976   3.728   2.268 -0.8799 -0.5293 -0.1234
 1786SOL    HW216821   0.883   3.623   2.314 -1.5117  1.4057 -1.8791
 1787SOL     OW16822   4.682   2.635   6.268  0.1750 -0.1545 -0.3885
 1787SOL    HW116823   0.003   2.703   6.316 -0.6144 -0.2440  0.4899
 1787SOL    HW216824   4.709   2.559   6.320 -3.1199 -2.5335 -2.1440
 1788SOL     OW16825   3.026   0.591   5.738 -0.0718 -0.4903  0.0760
 1788SOL    HW116826   3.040   0.620   5.829  0.3959 -1.6758  0.3780
 1788SOL    HW216827   3.079   0.512   5.739  1.5516  0.5948  1.5131
 1789SOL     OW16828   1.025   1.762   2.781 -0.0503 -0.1618  0.4829
 1789SOL    HW116829   0.988   1.841   2.742 -2.3190 -1.4213  0.0490
 1789SOL    HW216830   1.093   1.797   2.839 -0.8197  0.5769  0.9504
 1790SOL     OW16831   4.363   4.528   3.630 -0.8095  0.1117 -0.3769
 1790SOL    HW116832   4.311   4.546   3.709  0.7165 -2.3238  1.1757
 1790SOL    HW216833   4.325   4.592   3.569 -0.4846 -0.5186 -1.2314
 1791SOL     OW16834   2.468   4.101   4.110 -0.1149  0.2696  0.2451
 1791SOL    HW116835   2.523   4.174   4.083 -0.3349  1.0737  1.9973
 1791SOL    HW216836   2.536   4.038   4.135 -0.7842 -0.4191  0.3632
 1792SOL     OW16837   0.140   1.256  17.203  0.3662  0.3966 -0.6196
 1792SOL    HW116838   0.176   1.267  17.291  0.8167 -0.2127 -0.7315
 1792SOL    HW216839   0.130   1.350  17.189 -1.7318  0.4314  1.2072
 1793SOL     OW16840   4.546   1.311  10.332 -0.0633  0.3668  0.4992
 1793SOL    HW116841   4.612   1.252  10.294 -0.1370  1.1279 -0.8077
 1793SOL    HW216842   4.600   1.389  10.346  2.4892 -1.6103  1.6302
 1794SOL     OW16843   1.097   3.765   3.072  0.0495 -0.5889  0.3040
 1794SOL    HW116844   1.072   3.720   2.991  3.0897 -2.2979  0.3264
 1794SOL    HW216845   1.184   3.728   3.086  0.4214 -0.1101 -0.7792
 1795SOL     OW16846   1.816   4.184   1.603  0.4082 -0.2653 -0.0405
 1795SOL    HW116847   1.770   4.244   1.662 -0.8786 -0.0586 -1.2353
 1795SOL    HW216848   1.780   4.212   1.518 -0.8216  0.7964  0.8404
 1796SOL     OW16849   3.647   2.057  14.036 -0.2796  0.0162 -0.3706
 1796SOL    HW116850   3.555   2.067  14.061 -0.4303  2.4364 -1.8793
 1796SOL    HW216851   3.633   1.990  13.969 -0.7280 -0.3678  0.1078
 1797SOL     OW16852   3.288   1.912   5.695 -0.1489  0.1384  0.0824
 1797SOL    HW116853   3.263   2.003   5.685 -1.4961 -0.1666  0.7140
 1797SOL    HW216854   3.221   1.882   5.633  0.3616 -1.0522  0.1085
 1798SOL     OW16855   2.565   1.589   6.124  0.4798 -0.0752  0.0245
 1798SOL    HW116856   2.603   1.549   6.202 -2.1863 -2.2514  0.1987
 1798SOL    HW216857   2.626   1.565   6.054  0.4086 -0.4728  0.0993
 1799SOL     OW16858   0.191   0.484   1.778 -0.2273 -0.1350 -0.2920
 1799SOL    HW116859   0.274   0.526   1.801  0.1532 -0.4947 -1.0163
 1799SOL    HW216860   0.223   0.395   1.762 -0.0360 -0.0193 -0.5546
 1800SOL     OW16861   4.663   4.190  11.219  0.0014 -0.3720 -0.4085
 1800SOL    HW116862   4.678   4.103  11.257  0.4698 -1.2467 -2.6299
 1800SOL    HW216863   4.572   4.207  11.245 -0.6693  0.7765 -3.4877
 1801SOL     OW16864   2.992   0.077   5.749  0.6039  0.3915  0.6013
 1801SOL    HW116865   3.043   0.050   5.673  2.4294 -1.3756  2.4586
 1801SOL    HW216866   2.961   4.720   5.787  1.1999  1.0245  2.4682
 1802SOL     OW16867   2.831   0.856   5.285  0.7477  0.0085 -0.0527
 1802SOL    HW116868   2.832   0.938   5.236  1.6836 -0.3591 -0.6506
 1802SOL    HW216869   2.883   0.884   5.361  2.4303  0.0330 -1.2161
 1803SOL     OW16870   4.518   2.935   1.138 -0.5418 -0.9031 -0.2390
 1803SOL    HW116871   4.520   3.019   1.094  0.4768 -0.8733 -0.1443
 1803SOL    HW216872   4.575   2.883   1.081  0.6416  0.2012 -0.0756
 1804SOL     OW16873   0.177   0.332  15.883  0.1238 -0.1845 -0.0633
 1804SOL    HW116874   0.214   0.314  15.796  1.0078  1.2597  0.0071
 1804SOL    HW216875   0.186   0.247  15.926  0.9753  0.5697  1.2541
 1805SOL     OW16876   1.460   3.867   0.791 -0.1169 -0.1660 -0.0301
 1805SOL    HW116877   1.460   3.949   0.741  1.6175  0.3574  0.8501
 1805SOL    HW216878   1.548   3.871   0.828 -0.2981  0.0482  0.3699
 1806SOL     OW16879   0.084   2.353   2.762 -0.0143 -0.3805 -0.4108
 1806SOL    HW116880   0.065   2.436   2.719 -1.1207 -0.4540 -0.0507
 1806SOL    HW216881   0.159   2.329   2.707  0.0355 -0.5107 -0.2867
 1807SOL     OW16882   1.165   0.040  13.972  0.4331  0.3955 -0.3203
 1807SOL    HW116883   1.087   0.006  13.928  0.9455 -0.4850 -0.5424
 1807SOL    HW216884   1.134   0.079  14.054 -0.0733 -0.0210 -0.3085
 1808SOL     OW16885   0.218   1.338   5.027 -0.0002  0.9864  0.3416
 1808SOL    HW116886   0.260   1.405   4.974  2.1395 -0.6372 -0.0142
 1808SOL    HW216887   0.279   1.315   5.097  3.5673 -0.7176 -3.3661
 1809SOL     OW16888   1.336   3.215   2.560  0.2959 -0.0002 -0.1662
 1809SOL    HW116889   1.381   3.299   2.547  1.3618 -0.6721 -0.7861
 1809SOL    HW216890   1.263   3.226   2.620  1.2092 -0.8446  1.1042
 1810SOL     OW16891   0.148   2.796   5.321 -0.3768 -0.2992  0.3794
 1810SOL    HW116892   0.103   2.713   5.338 -0.0468 -1.0344 -2.3631
 1810SOL    HW216893   0.086   2.860   5.358  0.2625 -0.9482  2.5997
 1811SOL     OW16894   3.794   3.889   0.912  0.2267 -0.2509 -0.4319
 1811SOL    HW116895   3.782   3.842   0.994  1.7272  0.9839  0.4884
 1811SOL    HW216896   3.860   3.830   0.875  1.7873  0.0512  1.8192
 1812SOL     OW16897   2.676   0.807   1.207 -0.0204  0.4759  0.1115
 1812SOL    HW116898   2.677   0.730   1.264 -1.4179 -1.3418 -2.3418
 1812SOL    HW216899   2.582   0.806   1.185 -0.1882  1.8593  0.7386
 1813SOL     OW16900   0.565   2.524   4.411 -0.3283 -0.0513  0.4812
 1813SOL    HW116901   0.511   2.512   4.490  0.4726 -0.8770  0.8985
 1813SOL    HW216902   0.507   2.578   4.357 -1.7576 -3.3055 -1.1862
 1814SOL     OW16903   3.858   3.646  15.581 -0.7277  0.5043 -0.0683
 1814SOL    HW116904   3.838   3.707  15.509 -1.1627  0.2627 -0.1538
 1814SOL    HW216905   3.945   3.674  15.608  0.2658 -2.6744 -0.0939
 1815SOL     OW16906   1.722   2.170   5.975 -0.0034  0.4894 -0.6697
 1815SOL    HW116907   1.814   2.172   5.948  0.0183 -0.0326 -0.6199
 1815SOL    HW216908   1.732   2.124   6.058 -2.7069 -1.3456 -1.3622
 1816SOL     OW16909   2.358   2.166   6.312  0.2094  0.1120 -0.2741
 1816SOL    HW116910   2.290   2.144   6.376 -1.2713  0.7654 -1.6476
 1816SOL    HW216911   2.321   2.216   6.240  1.7135 -1.3949 -2.0697
 1817SOL     OW16912   2.357   3.157   0.960  0.2879  0.0642  0.5807
 1817SOL    HW116913   2.291   3.223   0.940 -0.3052 -0.6956  0.0239
 1817SOL    HW216914   2.329   3.089   0.899 -1.3403  0.8208  0.4911
 1818SOL     OW16915   2.840   1.918   7.958  0.1713  0.1412  0.3555
 1818SOL    HW116916   2.911   1.868   7.998 -0.3032  0.3584  1.4644
 1818SOL    HW216917   2.763   1.884   8.003 -0.1208 -0.4757 -0.6067
 1819SOL     OW16918   1.271   1.288  14.438 -0.4905 -0.3446  0.6463
 1819SOL    HW116919   1.187   1.256  14.472 -0.8401 -1.2038 -0.9776
 1819SOL    HW216920   1.316   1.299  14.521 -1.6739 -1.4761  1.4452
 1820SOL     OW16921   2.985   1.610   1.955 -0.0427 -0.5265 -0.4083
 1820SOL    HW116922   3.079   1.628   1.961  0.2212 -1.1434 -2.8508
 1820SOL    HW216923   2.988   1.523   1.995 -0.8325 -0.1626  0.4538
 1821SOL     OW16924   4.568   0.619   7.135  0.3479 -0.1906  0.0647
 1821SOL    HW116925   4.658   0.647   7.122 -0.2725  1.3255 -0.9436
 1821SOL    HW216926   4.563   0.630   7.230  0.1664  1.0027 -0.0896
 1822SOL     OW16927   4.322   1.945   0.114  0.1224  0.1346  0.1185
 1822SOL    HW116928   4.303   1.982   0.029 -0.8115 -3.6578 -1.3319
 1822SOL    HW216929   4.331   2.020   0.173  0.6770 -0.2496  0.5406
 1823SOL     OW16930   4.247   3.663   5.131  0.1451  0.2398  0.6095
 1823SOL    HW116931   4.175   3.693   5.187 -2.3374  0.9414 -2.9761
 1823SOL    HW216932   4.321   3.671   5.191  0.6224 -1.2586  0.2272
 1824SOL     OW16933   0.153   3.716  14.759  0.0521  0.0246  0.4057
 1824SOL    HW116934   0.130   3.742  14.669 -2.0450  0.2372  1.0104
 1824SOL    HW216935   0.233   3.667  14.740 -0.4653 -0.5758 -0.2516
 1825SOL     OW16936   1.263   1.757  12.284  0.3410  0.4931  0.3681
 1825SOL    HW116937   1.169   1.765  12.301  0.0797 -1.1504 -0.3306
 1825SOL    HW216938   1.299   1.841  12.313  0.3085  0.2366  1.1498
 1826SOL     OW16939   1.045   4.048   2.897 -0.5021  1.1391 -0.0409
 1826SOL    HW116940   1.107   4.121   2.895  1.0814 -0.2458 -0.9337
 1826SOL    HW216941   1.034   4.030   2.804 -0.6854 -4.3943  1.0784
 1827SOL     OW16942   2.237   4.117   1.384  0.3233  0.2812  0.7624
 1827SOL    HW116943   2.307   4.104   1.449  1.4240 -1.0038 -0.6888
 1827SOL    HW216944   2.292   4.154   1.315  0.0965 -2.0551 -0.6884
 1828SOL     OW16945   0.916   4.649   4.684 -0.5235  0.2183  0.2639
 1828SOL    HW116946   0.912   4.696   4.767 -1.3896  4.1771 -2.0665
 1828SOL    HW216947   0.828   4.614   4.669 -1.3538  3.1801 -1.5210
 1829SOL     OW16948   0.447   3.903   9.740  0.2426 -0.2666  0.8268
 1829SOL    HW116949   0.389   3.976   9.762  0.2877 -0.4036  1.3776
 1829SOL    HW216950   0.417   3.837   9.802  0.6524 -0.4497  0.8266
 1830SOL     OW16951   3.512   3.408  10.911 -0.5014 -0.2335  0.3496
 1830SOL    HW116952   3.434   3.358  10.932 -1.6813  1.4987  0.1228
 1830SOL    HW216953   3.478   3.488  10.952 -0.3387  0.0295 -0.0274
 1831SOL     OW16954   4.134   4.421   8.102 -1.0307  0.6658  0.4015
 1831SOL    HW116955   4.198   4.362   8.143 -0.0709  1.1151 -0.4436
 1831SOL    HW216956   4.181   4.504   8.106  3.1677 -1.5601 -2.3248
 1832SOL     OW16957   3.018   4.386   6.263 -0.1341  0.0785  0.3707
 1832SOL    HW116958   2.942   4.445   6.258  2.1031  2.9700  0.4657
 1832SOL    HW216959   3.041   4.370   6.171  0.3330  1.1592  0.2922
 1833SOL     OW16960   0.754   3.123  11.095  0.2184  0.4501 -0.0078
 1833SOL    HW116961   0.837   3.162  11.121 -0.5015  2.1505 -0.1925
 1833SOL    HW216962   0.776   3.100  11.005  0.5728  0.0922  0.1729
 1834SOL     OW16963   4.553   1.575   4.266  0.2086  0.2353  0.5148
 1834SOL    HW116964   4.506   1.632   4.327 -1.1239 -0.1604 -0.1435
 1834SOL    HW216965   4.558   1.643   4.198 -3.8690 -0.2810 -0.3171
 1835SOL     OW16966   4.127   0.393  12.712 -0.0085  0.2381  0.3829
 1835SOL    HW116967   4.108   0.471  12.661 -0.3254  0.5932  1.0320
 1835SOL    HW216968   4.069   0.325  12.677  1.0797 -1.7176  2.3806
 1836SOL     OW16969   3.903   0.045   8.746 -0.6130  0.0040  0.0082
 1836SOL    HW116970   3.830   0.008   8.697  0.8794 -1.2041 -1.3190
 1836SOL    HW216971   3.915   4.712   8.821 -1.3296  1.6345  1.3579
 1837SOL     OW16972   1.191   1.644   2.357 -0.2920  0.2563 -0.0327
 1837SOL    HW116973   1.148   1.595   2.286  1.7013  1.2697 -1.9271
 1837SOL    HW216974   1.149   1.730   2.348  0.4615  0.4194 -1.9119
 1838SOL     OW16975   4.175   3.806   1.270 -0.6120 -0.3174 -0.0753
 1838SOL    HW116976   4.218   3.802   1.184  2.2031 -2.1310  1.4055
 1838SOL    HW216977   4.087   3.833   1.243 -0.4589 -1.4097 -1.6814
 1839SOL     OW16978   2.030   2.435   2.302  0.0456  0.1377  0.0673
 1839SOL    HW116979   1.941   2.443   2.338  0.4692 -0.5858  1.2811
 1839SOL    HW216980   2.066   2.379   2.371  2.8462 -0.1505 -1.6510
 1840SOL     OW16981   4.653   1.500   2.220  0.5227 -0.1902  0.7571
 1840SOL    HW116982   4.615   1.560   2.157 -3.0621 -0.2267  2.8856
 1840SOL    HW216983   4.679   1.418   2.177 -0.5028  0.8698 -1.8627
 1841SOL     OW16984   4.572   3.923   4.470 -0.1044  0.5902 -0.3926
 1841SOL    HW116985   4.546   3.900   4.560 -2.5953 -0.7241 -1.4619
 1841SOL    HW216986   4.599   4.013   4.487  1.0648  0.1478  0.1377
 1842SOL     OW16987   0.118   1.118  13.720 -0.3628 -0.3298  0.1267
 1842SOL    HW116988   0.188   1.181  13.733  0.0923 -0.9296  0.5933
 1842SOL    HW216989   0.143   1.071  13.641 -2.4500 -1.8073  0.3274
 1843SOL     OW16990   3.411   4.721   6.438 -0.4274 -0.2764 -0.0066
 1843SOL    HW116991   3.366   4.641   6.408  0.6271 -1.0805  0.5551
 1843SOL    HW216992   3.349   0.062   6.407  0.6841  0.5005 -0.5886
 1844SOL     OW16993   4.704   1.141   8.563  0.0615  0.7504  0.5059
 1844SOL    HW116994   4.686   1.080   8.491 -0.8579  1.1970  0.3671
 1844SOL    HW216995   4.631   1.112   8.617 -0.2792 -1.1557 -0.9931
 1845SOL     OW16996   1.740   4.703   9.030  0.0174  0.6314 -0.8029
 1845SOL    HW116997   1.666   4.646   9.051  0.9819 -0.4275 -0.2950
 1845SOL    HW216998   1.732   0.040   9.103 -2.6029 -1.4724  0.7140
 1846SOL     OW16999   1.348   2.948   3.957  0.0857  0.2497 -0.1134
 1846SOL    HW117000   1.257   2.919   3.969 -0.1757  0.8009 -0.7901
 1846SOL    HW217001   1.340   3.010   3.885  1.0540  0.3225 -0.1546
 1847SOL     OW17002   0.147   3.098   7.911  0.5750  0.7872 -0.4647
 1847SOL    HW117003   0.079   3.161   7.888  1.0744  1.1996 -0.8011
 1847SOL    HW217004   0.199   3.143   7.977 -0.5075  1.4470 -0.0721
 1848SOL     OW17005   2.031   1.387  10.751  0.1358  0.5926 -0.5277
 1848SOL    HW117006   2.007   1.378  10.659  1.3332 -0.2006 -0.7695
 1848SOL    HW217007   2.074   1.473  10.759  0.9348  0.1588 -0.0955
 1849SOL     OW17008   1.258   0.482  16.138 -0.5034  0.2922  0.1659
 1849SOL    HW117009   1.345   0.464  16.174 -0.1774  1.7880  0.1426
 1849SOL    HW217010   1.211   0.508  16.218  1.5955  1.3563  1.0449
 1850SOL     OW17011   4.175   2.124   4.238 -0.4646  0.3460  0.0369
 1850SOL    HW117012   4.172   2.213   4.202 -1.9625 -0.5280 -1.9798
 1850SOL    HW217013   4.265   2.096   4.219 -0.2593  0.4224  0.8925
 1851SOL     OW17014   0.330   4.092   3.123  0.2720  0.4817  0.5319
 1851SOL    HW117015   0.340   4.066   3.214  0.2825 -1.8849 -0.1571
 1851SOL    HW217016   0.349   4.014   3.071  0.1730 -1.0296  2.7655
 1852SOL     OW17017   2.866   2.143   8.546 -0.1352  0.4608  0.5198
 1852SOL    HW117018   2.886   2.058   8.585  1.6780 -0.0494 -1.5170
 1852SOL    HW217019   2.783   2.138   8.500  0.4435 -0.8985 -0.3864
 1853SOL     OW17020   1.273   3.497   4.437 -0.4880 -0.2171  0.0107
 1853SOL    HW117021   1.221   3.532   4.364  0.4188 -0.6290 -0.8156
 1853SOL    HW217022   1.230   3.532   4.515 -1.2894  2.8396 -1.8003
 1854SOL     OW17023   1.002   1.438  14.790  0.3571  0.5058 -0.0378
 1854SOL    HW117024   1.086   1.394  14.801  0.0445 -0.4137 -1.3543
 1854SOL    HW217025   1.029   1.520  14.748  1.1231  0.7603  0.9552
 1855SOL     OW17026   4.428   2.724  10.113  0.4617 -0.2169  0.6007
 1855SOL    HW117027   4.435   2.671  10.034  2.3375  1.1296 -0.1257
 1855SOL    HW217028   4.335   2.727  10.137  0.1409 -2.4922 -0.3626
 1856SOL     OW17029   1.149   3.036   6.666 -0.4335 -0.2139  0.2559
 1856SOL    HW117030   1.196   2.960   6.632 -1.1608 -0.8099  0.5645
 1856SOL    HW217031   1.085   3.053   6.597  2.0695  0.1640 -1.9725
 1857SOL     OW17032   0.135   2.130  10.734  0.0825 -0.3107 -0.4864
 1857SOL    HW117033   0.229   2.118  10.718  0.3952 -1.7936  2.4325
 1857SOL    HW217034   0.131   2.223  10.754  1.8188 -0.3590  0.0724
 1858SOL     OW17035   0.588   2.619   8.751 -0.1901 -0.2518  0.1422
 1858SOL    HW117036   0.554   2.689   8.808  0.6614 -0.0702  0.4259
 1858SOL    HW217037   0.513   2.580   8.706  1.0329 -0.5069 -1.6638
 1859SOL     OW17038   0.188   4.080   0.710 -0.3081 -0.5052 -0.5327
 1859SOL    HW117039   0.153   4.147   0.769 -1.8501  1.4281 -3.6625
 1859SOL    HW217040   0.260   4.037   0.756  0.8236  0.0696 -1.7883
 1860SOL     OW17041   1.127   1.599   8.595 -0.5361  0.3111  0.4653
 1860SOL    HW117042   1.133   1.685   8.637  2.0121  0.3513  0.0156
 1860SOL    HW217043   1.143   1.534   8.664  0.3544  1.1377  1.0360
 1861SOL     OW17044   0.249   3.088   4.059 -0.6669 -0.2964 -0.3427
 1861SOL    HW117045   0.255   3.166   4.114  1.1897  1.4887 -3.1001
 1861SOL    HW217046   0.327   3.036   4.078 -0.4082  0.2864  0.1708
 1862SOL     OW17047   3.818   3.555   8.339  0.0446 -0.5913  0.0527
 1862SOL    HW117048   3.821   3.650   8.324  0.1355 -0.5636  0.2570
 1862SOL    HW217049   3.891   3.547   8.401  1.1621 -1.3694 -1.3587
 1863SOL     OW17050   1.770   4.201   5.290 -0.6536 -0.1415 -0.0001
 1863SOL    HW117051   1.731   4.238   5.369 -1.6058 -0.2568 -0.4173
 1863SOL    HW217052   1.858   4.192   5.327 -1.6727 -0.8041  2.2572
 1864SOL     OW17053   0.954   0.460  14.970  0.1575 -0.3799  0.4500
 1864SOL    HW117054   0.867   0.444  15.006  0.1110  2.1095  1.4464
 1864SOL    HW217055   0.928   0.506  14.890  2.8714  0.0460 -0.2052
 1865SOL     OW17056   4.370   3.264   5.305 -0.2522  0.1889 -0.4513
 1865SOL    HW117057   4.450   3.275   5.253  0.4668  2.9168  1.2316
 1865SOL    HW217058   4.310   3.221   5.245  1.0734  0.3114 -1.8721
 1866SOL     OW17059   4.529   0.856  10.508  1.2529 -0.4185  0.3636
 1866SOL    HW117060   4.463   0.820  10.449 -0.4145  0.5133  1.6928
 1866SOL    HW217061   4.571   0.772  10.527  1.3594 -0.4688 -0.0924
 1867SOL     OW17062   1.684   0.437   8.288 -0.4503  0.3283 -0.3031
 1867SOL    HW117063   1.739   0.489   8.228 -1.6731  1.1514 -0.7121
 1867SOL    HW217064   1.646   0.387   8.216  0.2239  0.9378 -1.0988
 1868SOL     OW17065   2.096   2.374   2.726  0.2424  0.3019  0.2378
 1868SOL    HW117066   2.077   2.467   2.734 -0.2788  0.2010  0.1778
 1868SOL    HW217067   2.159   2.378   2.797 -0.8239  1.8773  1.1062
 1869SOL     OW17068   0.063   0.185  14.813 -0.0991 -0.1390  0.7235
 1869SOL    HW117069   0.046   0.216  14.724 -0.4531  0.9382  1.1569
 1869SOL    HW217070   4.710   0.131  14.823 -2.5322  2.6307 -3.4039
 1870SOL     OW17071   2.224   0.225   7.665 -0.2155 -0.1451 -0.4369
 1870SOL    HW117072   2.245   0.301   7.610  0.5294 -0.5161 -0.6622
 1870SOL    HW217073   2.306   0.176   7.667 -0.4988 -0.5466  1.4495
 1871SOL     OW17074   0.551   1.137   3.077  0.2945 -1.1785 -0.0545
 1871SOL    HW117075   0.595   1.220   3.059 -0.4694 -0.4025  1.6710
 1871SOL    HW217076   0.612   1.076   3.036  0.5371 -0.1823 -1.2023
 1872SOL     OW17077   1.118   1.221  15.711 -0.3624 -0.2677 -0.1560
 1872SOL    HW117078   1.064   1.143  15.725 -0.7023 -0.2398 -1.3182
 1872SOL    HW217079   1.115   1.228  15.615  0.2587  1.2558 -0.0571
 1873SOL     OW17080   1.805   1.468  13.208 -0.3222  0.1960  0.6194
 1873SOL    HW117081   1.880   1.409  13.204 -0.9666 -0.6149  0.4949
 1873SOL    HW217082   1.837   1.546  13.162  2.5533  0.1223  2.5338
 1874SOL     OW17083   1.699   3.027   5.420 -0.6170  0.3476  0.3198
 1874SOL    HW117084   1.750   3.063   5.493  0.6146 -0.7112 -0.0211
 1874SOL    HW217085   1.719   3.097   5.358  3.1495  0.0380  1.2262
 1875SOL     OW17086   0.019   3.076   1.713  0.1588  0.1215  0.4851
 1875SOL    HW117087   0.066   3.069   1.630  0.6363  0.7401  0.7079
 1875SOL    HW217088   0.068   3.038   1.785  1.0066 -2.3834 -1.4205
 1876SOL     OW17089   0.459   0.737  17.280  0.0876 -0.3763 -0.3429
 1876SOL    HW117090   0.408   0.818  17.271  0.3650 -0.0691  0.8572
 1876SOL    HW217091   0.480   0.734  17.374 -1.7885 -0.1388  0.0710
 1877SOL     OW17092   3.195   3.524  12.670 -0.4193 -0.1841  0.1650
 1877SOL    HW117093   3.117   3.484  12.632 -0.4518 -3.5919  3.7749
 1877SOL    HW217094   3.247   3.544  12.593 -1.3633  1.3128 -0.0940
 1878SOL     OW17095   4.711   1.221   1.158 -0.5630 -0.9868 -0.1785
 1878SOL    HW117096   4.700   1.270   1.076  0.1211  1.5639  1.2920
 1878SOL    HW217097   4.634   1.249   1.208 -0.4883  1.8998 -1.6635
 1879SOL     OW17098   0.237   3.101   1.504 -0.7858 -0.2874  0.3808
 1879SOL    HW117099   0.276   3.021   1.539 -1.6074  0.8917  3.9987
 1879SOL    HW217100   0.188   3.079   1.425 -0.3633  0.7816 -0.1796
 1880SOL     OW17101   1.410   1.387  10.701  0.0275  0.3417  0.5504
 1880SOL    HW117102   1.468   1.462  10.712  1.1380 -0.3295 -0.7623
 1880SOL    HW217103   1.424   1.363  10.610 -1.7150 -1.1669  0.6826
 1881SOL     OW17104   4.122   3.370   5.380  0.0424  0.2352 -0.4978
 1881SOL    HW117105   4.140   3.372   5.286  2.0247  2.9286 -0.0487
 1881SOL    HW217106   4.209   3.336   5.400 -0.9342 -3.1162 -1.9014
 1882SOL     OW17107   3.409   0.830   1.926  0.1947 -0.1901  0.1582
 1882SOL    HW117108   3.345   0.773   1.969  0.4770 -0.9359 -0.4201
 1882SOL    HW217109   3.426   0.897   1.992  1.8725  0.3281 -0.8089
 1883SOL     OW17110   2.459   0.489  11.053 -0.1096  0.2897  0.4021
 1883SOL    HW117111   2.503   0.423  10.999 -1.8614 -0.0211 -0.6531
 1883SOL    HW217112   2.366   0.478  11.032  0.0598  0.3243 -0.3572
 1884SOL     OW17113   0.359   3.086   3.532  0.7221 -0.5115 -0.2488
 1884SOL    HW117114   0.317   3.066   3.616  0.9634 -0.2663 -0.0716
 1884SOL    HW217115   0.307   3.032   3.472  0.7741 -0.9376  0.0858
 1885SOL     OW17116   4.661   3.888   5.068 -0.7031  0.3367 -0.1005
 1885SOL    HW117117   4.695   3.815   5.016 -1.7446  0.5284 -1.0612
 1885SOL    HW217118   4.695   3.869   5.155  1.1840  0.7725 -0.7487
 1886SOL     OW17119   2.718   4.492   5.029  0.6547 -0.2696 -0.2394
 1886SOL    HW117120   2.623   4.502   5.028  0.7042  0.1675 -0.7269
 1886SOL    HW217121   2.741   4.450   5.112  0.4799  1.4937  0.7020
 1887SOL     OW17122   2.129   0.356   3.013 -0.0915 -0.0393  0.3295
 1887SOL    HW117123   2.219   0.375   2.987 -0.1516 -1.1669 -0.7173
 1887SOL    HW217124   2.096   0.341   2.924  2.4483  1.3082 -0.8310
 1888SOL     OW17125   2.543   2.074  14.976 -0.2545  0.3391 -0.5374
 1888SOL    HW117126   2.467   2.115  14.934  0.7545 -0.5533 -3.2652
 1888SOL    HW217127   2.616   2.127  14.945 -1.2446  1.7533 -0.4424
 1889SOL     OW17128   3.096   2.397   8.142  0.1491  0.1850  0.1545
 1889SOL    HW117129   3.034   2.345   8.090 -1.0410 -1.3212  3.1094
 1889SOL    HW217130   3.102   2.337   8.216  1.8574 -0.8995 -0.8495
 1890SOL     OW17131   2.042   1.492   6.592 -0.7155  0.3486 -0.7920
 1890SOL    HW117132   2.046   1.464   6.684 -0.0840  0.8876 -0.6549
 1890SOL    HW217133   2.115   1.554   6.588 -1.6414  1.4905 -0.0523
 1891SOL     OW17134   0.680   1.937   0.244  0.3243  0.6802  0.5113
 1891SOL    HW117135   0.751   1.879   0.269 -0.1261  0.4756  1.3129
 1891SOL    HW217136   0.699   2.016   0.293 -3.1760 -0.1875  3.3003
 1892SOL     OW17137   1.964   1.236   8.943 -0.3950  0.0011  0.1802
 1892SOL    HW117138   1.970   1.147   8.978  1.0908  0.7805  1.9118
 1892SOL    HW217139   2.035   1.271   8.997 -0.4257 -0.3878  0.4760
 1893SOL     OW17140   0.441   2.932   1.587 -0.0585  0.3549 -0.1832
 1893SOL    HW117141   0.440   3.027   1.573 -0.4910  0.7738  2.6273
 1893SOL    HW217142   0.469   2.919   1.678  2.3821 -0.8241 -1.1014
 1894SOL     OW17143   3.548   2.377  11.224  0.0903 -0.2833  0.1272
 1894SOL    HW117144   3.538   2.457  11.276  0.4381 -2.0245  2.8765
 1894SOL    HW217145   3.604   2.323  11.280 -1.0262  0.0689  1.5751
 1895SOL     OW17146   4.152   1.450   2.290  0.0267  0.1912  0.5818
 1895SOL    HW117147   4.188   1.465   2.378  1.3284 -0.5389  0.1707
 1895SOL    HW217148   4.196   1.373   2.255 -1.6937 -1.0616  1.1966
 1896SOL     OW17149   3.572   0.735   8.625 -0.3921  0.7144 -0.2428
 1896SOL    HW117150   3.563   0.672   8.554 -0.8349 -1.1201  1.4573
 1896SOL    HW217151   3.628   0.699   8.694  0.6810 -0.4388 -1.7337
 1897SOL     OW17152   1.666   0.252  11.731 -0.0723  0.7559 -0.3903
 1897SOL    HW117153   1.661   0.331  11.678 -1.2584 -1.7668 -4.0289
 1897SOL    HW217154   1.621   0.190  11.674  0.1594 -0.6973  1.0100
 1898SOL     OW17155   3.955   1.869   8.104  0.8009 -0.4735 -0.1341
 1898SOL    HW117156   3.977   1.792   8.156  0.5884 -0.7576 -0.4612
 1898SOL    HW217157   3.950   1.931   8.176  0.1367 -0.8741  0.1634
 1899SOL     OW17158   1.769   1.318   4.036  0.2089  0.4370 -0.3430
 1899SOL    HW117159   1.860   1.342   4.056  0.0440 -0.5244  1.5933
 1899SOL    HW217160   1.754   1.362   3.952  0.4997  0.7329 -0.2433
 1900SOL     OW17161   3.237   2.796   5.412  0.0587 -0.9187 -0.3265
 1900SOL    HW117162   3.153   2.756   5.389  0.8118 -1.9920 -1.1783
 1900SOL    HW217163   3.272   2.722   5.461  1.7999 -0.6268 -1.1323
 1901SOL     OW17164   3.121   4.688   8.143 -0.2139 -0.2860 -0.6585
 1901SOL    HW117165   3.127   4.650   8.055  1.7373 -0.2248 -0.5596
 1901SOL    HW217166   3.055   4.632   8.185  0.9244 -0.8635  0.3594
 1902SOL     OW17167   2.719   4.555   2.292 -0.4516 -0.0351 -0.1009
 1902SOL    HW117168   2.797   4.539   2.344 -0.4342  1.5651  0.3753
 1902SOL    HW217169   2.659   4.586   2.361 -0.2005 -1.2709  0.6677
 1903SOL     OW17170   1.130   0.276   8.018  1.0478  0.4347  0.3766
 1903SOL    HW117171   1.045   0.275   8.062  0.7079  3.6565 -0.2235
 1903SOL    HW217172   1.137   0.369   7.999  2.0018  0.5661  1.3991
 1904SOL     OW17173   1.548   0.852   6.568 -0.7049 -0.2581  0.3401
 1904SOL    HW117174   1.488   0.778   6.561  1.3350 -1.6797 -1.7074
 1904SOL    HW217175   1.494   0.913   6.517 -0.8557 -1.1621 -0.5805
 1905SOL     OW17176   0.470   0.582   5.262 -0.3252  0.2663 -0.0530
 1905SOL    HW117177   0.412   0.642   5.308 -0.3241 -0.2997  0.6808
 1905SOL    HW217178   0.493   0.628   5.182  1.6567  0.2353  0.5017
 1906SOL     OW17179   1.257   1.969   0.745 -0.9786 -0.3984  0.0278
 1906SOL    HW117180   1.348   1.998   0.753 -1.0385 -0.1184 -0.3377
 1906SOL    HW217181   1.224   2.056   0.723 -0.6870 -0.2227  0.2848
 1907SOL     OW17182   4.294   1.621   2.935 -0.1749 -0.1419 -0.2800
 1907SOL    HW117183   4.217   1.664   2.899 -1.8372 -1.2670  1.9674
 1907SOL    HW217184   4.307   1.657   3.023 -0.2640  0.2547 -0.4287
 1908SOL     OW17185   0.682   1.619   3.752 -0.1046  0.5120 -0.1177
 1908SOL    HW117186   0.596   1.661   3.747  1.4520  3.6383 -0.7964
 1908SOL    HW217187   0.668   1.525   3.758 -5.0939  1.2227 -0.7590
 1909SOL     OW17188   2.942   4.618   9.519 -0.1902 -0.1917  0.2570
 1909SOL    HW117189   2.920   4.566   9.442 -0.7522 -0.5295  0.6506
 1909SOL    HW217190   2.912   4.560   9.589 -1.9984 -0.1637 -0.4875
 1910SOL     OW17191   4.557   3.015  10.068 -1.0899 -0.3790 -0.3689
 1910SOL    HW117192   4.569   2.922  10.050 -3.1461 -0.6279 -0.4030
 1910SOL    HW217193   4.482   3.007  10.127  0.7268 -2.3144  1.6691
 1911SOL     OW17194   3.995   0.540   3.887  0.1510 -0.1830 -0.2467
 1911SOL    HW117195   3.998   0.534   3.983  3.2934 -2.2427 -0.4653
 1911SOL    HW217196   4.063   0.475   3.871 -0.7243 -0.9914 -0.7289
 1912SOL     OW17197   3.053   0.178   6.800 -0.0232 -0.3566 -0.2314
 1912SOL    HW117198   3.055   0.138   6.713 -2.8726 -1.2633  0.1196
 1912SOL    HW217199   2.961   0.200   6.813  0.6310  0.7871  2.3154
 1913SOL     OW17200   3.361   4.063  12.625  0.0784 -0.0192 -0.0708
 1913SOL    HW117201   3.306   4.122  12.675  1.9423  0.1388  1.8126
 1913SOL    HW217202   3.326   3.978  12.653  0.5104  0.1772  1.0552
 1914SOL     OW17203   0.500   3.244   7.818 -0.2835  0.0336  0.0753
 1914SOL    HW117204   0.582   3.208   7.784 -0.7285  0.5022 -1.4980
 1914SOL    HW217205   0.534   3.265   7.905  1.8809  0.9287 -0.9865
 1915SOL     OW17206   2.079   1.887   3.450 -0.2913  0.5909  0.1141
 1915SOL    HW117207   2.095   1.952   3.381 -3.5854  2.2393  0.8680
 1915SOL    HW217208   1.997   1.851   3.416  0.4687 -0.8952 -0.1268
 1916SOL     OW17209   2.882   2.675   7.156  0.3481  0.3083  0.6508
 1916SOL    HW117210   2.942   2.640   7.222  3.3087 -1.0781 -2.8227
 1916SOL    HW217211   2.802   2.624   7.173  0.0343  0.3253 -0.8055
 1917SOL     OW17212   3.917   1.474   3.953 -0.0702 -0.4346  0.2569
 1917SOL    HW117213   3.861   1.464   3.876  0.2714  1.6247 -0.2616
 1917SOL    HW217214   3.969   1.394   3.952 -0.3626 -0.6265  0.4039
 1918SOL     OW17215   1.778   4.483   1.936  0.0163  0.7443  0.0006
 1918SOL    HW117216   1.749   4.465   1.847 -0.4152  2.8020 -0.2621
 1918SOL    HW217217   1.698   4.451   1.978  0.0054 -1.4453 -1.6613
 1919SOL     OW17218   0.468   4.441   0.167  0.1392  0.1232  0.0395
 1919SOL    HW117219   0.426   4.355   0.167 -1.9917  1.1764  0.3072
 1919SOL    HW217220   0.562   4.421   0.167 -0.0482 -0.7349 -2.4936
 1920SOL     OW17221   2.781   2.401   8.635 -0.3700  0.4639 -0.0008
 1920SOL    HW117222   2.853   2.448   8.595  0.1520 -2.5597 -2.6227
 1920SOL    HW217223   2.804   2.312   8.608 -1.1106  0.6043 -1.0917
 1921SOL     OW17224   4.016   3.505   8.124  0.0078 -0.1649 -0.9258
 1921SOL    HW117225   3.982   3.479   8.039  0.3247 -0.5290 -0.9403
 1921SOL    HW217226   3.959   3.578   8.146  1.4413  0.7676 -0.3133
 1922SOL     OW17227   1.674   0.039  17.158  0.1134  0.0104  0.2249
 1922SOL    HW117228   1.592   4.715  17.153  0.6058 -0.8620  0.6154
 1922SOL    HW217229   1.707   0.038  17.069 -1.8776  2.5176 -0.5213
 1923SOL     OW17230   2.997   0.872  16.153 -0.1799  0.0154 -0.0558
 1923SOL    HW117231   3.020   0.922  16.075 -2.6765 -0.9600 -1.4387
 1923SOL    HW217232   3.077   0.832  16.187  1.8027  3.3267 -0.8785
 1924SOL     OW17233   0.839   1.420   9.245 -0.1735 -0.1814 -0.6323
 1924SOL    HW117234   0.802   1.432   9.158 -1.4746 -0.3028 -0.0990
 1924SOL    HW217235   0.911   1.482   9.250 -1.3732  1.1756 -0.2577
 1925SOL     OW17236   4.387   4.661  10.346  0.4522 -0.1131 -0.2736
 1925SOL    HW117237   4.362   4.589  10.404 -0.2641  1.6304  1.5860
 1925SOL    HW217238   4.299   4.693  10.329 -0.0711 -1.2693  0.2925
 1926SOL     OW17239   2.975   1.679   5.133  0.3651  0.1241 -0.0393
 1926SOL    HW117240   2.918   1.755   5.122 -1.2122 -1.0636  0.0270
 1926SOL    HW217241   3.038   1.713   5.069  0.6329  1.1766  0.7817
 1927SOL     OW17242   1.548   1.657   6.418  0.5241 -0.6326  0.4116
 1927SOL    HW117243   1.584   1.743   6.396 -1.8368 -0.2212 -1.8123
 1927SOL    HW217244   1.614   1.624   6.479  0.7035  1.1366  1.1883
 1928SOL     OW17245   3.476   1.098   3.902 -0.0705  0.3484  0.3481
 1928SOL    HW117246   3.561   1.134   3.876  0.1047 -0.2086  0.1385
 1928SOL    HW217247   3.468   1.032   3.832 -0.9430 -0.2538  1.0230
 1929SOL     OW17248   2.287   0.482   0.694 -0.4246 -0.8138  0.7160
 1929SOL    HW117249   2.197   0.484   0.728 -0.9491 -0.5654 -0.6809
 1929SOL    HW217250   2.281   0.487   0.598  0.6605 -2.3206  0.5693
 1930SOL     OW17251   0.645   0.666   0.765  0.3837  0.0028  0.0928
 1930SOL    HW117252   0.638   0.587   0.819  0.7731 -2.5616 -3.6116
 1930SOL    HW217253   0.731   0.693   0.797  0.1068  1.3058 -0.2868
 1931SOL     OW17254   0.913   0.859   1.086  0.0980 -0.2191 -0.0924
 1931SOL    HW117255   0.896   0.943   1.044 -3.6289 -0.6437  0.5511
 1931SOL    HW217256   0.877   0.877   1.172 -1.7858 -1.4780 -0.6010
 1932SOL     OW17257   2.565   0.381   4.685  0.1162  0.1006  0.2542
 1932SOL    HW117258   2.578   0.293   4.721  0.6575 -0.2887 -0.8776
 1932SOL    HW217259   2.605   0.433   4.754 -0.7641  1.0583  0.0358
 1933SOL     OW17260   3.717   4.144  12.301  0.1284  0.0901 -0.0085
 1933SOL    HW117261   3.659   4.127  12.376  1.2610  0.5402  0.9624
 1933SOL    HW217262   3.755   4.057  12.294  1.7194  0.9234 -1.7988
 1934SOL     OW17263   1.298   0.362  12.223  0.4745  0.1441 -0.2485
 1934SOL    HW117264   1.370   0.423  12.236 -0.8073  1.6365 -0.1889
 1934SOL    HW217265   1.244   0.376  12.301  1.0489 -3.3578  0.7808
 1935SOL     OW17266   0.329   4.420   6.480 -0.1854  0.6510 -0.3336
 1935SOL    HW117267   0.353   4.379   6.564 -2.7418 -0.6220 -0.2356
 1935SOL    HW217268   0.385   4.495   6.459  0.3256 -0.4642 -2.8651
 1936SOL     OW17269   3.804   1.613  12.074  0.1838  0.1339 -0.2473
 1936SOL    HW117270   3.832   1.612  11.982  2.8628  1.2036  0.5463
 1936SOL    HW217271   3.711   1.632  12.064  0.0970 -0.3352 -0.3165
 1937SOL     OW17272   4.632   0.107   4.456 -0.3994  0.2055 -0.1952
 1937SOL    HW117273   4.706   0.064   4.500  0.4109  3.1892  1.3393
 1937SOL    HW217274   4.620   0.180   4.516 -1.7043  1.2436 -1.7420
 1938SOL     OW17275   0.808   1.018   1.965 -0.1525  0.0975 -0.2939
 1938SOL    HW117276   0.795   1.037   1.872 -0.9294  0.4665 -0.1029
 1938SOL    HW217277   0.891   1.057   1.992  0.2721 -0.0000 -1.4438
 1939SOL     OW17278   3.373   2.973   8.829  0.7045 -0.4379 -0.4818
 1939SOL    HW117279   3.411   2.887   8.814  1.5738 -0.3690  1.4375
 1939SOL    HW217280   3.284   2.978   8.792  0.3935 -0.2869  0.2981
 1940SOL     OW17281   3.428   3.666   8.201  0.4429  0.0350 -0.2422
 1940SOL    HW117282   3.479   3.677   8.121  0.8174 -0.6382 -0.0953
 1940SOL    HW217283   3.351   3.623   8.166  0.0258 -0.6605  1.5071
 1941SOL     OW17284   3.589   2.794   5.611  0.4674 -0.5425  0.1837
 1941SOL    HW117285   3.645   2.866   5.581  1.2788 -0.5378  1.7100
 1941SOL    HW217286   3.547   2.837   5.686  1.0388  0.2635  0.0426
 1942SOL     OW17287   1.088   3.573   3.855  0.6102  0.3471  0.7837
 1942SOL    HW117288   1.153   3.579   3.786  1.4717 -1.8609  1.3927
 1942SOL    HW217289   1.058   3.482   3.848 -0.7173  0.7907  0.5422
 1943SOL     OW17290   1.802   4.686  11.502  0.8300 -0.7214  0.1624
 1943SOL    HW117291   1.890   4.724  11.513  1.6273 -2.3986 -0.3990
 1943SOL    HW217292   1.807   4.656  11.411  1.0389  2.8645 -0.9859
 1944SOL     OW17293   1.175   4.434  13.950  0.0472 -0.5265  0.2979
 1944SOL    HW117294   1.254   4.424  14.002  0.1952 -1.4909 -0.1019
 1944SOL    HW217295   1.145   4.520  13.980 -2.5522 -1.5884  0.7726
 1945SOL     OW17296   0.698   0.867   2.157  0.0272  0.3962  0.0672
 1945SOL    HW117297   0.736   0.907   2.079 -0.9020  0.2921 -0.4408
 1945SOL    HW217298   0.680   0.938   2.218  0.3445 -0.6503  1.3801
 1946SOL     OW17299   4.026   3.999   9.270 -0.1429  0.0079  0.1604
 1946SOL    HW117300   3.992   3.941   9.338  0.7028 -1.0869 -0.3313
 1946SOL    HW217301   4.091   3.939   9.233  0.6763  0.7300  0.4430
 1947SOL     OW17302   2.278   4.041   9.345 -0.4529  0.1962 -0.1165
 1947SOL    HW117303   2.195   4.045   9.393  0.3684 -0.3816  1.3529
 1947SOL    HW217304   2.298   3.948   9.354 -3.3500 -0.4294 -0.0277
 1948SOL     OW17305   0.356   4.597   5.985  0.1268  0.1113  0.2980
 1948SOL    HW117306   0.278   4.650   5.999 -0.1649 -0.4747  0.9253
 1948SOL    HW217307   0.398   4.576   6.069  0.2081  2.5159  0.8368
 1949SOL     OW17308   0.568   4.073   8.444  0.7165 -0.8994  0.1470
 1949SOL    HW117309   0.523   4.004   8.492  1.6581 -0.9681  0.9487
 1949SOL    HW217310   0.522   4.056   8.362  0.7500  1.6454 -0.3973
 1950SOL     OW17311   0.620   0.235   8.162  0.2259  0.1065  0.1707
 1950SOL    HW117312   0.591   0.320   8.193 -0.1472  0.6258 -1.6289
 1950SOL    HW217313   0.647   0.188   8.241  0.1033 -0.0142  0.1410
 1951SOL     OW17314   2.436   2.290   8.458  1.2209 -0.6181 -0.7929
 1951SOL    HW117315   2.438   2.196   8.436  2.6371 -1.0483  1.1540
 1951SOL    HW217316   2.349   2.296   8.496  0.6963  2.3711 -2.4852
 1952SOL     OW17317   3.578   1.096  16.224  0.0363 -0.5790  0.0549
 1952SOL    HW117318   3.520   1.053  16.287 -2.3545  3.2603  0.4913
 1952SOL    HW217319   3.578   1.189  16.245  0.3490  0.3109 -4.0622
 1953SOL     OW17320   3.425   4.249   7.505 -0.2719 -0.1560  0.1733
 1953SOL    HW117321   3.384   4.190   7.569 -2.3210 -0.5744 -1.5326
 1953SOL    HW217322   3.497   4.285   7.556  0.4625  0.1354 -1.0788
 1954SOL     OW17323   4.128   2.503   7.461  0.0951  0.2171  0.1495
 1954SOL    HW117324   4.164   2.513   7.550 -0.0516  3.3797 -0.1229
 1954SOL    HW217325   4.185   2.558   7.407  0.2747  1.2901  1.4396
 1955SOL     OW17326   4.114   1.817   2.957  0.1626  0.1844 -0.1615
 1955SOL    HW117327   4.075   1.893   2.912 -0.4331 -1.1161 -1.8420
 1955SOL    HW217328   4.192   1.853   2.999 -0.8785  1.5020  0.6699
 1956SOL     OW17329   2.181   4.266  16.957  0.2909  0.5181  0.1233
 1956SOL    HW117330   2.150   4.241  17.044 -1.9493 -0.4019 -0.9471
 1956SOL    HW217331   2.123   4.340  16.939 -1.6474 -1.4817 -1.8066
 1957SOL     OW17332   4.705   2.772   3.554  0.1216 -0.5094  0.6321
 1957SOL    HW117333   4.643   2.782   3.482  1.2634  1.2643 -0.1215
 1957SOL    HW217334   4.701   2.864   3.579 -1.8736 -1.5614  4.1651
 1958SOL     OW17335   4.579   1.761   0.020  0.1749  0.1039 -0.6734
 1958SOL    HW117336   4.484   1.772   0.029 -0.4200 -3.0695 -2.9359
 1958SOL    HW217337   4.590   1.755  17.628 -2.2478 -2.1193 -0.8385
 1959SOL     OW17338   3.222   1.546   2.129 -0.0850  0.6649 -0.0214
 1959SOL    HW117339   3.179   1.468   2.163  1.6489 -1.3891 -2.5802
 1959SOL    HW217340   3.303   1.510   2.093  0.7533  0.5665  2.0040
 1960SOL     OW17341   2.903   4.178   5.465  0.7544  0.0519  0.3909
 1960SOL    HW117342   2.862   4.227   5.536  0.6793  0.5844 -0.0231
 1960SOL    HW217343   2.982   4.153   5.514  1.7532  1.0978 -0.7003
 1961SOL     OW17344   0.038   4.363   4.738 -0.5866 -0.0225  0.1031
 1961SOL    HW117345   0.016   4.344   4.647  2.0596  2.9175 -1.1598
 1961SOL    HW217346   4.691   4.322   4.785 -0.6098 -0.6891 -0.5273
 1962SOL     OW17347   2.522   0.936   3.536 -0.1231 -0.0876  0.1278
 1962SOL    HW117348   2.456   0.895   3.479  0.6940 -2.0691  0.6040
 1962SOL    HW217349   2.496   0.915   3.626 -0.1522 -0.8034 -0.0450
 1963SOL     OW17350   1.339   4.644  12.660 -0.5492 -0.2518 -0.5981
 1963SOL    HW117351   1.330   0.013  12.649  0.4314  0.1569  2.1666
 1963SOL    HW217352   1.428   4.638  12.626 -0.6233 -1.7846 -0.5256
 1964SOL     OW17353   1.972   4.151   1.916 -0.0042 -0.7853 -0.0040
 1964SOL    HW117354   2.020   4.231   1.938 -1.1583 -0.5806  1.7569
 1964SOL    HW217355   2.006   4.132   1.829 -2.3983 -1.4638 -0.7937
 1965SOL     OW17356   1.897   1.310   7.983 -0.3395  0.0002  1.0699
 1965SOL    HW117357   1.862   1.221   7.995  0.7841 -1.0322 -3.1792
 1965SOL    HW217358   1.923   1.332   8.072 -0.4288  0.2170  1.0406
 1966SOL     OW17359   3.507   4.470   4.439 -0.1601  0.0564  0.1185
 1966SOL    HW117360   3.560   4.454   4.517 -1.4258 -1.7171  0.6187
 1966SOL    HW217361   3.572   4.445   4.374  0.6991  0.8264  0.7001
 1967SOL     OW17362   4.194   3.382   4.930 -0.0374  0.0515  0.2709
 1967SOL    HW117363   4.185   3.407   4.838 -0.8095 -1.5864 -0.0938
 1967SOL    HW217364   4.286   3.409   4.930  0.6503 -2.2991  0.1133
 1968SOL     OW17365   3.084   1.497   3.922  0.9507 -0.0789 -0.1226
 1968SOL    HW117366   3.065   1.517   3.830  0.8474 -1.2320 -0.3625
 1968SOL    HW217367   3.159   1.551   3.945  0.3587 -0.1905  2.0439
 1969SOL     OW17368   1.577   0.070   2.593 -0.4259 -0.3516 -0.2154
 1969SOL    HW117369   1.525   0.061   2.513 -0.3771 -2.0149 -0.0608
 1969SOL    HW217370   1.601   4.705   2.616 -0.9015  0.1496  2.2124
 1970SOL     OW17371   1.519   3.566   8.689  0.0609  0.2825  0.2406
 1970SOL    HW117372   1.457   3.502   8.723 -1.7786  0.9481 -1.8619
 1970SOL    HW217373   1.600   3.537   8.730 -0.9978 -1.7622  0.8935
 1971SOL     OW17374   1.569   4.169   8.666 -0.1759 -0.0635 -0.9352
 1971SOL    HW117375   1.565   4.204   8.755  1.4849 -1.4719 -0.3065
 1971SOL    HW217376   1.486   4.122   8.659 -0.1651 -0.3675  0.9077
 1972SOL     OW17377   2.465   2.293  12.223 -0.1052 -0.3964 -0.0485
 1972SOL    HW117378   2.438   2.327  12.138  0.7340  1.8182  0.5917
 1972SOL    HW217379   2.387   2.238  12.235  0.3182 -0.9476  0.1615
 1973SOL     OW17380   4.256   4.334   5.147 -0.1915  0.3714  0.1794
 1973SOL    HW117381   4.320   4.366   5.083  0.3150  1.0858  1.0355
 1973SOL    HW217382   4.173   4.327   5.099 -1.1079  0.4378  1.7667
 1974SOL     OW17383   1.032   1.129   5.858 -0.3688 -0.0774 -0.3908
 1974SOL    HW117384   1.063   1.061   5.798  1.4916 -0.9207  1.4845
 1974SOL    HW217385   1.065   1.211   5.823 -0.2596 -0.4440 -1.1519
 1975SOL     OW17386   0.354   2.470  11.632 -0.0104  0.2585  0.2186
 1975SOL    HW117387   0.333   2.557  11.598  0.5932 -0.5923 -2.3065
 1975SOL    HW217388   0.440   2.483  11.673  0.0336 -4.1630  1.5294
 1976SOL     OW17389   2.730   0.428  11.120  0.2757 -0.3391 -0.1714
 1976SOL    HW117390   2.694   0.361  11.062  1.1664 -1.1914  0.2643
 1976SOL    HW217391   2.656   0.489  11.126 -1.0008 -1.8579 -0.3722
 1977SOL     OW17392   1.424   2.961   2.666  0.3443  0.0177  0.1985
 1977SOL    HW117393   1.387   3.047   2.647 -1.0559 -0.9068 -1.2308
 1977SOL    HW217394   1.457   2.973   2.755 -1.8732 -1.6419  1.2431
 1978SOL     OW17395   4.617   2.318   8.261 -0.1738 -0.6210  0.0259
 1978SOL    HW117396   4.585   2.273   8.340 -0.3110 -2.2257 -0.9436
 1978SOL    HW217397   4.708   2.333   8.287 -0.5747  0.0213  1.0830
 1979SOL     OW17398   3.445   0.530   0.727  0.6069  0.5984  0.1213
 1979SOL    HW117399   3.518   0.468   0.725 -1.2192 -1.5214 -0.6891
 1979SOL    HW217400   3.396   0.504   0.649 -0.2341 -1.3851  1.3071
 1980SOL     OW17401   2.522   2.752   2.944 -0.3079 -0.1796 -0.5697
 1980SOL    HW117402   2.532   2.846   2.927 -0.2384 -0.0710  0.0786
 1980SOL    HW217403   2.579   2.707   2.882 -1.2534 -0.3673 -1.2992
 1981SOL     OW17404   2.426   1.380  16.699 -0.2984  0.6253 -0.9783
 1981SOL    HW117405   2.356   1.332  16.744  1.9367 -0.5493  1.2705
 1981SOL    HW217406   2.515   1.354  16.725 -0.8575 -0.1142  0.2196
 1982SOL     OW17407   1.763   1.659   0.015 -0.2565 -0.1113  0.2329
 1982SOL    HW117408   1.689   1.602  17.693  1.5815 -1.9813 -0.9099
 1982SOL    HW217409   1.747   1.726  17.651 -1.2103  0.5396  1.1207
 1983SOL     OW17410   1.604   2.464   3.262  0.2892  0.0327 -0.2163
 1983SOL    HW117411   1.679   2.523   3.254  1.7732 -1.5809  1.8005
 1983SOL    HW217412   1.575   2.475   3.353  1.9953  0.2605  0.2879
 1984SOL     OW17413   0.526   3.648  15.477 -1.0024 -0.6373  0.3654
 1984SOL    HW117414   0.541   3.665  15.570  2.7674  3.2994 -0.9775
 1984SOL    HW217415   0.580   3.716  15.437 -0.2340 -1.2712  0.3339
 1985SOL     OW17416   0.362   1.488   4.138  0.5332 -0.3593  0.2503
 1985SOL    HW117417   0.309   1.553   4.092 -0.3518  0.0001  1.7546
 1985SOL    HW217418   0.297   1.418   4.148 -2.0580  2.0724  0.4614
 1986SOL     OW17419   3.509   1.366   2.224  0.0695  0.5881 -0.2158
 1986SOL    HW117420   3.420   1.333   2.240 -0.4925  1.8878 -0.6361
 1986SOL    HW217421   3.510   1.388   2.131 -1.3993 -0.5764 -0.5033
 1987SOL     OW17422   2.414   1.848   5.103 -0.1172  0.1226  0.0947
 1987SOL    HW117423   2.424   1.768   5.051 -0.1314 -0.1332  0.4884
 1987SOL    HW217424   2.322   1.868   5.089 -0.3581 -0.7601  0.3875
 1988SOL     OW17425   2.642   3.612  14.512 -0.0977 -0.0328  0.4254
 1988SOL    HW117426   2.552   3.626  14.541  0.4045  0.5060  1.7285
 1988SOL    HW217427   2.659   3.519  14.503 -0.6780  0.0248 -1.2744
 1989SOL     OW17428   3.504   3.495   1.117  0.6918 -0.4928  0.1453
 1989SOL    HW117429   3.523   3.521   1.027 -3.6600 -0.2820 -0.7201
 1989SOL    HW217430   3.510   3.400   1.112 -0.9191 -0.6271  0.8038
 1990SOL     OW17431   4.296   1.351   7.941  0.3887 -0.0883  0.1314
 1990SOL    HW117432   4.353   1.419   7.977  0.4540  0.8969 -1.8520
 1990SOL    HW217433   4.302   1.280   8.004 -1.0215  0.3970  0.8140
 1991SOL     OW17434   0.742   4.600  15.391 -0.5601 -0.4022  0.5313
 1991SOL    HW117435   0.806   4.637  15.331 -0.3690 -0.9910  0.3716
 1991SOL    HW217436   0.769   4.621  15.481  0.1281  2.1017 -0.2669
 1992SOL     OW17437   1.130   3.031   9.616  0.6680 -0.1894  0.4649
 1992SOL    HW117438   1.097   2.942   9.628 -1.8517  0.7360  0.4250
 1992SOL    HW217439   1.200   3.022   9.553 -0.4527  4.6571 -1.4606
 1993SOL     OW17440   3.500   0.496  10.784 -0.1977  0.5105  0.0776
 1993SOL    HW117441   3.420   0.550  10.783 -0.2753  0.4316  1.4566
 1993SOL    HW217442   3.561   0.560  10.747 -0.4538  1.2511  0.9258
 1994SOL     OW17443   2.549   4.324  13.659  0.0934 -0.0040  0.0283
 1994SOL    HW117444   2.535   4.407  13.704  2.2895  0.5192 -0.2327
 1994SOL    HW217445   2.610   4.347  13.588  1.2987  3.8535  2.2811
 1995SOL     OW17446   0.984   2.078   6.293 -0.1720 -0.5000 -0.2499
 1995SOL    HW117447   0.916   2.041   6.238  0.0334 -0.1848 -0.7108
 1995SOL    HW217448   0.921   2.081   6.365 -1.8858  0.7769 -1.8036
 1996SOL     OW17449   2.215   0.838   4.498 -0.9775  0.0553 -0.6000
 1996SOL    HW117450   2.296   0.865   4.454 -1.0387 -0.4216 -1.0107
 1996SOL    HW217451   2.230   0.852   4.592  0.8156  0.5329 -0.9596
 1997SOL     OW17452   0.427   0.303   7.463  0.2815  0.3943 -0.2313
 1997SOL    HW117453   0.468   0.303   7.549  0.4464  0.2281 -0.3077
 1997SOL    HW217454   0.475   0.225   7.436 -1.4702 -1.2843  1.4737
 1998SOL     OW17455   0.866   2.500   6.891  0.5137  0.0596 -0.4730
 1998SOL    HW117456   0.838   2.551   6.816 -1.3176  0.0152  0.1676
 1998SOL    HW217457   0.799   2.526   6.954 -0.0022 -0.3353 -0.8534
 1999SOL     OW17458   0.834   0.993   7.832 -0.5000  0.3576 -0.2503
 1999SOL    HW117459   0.806   1.084   7.839  0.9781  0.8243 -0.4109
 1999SOL    HW217460   0.756   0.950   7.797 -0.9571  0.8623  0.1592
 2000SOL     OW17461   1.985   3.399   4.868  0.3517 -0.0494 -0.4864
 2000SOL    HW117462   1.997   3.372   4.777  0.3037  0.1574 -0.5553
 2000SOL    HW217463   2.056   3.358   4.916  0.0528 -0.3740 -0.3188
 2001SOL     OW17464   0.555   3.222   3.677  0.3667 -0.1916  0.5350
 2001SOL    HW117465   0.494   3.194   3.609 -1.7081 -0.0691  2.3503
 2001SOL    HW217466   0.541   3.150   3.738  0.7955 -1.1901 -0.5659
 2002SOL     OW17467   1.113   0.053   0.423  0.4113  0.2815  0.3276
 2002SOL    HW117468   1.097   0.094   0.508  0.6222  3.6424 -1.2538
 2002SOL    HW217469   1.130   0.134   0.374 -0.6138  0.4920  0.3128
 2003SOL     OW17470   2.535   1.981  10.779 -0.0663  0.3771 -0.3095
 2003SOL    HW117471   2.546   1.887  10.794  2.4902  0.6704 -0.3553
 2003SOL    HW217472   2.558   2.025  10.861 -2.3247  3.7284 -1.4514
 2004SOL     OW17473   0.293   1.483   2.524 -0.1055 -0.1190 -0.0014
 2004SOL    HW117474   0.235   1.523   2.459  1.9695 -2.4665 -3.2650
 2004SOL    HW217475   0.378   1.523   2.505 -0.0876  0.8003  1.9407
 2005SOL     OW17476   3.159   0.883   6.105 -0.6163 -0.3655  0.0443
 2005SOL    HW117477   3.176   0.972   6.136  0.7340 -0.2687 -1.0240
 2005SOL    HW217478   3.222   0.868   6.035  0.1522 -1.1492  0.9010
 2006SOL     OW17479   4.467   4.098   0.485  0.3364 -0.6241 -0.1897
 2006SOL    HW117480   4.546   4.050   0.512  0.0404 -0.5072  0.8618
 2006SOL    HW217481   4.438   4.022   0.434 -1.0543  0.2995 -0.7675
 2007SOL     OW17482   3.597   3.682   1.409  0.3713  0.0297  0.1971
 2007SOL    HW117483   3.582   3.667   1.315 -1.3855  0.2063  0.4413
 2007SOL    HW217484   3.631   3.603   1.450  0.6756 -1.3500 -2.6774
 2008SOL     OW17485   3.769   1.093   3.072 -0.4065 -0.3907  0.2059
 2008SOL    HW117486   3.784   1.033   2.999  0.5711  0.8713 -0.6357
 2008SOL    HW217487   3.757   1.174   3.022 -0.8350  0.0761  1.0564
 2009SOL     OW17488   4.592   0.866  17.555 -0.1141  0.2705  0.1608
 2009SOL    HW117489   4.601   0.831  17.466 -4.0209  0.7047 -0.4356
 2009SOL    HW217490   4.616   0.956  17.535 -0.5612 -0.1736 -2.4142
 2010SOL     OW17491   2.809   3.276   7.809 -0.4217  0.3112  0.5180
 2010SOL    HW117492   2.881   3.213   7.810 -0.3428  0.4393  3.1740
 2010SOL    HW217493   2.797   3.276   7.714  3.0047 -0.5899  0.0792
 2011SOL     OW17494   1.863   3.411   3.636  0.0004 -0.3514 -0.1828
 2011SOL    HW117495   1.827   3.463   3.707  1.1584  0.9739 -0.5601
 2011SOL    HW217496   1.958   3.421   3.647 -0.3456  1.4549  1.0077
 2012SOL     OW17497   3.332   3.821  10.714  0.0059 -0.2981 -0.1758
 2012SOL    HW117498   3.325   3.916  10.699 -2.1620 -0.5023 -0.4723
 2012SOL    HW217499   3.237   3.814  10.719  0.1487 -0.1481  2.4216
 2013SOL     OW17500   4.534   0.194   6.797  0.5937 -0.2805 -0.1719
 2013SOL    HW117501   4.439   0.182   6.796  0.4752  0.5023  1.3363
 2013SOL    HW217502   4.548   0.283   6.829 -0.8460 -0.3092  0.5214
 2014SOL     OW17503   4.229   0.008   7.439 -0.2205  0.3659 -0.2799
 2014SOL    HW117504   4.268   4.708   7.355  1.5248  2.5263 -0.0840
 2014SOL    HW217505   4.262   0.095   7.458  0.8289  0.3192 -1.9116
 2015SOL     OW17506   0.348   1.433   2.186  0.0672 -0.1253  0.2805
 2015SOL    HW117507   0.310   1.521   2.189 -2.6364 -1.3321  0.7101
 2015SOL    HW217508   0.439   1.460   2.199 -0.9790  2.8245  1.4405
 2016SOL     OW17509   1.644   4.706  13.470  0.2005 -0.5135 -0.1792
 2016SOL    HW117510   1.655   4.704  13.375  2.0335  0.5171  0.0199
 2016SOL    HW217511   1.731   0.013  13.495 -0.6125  2.2890 -0.9459
 2017SOL     OW17512   2.631   3.091   5.164  0.7028  0.0078 -0.3335
 2017SOL    HW117513   2.593   3.078   5.077 -0.4063 -2.6220  0.5481
 2017SOL    HW217514   2.600   3.180   5.182  2.0800  0.7307 -1.4794
 2018SOL     OW17515   2.121   3.290  16.532 -0.1072 -0.1334 -0.2117
 2018SOL    HW117516   2.088   3.219  16.477  0.9629 -0.2703 -0.6650
 2018SOL    HW217517   2.101   3.366  16.477  0.4224  0.6180  0.6329
 2019SOL     OW17518   4.601   1.530   9.221 -0.4556  0.4024  0.3282
 2019SOL    HW117519   4.568   1.610   9.180 -2.0815 -0.0786  0.7225
 2019SOL    HW217520   4.696   1.543   9.217 -0.1154 -2.2388 -0.2176
 2020SOL     OW17521   2.971   1.976   8.937  0.0342  0.6144 -0.2468
 2020SOL    HW117522   2.986   1.974   8.843 -0.1622 -0.8753 -0.2493
 2020SOL    HW217523   3.043   1.920   8.965  0.7495  1.2054 -0.9195
 2021SOL     OW17524   3.539   0.815   4.727  0.9814 -0.6471  0.0370
 2021SOL    HW117525   3.460   0.780   4.686  1.0799  1.9368 -2.3884
 2021SOL    HW217526   3.504   0.903   4.744  0.0473 -1.5393  2.7576
 2022SOL     OW17527   2.460   0.052  12.871  0.0232  0.3057 -0.7609
 2022SOL    HW117528   2.373   0.084  12.848  0.0810  0.5107 -0.6931
 2022SOL    HW217529   2.433   0.024  12.959 -2.3975  0.5028 -1.4405
 2023SOL     OW17530   2.517   3.653   3.765  0.2385 -0.2786 -0.0006
 2023SOL    HW117531   2.493   3.720   3.829  1.5777  1.2844 -1.1409
 2023SOL    HW217532   2.610   3.639   3.783 -0.4514 -1.1820  2.9035
 2024SOL     OW17533   0.440   2.160   8.627 -0.1661 -0.5884  0.2311
 2024SOL    HW117534   0.493   2.184   8.551  1.0694 -0.0558  1.2652
 2024SOL    HW217535   0.405   2.072   8.610 -1.1986 -0.4496  1.6273
 2025SOL     OW17536   3.927   0.032   8.070  0.8266  0.3743  0.0006
 2025SOL    HW117537   3.857   0.050   8.132  0.8336  0.8705 -0.1366
 2025SOL    HW217538   3.988   0.001   8.137 -0.2228  1.3355  1.4132
 2026SOL     OW17539   1.563   3.442   3.258  0.2667  0.0025 -0.6338
 2026SOL    HW117540   1.527   3.529   3.242 -1.0041 -0.7445 -1.7830
 2026SOL    HW217541   1.641   3.463   3.310 -0.5283  2.1527 -0.3073
 2027SOL     OW17542   3.160   3.071   8.690  0.0557  0.0846 -0.0881
 2027SOL    HW117543   3.214   3.149   8.703  0.5023  0.2194 -2.8113
 2027SOL    HW217544   3.078   3.106   8.725  0.4012 -0.3378  1.1521
 2028SOL     OW17545   3.550   1.139   9.898 -0.5686 -0.5170  0.3210
 2028SOL    HW117546   3.614   1.074   9.870  0.4735 -0.4023  2.4651
 2028SOL    HW217547   3.493   1.156   9.823 -0.8269 -1.2532  0.3569
 2029SOL     OW17548   2.708   1.220   7.723 -0.1505 -0.5053  0.3225
 2029SOL    HW117549   2.645   1.275   7.769  1.4146  1.1421  0.5015
 2029SOL    HW217550   2.678   1.244   7.636  1.3436 -0.7542 -0.2626
 2030SOL     OW17551   3.372   0.874  11.822  0.3564 -0.4352 -0.2012
 2030SOL    HW117552   3.287   0.917  11.814  0.8046  0.6371  0.8941
 2030SOL    HW217553   3.398   0.909  11.907 -0.5590  0.4664 -0.2891
 2031SOL     OW17554   1.861   1.595   9.150 -0.1586 -0.4127  0.2002
 2031SOL    HW117555   1.858   1.516   9.204 -1.0391 -1.6875 -1.7391
 2031SOL    HW217556   1.939   1.644   9.176  0.1083 -1.0180  0.5477
 2032SOL     OW17557   0.941   1.632   8.890  0.4226 -0.1127  0.4944
 2032SOL    HW117558   0.923   1.665   8.979  1.1893  2.4134 -0.3041
 2032SOL    HW217559   0.980   1.707   8.847  1.8299  1.1866  4.0313
 2033SOL     OW17560   3.844   3.119  16.617  0.1438  0.1595 -0.7085
 2033SOL    HW117561   3.828   3.088  16.528 -1.3863  1.7892 -0.9926
 2033SOL    HW217562   3.850   3.213  16.604  2.9934 -0.1416 -1.4722
 2034SOL     OW17563   3.324   3.062  13.908  0.5665 -0.6292 -0.1352
 2034SOL    HW117564   3.274   3.112  13.974 -0.9158 -1.3840 -0.6795
 2034SOL    HW217565   3.401   3.034  13.958  0.1473 -1.0605  0.2714
 2035SOL     OW17566   4.619   4.253   4.496 -0.4332 -0.1177 -0.0462
 2035SOL    HW117567   4.573   4.335   4.478  0.3416  0.8365  2.3221
 2035SOL    HW217568   4.606   4.215   4.409  2.3377 -1.1298 -0.0084
 2036SOL     OW17569   3.855   1.217  12.848 -0.3292 -0.2457  0.3418
 2036SOL    HW117570   3.923   1.150  12.839  1.2506  1.4435 -0.3070
 2036SOL    HW217571   3.903   1.274  12.907  2.9963 -2.0692 -0.5849
 2037SOL     OW17572   0.052   1.125   2.255  0.0392  0.3716 -0.4901
 2037SOL    HW117573   0.019   1.179   2.183 -0.0540 -0.0978 -0.8014
 2037SOL    HW217574   0.060   1.187   2.326  3.0290  0.3342 -0.7836
 2038SOL     OW17575   1.510   1.430   5.015  0.0656 -0.8381 -0.0854
 2038SOL    HW117576   1.448   1.400   4.949 -0.3833  0.4239 -0.2317
 2038SOL    HW217577   1.490   1.523   5.016 -2.6962 -1.4261 -1.1470
 2039SOL     OW17578   4.571   0.439   6.410 -0.3158  0.2078 -0.2420
 2039SOL    HW117579   4.618   0.505   6.461  0.4993 -0.3375 -0.2784
 2039SOL    HW217580   4.484   0.442   6.451 -0.7182  0.0668 -1.0897
 2040SOL     OW17581   1.274   3.136  10.347 -0.2404 -0.1281 -0.1372
 2040SOL    HW117582   1.290   3.070  10.414  1.9074  0.5355  0.0070
 2040SOL    HW217583   1.190   3.175  10.371  1.3032  2.2325  1.4664
 2041SOL     OW17584   0.274   0.050   1.425 -0.3774 -0.0331  0.4534
 2041SOL    HW117585   0.338   0.023   1.491  0.1571 -0.9712 -0.4509
 2041SOL    HW217586   0.197   0.028   1.476  2.2500  0.7521  4.7769
 2042SOL     OW17587   2.958   3.884   4.974  0.3284 -0.1309  0.1865
 2042SOL    HW117588   2.926   3.795   4.965 -2.4525  0.8033  0.9458
 2042SOL    HW217589   3.048   3.863   4.999  0.4061 -1.4086 -1.1741
 2043SOL     OW17590   0.355   1.799   5.374 -0.3344  0.4361 -0.0764
 2043SOL    HW117591   0.309   1.749   5.443 -0.0786 -0.3332 -0.4608
 2043SOL    HW217592   0.440   1.797   5.417 -0.8300 -0.6177  0.8703
 2044SOL     OW17593   1.597   2.520   4.822  0.6283 -0.2569  0.1085
 2044SOL    HW117594   1.556   2.433   4.817 -1.8351  1.1322 -3.7358
 2044SOL    HW217595   1.687   2.494   4.802  0.6194 -1.2691  1.4131
 2045SOL     OW17596   3.875   4.341   1.946  0.2282  0.2962  0.0202
 2045SOL    HW117597   3.842   4.259   1.982 -0.8098  1.2271  1.2257
 2045SOL    HW217598   3.804   4.405   1.953  0.3746  0.4972 -0.3216
 2046SOL     OW17599   3.589   3.146   3.312 -0.8891  0.6296  0.1410
 2046SOL    HW117600   3.602   3.206   3.386  0.7812  0.4606 -0.0261
 2046SOL    HW217601   3.519   3.200   3.275 -0.4477  1.6919  0.8863
 2047SOL     OW17602   4.201   3.832  13.896 -0.4757 -0.1345 -0.3730
 2047SOL    HW117603   4.269   3.766  13.880 -1.8323 -1.9793  1.4362
 2047SOL    HW217604   4.250   3.914  13.903  0.9600 -0.8642 -1.9405
 2048SOL     OW17605   1.149   2.642   2.052 -0.1766  0.2338  0.0352
 2048SOL    HW117606   1.196   2.640   2.135 -1.6038  0.0053  0.8415
 2048SOL    HW217607   1.225   2.634   1.995 -0.7307  2.2374 -0.9885
 2049SOL     OW17608   1.462   3.474   2.562 -0.2556  0.3852 -0.0744
 2049SOL    HW117609   1.466   3.531   2.639  1.0780  2.5054 -1.7310
 2049SOL    HW217610   1.441   3.541   2.498  1.1540  1.2767  0.4043
 2050SOL     OW17611   1.817   4.344   6.446 -0.0035 -0.0492 -0.1655
 2050SOL    HW117612   1.896   4.396   6.427 -2.3633  2.8521 -2.0305
 2050SOL    HW217613   1.778   4.406   6.507  0.8339  1.3766 -1.0765
 2051SOL     OW17614   0.197   2.823  16.627  1.1136  0.5558  0.4254
 2051SOL    HW117615   0.105   2.800  16.642  1.3381 -1.2056 -0.8446
 2051SOL    HW217616   0.217   2.748  16.572 -0.3394  0.6305 -0.2086
 2052SOL     OW17617   4.514   1.245   7.145  0.8088  0.3251  0.7621
 2052SOL    HW117618   4.519   1.336   7.171 -0.4777  0.8934 -0.9694
 2052SOL    HW217619   4.476   1.253   7.057 -1.1847 -1.5369  1.4677
 2053SOL     OW17620   2.236   0.494   4.679 -0.4290 -0.3098  0.2817
 2053SOL    HW117621   2.149   0.521   4.708 -0.7086  0.4581 -1.2565
 2053SOL    HW217622   2.295   0.551   4.728 -0.1289 -0.5491  0.1997
 2054SOL     OW17623   4.134   3.882   4.143 -0.5454 -0.6761  0.4221
 2054SOL    HW117624   4.205   3.817   4.133 -0.1586  0.0726 -1.8264
 2054SOL    HW217625   4.162   3.924   4.224  0.2857 -2.2460  0.9515
 2055SOL     OW17626   2.469   1.319   3.705 -0.0281 -0.1510 -0.0712
 2055SOL    HW117627   2.477   1.314   3.610 -1.3393  1.6109 -0.2710
 2055SOL    HW217628   2.427   1.405   3.704  0.2001 -0.0278  0.9083
 2056SOL     OW17629   0.520   2.763   3.268  0.0662  0.0548  0.0273
 2056SOL    HW117630   0.474   2.682   3.292 -1.5071  1.0462  0.3871
 2056SOL    HW217631   0.549   2.783   3.357  0.8551  4.0775 -1.1346
 2057SOL     OW17632   2.422   1.355   6.149  0.1809 -0.3200 -0.0368
 2057SOL    HW117633   2.463   1.441   6.142 -1.3122  0.5200  1.4752
 2057SOL    HW217634   2.417   1.354   6.244  1.4576 -2.2554  0.0172
 2058SOL     OW17635   0.078   1.214   9.192 -0.1157  0.3170  0.7025
 2058SOL    HW117636   0.123   1.297   9.208  0.9850 -0.0873 -0.2366
 2058SOL    HW217637   4.713   1.240   9.177 -0.0856  0.7392  1.2522
 2059SOL     OW17638   4.076   0.158  12.985  0.1835 -0.1545 -0.2083
 2059SOL    HW117639   4.103   0.249  12.969  0.7181 -0.3313 -0.2806
 2059SOL    HW217640   4.005   0.145  12.922  1.5057 -1.5329 -1.3988
 2060SOL     OW17641   0.857   1.817  17.374  0.1376 -0.0610 -0.0456
 2060SOL    HW117642   0.949   1.791  17.384  0.8338  2.7240  1.0043
 2060SOL    HW217643   0.877   1.892  17.318 -2.2376  0.6802  0.1261
 2061SOL     OW17644   4.724   1.979   4.208  0.0090 -0.0287  0.3345
 2061SOL    HW117645   0.012   2.015   4.120  0.8360  0.6876  0.7488
 2061SOL    HW217646   4.656   2.044   4.227  0.0563 -0.3815  1.7310
 2062SOL     OW17647   0.532   3.221   6.789  0.5706  0.7016  0.1171
 2062SOL    HW117648   0.491   3.301   6.756 -0.1232 -0.1052 -0.9653
 2062SOL    HW217649   0.511   3.234   6.882  0.7232  3.3581 -0.2032
 2063SOL     OW17650   4.315   1.755   7.977  0.2445 -0.6705  0.7416
 2063SOL    HW117651   4.378   1.766   8.048 -0.6708  0.5444  1.3741
 2063SOL    HW217652   4.248   1.696   8.012 -2.3038 -0.4909 -3.7928
 2064SOL     OW17653   4.363   2.590  11.241  0.1502 -0.5487 -0.4420
 2064SOL    HW117654   4.448   2.549  11.228 -0.6381 -1.2751 -3.3273
 2064SOL    HW217655   4.366   2.622  11.331  0.4028 -0.2546 -0.5517
 2065SOL     OW17656   0.458   0.277   7.025  0.7202  0.0675 -0.1436
 2065SOL    HW117657   0.549   0.280   6.997  1.1525 -3.0687  0.9335
 2065SOL    HW217658   0.456   0.364   7.065 -0.6741 -0.3715  0.7461
 2066SOL     OW17659   2.228   1.788   2.028 -0.6455 -0.0275 -0.1420
 2066SOL    HW117660   2.138   1.818   2.042 -1.1708 -1.6617 -0.0659
 2066SOL    HW217661   2.222   1.693   2.029  3.3727 -0.2769  1.1976
 2067SOL     OW17662   3.248   3.766   7.469 -0.1306  0.4337 -0.0429
 2067SOL    HW117663   3.338   3.798   7.479  0.2397 -0.4331 -0.6035
 2067SOL    HW217664   3.199   3.820   7.531  2.6190  2.4655  0.3680
 2068SOL     OW17665   3.139   3.956   3.628  0.5841 -0.0198 -0.2538
 2068SOL    HW117666   3.232   3.941   3.647  0.1338 -1.9815  0.3588
 2068SOL    HW217667   3.136   3.978   3.535  2.1956 -1.8142 -0.7215
 2069SOL     OW17668   0.529   0.035   7.966 -0.2021  0.5236  0.6681
 2069SOL    HW117669   0.511   0.118   8.011 -1.4715  0.5588  0.0918
 2069SOL    HW217670   0.618   0.020   7.997 -0.1811 -1.4628 -0.4326
 2070SOL     OW17671   0.528   4.205   0.420  0.1537 -0.5502  0.2172
 2070SOL    HW117672   0.583   4.178   0.347  1.0600 -0.2040  0.7759
 2070SOL    HW217673   0.567   4.289   0.444 -1.1681  0.6124 -1.7166
 2071SOL     OW17674   2.386   3.316   6.029  0.8472  0.1740  0.3246
 2071SOL    HW117675   2.431   3.398   6.052 -2.0886  2.2373 -1.3476
 2071SOL    HW217676   2.464   3.260   6.030 -0.9948 -2.3587 -0.4627
 2072SOL     OW17677   3.277   3.907   1.417 -0.3555 -0.3282  0.4411
 2072SOL    HW117678   3.346   3.914   1.483  0.9602 -1.7035 -0.7874
 2072SOL    HW217679   3.203   3.884   1.474 -1.0167 -0.8661 -0.6434
 2073SOL     OW17680   3.734   1.482  16.549 -0.0011 -0.5487 -0.2558
 2073SOL    HW117681   3.800   1.507  16.613  0.3001  1.0143 -1.1619
 2073SOL    HW217682   3.727   1.551  16.483 -2.4428  2.7991  3.4976
 2074SOL     OW17683   0.933   0.652  16.544  0.2231  0.0936  0.3333
 2074SOL    HW117684   0.843   0.636  16.515  0.0436 -0.2438  1.0917
 2074SOL    HW217685   0.909   0.684  16.631 -0.7886 -1.3364  0.5831
 2075SOL     OW17686   2.608   2.983   9.133 -0.1863  0.2551  0.2756
 2075SOL    HW117687   2.530   2.998   9.080  0.5880  0.2977 -0.8453
 2075SOL    HW217688   2.590   3.005   9.225 -2.3405  1.7160 -0.4979
 2076SOL     OW17689   0.251   3.118   7.194 -0.0056  0.0714  0.7653
 2076SOL    HW117690   0.318   3.108   7.261  0.4394  0.3912  0.3650
 2076SOL    HW217691   0.178   3.161   7.238 -3.3073 -3.2373 -1.4316
 2077SOL     OW17692   0.072   1.976   1.500  0.0343 -0.2114  0.0177
 2077SOL    HW117693   0.033   1.957   1.585 -0.6256  1.5343  0.1090
 2077SOL    HW217694   0.022   2.054   1.473  0.2736 -0.6555 -1.7117
 2078SOL     OW17695   4.605   2.299   4.098 -0.6620 -0.1096  0.2309
 2078SOL    HW117696   4.657   2.342   4.031  0.6219 -0.4364  1.0124
 2078SOL    HW217697   4.623   2.351   4.176  1.1742 -2.2858  1.2645
 2079SOL     OW17698   3.446   2.392   5.700  0.0148  0.4924 -0.6648
 2079SOL    HW117699   3.400   2.333   5.640  0.6169  1.4004 -2.0182
 2079SOL    HW217700   3.501   2.434   5.634 -1.3201  1.6202 -1.0422
 2080SOL     OW17701   0.381   3.594  12.561 -0.3861 -0.2793 -0.0289
 2080SOL    HW117702   0.454   3.634  12.513 -1.9317 -0.1027 -2.2665
 2080SOL    HW217703   0.350   3.674  12.604 -0.2006 -1.1799  1.7602
 2081SOL     OW17704   0.046   4.528   6.074 -0.3413 -0.0489  0.2631
 2081SOL    HW117705   0.050   4.592   6.145  2.0140 -0.0749  0.1642
 2081SOL    HW217706   0.111   4.468   6.112 -0.1526  1.1090  1.7741
 2082SOL     OW17707   3.831   4.212   6.517  0.1146  0.0100  0.2398
 2082SOL    HW117708   3.896   4.258   6.570  2.3322  1.4597 -3.7244
 2082SOL    HW217709   3.877   4.173   6.443  1.5555 -0.1649  1.2237
 2083SOL     OW17710   4.158   2.718  16.637  0.3839  0.0535  0.3469
 2083SOL    HW117711   4.150   2.724  16.732 -2.2014 -0.2100  0.1386
 2083SOL    HW217712   4.171   2.624  16.626 -3.7013 -0.4641  0.0886
 2084SOL     OW17713   2.133   1.873  11.878  0.0561  0.2535 -0.2476
 2084SOL    HW117714   2.098   1.808  11.818  3.3406  0.1045 -1.9923
 2084SOL    HW217715   2.064   1.863  11.944  0.7021 -0.6094  0.2883
 2085SOL     OW17716   0.702   0.110   6.432  0.0549  0.0184 -0.3463
 2085SOL    HW117717   0.692   0.199   6.398 -2.6298 -0.4147 -0.7006
 2085SOL    HW217718   0.775   0.116   6.493 -0.5540  1.1475  0.2655
 2086SOL     OW17719   4.120   4.545   4.925  0.4841 -0.2316  0.6649
 2086SOL    HW117720   4.057   4.614   4.904  1.3607 -0.0285 -1.2496
 2086SOL    HW217721   4.069   4.466   4.940 -2.1513  1.4090  0.4403
 2087SOL     OW17722   1.756   0.238   3.906  0.0723 -0.0423  0.3384
 2087SOL    HW117723   1.781   0.160   3.855  0.3561  1.7875 -2.3149
 2087SOL    HW217724   1.739   0.191   3.987  0.2094  0.6405  0.7568
 2088SOL     OW17725   1.507   2.653   4.483 -0.1991 -0.5193 -0.1424
 2088SOL    HW117726   1.512   2.706   4.404 -0.1099  0.5943  0.6070
 2088SOL    HW217727   1.416   2.667   4.507 -0.2475 -0.1719 -0.5180
 2089SOL     OW17728   0.412   4.391   6.755  0.4574 -0.4862  0.0914
 2089SOL    HW117729   0.501   4.411   6.785  0.2276  2.1160 -0.9179
 2089SOL    HW217730   0.424   4.307   6.712 -0.4877 -0.7920  0.4259
 2090SOL     OW17731   3.825   1.175   9.207  0.0689 -0.3779 -0.7714
 2090SOL    HW117732   3.803   1.258   9.164  1.3018 -0.3512 -1.3726
 2090SOL    HW217733   3.801   1.187   9.298 -0.7074  0.5022 -1.0956
 2091SOL     OW17734   1.952   0.920  16.591 -0.4028 -0.0442 -0.4830
 2091SOL    HW117735   1.915   0.900  16.505 -0.6413 -1.8063  0.0357
 2091SOL    HW217736   1.966   0.832  16.626 -0.1036  0.3177  0.3157
 2092SOL     OW17737   0.752   1.117   4.891 -0.4782 -0.9615  0.1486
 2092SOL    HW117738   0.675   1.152   4.935  0.1246  0.5535  0.0088
 2092SOL    HW217739   0.782   1.047   4.949 -0.6085  1.4871  3.1225
 2093SOL     OW17740   0.772   1.206   9.399 -0.3794 -0.4980 -0.1359
 2093SOL    HW117741   0.826   1.273   9.358 -0.5669 -0.7365 -0.7744
 2093SOL    HW217742   0.709   1.200   9.326 -0.7348 -2.8103  0.3829
 2094SOL     OW17743   3.815   2.764   9.284  0.0129 -0.1782  0.2480
 2094SOL    HW117744   3.775   2.741   9.368  0.7006 -1.3299  0.2678
 2094SOL    HW217745   3.840   2.675   9.258  0.0137 -0.4508  1.1661
 2095SOL     OW17746   0.569   2.626   4.041 -0.5103 -0.4546 -0.5103
 2095SOL    HW117747   0.588   2.532   4.034  0.5525 -0.2761 -0.1375
 2095SOL    HW217748   0.657   2.662   4.052  0.7558 -4.8022  3.5166
 2096SOL     OW17749   4.046   4.536   3.784  0.4388  0.4326 -0.1235
 2096SOL    HW117750   4.019   4.464   3.728 -0.5186  0.4182  0.3689
 2096SOL    HW217751   3.971   4.592   3.764 -0.2455 -0.1052  0.9238
 2097SOL     OW17752   4.224   3.160   2.276  0.1781 -0.9434  0.2743
 2097SOL    HW117753   4.153   3.218   2.305 -1.2037 -1.8304 -1.3361
 2097SOL    HW217754   4.236   3.178   2.182  3.2271 -0.2682  0.7794
 2098SOL     OW17755   1.497   4.024  17.048 -0.3883 -0.0327  0.3819
 2098SOL    HW117756   1.491   4.034  17.143 -0.0269  0.4305  0.3546
 2098SOL    HW217757   1.427   3.962  17.026 -0.0879 -0.5625  0.9342
 2099SOL     OW17758   3.161   2.665   6.245 -0.1885  0.3012 -0.3038
 2099SOL    HW117759   3.180   2.618   6.164 -0.7293 -1.5187  0.6217
 2099SOL    HW217760   3.083   2.619   6.277  0.9534 -0.5757  1.2526
 2100SOL     OW17761   2.492   2.973   1.781 -0.0258 -0.6498 -0.3109
 2100SOL    HW117762   2.530   2.995   1.696  0.2334  3.5567  0.9030
 2100SOL    HW217763   2.453   3.057   1.805 -0.9051 -1.3315  0.6513
 2101SOL     OW17764   3.577   0.990   8.519 -0.5325  0.2835  0.2268
 2101SOL    HW117765   3.585   1.046   8.596 -0.0997  0.2482  0.2092
 2101SOL    HW217766   3.567   0.904   8.558  0.2264 -0.3993 -1.0656
 2102SOL     OW17767   1.171   0.368  11.769 -0.1977 -0.0737 -0.0359
 2102SOL    HW117768   1.179   0.418  11.851 -1.6208  0.0996 -0.0045
 2102SOL    HW217769   1.232   0.296  11.789 -0.9760 -1.2647 -2.0313
 2103SOL     OW17770   3.075   0.400   6.040  0.2160 -0.1881  0.5259
 2103SOL    HW117771   3.132   0.414   6.116 -1.8485  0.2633  1.9597
 2103SOL    HW217772   3.055   0.492   6.026 -0.1426 -0.6747 -2.3203
 2104SOL     OW17773   1.259   2.250   1.532  0.3673 -0.8601  0.0194
 2104SOL    HW117774   1.338   2.196   1.538  0.4457 -0.3900  2.9407
 2104SOL    HW217775   1.242   2.278   1.622 -0.2247 -3.8987  0.8624
 2105SOL     OW17776   0.578   0.390   8.877 -0.0647 -0.3637 -0.5161
 2105SOL    HW117777   0.652   0.331   8.865  0.8684  0.5127  0.9190
 2105SOL    HW217778   0.563   0.435   8.793  2.8663  2.2005  0.3487
 2106SOL     OW17779   0.575   1.994   6.637  0.5405  0.2078 -0.2029
 2106SOL    HW117780   0.601   1.944   6.713 -2.1551 -2.3350 -0.9736
 2106SOL    HW217781   0.539   2.074   6.676  2.8223 -0.1044  2.4987
 2107SOL     OW17782   4.387   4.337   3.185  0.5992 -0.2059 -0.4200
 2107SOL    HW117783   4.304   4.336   3.231  1.0424  1.0412  0.4017
 2107SOL    HW217784   4.442   4.277   3.237  0.9334 -0.6880 -1.3220
 2108SOL     OW17785   2.201   3.153   6.915  0.1858 -0.6908 -0.0218
 2108SOL    HW117786   2.185   3.063   6.942  0.4932 -0.7612 -0.0778
 2108SOL    HW217787   2.169   3.206   6.988 -3.3450 -1.0775 -1.2848
 2109SOL     OW17788   1.476   3.701   1.886 -0.1301  0.2848  0.0827
 2109SOL    HW117789   1.403   3.662   1.935  0.9214 -0.3694  1.1346
 2109SOL    HW217790   1.502   3.632   1.826 -3.5087 -0.5875 -0.3907
 2110SOL     OW17791   0.300   3.774   2.710  0.0292  0.6437 -0.2744
 2110SOL    HW117792   0.340   3.824   2.638  0.1289  1.0654  0.0775
 2110SOL    HW217793   0.325   3.688   2.676  1.4264  0.2001  1.9491
 2111SOL     OW17794   3.235   1.873   9.881 -0.4428 -0.1553  0.1077
 2111SOL    HW117795   3.148   1.883   9.921 -0.0240  0.7913  0.7764
 2111SOL    HW217796   3.276   1.956   9.905 -0.8987 -0.5410  2.1713
 2112SOL     OW17797   0.598   1.411   3.062 -0.3531  0.5606 -0.4019
 2112SOL    HW117798   0.598   1.486   3.003 -1.4760 -1.5855 -3.1776
 2112SOL    HW217799   0.511   1.415   3.101 -0.4185  0.2742 -0.5143
 2113SOL     OW17800   0.320   1.158  17.010  0.2585  0.6454 -0.1252
 2113SOL    HW117801   0.263   1.194  17.078 -1.0940  2.1822 -2.0599
 2113SOL    HW217802   0.305   1.063  17.008 -0.1343  0.6449  3.2789
 2114SOL     OW17803   2.114   3.722   1.529 -0.2135  0.0269 -0.2641
 2114SOL    HW117804   2.075   3.698   1.614  0.3007  0.1419  0.0055
 2114SOL    HW217805   2.120   3.816   1.544  2.0606 -0.2372  0.4892
 2115SOL     OW17806   1.982   1.682   3.782 -0.0126 -0.3426 -0.1525
 2115SOL    HW117807   1.920   1.719   3.719  0.8127 -0.7474 -1.2152
 2115SOL    HW217808   2.052   1.639   3.732  0.2071 -0.9836  0.6970
 2116SOL     OW17809   4.417   0.153   2.471 -0.0759 -0.3436 -0.2829
 2116SOL    HW117810   4.359   0.195   2.407 -0.1844  0.4963  0.3690
 2116SOL    HW217811   4.499   0.191   2.441  1.3155 -1.2437  2.4200
 2117SOL     OW17812   3.167   0.562  14.178 -0.4066 -0.0747 -0.1059
 2117SOL    HW117813   3.150   0.569  14.272 -1.8550  0.1325 -0.3860
 2117SOL    HW217814   3.160   0.652  14.147 -0.4917  0.0822  0.3665
 2118SOL     OW17815   3.680   1.124   1.679  0.0793 -0.4405  0.0241
 2118SOL    HW117816   3.632   1.166   1.751  0.2459  1.3656 -0.9256
 2118SOL    HW217817   3.617   1.141   1.609  0.6376  1.7001  0.0350
 2119SOL     OW17818   4.677   1.834   9.786  0.5441  0.1907  0.1198
 2119SOL    HW117819   0.012   1.773   9.745 -0.9947 -1.1584 -0.1020
 2119SOL    HW217820   4.608   1.775   9.813  0.9593  0.1201  1.0328
 2120SOL     OW17821   0.641   0.628   4.123 -0.0793 -0.3124  0.0680
 2120SOL    HW117822   0.699   0.576   4.067  1.2740  3.2142 -1.8192
 2120SOL    HW217823   0.703   0.657   4.190 -0.7011 -0.6786  0.8083
 2121SOL     OW17824   2.279   0.069   8.853  0.8444 -0.0689 -0.5221
 2121SOL    HW117825   2.299   4.702   8.836 -0.7997 -1.0055  2.6166
 2121SOL    HW217826   2.198   0.089   8.806  0.5703  1.1749  0.4583
 2122SOL     OW17827   1.563   3.150   5.737  0.5068 -0.0286  0.1876
 2122SOL    HW117828   1.600   3.180   5.820  1.9823 -2.2926  0.3578
 2122SOL    HW217829   1.549   3.233   5.692  0.9597 -0.1581 -0.1917
 2123SOL     OW17830   2.617   3.290   1.717 -0.2069  0.3711 -0.0117
 2123SOL    HW117831   2.531   3.281   1.757 -1.4384 -1.0016 -2.9530
 2123SOL    HW217832   2.600   3.249   1.632 -0.8210  0.7189 -0.0527
 2124SOL     OW17833   0.338   0.645   7.934 -0.0536 -0.4680 -0.2233
 2124SOL    HW117834   0.344   0.662   7.840 -2.4936  0.8780 -0.1349
 2124SOL    HW217835   0.308   0.554   7.937  0.8622 -0.7634 -0.0729
 2125SOL     OW17836   0.411   0.617   6.422 -0.4409 -0.2410 -0.1195
 2125SOL    HW117837   0.382   0.596   6.511  0.8230 -0.8982  0.1418
 2125SOL    HW217838   0.432   0.528   6.392  1.9352  0.8428 -1.6390
 2126SOL     OW17839   3.285   0.896   8.484 -0.0139  0.5895  0.4120
 2126SOL    HW117840   3.364   0.844   8.471  0.3267  0.6391  2.3519
 2126SOL    HW217841   3.272   0.879   8.577  1.4312 -0.9752  0.3271
 2127SOL     OW17842   0.469   2.155   8.885  0.3407  0.0886  0.1999
 2127SOL    HW117843   0.561   2.175   8.903  0.2500  0.5138  0.2044
 2127SOL    HW217844   0.476   2.144   8.790 -0.0607 -1.2237  0.3245
 2128SOL     OW17845   0.083   4.361   5.581  0.4499  0.2729 -0.4247
 2128SOL    HW117846   0.145   4.418   5.536  0.2104  1.5645  0.9140
 2128SOL    HW217847   0.139   4.343   5.656 -1.1546 -0.2243  0.6528
 2129SOL     OW17848   2.512   2.597   0.255  0.2496 -0.2447 -0.0913
 2129SOL    HW117849   2.513   2.543   0.334  1.0102 -0.2657 -0.1183
 2129SOL    HW217850   2.525   2.524   0.194 -0.5568 -1.6066  1.3755
 2130SOL     OW17851   1.118   1.891  12.930  0.0002  0.0588 -0.2157
 2130SOL    HW117852   1.051   1.838  12.974 -0.4861  0.7395 -0.1271
 2130SOL    HW217853   1.080   1.977  12.910 -1.1095 -0.3216  0.2604
 2131SOL     OW17854   1.495   3.806  13.365 -0.1859 -0.6326  0.3712
 2131SOL    HW117855   1.405   3.837  13.378  0.0892  0.2391  0.1770
 2131SOL    HW217856   1.536   3.880  13.321  0.1885 -0.2353  1.3801
 2132SOL     OW17857   3.222   0.326   4.565 -0.4627  0.0817 -0.2029
 2132SOL    HW117858   3.206   0.234   4.544  0.8103 -0.3687  0.7953
 2132SOL    HW217859   3.173   0.330   4.647  1.0442 -0.1793  0.6977
 2133SOL     OW17860   3.188   1.065   0.795  0.1056  0.2258 -0.2888
 2133SOL    HW117861   3.131   1.088   0.869 -0.9131  2.1497 -1.6595
 2133SOL    HW217862   3.173   1.128   0.724 -0.9832 -0.3677 -0.5892
 2134SOL     OW17863   3.729   0.147   2.637 -0.4023  0.0951 -1.2622
 2134SOL    HW117864   3.784   0.224   2.656  1.4550 -1.3005 -0.9554
 2134SOL    HW217865   3.800   0.085   2.617  0.0602  1.2548 -3.1750
 2135SOL     OW17866   3.247   4.272   3.633  0.5831  0.3315  0.8497
 2135SOL    HW117867   3.153   4.279   3.617  0.6382 -0.7103  0.0742
 2135SOL    HW217868   3.265   4.207   3.565  2.3005  2.9967 -1.2343
 2136SOL     OW17869   4.320   2.289   4.038  0.5442 -0.2833  0.0165
 2136SOL    HW117870   4.272   2.317   3.960  0.0408  0.0771  0.4557
 2136SOL    HW217871   4.415   2.292   4.023  0.7233 -1.2900  0.9886
 2137SOL     OW17872   0.438   3.449   9.239  0.5776 -0.1456  0.5019
 2137SOL    HW117873   0.399   3.370   9.202  0.9449 -1.0854  2.1355
 2137SOL    HW217874   0.399   3.463   9.325  1.5534  1.7237  0.6311
 2138SOL     OW17875   2.801   3.152   4.229  0.2549 -0.0022 -0.2706
 2138SOL    HW117876   2.885   3.186   4.199  0.8870 -2.4974 -1.3409
 2138SOL    HW217877   2.828   3.127   4.318 -0.7875  1.6039  0.5008
 2139SOL     OW17878   4.243   2.772   4.474  0.1595  0.3860 -0.1752
 2139SOL    HW117879   4.276   2.831   4.407  0.7489  0.6768  0.3745
 2139SOL    HW217880   4.270   2.809   4.558 -0.5372 -2.8841  1.5167
 2140SOL     OW17881   4.676   1.662   8.203 -0.3097 -0.3034 -0.6096
 2140SOL    HW117882   4.668   1.710   8.121 -1.2464 -1.4630 -1.1957
 2140SOL    HW217883   4.681   1.734   8.266  0.4599  0.0243 -1.0573
 2141SOL     OW17884   3.631   4.261   1.768  0.3827  0.1315 -0.3409
 2141SOL    HW117885   3.584   4.320   1.710 -0.6123  0.8413  1.2158
 2141SOL    HW217886   3.683   4.215   1.701  1.3800  1.0090 -0.1606
 2142SOL     OW17887   1.111   3.918   5.336  0.0718 -0.2102  0.0289
 2142SOL    HW117888   1.203   3.892   5.335 -0.0146 -0.4474 -2.0084
 2142SOL    HW217889   1.083   3.878   5.419  0.0737  0.4273  0.3320
 2143SOL     OW17890   2.821   0.982   5.008  0.1661 -1.1490  0.2605
 2143SOL    HW117891   2.848   0.890   5.007  0.2706 -1.1206  0.5249
 2143SOL    HW217892   2.789   0.995   4.919 -0.9393  2.0166  1.1406
 2144SOL     OW17893   1.515   1.283  12.643 -0.2275  0.1562 -0.3904
 2144SOL    HW117894   1.574   1.283  12.719 -1.0055  0.6838  0.2098
 2144SOL    HW217895   1.538   1.199  12.603 -0.5412  1.1176 -2.5640
 2145SOL     OW17896   1.444   0.897  17.121  0.2011 -0.3185  0.3850
 2145SOL    HW117897   1.430   0.979  17.168  0.2858  0.3225 -0.7100
 2145SOL    HW217898   1.539   0.905  17.113  0.3321 -3.2945 -1.0072
 2146SOL     OW17899   4.178   3.096   5.507 -0.7358  0.0872  0.0953
 2146SOL    HW117900   4.154   3.061   5.421 -1.9817  1.3172 -0.0598
 2146SOL    HW217901   4.158   3.021   5.563  0.5563 -1.6276 -1.7460
 2147SOL     OW17902   2.077   0.132   5.004 -0.3276 -0.3480 -0.2376
 2147SOL    HW117903   2.146   0.182   4.959  0.0869  1.6496  2.5850
 2147SOL    HW217904   2.098   0.040   4.994 -1.1454 -0.5679  0.0362
 2148SOL     OW17905   1.384   2.523   7.143 -0.0567  0.6243  0.1319
 2148SOL    HW117906   1.331   2.600   7.120  0.7307  1.3805  0.8976
 2148SOL    HW217907   1.346   2.513   7.230  1.0238 -0.4678  0.4767
 2149SOL     OW17908   3.913   4.314  12.376 -0.0924 -0.0151  0.4852
 2149SOL    HW117909   3.849   4.322  12.447  0.4329 -0.8827  1.0645
 2149SOL    HW217910   3.856   4.267  12.314  0.8182  0.1861 -0.5046
 2150SOL     OW17911   0.653   3.898  15.367  0.2379  0.6705 -0.2556
 2150SOL    HW117912   0.614   3.980  15.396 -1.4722  0.0083 -0.6499
 2150SOL    HW217913   0.657   3.909  15.272  0.2794  0.4759 -0.2772
 2151SOL     OW17914   3.632   3.094   2.582 -0.4289  0.4700  0.2657
 2151SOL    HW117915   3.705   3.089   2.520  0.2249 -1.3761  1.2024
 2151SOL    HW217916   3.585   3.021   2.542  0.3160  0.0970  0.0716
 2152SOL     OW17917   1.057   3.169   4.336 -0.0495 -0.5325  0.3834
 2152SOL    HW117918   1.071   3.197   4.426  0.8335  0.0418  0.0684
 2152SOL    HW217919   1.015   3.248   4.301  3.1979  0.3976 -1.4305
 2153SOL     OW17920   3.366   0.456   0.466  0.6631 -0.0204 -0.1871
 2153SOL    HW117921   3.390   0.370   0.432  1.3864  0.1672 -0.1569
 2153SOL    HW217922   3.273   0.468   0.449  0.6895  0.5385  0.0454
 2154SOL     OW17923   3.567   4.383   4.710 -0.3224  0.1994 -0.0432
 2154SOL    HW117924   3.537   4.383   4.801 -2.5040 -0.8118 -0.7604
 2154SOL    HW217925   3.577   4.288   4.698 -2.7270  0.2929 -2.8446
 2155SOL     OW17926   3.812   3.586   3.407  0.9073  0.1649  0.5440
 2155SOL    HW117927   3.756   3.530   3.353  3.7936 -0.7291 -1.5032
 2155SOL    HW217928   3.748   3.641   3.453  0.0750  0.5929 -1.1322
 2156SOL     OW17929   4.216   4.361  13.884  0.1563 -0.7441  0.6327
 2156SOL    HW117930   4.149   4.420  13.920 -0.9256 -0.4584 -1.8147
 2156SOL    HW217931   4.296   4.413  13.889 -0.3034 -0.0131  0.4571
 2157SOL     OW17932   4.540   3.610   6.775 -0.2294  1.3030 -0.3775
 2157SOL    HW117933   4.591   3.652   6.706  0.9363 -0.0036 -0.3164
 2157SOL    HW217934   4.585   3.628   6.857 -0.2891  0.9998 -0.2785
 2158SOL     OW17935   2.930   2.610   7.845 -0.2069 -0.1412  0.0465
 2158SOL    HW117936   2.890   2.558   7.915  0.2333 -2.1574 -1.1937
 2158SOL    HW217937   2.868   2.683   7.836  0.9048  0.9043  0.9624
 2159SOL     OW17938   1.888   0.114   7.949  0.2989  0.2818  0.0048
 2159SOL    HW117939   1.910   0.116   7.856  1.0281  2.1707  0.2252
 2159SOL    HW217940   1.902   0.021   7.967 -0.8003 -0.2028 -1.6594
 2160SOL     OW17941   2.340   0.415   5.376  0.1687  0.2671 -0.7131
 2160SOL    HW117942   2.327   0.509   5.376  2.0989  0.5321 -2.5436
 2160SOL    HW217943   2.403   0.396   5.446 -0.1265  0.7113 -0.3317
 2161SOL     OW17944   2.363   0.776   3.348  0.1168  0.1062 -0.3440
 2161SOL    HW117945   2.410   0.713   3.293 -1.0376  1.3122 -2.6636
 2161SOL    HW217946   2.311   0.828   3.287 -0.3493  0.4384  0.3318
 2162SOL     OW17947   2.803   3.029   0.842  0.1583  0.2405 -0.1857
 2162SOL    HW117948   2.742   3.100   0.862 -0.3218 -1.0314  2.7861
 2162SOL    HW217949   2.851   3.010   0.923 -1.0315 -0.1247  0.4285
 2163SOL     OW17950   4.606   0.223   1.746  0.4682 -0.5514  0.4619
 2163SOL    HW117951   4.542   0.177   1.801 -0.3163  1.2224  1.0267
 2163SOL    HW217952   4.653   0.272   1.813 -2.5694  1.2004  1.3255
 2164SOL     OW17953   2.653   2.374   7.755  0.0649 -0.0901  0.3021
 2164SOL    HW117954   2.626   2.294   7.801 -2.8485  0.2995 -0.7367
 2164SOL    HW217955   2.596   2.362   7.680  0.3684  1.1230 -0.1172
 2165SOL     OW17956   0.304   2.031   7.738  0.1087  0.1108  0.1300
 2165SOL    HW117957   0.257   2.114   7.730  2.4317  1.3427 -0.7287
 2165SOL    HW217958   0.248   1.989   7.803  1.2411  0.1630  1.1406
 2166SOL     OW17959   3.944   0.836   0.976  0.2920 -0.2956 -0.4374
 2166SOL    HW117960   3.886   0.820   0.902  0.1043 -1.2694 -0.0751
 2166SOL    HW217961   3.946   0.748   1.015  2.0484  0.5303  1.3981
 2167SOL     OW17962   2.198   2.685  15.858  0.3411 -0.6433  0.2792
 2167SOL    HW117963   2.189   2.590  15.864 -0.7501 -0.7034 -2.4295
 2167SOL    HW217964   2.291   2.702  15.846  0.1617 -0.4392 -0.7652
 2168SOL     OW17965   2.535   4.591   4.404  0.5687 -0.2912 -0.2294
 2168SOL    HW117966   2.585   4.570   4.484  1.0565 -1.8171 -0.9331
 2168SOL    HW217967   2.502   4.502   4.392  0.0219  0.0000 -0.8768
 2169SOL     OW17968   2.730   4.366   8.348 -0.0846 -0.4848 -0.1593
 2169SOL    HW117969   2.645   4.325   8.362 -0.6582  0.7183 -0.1517
 2169SOL    HW217970   2.724   4.437   8.412 -2.6083  0.7152 -1.7560
 2170SOL     OW17971   3.898   1.157  17.414 -0.3692  0.1767 -0.3363
 2170SOL    HW117972   3.822   1.113  17.453  0.0537  0.6933  1.0960
 2170SOL    HW217973   3.948   1.080  17.388 -1.3539 -0.7340  0.4809
 2171SOL     OW17974   0.396   0.095   5.363 -0.0816 -0.4240 -0.2258
 2171SOL    HW117975   0.391   0.044   5.282 -0.1513  1.9619 -1.7406
 2171SOL    HW217976   0.396   0.186   5.333  0.6469 -0.6109 -0.8265
 2172SOL     OW17977   4.384   2.630   4.709  0.4332 -0.1982 -0.3778
 2172SOL    HW117978   4.319   2.624   4.780 -0.4970 -0.9676 -1.3071
 2172SOL    HW217979   4.322   2.609   4.640  0.5944 -0.3068 -0.4896
 2173SOL     OW17980   1.559   2.901   7.589  0.0434 -0.1352 -0.7734
 2173SOL    HW117981   1.631   2.956   7.621 -0.7866  0.0870  0.7590
 2173SOL    HW217982   1.514   2.946   7.518  0.2546 -0.1244 -0.8983
 2174SOL     OW17983   1.594   1.922   6.598  0.1361 -0.0863  0.7382
 2174SOL    HW117984   1.667   1.982   6.609 -1.2875  1.4107  2.0157
 2174SOL    HW217985   1.612   1.846   6.653  0.5146 -0.6127 -0.1092
 2175SOL     OW17986   4.183   3.785   3.269  0.4988  0.0795 -0.7644
 2175SOL    HW117987   4.144   3.838   3.199 -2.1542 -0.3663  0.4043
 2175SOL    HW217988   4.108   3.774   3.327  3.0962  1.4111  2.8525
 2176SOL     OW17989   0.384   3.434   3.906 -0.5871  0.0378  0.0937
 2176SOL    HW117990   0.374   3.391   3.821 -1.4491  1.2107 -0.4021
 2176SOL    HW217991   0.415   3.520   3.875 -0.6844  0.9276  2.4788
 2177SOL     OW17992   1.759   1.130   4.305 -0.0675  0.1400 -0.1308
 2177SOL    HW117993   1.738   1.194   4.237  0.4998  1.3382  0.8171
 2177SOL    HW217994   1.842   1.091   4.278 -0.5008  0.9835 -2.6650
 2178SOL     OW17995   0.054   4.103   6.310 -0.1284  0.4348  0.0288
 2178SOL    HW117996   4.712   4.080   6.374  1.0352 -1.2297  0.6556
 2178SOL    HW217997   0.014   4.112   6.224 -0.1698  0.1625  0.0206
 2179SOL     OW17998   4.241   3.312   3.893 -0.3501 -0.1215 -0.1573
 2179SOL    HW117999   4.230   3.240   3.956  0.7430 -1.5410 -1.5837
 2179SOL    HW218000   4.206   3.270   3.815  1.8651 -0.6921 -0.8222
 2180SOL     OW18001   0.616   0.310   3.257  0.6332 -0.1211 -0.2322
 2180SOL    HW118002   0.674   0.294   3.331  1.0048 -1.8728 -0.8997
 2180SOL    HW218003   0.531   0.323   3.300  1.0911 -2.0271  1.2922
 2181SOL     OW18004   4.562   1.304  16.942 -0.2752 -0.0817  0.0586
 2181SOL    HW118005   4.606   1.281  16.860  0.0169  1.7284 -0.2856
 2181SOL    HW218006   4.588   1.225  16.990  0.1268  0.6218  0.9820
 2182SOL     OW18007   3.098   4.283   8.858 -0.2208  0.3141 -0.5654
 2182SOL    HW118008   3.057   4.370   8.859  0.0569  0.4329  0.2403
 2182SOL    HW218009   3.029   4.226   8.891 -1.0851  0.7916 -1.5289
 2183SOL     OW18010   2.500   4.167   1.511  0.4698 -0.5450  0.1083
 2183SOL    HW118011   2.592   4.166   1.537  0.1057 -2.6726  1.2740
 2183SOL    HW218012   2.460   4.117   1.581 -1.9733  1.4514  0.1384
 2184SOL     OW18013   0.311   4.095   9.901  0.5440  0.3612  0.3574
 2184SOL    HW118014   0.388   4.148   9.918 -0.2516  1.4192  0.6471
 2184SOL    HW218015   0.236   4.151   9.920 -0.5014 -0.6653 -0.6634
 2185SOL     OW18016   3.392   2.968   6.940  0.1916 -0.2235 -0.2022
 2185SOL    HW118017   3.383   3.063   6.942 -0.3561 -0.2451 -1.6552
 2185SOL    HW218018   3.407   2.957   6.847  0.4683 -1.8142  0.0283
 2186SOL     OW18019   4.251   2.740   7.979  0.0934 -0.3060  0.3321
 2186SOL    HW118020   4.261   2.831   7.952  1.4068 -0.5616 -0.0260
 2186SOL    HW218021   4.331   2.719   8.026 -0.8935 -2.4897  1.0688
 2187SOL     OW18022   4.585   0.748   7.685 -0.5677  0.1377 -0.2908
 2187SOL    HW118023   4.642   0.785   7.752  0.0369 -1.9093  0.3184
 2187SOL    HW218024   4.541   0.676   7.730 -1.3834  0.5226 -0.4769
 2188SOL     OW18025   2.665   4.623   3.883 -0.1715  0.4359 -0.4927
 2188SOL    HW118026   2.670   4.624   3.978  1.0383  1.0843 -0.5742
 2188SOL    HW218027   2.571   4.606   3.869 -0.6571  1.2654  1.8307
 2189SOL     OW18028   0.694   0.316   1.962  0.2958 -0.0337 -0.1147
 2189SOL    HW118029   0.657   0.245   2.015 -0.5111 -0.0025 -0.6315
 2189SOL    HW218030   0.665   0.397   2.003 -4.2087 -1.6887 -0.0837
 2190SOL     OW18031   3.261   3.419   5.986  0.0162 -0.2508 -0.1059
 2190SOL    HW118032   3.343   3.468   5.989  0.8535 -1.7956  2.3317
 2190SOL    HW218033   3.296   3.340   6.026 -0.5159 -0.3406  0.1808
 2191SOL     OW18034   2.523   3.169   8.253 -0.4812 -0.3104  0.4619
 2191SOL    HW118035   2.525   3.195   8.161  1.7926  1.9335  1.1452
 2191SOL    HW218036   2.442   3.213   8.280  0.6492  0.5824  2.3882
 2192SOL     OW18037   3.187   0.507   9.456 -0.0053 -0.2204 -0.0115
 2192SOL    HW118038   3.265   0.560   9.467  0.4876 -0.7270 -1.0148
 2192SOL    HW218039   3.214   0.421   9.421  1.0482  0.4393 -0.8130
 2193SOL     OW18040   3.665   2.528   7.727  0.5926 -0.0924  0.0713
 2193SOL    HW118041   3.656   2.546   7.633 -0.6683  0.5175  0.3035
 2193SOL    HW218042   3.582   2.555   7.766  0.4465  0.1609 -0.4091
 2194SOL     OW18043   0.738   1.246   7.834  0.2493 -0.1520 -0.4307
 2194SOL    HW118044   0.821   1.291   7.850  0.3267 -0.6660  0.6077
 2194SOL    HW218045   0.694   1.282   7.757 -0.8684  0.4353  0.4948
 2195SOL     OW18046   1.049   0.873   4.232 -0.6018  0.0321 -0.3758
 2195SOL    HW118047   1.005   0.917   4.159  0.0124  1.8795  0.3652
 2195SOL    HW218048   1.120   0.934   4.252 -0.8863  0.1893  0.1456
 2196SOL     OW18049   1.694   2.996   3.038  0.1756 -0.2274 -0.1785
 2196SOL    HW118050   1.787   3.004   3.056  0.1756  1.3118 -0.8768
 2196SOL    HW218051   1.658   3.071   3.085 -0.5086 -1.3614  1.1033
 2197SOL     OW18052   1.847   4.536   6.655  0.0306 -0.4517 -0.2703
 2197SOL    HW118053   1.878   4.626   6.651 -0.5573 -0.2602 -0.5237
 2197SOL    HW218054   1.802   4.507   6.734 -1.0372 -0.5297 -0.9106
 2198SOL     OW18055   0.997   0.720   2.998  0.1063  0.0546 -0.3101
 2198SOL    HW118056   1.048   0.735   2.918 -1.3536  0.3608 -1.1894
 2198SOL    HW218057   0.916   0.695   2.954  0.9083  1.6170 -2.6885
 2199SOL     OW18058   0.352   4.653   7.030 -0.0808  0.1639 -0.2268
 2199SOL    HW118059   0.433   4.610   7.057 -2.2267 -1.7443  3.1699
 2199SOL    HW218060   0.351   0.015   7.068  1.0575  0.4074 -0.7399
 2200SOL     OW18061   3.696   2.499   3.395  0.1065 -0.3043 -0.5082
 2200SOL    HW118062   3.669   2.506   3.303 -2.6055  0.4923  0.3629
 2200SOL    HW218063   3.606   2.481   3.424  0.8893 -0.5272  1.7639
 2201SOL     OW18064   1.206   0.484   5.167 -0.0091  0.8285  0.2988
 2201SOL    HW118065   1.213   0.457   5.259 -0.9468 -0.1492  0.0806
 2201SOL    HW218066   1.285   0.537   5.160 -0.0546  0.6783 -1.3816
 2202SOL     OW18067   4.061   0.254  11.777 -0.4730 -0.0430  0.1172
 2202SOL    HW118068   4.122   0.326  11.761  0.4348 -0.3180  2.3862
 2202SOL    HW218069   4.005   0.293  11.845 -2.0943  1.1025 -1.8731
 2203SOL     OW18070   4.162   0.977   7.762  0.1264 -0.8371  0.3618
 2203SOL    HW118071   4.092   0.945   7.705  0.6945 -1.7241  0.1589
 2203SOL    HW218072   4.184   0.905   7.822  2.2759  1.1951  2.0258
 2204SOL     OW18073   2.130   3.692  12.499  0.2097  0.0779 -0.0698
 2204SOL    HW118074   2.192   3.690  12.572  0.5354 -1.7973 -0.4122
 2204SOL    HW218075   2.071   3.762  12.527 -0.9532  0.1536 -2.7286
 2205SOL     OW18076   4.366   4.065   2.494  0.0865 -0.4791  0.4575
 2205SOL    HW118077   4.460   4.073   2.511  0.0963  0.3639 -0.0109
 2205SOL    HW218078   4.369   4.089   2.402 -0.9223  0.4693  0.6713
 2206SOL     OW18079   3.023   3.568   6.373 -0.5868 -0.4166  0.4085
 2206SOL    HW118080   2.950   3.629   6.365 -0.0229  0.1441 -0.4397
 2206SOL    HW218081   3.098   3.628   6.374 -0.2467 -0.7447 -3.4915
 2207SOL     OW18082   3.128   3.668   1.851  0.1422  0.2187  0.8631
 2207SOL    HW118083   3.178   3.595   1.886 -2.8098 -1.8528  0.7838
 2207SOL    HW218084   3.195   3.718   1.804 -0.2007  1.6583  1.8969
 2208SOL     OW18085   0.227   3.340  16.320 -0.1471  0.1761  0.2728
 2208SOL    HW118086   0.141   3.372  16.348  0.4401  1.6004  0.4458
 2208SOL    HW218087   0.222   3.372  16.230 -2.5582  0.4813  0.5275
 2209SOL     OW18088   4.270   3.548   0.366 -0.1514  0.3323 -0.1990
 2209SOL    HW118089   4.356   3.565   0.404 -0.4847 -3.0052  2.0919
 2209SOL    HW218090   4.298   3.487   0.298  0.2552 -1.6706  1.7297
 2210SOL     OW18091   0.386   4.681   5.127  0.6022 -0.1185 -0.3794
 2210SOL    HW118092   0.351   4.604   5.082  1.0466 -1.5523  1.7344
 2210SOL    HW218093   0.478   4.687   5.102  0.7649  0.1072  0.2848
 2211SOL     OW18094   4.410   1.694   7.550 -0.2352 -0.1002 -0.3314
 2211SOL    HW118095   4.354   1.729   7.481  1.2037  0.3279 -1.2752
 2211SOL    HW218096   4.469   1.631   7.509  1.5358  1.9003 -0.8604
 2212SOL     OW18097   0.384   1.889   4.903 -0.1087  0.5328 -0.3124
 2212SOL    HW118098   0.348   1.965   4.857 -2.8313 -0.0929  0.7840
 2212SOL    HW218099   0.393   1.811   4.848  0.5754  0.1832  0.2922
 2213SOL     OW18100   0.113   4.575   8.521  0.1723  0.1666 -0.3843
 2213SOL    HW118101   0.188   4.540   8.472  0.7161  1.1071 -0.2353
 2213SOL    HW218102   0.107   4.528   8.603 -1.3548  0.5364 -0.2895
 2214SOL     OW18103   3.245   3.132  11.121 -0.1431  0.2927 -0.4691
 2214SOL    HW118104   3.233   3.222  11.092 -1.5252  0.6157  1.0724
 2214SOL    HW218105   3.315   3.141  11.186  1.0536 -0.5314 -1.6469
 2215SOL     OW18106   1.094   2.794  17.051 -0.3637 -0.5106  0.4346
 2215SOL    HW118107   1.124   2.759  16.967 -0.1421  0.8199 -0.0407
 2215SOL    HW218108   1.075   2.718  17.106  0.1511  0.6328  2.1738
 2216SOL     OW18109   1.545   3.188   7.841  0.0053  0.4064  0.2743
 2216SOL    HW118110   1.499   3.150   7.765 -3.1393  1.4134  1.6695
 2216SOL    HW218111   1.492   3.261   7.873  2.0963  1.2157  1.9126
 2217SOL     OW18112   1.931   2.988   9.458 -0.4058 -0.7351 -0.2600
 2217SOL    HW118113   2.012   2.959   9.416  1.3830  0.9733  2.0260
 2217SOL    HW218114   1.954   3.081   9.456 -0.7021 -0.6110  2.1743
 2218SOL     OW18115   4.432   1.338   4.210  0.4663 -0.5676  0.1279
 2218SOL    HW118116   4.478   1.421   4.203  0.6812 -0.8128 -1.3985
 2218SOL    HW218117   4.504   1.283   4.179  0.3296  0.6526 -2.2933
 2219SOL     OW18118   4.583   4.091   7.233 -0.7285 -0.3302 -0.0979
 2219SOL    HW118119   4.538   4.164   7.277 -0.2250 -0.4129  0.5560
 2219SOL    HW218120   4.540   4.100   7.148  0.1431 -0.2617 -0.5260
 2220SOL     OW18121   0.843   2.883  13.295  0.1328  0.6134  0.5748
 2220SOL    HW118122   0.766   2.900  13.349 -0.3310 -1.6793  0.6663
 2220SOL    HW218123   0.857   2.972  13.264 -2.5045  0.8515  0.1067
 2221SOL     OW18124   1.496   2.044  10.952 -0.5230 -0.1678 -0.0838
 2221SOL    HW118125   1.555   2.106  10.995  0.6178 -0.5778 -1.0762
 2221SOL    HW218126   1.421   2.104  10.958 -0.6646 -0.1748 -1.9237
 2222SOL     OW18127   1.815   0.966   7.186 -0.2554  0.7904 -0.4796
 2222SOL    HW118128   1.804   0.973   7.091  0.0982 -1.6423 -0.6851
 2222SOL    HW218129   1.854   0.880   7.197  0.4233  1.1305 -0.2693
 2223SOL     OW18130   2.423   4.231   2.331 -0.5649  0.4286  0.1940
 2223SOL    HW118131   2.389   4.294   2.267  0.1793  0.4311 -0.1980
 2223SOL    HW218132   2.467   4.292   2.391  0.7856  2.1853 -2.5734
 2224SOL     OW18133   2.594   3.584  12.170 -0.2029 -0.0677 -0.6057
 2224SOL    HW118134   2.523   3.579  12.107 -0.7064  0.3078 -0.0690
 2224SOL    HW218135   2.666   3.559  12.112  0.1775  2.2641 -1.1030
 2225SOL     OW18136   3.614   3.055  12.522  0.0633 -0.2656 -0.0079
 2225SOL    HW118137   3.542   3.081  12.464  1.0471  2.4506  0.0142
 2225SOL    HW218138   3.577   3.017  12.602  1.5933 -2.2992 -0.2625
 2226SOL     OW18139   3.068   1.967   1.118 -0.0199  0.2765  0.4733
 2226SOL    HW118140   3.112   1.931   1.196  0.2847 -0.0987  0.1244
 2226SOL    HW218141   3.120   1.934   1.045 -0.3617 -1.7740  1.1513
 2227SOL     OW18142   4.333   0.281   8.974 -0.1250  0.1123 -0.0271
 2227SOL    HW118143   4.291   0.250   8.894 -2.4487 -1.3320  1.7510
 2227SOL    HW218144   4.414   0.306   8.931 -0.4335  0.5026 -0.3825
 2228SOL     OW18145   3.125   3.018   4.063 -0.4494  0.6034 -0.9639
 2228SOL    HW118146   3.082   2.981   3.986 -1.2980 -0.5496  0.0507
 2228SOL    HW218147   3.186   2.947   4.084 -3.2622 -1.7741 -0.7501
 2229SOL     OW18148   3.445   1.432   8.765  0.1308 -0.2135 -0.2464
 2229SOL    HW118149   3.392   1.438   8.844  1.8823 -0.4326  0.9195
 2229SOL    HW218150   3.472   1.524   8.767  2.2608 -0.8846  1.4144
 2230SOL     OW18151   0.315   3.419  16.024  0.4020  0.5901  0.0796
 2230SOL    HW118152   0.247   3.484  16.007  0.7554  1.0244  0.3542
 2230SOL    HW218153   0.278   3.331  16.011  1.2808  0.4195 -1.3541
 2231SOL     OW18154   3.391   1.283   9.726 -0.2820  0.1917 -0.1356
 2231SOL    HW118155   3.337   1.349   9.683  0.8268  1.1739 -0.0241
 2231SOL    HW218156   3.332   1.254   9.796 -0.2178  2.2119  0.7537
 2232SOL     OW18157   2.424   3.613   4.347  0.4245 -0.2790  0.4113
 2232SOL    HW118158   2.334   3.628   4.318  0.6843 -0.9748 -0.7355
 2232SOL    HW218159   2.436   3.520   4.365 -0.0992 -0.4317 -0.0286
 2233SOL     OW18160   4.432   3.603   3.212 -0.0799 -0.0053 -0.2739
 2233SOL    HW118161   4.434   3.513   3.243 -0.0668  0.5410  1.3491
 2233SOL    HW218162   4.526   3.620   3.218 -0.0272 -0.2784 -0.3287
 2234SOL     OW18163   0.443   4.405   2.574  0.0118 -0.7449  0.2633
 2234SOL    HW118164   0.446   4.311   2.558  0.1337 -0.7147  0.1147
 2234SOL    HW218165   0.385   4.414   2.650  1.3112  1.0659  1.0496
 2235SOL     OW18166   2.121   4.545   5.341 -0.0403 -0.1501  0.1914
 2235SOL    HW118167   2.137   4.618   5.400 -0.1617 -0.7636  0.9854
 2235SOL    HW218168   2.208   4.504   5.344  0.5359  1.2182  1.8734
 2236SOL     OW18169   0.138   1.281   4.195 -0.1182  0.1311  0.0141
 2236SOL    HW118170   0.155   1.225   4.119 -1.3202 -1.5376  0.9651
 2236SOL    HW218171   0.168   1.218   4.260  1.0574 -1.9004 -2.5130
 2237SOL     OW18172   3.081   3.424   7.639 -0.7401  0.2780 -0.1127
 2237SOL    HW118173   3.094   3.330   7.650 -0.1366  0.3110 -0.5283
 2237SOL    HW218174   3.144   3.465   7.698  1.3773 -1.7815 -0.9653
 2238SOL     OW18175   4.420   3.023  12.001  0.9426  0.3598  0.2955
 2238SOL    HW118176   4.425   2.941  11.951  0.5495  0.4630  0.0898
 2238SOL    HW218177   4.482   3.080  11.955  1.5627 -0.5564 -0.0115
 2239SOL     OW18178   1.475   1.195  12.289  0.3637 -0.5467 -0.0318
 2239SOL    HW118179   1.426   1.141  12.227  2.0297 -2.0580 -0.0406
 2239SOL    HW218180   1.507   1.125  12.345 -0.7538 -1.5807 -0.6811
 2240SOL     OW18181   0.203   4.179   4.897 -0.1050 -0.0179  0.2986
 2240SOL    HW118182   0.164   4.209   4.815  1.8645  2.4642  0.2418
 2240SOL    HW218183   0.128   4.139   4.941 -0.3924 -1.5500 -1.5439
 2241SOL     OW18184   4.223   1.612  17.337  1.3795  0.9224 -0.4993
 2241SOL    HW118185   4.297   1.607  17.276  0.1331 -2.5783 -1.7102
 2241SOL    HW218186   4.207   1.519  17.348 -0.5116  1.5079  1.7244
 2242SOL     OW18187   2.506   0.616  17.567  0.5338 -0.6905 -0.0576
 2242SOL    HW118188   2.458   0.653  17.641 -0.5942 -1.5092 -0.3874
 2242SOL    HW218189   2.568   0.686  17.549  0.7043 -1.3527 -2.0129
 2243SOL     OW18190   2.440   3.142   3.767 -0.2454 -0.3981 -0.0449
 2243SOL    HW118191   2.461   3.235   3.782  1.2331  0.2901 -6.7372
 2243SOL    HW218192   2.511   3.103   3.718  0.6198  0.4436  0.5400
 2244SOL     OW18193   2.805   2.284  11.260  0.3090  0.0112  0.3075
 2244SOL    HW118194   2.804   2.195  11.296 -1.0164  0.2471  0.8720
 2244SOL    HW218195   2.894   2.296  11.229  0.2815 -0.0243  0.2158
 2245SOL     OW18196   0.130   0.034   3.226 -0.2220  0.2128 -0.2963
 2245SOL    HW118197   0.205   0.047   3.168 -1.1198  0.3943 -1.4238
 2245SOL    HW218198   0.066   4.711   3.174 -0.5777  1.0206 -0.5965
 2246SOL     OW18199   4.169   2.758  10.195 -0.2403 -0.3825  0.1419
 2246SOL    HW118200   4.184   2.717  10.280 -0.8061  0.5325  0.6858
 2246SOL    HW218201   4.084   2.795  10.219 -0.2922 -0.9433  0.8275
 2247SOL     OW18202   3.820   3.317   4.695  0.4874 -0.0250  0.3218
 2247SOL    HW118203   3.843   3.323   4.788  0.0337 -1.1808  0.5065
 2247SOL    HW218204   3.823   3.405   4.658  0.8211  0.1751  0.8234
 2248SOL     OW18205   1.647   0.068  14.365  0.0224  0.0951 -0.1502
 2248SOL    HW118206   1.606   0.054  14.279  0.8379  2.5939 -0.9354
 2248SOL    HW218207   1.609   0.149  14.399  1.3431 -0.1383  1.8901
 2249SOL     OW18208   1.285   2.294   4.100 -0.1061 -0.4353 -0.2776
 2249SOL    HW118209   1.236   2.258   4.174  0.2623 -0.4014 -0.0189
 2249SOL    HW218210   1.301   2.218   4.045 -0.2846 -0.0309 -0.8925
 2250SOL     OW18211   2.745   3.797   1.711  0.0673  0.2802  0.0076
 2250SOL    HW118212   2.677   3.735   1.686  0.2284  0.5038 -0.9740
 2250SOL    HW218213   2.793   3.745   1.776 -1.1076 -2.4487 -1.3182
 2251SOL     OW18214   2.673   3.454   0.756  0.0354 -0.1245  0.1843
 2251SOL    HW118215   2.635   3.411   0.833 -0.1655 -0.7956 -0.2966
 2251SOL    HW218216   2.734   3.383   0.735  1.9342  1.2312  1.0579
 2252SOL     OW18217   2.127   0.803   9.385  0.2507  0.1841 -0.1803
 2252SOL    HW118218   2.059   0.852   9.338  0.4910 -1.5093 -2.2670
 2252SOL    HW218219   2.097   0.712   9.379 -1.3950  0.6683  0.5240
 2253SOL     OW18220   2.247   0.538   2.469  0.2401  0.3892  0.0649
 2253SOL    HW118221   2.156   0.568   2.470 -0.2991 -1.2452  0.1038
 2253SOL    HW218222   2.265   0.532   2.375 -1.9388  0.6022 -0.3871
 2254SOL     OW18223   3.459   1.027   7.846  0.0130  0.2213 -0.5448
 2254SOL    HW118224   3.526   0.975   7.802 -0.9492 -1.9847  0.5597
 2254SOL    HW218225   3.414   1.055   7.766 -2.5115 -2.8921 -0.2365
 2255SOL     OW18226   3.399   1.435   1.959 -0.4834 -0.1874  0.0501
 2255SOL    HW118227   3.362   1.379   1.891  2.1781 -2.4040  0.4345
 2255SOL    HW218228   3.446   1.507   1.918 -0.0073 -0.0035  0.9173
 2256SOL     OW18229   0.022   0.377   4.125  0.0427 -0.6132 -0.3595
 2256SOL    HW118230   0.074   0.449   4.161 -1.2407 -0.6551  1.5795
 2256SOL    HW218231   4.667   0.387   4.176 -0.1826 -2.5877 -0.3236
 2257SOL     OW18232   3.824   0.624  11.221  0.2314 -0.1910  0.0869
 2257SOL    HW118233   3.920   0.631  11.216  0.1990  0.5133  0.3974
 2257SOL    HW218234   3.802   0.685  11.150 -0.1767 -0.6969 -0.2168
 2258SOL     OW18235   1.786   1.109  17.659 -0.3037  0.1979  0.1900
 2258SOL    HW118236   1.834   1.057   0.021 -0.2256  0.1259  0.0731
 2258SOL    HW218237   1.704   1.111   0.005 -0.3778  0.4216  0.0581
 2259SOL     OW18238   4.004   1.377  11.380  0.2882  0.1147 -0.0312
 2259SOL    HW118239   3.941   1.347  11.314 -0.5069  1.9530 -0.1194
 2259SOL    HW218240   4.076   1.315  11.369 -1.9414 -2.1735 -1.6598
 2260SOL     OW18241   1.730   0.345   9.496  0.5048  1.0299 -0.1330
 2260SOL    HW118242   1.805   0.389   9.537  1.3800 -0.6264  0.0668
 2260SOL    HW218243   1.747   0.251   9.505 -1.8558  0.5541 -0.7375
 2261SOL     OW18244   4.528   2.528   7.565  1.1244 -0.3493 -0.2458
 2261SOL    HW118245   4.503   2.502   7.654 -1.7720 -0.4090 -1.0602
 2261SOL    HW218246   4.540   2.438   7.532  0.4780 -0.4397 -0.2370
 2262SOL     OW18247   1.049   2.426   0.016  0.3026 -0.4120 -0.1657
 2262SOL    HW118248   1.131   2.392  17.681  0.5463 -1.2738  1.1773
 2262SOL    HW218249   1.074   2.501   0.070  2.7892  1.0533 -3.3333
 2263SOL     OW18250   1.408   4.299   5.051  0.3921 -0.5413  0.2599
 2263SOL    HW118251   1.329   4.309   4.997  0.8657  0.0677 -0.3169
 2263SOL    HW218252   1.441   4.214   5.025  1.3854  0.0395 -0.3774
 2264SOL     OW18253   0.612   2.924  11.257  0.3874  0.3869  0.0847
 2264SOL    HW118254   0.690   2.875  11.280 -0.1042 -0.1752  0.5471
 2264SOL    HW218255   0.652   3.000  11.214  1.8482 -1.5830 -2.0517
 2265SOL     OW18256   0.956   0.104   3.783  0.2932 -0.0077  0.2894
 2265SOL    HW118257   1.044   0.083   3.816  0.7524  0.2164 -0.7729
 2265SOL    HW218258   0.978   0.124   3.692  1.3251  0.5210  0.6517
 2266SOL     OW18259   3.086   1.679  11.566  0.2978 -0.6992 -0.0396
 2266SOL    HW118260   3.121   1.763  11.595 -1.1077 -1.0236  2.5722
 2266SOL    HW218261   3.158   1.655  11.508  1.1960  2.1033 -0.1000
 2267SOL     OW18262   0.833   1.799  14.293 -0.3198  0.1856  0.1848
 2267SOL    HW118263   0.865   1.709  14.297 -1.2095 -0.2368 -1.9314
 2267SOL    HW218264   0.745   1.787  14.255 -0.8367 -2.8895  2.3266
 2268SOL     OW18265   4.341   2.972   5.166  0.0686 -0.1952 -0.5008
 2268SOL    HW118266   4.383   2.960   5.251 -4.2184 -3.5356  1.1620
 2268SOL    HW218267   4.425   2.970   5.119  1.1485  0.6294  1.3792
 2269SOL     OW18268   0.471   2.234  14.173  0.6036 -0.3194  0.0108
 2269SOL    HW118269   0.510   2.154  14.209 -0.7526 -0.5934  0.8805
 2269SOL    HW218270   0.546   2.293  14.175  0.1140  0.2725  1.6324
 2270SOL     OW18271   4.398   2.900  15.604  0.1085  0.5194 -0.0367
 2270SOL    HW118272   4.470   2.891  15.540 -0.8819 -1.9437 -0.8082
 2270SOL    HW218273   4.328   2.955  15.570  0.7934 -0.0936 -2.5082
 2271SOL     OW18274   3.791   0.503   8.617  0.3197 -0.2791  0.3882
 2271SOL    HW118275   3.749   0.424   8.584 -1.0946 -0.5555  2.8761
 2271SOL    HW218276   3.775   0.495   8.711 -0.6462 -1.8531  0.0909
 2272SOL     OW18277   3.720   3.974   3.632 -0.0717  0.0976  0.1794
 2272SOL    HW118278   3.760   3.980   3.545 -1.4180  1.0639 -0.3685
 2272SOL    HW218279   3.709   4.065   3.659 -2.7596  0.0751 -0.8091
 2273SOL     OW18280   0.598   0.090   3.088  0.3232 -0.1227  0.0470
 2273SOL    HW118281   0.680   0.077   3.040  0.4467  0.0952  0.2007
 2273SOL    HW218282   0.615   0.170   3.138 -0.9218  0.6506 -0.7560
 2274SOL     OW18283   1.511   2.952   6.043 -0.1439  0.5298 -0.1312
 2274SOL    HW118284   1.496   2.917   5.955  0.2294  1.7635 -0.6961
 2274SOL    HW218285   1.491   2.872   6.091  0.1138  0.7299  0.3094
 2275SOL     OW18286   1.109   1.620   8.331 -0.0682  0.7558  0.6890
 2275SOL    HW118287   1.055   1.542   8.320  1.3544 -0.0131 -0.7303
 2275SOL    HW218288   1.158   1.595   8.409 -1.1490  3.2535  2.1744
 2276SOL     OW18289   4.466   4.454   4.167  0.2113  0.9477  0.6988
 2276SOL    HW118290   4.450   4.509   4.090  3.0528  0.5215 -0.2241
 2276SOL    HW218291   4.562   4.449   4.166  0.0804 -1.5617  0.3139
 2277SOL     OW18292   3.271   1.698   3.999  0.3518  0.0203 -0.8216
 2277SOL    HW118293   3.264   1.724   3.907 -1.1911  0.5391 -0.5467
 2277SOL    HW218294   3.362   1.729   4.007  0.5045 -0.4000 -0.9250
 2278SOL     OW18295   3.620   3.771  16.664 -0.7838  0.1270  0.4265
 2278SOL    HW118296   3.535   3.789  16.624 -0.5800 -0.6881 -0.3767
 2278SOL    HW218297   3.593   3.724  16.743 -0.8072 -0.7969 -0.1246
 2279SOL     OW18298   3.024   2.121  11.205 -0.2292  0.5190 -0.3551
 2279SOL    HW118299   2.954   2.115  11.141  0.3750  0.0487 -0.9694
 2279SOL    HW218300   3.040   2.029  11.226 -1.3903  0.9362  2.3717
 2280SOL     OW18301   3.785   3.003  14.180 -0.0071  0.2530 -0.2966
 2280SOL    HW118302   3.689   3.001  14.173  0.0441 -2.0197 -0.1547
 2280SOL    HW218303   3.794   3.014  14.275  0.4032 -0.0431 -0.3029
 2281SOL     OW18304   3.709   4.262   1.032 -0.4874 -0.3815  0.3554
 2281SOL    HW118305   3.613   4.258   1.036 -0.3235 -2.0311  2.9086
 2281SOL    HW218306   3.716   4.293   0.942 -0.1252 -1.3793  0.0396
 2282SOL     OW18307   1.422   0.881  16.110  0.0158  0.2119  0.4939
 2282SOL    HW118308   1.332   0.873  16.141  0.0116 -0.2759  0.3591
 2282SOL    HW218309   1.448   0.967  16.143 -3.1197  0.4923  2.2388
 2283SOL     OW18310   3.345   1.326   3.770  0.5379  0.0303  0.7113
 2283SOL    HW118311   3.436   1.296   3.770  0.4778 -0.1643  0.0275
 2283SOL    HW218312   3.367   1.418   3.754 -2.6517  0.5855 -0.4202
 2284SOL     OW18313   0.064   2.146  11.813  0.2616  0.0973 -0.5875
 2284SOL    HW118314   0.062   2.189  11.899  2.4431 -2.0311  0.5333
 2284SOL    HW218315   0.145   2.098  11.829  0.8635  1.1862 -0.3208
 2285SOL     OW18316   1.616   1.010   0.168  0.1188 -0.5600  0.0005
 2285SOL    HW118317   1.598   0.922   0.202 -1.5239  0.8219  2.7236
 2285SOL    HW218318   1.600   1.063   0.246 -0.4450  4.2673 -3.3869
 2286SOL     OW18319   0.236   2.023   3.305  0.0940 -0.2763  0.2229
 2286SOL    HW118320   0.153   2.071   3.300  0.5481  0.3456 -1.6029
 2286SOL    HW218321   0.244   1.983   3.218 -0.8913  0.2216 -0.1026
 2287SOL     OW18322   0.635   4.479   5.378 -0.4360 -0.0551 -0.1768
 2287SOL    HW118323   0.569   4.527   5.429  1.3505  2.4446 -0.2247
 2287SOL    HW218324   0.584   4.404   5.349  0.9944 -0.8428 -0.6530
 2288SOL     OW18325   2.198   0.497   0.165 -0.1133  0.1340 -0.1153
 2288SOL    HW118326   2.229   0.580   0.127 -2.4806  0.9292 -0.2968
 2288SOL    HW218327   2.146   0.466   0.092 -0.9474  2.5170 -0.5540
 2289SOL     OW18328   0.792   2.570   7.786  0.3411  0.2045 -0.0456
 2289SOL    HW118329   0.815   2.658   7.814 -1.1885  1.2420 -2.0955
 2289SOL    HW218330   0.696   2.573   7.780  0.3506 -0.0563 -0.3031
 2290SOL     OW18331   4.010   4.598   1.594 -0.3094 -0.0858  0.4354
 2290SOL    HW118332   4.026   4.505   1.579 -2.3185 -0.7424  2.4521
 2290SOL    HW218333   3.940   4.607   1.658  1.2012  2.0573  1.7964
 2291SOL     OW18334   1.074   0.370  13.326 -0.3497  0.2080 -0.1192
 2291SOL    HW118335   1.096   0.352  13.417 -0.3229  0.4374 -0.0789
 2291SOL    HW218336   1.137   0.309  13.288 -0.2054  0.1874  0.1533
 2292SOL     OW18337   4.439   0.785   2.346  0.4225 -0.3255 -0.6948
 2292SOL    HW118338   4.351   0.746   2.351  0.1417  0.1917 -1.7194
 2292SOL    HW218339   4.425   0.842   2.270  0.6842 -0.2072 -0.6539
 2293SOL     OW18340   0.106   2.062  15.805  0.4645  0.8063  0.1688
 2293SOL    HW118341   0.102   2.002  15.879 -1.0599 -0.8706 -1.2700
 2293SOL    HW218342   0.031   2.119  15.822  0.8991  1.5853 -0.5365
 2294SOL     OW18343   0.399   2.068  10.712 -0.2362  0.4752 -0.5464
 2294SOL    HW118344   0.454   2.040  10.785 -0.9527  0.1514 -0.1324
 2294SOL    HW218345   0.466   2.094  10.648 -0.5619  2.1021 -0.2318
 2295SOL     OW18346   1.411   2.228   8.131 -0.0014  0.5588  0.2399
 2295SOL    HW118347   1.332   2.205   8.082  0.4596  1.8763 -1.1115
 2295SOL    HW218348   1.412   2.167   8.205 -1.3667 -0.6834 -0.7526
 2296SOL     OW18349   2.464   2.694  16.147 -0.0914  0.1587 -0.0037
 2296SOL    HW118350   2.485   2.691  16.054 -0.6415  0.0529 -0.1251
 2296SOL    HW218351   2.377   2.654  16.145  0.8590 -1.8513 -0.2983
 2297SOL     OW18352   1.089   1.404   7.740 -0.1879 -0.3873 -0.5285
 2297SOL    HW118353   1.170   1.435   7.781 -1.7113  3.3713 -0.3313
 2297SOL    HW218354   1.037   1.401   7.820  0.0624 -0.2642 -0.3606
 2298SOL     OW18355   2.791   4.083   2.370  0.0156 -0.1775 -0.1884
 2298SOL    HW118356   2.787   4.017   2.300 -1.9130 -0.0734 -0.1721
 2298SOL    HW218357   2.696   4.091   2.380  0.1342  0.9351  0.1062
 2299SOL     OW18358   3.885   4.522   7.729 -0.0247  0.5252  0.0543
 2299SOL    HW118359   3.876   4.469   7.651 -1.6490  0.4621  0.2781
 2299SOL    HW218360   3.975   4.549   7.708 -0.2193  0.1018 -1.2949
 2300SOL     OW18361   4.482   0.445  14.108 -0.7744  0.7066 -0.3056
 2300SOL    HW118362   4.564   0.486  14.083 -0.5163  0.0681 -0.4943
 2300SOL    HW218363   4.428   0.520  14.134 -1.5420  0.2466 -0.5539
 2301SOL     OW18364   0.363   1.441   5.890 -0.5873  0.5607 -0.2214
 2301SOL    HW118365   0.431   1.393   5.843 -0.1131  0.3369  0.6863
 2301SOL    HW218366   0.306   1.370   5.919 -3.3988  1.8786 -2.5256
 2302SOL     OW18367   3.916   1.913  14.148  0.2350  0.6709  0.5066
 2302SOL    HW118368   3.836   1.950  14.111  0.1695 -0.7120 -0.7350
 2302SOL    HW218369   3.974   1.985  14.123  1.0619  0.9377  3.1799
 2303SOL     OW18370   4.646   4.406   7.347  0.1082  0.3245  0.0686
 2303SOL    HW118371   4.615   4.496   7.348 -0.9504 -0.0427  0.2215
 2303SOL    HW218372   4.563   4.360   7.361 -0.6652  1.7896  0.2624
 2304SOL     OW18373   0.822   4.228   7.380 -0.6480  0.0113 -0.3741
 2304SOL    HW118374   0.887   4.297   7.393  0.9718 -1.5140 -0.4565
 2304SOL    HW218375   0.819   4.187   7.466 -1.6867  0.1338 -0.3470
 2305SOL     OW18376   0.705   1.438   9.004  0.4232  0.3161 -0.2038
 2305SOL    HW118377   0.682   1.428   8.911  2.2724  0.2680 -0.6476
 2305SOL    HW218378   0.708   1.534   9.007 -0.4840  0.3372  0.2807
 2306SOL     OW18379   1.224   1.539  14.342  0.4297 -0.2802 -0.1976
 2306SOL    HW118380   1.298   1.592  14.370  1.3752  0.4245 -4.1718
 2306SOL    HW218381   1.254   1.453  14.370  0.2577 -0.1956  0.2543
 2307SOL     OW18382   3.761   2.871   6.279 -0.1046  0.1703 -0.7738
 2307SOL    HW118383   3.725   2.910   6.359 -1.3838 -0.8597 -0.8365
 2307SOL    HW218384   3.852   2.890   6.300 -1.1314  1.5547  2.4328
 2308SOL     OW18385   1.535   0.346   9.085  0.1467 -0.3381  0.0649
 2308SOL    HW118386   1.595   0.290   9.134  0.9770  0.1635 -0.3738
 2308SOL    HW218387   1.504   0.286   9.017 -1.8111  0.9644 -0.1810
 2309SOL     OW18388   4.521   3.445   1.023 -0.2043 -0.6900  0.2216
 2309SOL    HW118389   4.597   3.502   1.034 -1.0340  0.1363  1.7901
 2309SOL    HW218390   4.514   3.445   0.928  1.1372  0.6650  0.1300
 2310SOL     OW18391   3.252   1.507   6.778 -0.3102 -0.2974 -0.5072
 2310SOL    HW118392   3.222   1.455   6.852  1.3448 -1.0351 -0.3585
 2310SOL    HW218393   3.190   1.488   6.707  1.1915 -4.3034 -0.7033
 2311SOL     OW18394   3.670   3.091   1.962 -0.4357 -0.3154 -0.0140
 2311SOL    HW118395   3.628   3.176   1.971 -2.1259 -1.2430  0.8876
 2311SOL    HW218396   3.743   3.098   2.023  0.4924 -1.9197 -0.9369
 2312SOL     OW18397   1.007   1.428  13.986  0.3259  0.1834 -0.0385
 2312SOL    HW118398   0.992   1.510  13.939  2.1233 -1.6225 -3.7475
 2312SOL    HW218399   0.916   1.400  14.000  1.1920 -2.4657  0.3072
 2313SOL     OW18400   1.128   3.149   3.185  0.3055 -0.2930  0.1462
 2313SOL    HW118401   1.188   3.216   3.218 -1.3962  1.0344  0.5702
 2313SOL    HW218402   1.053   3.207   3.196 -0.0565 -1.2615  2.7982
 2314SOL     OW18403   1.806   1.052   3.352  0.2011 -0.0631 -0.2595
 2314SOL    HW118404   1.812   1.147   3.338  3.0394 -0.0095  1.3392
 2314SOL    HW218405   1.864   1.020   3.283  0.2525 -0.3096 -0.1019
 2315SOL     OW18406   3.982   2.662   7.948 -0.4890  0.4156  0.2577
 2315SOL    HW118407   4.015   2.582   7.908 -0.5947  1.3246 -1.6505
 2315SOL    HW218408   4.061   2.708   7.978  0.7895 -0.7261 -1.3784
 2316SOL     OW18409   3.266   0.050   3.351  0.0457 -0.3066 -0.0522
 2316SOL    HW118410   3.252   4.712   3.281  1.8156 -0.1936 -0.5045
 2316SOL    HW218411   3.183   0.072   3.393  0.3272  0.5347  0.0602
 2317SOL     OW18412   3.594   1.354  16.771 -0.2255 -0.5715  0.6577
 2317SOL    HW118413   3.661   1.366  16.839 -0.7768  0.0577  1.0829
 2317SOL    HW218414   3.640   1.389  16.694 -0.3506 -0.8224  0.4688
 2318SOL     OW18415   0.443   0.567   9.341 -0.2022  1.1014 -0.2311
 2318SOL    HW118416   0.522   0.535   9.296 -0.6288  1.1746 -1.0247
 2318SOL    HW218417   0.493   0.631   9.392 -0.0394  0.9372 -0.1861
 2319SOL     OW18418   0.350   0.419   1.072  0.0197 -0.8543 -0.0758
 2319SOL    HW118419   0.319   0.348   1.129  1.8180 -0.5038  1.3030
 2319SOL    HW218420   0.400   0.467   1.137 -0.7146 -0.2497  0.0376
 2320SOL     OW18421   3.416   3.825   5.789 -0.1690  0.5716  0.2501
 2320SOL    HW118422   3.509   3.846   5.783  0.4024 -1.9627  0.3956
 2320SOL    HW218423   3.396   3.844   5.881  2.2142 -2.4774  1.3929
 2321SOL     OW18424   1.850   1.851  14.105 -0.4763  0.0614 -0.3846
 2321SOL    HW118425   1.777   1.791  14.120  1.0348 -1.6042  0.2442
 2321SOL    HW218426   1.808   1.936  14.115  0.0798  0.2675  0.1721
 2322SOL     OW18427   4.420   3.415   6.609  0.2136 -0.2431 -0.0188
 2322SOL    HW118428   4.343   3.420   6.664  1.4079  3.3522  1.3174
 2322SOL    HW218429   4.485   3.461   6.662 -0.5116  0.9998 -0.2228
 2323SOL     OW18430   4.134   0.459  12.074  0.0273  0.3007 -0.6131
 2323SOL    HW118431   4.212   0.409  12.050  0.5130  1.3020 -1.1101
 2323SOL    HW218432   4.070   0.412  12.021  0.8815 -2.7851  1.1011
 2324SOL     OW18433   0.473   1.016   3.855  0.1930  0.2675  0.6501
 2324SOL    HW118434   0.493   1.110   3.860 -0.8688  0.5186  0.1562
 2324SOL    HW218435   0.561   0.981   3.869 -0.4332 -1.0332  1.2499
 2325SOL     OW18436   2.959   3.563   3.771 -0.6742 -0.1623  0.8189
 2325SOL    HW118437   2.883   3.552   3.713  0.9293  1.4371 -1.5413
 2325SOL    HW218438   2.931   3.623   3.840 -0.1453  0.8563  0.1516
 2326SOL     OW18439   4.061   1.301   0.015 -0.0913 -0.4104 -0.2031
 2326SOL    HW118440   4.134   1.363   0.016 -1.4033  1.0879  2.6097
 2326SOL    HW218441   4.096   1.214   0.030 -0.8447 -0.6699  0.0341
 2327SOL     OW18442   0.546   2.048  14.992  0.0116  0.1636 -0.2902
 2327SOL    HW118443   0.591   2.090  14.919  0.6139  0.9299  0.5193
 2327SOL    HW218444   0.458   2.032  14.960 -0.7590  2.9303  0.4754
 2328SOL     OW18445   3.887   2.077   8.310  0.4556  0.3590 -0.0963
 2328SOL    HW118446   3.976   2.110   8.304 -0.0051  1.2178 -2.3216
 2328SOL    HW218447   3.839   2.157   8.333 -1.0188 -0.0099 -1.8448
 2329SOL     OW18448   3.088   1.959   0.694  0.1664  0.3471 -0.3202
 2329SOL    HW118449   3.128   1.975   0.779  0.9677 -1.1916 -0.4078
 2329SOL    HW218450   3.017   2.019   0.717 -1.5972 -0.9304 -2.3998
 2330SOL     OW18451   1.157   0.768  12.024 -0.3641 -0.0904  0.8141
 2330SOL    HW118452   1.240   0.794  12.065 -0.4002  0.5017  0.5164
 2330SOL    HW218453   1.097   0.843  12.027 -0.5238 -0.0474 -3.6179
 2331SOL     OW18454   1.500   1.508   8.648  0.2453  0.6293  0.4426
 2331SOL    HW118455   1.445   1.544   8.718 -3.9291 -0.0305 -2.4385
 2331SOL    HW218456   1.563   1.451   8.691  0.9934  0.8256 -0.3868
 2332SOL     OW18457   3.946   1.512   9.428  0.0356 -0.3872 -0.3005
 2332SOL    HW118458   3.969   1.460   9.506 -2.0742  0.8909  1.1793
 2332SOL    HW218459   4.010   1.466   9.373 -1.0117 -3.0323  0.6669
 2333SOL     OW18460   4.367   1.607   4.787 -0.0489 -0.2201  0.0437
 2333SOL    HW118461   4.394   1.576   4.873 -0.8146  0.4913  0.5343
 2333SOL    HW218462   4.325   1.690   4.806 -1.0445 -0.6693 -0.2136
 2334SOL     OW18463   4.600   3.054   7.088 -0.8764  0.5335  0.2198
 2334SOL    HW118464   4.518   3.092   7.056  0.3401  2.5629 -0.5000
 2334SOL    HW218465   4.594   3.062   7.183 -2.5508  1.2452  0.0544
 2335SOL     OW18466   4.618   3.937  13.071  0.2402  0.1715  0.6743
 2335SOL    HW118467   4.657   3.931  12.983 -1.0676  0.3168  0.0833
 2335SOL    HW218468   4.526   3.958  13.053  1.1713  2.5883 -1.3371
 2336SOL     OW18469   4.675   3.516  15.004 -0.1687 -0.0103 -0.1450
 2336SOL    HW118470   4.657   3.442  14.946 -0.3053 -1.0343  1.1939
 2336SOL    HW218471   0.044   3.517  14.989  0.1993  1.3091  2.3239
 2337SOL     OW18472   1.971   4.601  16.167 -0.0314 -0.4115  0.8474
 2337SOL    HW118473   2.053   4.650  16.165  0.7962 -1.8234 -0.1790
 2337SOL    HW218474   1.969   4.574  16.075 -2.3288  2.5848 -0.0143
 2338SOL     OW18475   2.084   1.453   7.106  0.7220 -0.0409  0.2564
 2338SOL    HW118476   2.146   1.404   7.160  0.5401  2.2827  2.5829
 2338SOL    HW218477   2.013   1.392   7.124 -0.0939  0.6882 -0.4831
 2339SOL     OW18478   4.405   1.064   9.403 -0.1527  0.0327  0.6307
 2339SOL    HW118479   4.442   0.998   9.462  2.1399 -0.5446 -1.4185
 2339SOL    HW218480   4.467   1.137   9.407 -0.6568  0.6719 -2.7453
 2340SOL     OW18481   1.935   2.592  11.870 -0.3671 -0.3341 -0.4235
 2340SOL    HW118482   1.915   2.684  11.884 -1.9649 -0.6565 -0.6397
 2340SOL    HW218483   1.929   2.565  11.962 -0.9435  2.3796  0.3345
 2341SOL     OW18484   3.875   0.916   5.886 -0.4324  0.1604  0.8117
 2341SOL    HW118485   3.896   1.004   5.916  0.2842  0.0580  0.6034
 2341SOL    HW218486   3.925   0.907   5.806 -2.1788 -0.6452 -0.1936
 2342SOL     OW18487   0.334   2.201   2.623  0.0571 -0.3818 -0.6133
 2342SOL    HW118488   0.419   2.242   2.605  0.2884 -0.9436 -0.8151
 2342SOL    HW218489   0.312   2.162   2.538 -1.1315  0.0773 -0.5067
 2343SOL     OW18490   0.315   3.113   7.649  0.0372  0.4090  0.3916
 2343SOL    HW118491   0.255   3.074   7.713  1.1050  0.2400  1.2958
 2343SOL    HW218492   0.383   3.143   7.709  0.1193 -0.4774  0.7479
 2344SOL     OW18493   3.405   2.458   7.575 -0.0431  0.1555 -0.1104
 2344SOL    HW118494   3.340   2.390   7.591  2.0001 -1.9391 -0.7342
 2344SOL    HW218495   3.391   2.527   7.640 -2.2756 -0.9091  0.5404
 2345SOL     OW18496   0.915   3.611   2.835  0.9221 -0.0686  0.3650
 2345SOL    HW118497   0.976   3.643   2.768 -1.6396 -0.6355 -2.2280
 2345SOL    HW218498   0.874   3.548   2.776 -0.8416  1.3053  0.1489
 2346SOL     OW18499   2.837   0.939   7.592  0.4612 -0.0265  0.5038
 2346SOL    HW118500   2.814   1.001   7.661  2.4959  1.3782 -0.0848
 2346SOL    HW218501   2.823   0.862   7.647  0.0673 -0.8656 -0.7588
 2347SOL     OW18502   2.192   0.532  13.608 -0.6605 -0.1824  0.2686
 2347SOL    HW118503   2.281   0.535  13.644 -0.7785  0.2697  0.5229
 2347SOL    HW218504   2.151   0.527  13.695 -0.9758 -0.1678  0.1229
 2348SOL     OW18505   0.156   1.651   6.916 -0.0265 -0.2045 -0.2760
 2348SOL    HW118506   0.156   1.636   7.011 -0.7582  0.7807 -0.1253
 2348SOL    HW218507   0.071   1.613   6.894  0.1155  1.1366 -3.1489
 2349SOL     OW18508   1.635   0.703  16.105  0.3552  0.2422  0.1077
 2349SOL    HW118509   1.720   0.738  16.078 -1.0096  1.1405 -2.9748
 2349SOL    HW218510   1.569   0.771  16.091  0.3023  0.3593  0.9067
 2350SOL     OW18511   1.937   4.575   7.897  0.0522  0.3531  0.3925
 2350SOL    HW118512   2.019   4.548   7.856  0.0996  0.2011  0.5834
 2350SOL    HW218513   1.940   4.509   7.967  2.0020 -1.7046 -1.6499
 2351SOL     OW18514   1.723   1.569   2.298  0.0800 -0.8460  0.1409
 2351SOL    HW118515   1.637   1.610   2.307 -1.0116 -2.6499 -2.0231
 2351SOL    HW218516   1.701   1.477   2.317  0.5855 -1.1645 -0.8515
 2352SOL     OW18517   2.468   2.777   8.485 -0.3726  0.6081 -0.0024
 2352SOL    HW118518   2.545   2.741   8.530 -0.4747  1.1204  0.5757
 2352SOL    HW218519   2.474   2.717   8.410  0.5098 -0.1860  0.7018
 2353SOL     OW18520   4.246   3.968   4.416 -0.3323 -0.5110  0.2430
 2353SOL    HW118521   4.300   4.021   4.357 -2.9094  2.1785  0.3077
 2353SOL    HW218522   4.301   3.890   4.427  1.1998  0.2613 -1.8046
 2354SOL     OW18523   3.376   4.118   4.242 -0.6614 -0.6296 -0.2814
 2354SOL    HW118524   3.447   4.069   4.283 -0.2884  0.2863  0.1793
 2354SOL    HW218525   3.437   4.186   4.213 -0.1354 -1.3515 -0.8394
 2355SOL     OW18526   3.159   0.442   1.594  0.3893  0.0104 -0.1609
 2355SOL    HW118527   3.233   0.395   1.632  0.1832  0.4246  0.7443
 2355SOL    HW218528   3.155   0.521   1.648 -0.7295  0.1034 -0.3725
 2356SOL     OW18529   4.368   3.117   8.071  0.1998  0.6344 -0.0232
 2356SOL    HW118530   4.458   3.092   8.091 -0.6579 -1.7078  0.9240
 2356SOL    HW218531   4.310   3.070   8.131 -1.7461  2.9928 -0.0583
 2357SOL     OW18532   1.250   1.407   7.521 -0.3235 -0.1020  0.1292
 2357SOL    HW118533   1.198   1.414   7.601 -0.5250 -2.5258  0.1823
 2357SOL    HW218534   1.224   1.485   7.471 -2.9520 -1.4136 -0.5150
 2358SOL     OW18535   3.008   1.743   8.086 -0.2733 -0.0908 -0.2127
 2358SOL    HW118536   2.953   1.671   8.055 -0.0747  0.2407 -1.3347
 2358SOL    HW218537   3.063   1.698   8.150 -0.5690 -0.1471  0.0006
 2359SOL     OW18538   2.584   4.448  14.023 -0.3205  0.2684 -0.4798
 2359SOL    HW118539   2.586   4.491  14.109 -2.5823 -0.9636  0.1815
 2359SOL    HW218540   2.539   4.368  14.049 -0.6724 -0.3990 -3.2247
 2360SOL     OW18541   1.679   3.982   5.176 -0.5732 -0.5089  0.1505
 2360SOL    HW118542   1.770   3.956   5.160 -0.3871 -0.4140  1.0850
 2360SOL    HW218543   1.694   4.071   5.207 -2.4577  0.5981 -2.0580
 2361SOL     OW18544   0.514   3.752   7.734 -0.0627 -0.2099 -0.2892
 2361SOL    HW118545   0.458   3.818   7.775 -0.0381 -0.3222 -0.0722
 2361SOL    HW218546   0.480   3.672   7.774  0.5429 -0.2874  0.0742
 2362SOL     OW18547   3.707   3.858   5.778 -0.0839  0.0868 -0.2515
 2362SOL    HW118548   3.741   3.784   5.828  0.3198 -0.4205 -1.2623
 2362SOL    HW218549   3.723   3.816   5.693 -0.5893 -0.3326 -0.1329
 2363SOL     OW18550   1.616   1.455   7.644  0.5244  0.6042 -0.4463
 2363SOL    HW118551   1.569   1.372   7.642  0.9662  0.3427 -0.0865
 2363SOL    HW218552   1.546   1.514   7.671  0.3968  0.1308  0.2572
 2364SOL     OW18553   2.084   0.498   6.619 -0.0726 -0.0912  0.1672
 2364SOL    HW118554   2.060   0.537   6.535 -2.5413  0.3612  1.0636
 2364SOL    HW218555   1.998   0.510   6.661 -0.6518 -1.5570 -0.5852
 2365SOL     OW18556   0.013   0.759  15.967 -0.1708 -0.0847  0.0275
 2365SOL    HW118557   0.099   0.724  15.944  0.8397  2.1817  0.3017
 2365SOL    HW218558   0.015   0.763  16.063  0.6085  2.4937 -0.0962
 2366SOL     OW18559   2.282   3.270  13.573 -0.0342 -0.5393  0.5874
 2366SOL    HW118560   2.338   3.193  13.563 -0.0756 -0.7985  2.3080
 2366SOL    HW218561   2.321   3.323  13.504 -0.3502  1.0692  1.6409
 2367SOL     OW18562   3.624   4.523   5.381  0.0556  0.4392 -0.5659
 2367SOL    HW118563   3.591   4.477   5.304 -0.6490 -1.4706  0.8537
 2367SOL    HW218564   3.708   4.553   5.348  0.7126 -0.4735  0.2926
 2368SOL     OW18565   2.115   1.053   8.170 -0.3884  0.1786  0.4107
 2368SOL    HW118566   2.127   1.096   8.086 -2.0113  0.8672  0.5283
 2368SOL    HW218567   2.168   0.975   8.151  1.1128  1.2800  0.1089
 2369SOL     OW18568   0.776   4.540  13.401  0.3023 -0.2450  0.0485
 2369SOL    HW118569   0.743   4.582  13.322  1.9269 -1.3084 -1.1840
 2369SOL    HW218570   0.865   4.528  13.369  0.0686 -4.0215  0.7788
 2370SOL     OW18571   3.665   2.398   4.744 -0.3336 -0.1472 -0.3134
 2370SOL    HW118572   3.665   2.319   4.690 -0.1663 -0.1094 -0.3704
 2370SOL    HW218573   3.740   2.437   4.699 -1.2212 -0.2360 -1.8669
 2371SOL     OW18574   4.431   1.804  12.953  0.2539 -0.1339 -0.3235
 2371SOL    HW118575   4.388   1.819  12.869  0.5102 -0.2155 -0.4707
 2371SOL    HW218576   4.387   1.724  12.981  2.2476 -0.9222  0.5631
 2372SOL     OW18577   2.963   0.477   5.295 -0.0400 -0.1498  0.1072
 2372SOL    HW118578   2.983   0.545   5.360 -0.4294 -0.7381  0.8340
 2372SOL    HW218579   2.989   0.398   5.342  0.0391 -1.9925 -3.0862
 2373SOL     OW18580   1.781   1.830   0.377 -0.0961  0.6518  0.3691
 2373SOL    HW118581   1.700   1.826   0.427 -0.6271  1.1919 -0.4583
 2373SOL    HW218582   1.777   1.921   0.348  1.1093  0.9968  1.2488
 2374SOL     OW18583   3.625   0.824   8.097 -0.5046  0.2469 -0.2411
 2374SOL    HW118584   3.696   0.869   8.052 -0.1406 -1.3995 -1.2921
 2374SOL    HW218585   3.635   0.877   8.176 -0.9915  0.4580 -0.3181
 2375SOL     OW18586   1.719   1.409   5.248 -0.2508 -0.6395  0.0331
 2375SOL    HW118587   1.638   1.395   5.198  0.5459  2.5582 -2.1425
 2375SOL    HW218588   1.781   1.406   5.174 -1.6087 -2.0188 -1.0558
 2376SOL     OW18589   3.355   3.041  12.761 -0.0710 -0.0210  0.0242
 2376SOL    HW118590   3.288   3.086  12.812 -1.4239 -2.2891  0.2319
 2376SOL    HW218591   3.327   2.950  12.751  3.0113 -0.7262 -2.6225
 2377SOL     OW18592   2.126   2.756   8.809 -0.6959 -0.3417  0.8980
 2377SOL    HW118593   2.195   2.720   8.753 -1.8020 -0.4839 -0.3721
 2377SOL    HW218594   2.082   2.812   8.745  2.1756  1.0740  0.1723
 2378SOL     OW18595   4.604   1.456   6.084  0.1752  0.3357 -0.4992
 2378SOL    HW118596   4.577   1.525   6.145  0.4146  0.5150 -0.5964
 2378SOL    HW218597   4.650   1.402   6.149  1.5311  1.7836 -0.2498
 2379SOL     OW18598   3.028   2.940  17.069 -0.4909 -0.3892 -0.2014
 2379SOL    HW118599   3.033   2.869  17.005 -0.6079 -0.3132 -0.2959
 2379SOL    HW218600   3.120   2.945  17.095 -0.0876 -2.0472 -1.3060
 2380SOL     OW18601   1.687   2.094   4.413 -0.0024  0.2007  0.2813
 2380SOL    HW118602   1.722   2.141   4.489  1.2194 -0.6785  0.2672
 2380SOL    HW218603   1.762   2.093   4.353 -0.0164 -1.9323  0.3022
 2381SOL     OW18604   0.946   2.664   9.313  0.4441 -0.1289  0.0471
 2381SOL    HW118605   0.922   2.594   9.374 -0.6155  0.5211  0.3808
 2381SOL    HW218606   0.916   2.618   9.234  1.2618  0.9842 -0.9184
 2382SOL     OW18607   4.281   4.451   6.363  0.3013  0.3486 -0.2786
 2382SOL    HW118608   4.369   4.444   6.399 -0.3469  0.6304  1.3411
 2382SOL    HW218609   4.302   4.532   6.317 -0.6629 -0.6523 -2.4849
 2383SOL     OW18610   2.759   3.075   7.309 -0.0126  0.0704  0.8258
 2383SOL    HW118611   2.803   3.031   7.236  0.1908 -1.4452  1.8535
 2383SOL    HW218612   2.698   3.008   7.339 -1.2907  0.7713 -0.2588
 2384SOL     OW18613   3.596   2.537   8.781 -0.2017  0.3693 -0.3361
 2384SOL    HW118614   3.640   2.459   8.815 -0.8944  0.7546  1.4547
 2384SOL    HW218615   3.507   2.502   8.777 -0.5398  1.2399 -0.3706
 2385SOL     OW18616   4.576   4.235   8.693 -0.2526  0.0042 -0.2809
 2385SOL    HW118617   4.552   4.143   8.679  2.2585 -0.9668  1.8125
 2385SOL    HW218618   4.508   4.263   8.755 -0.4284 -0.4366 -0.2742
 2386SOL     OW18619   1.317   0.992  14.831 -0.1208  0.1920  0.4181
 2386SOL    HW118620   1.291   1.008  14.922 -0.1367 -0.1801  0.4817
 2386SOL    HW218621   1.412   1.001  14.820  0.1559 -3.1392  0.0084
 2387SOL     OW18622   4.459   4.359   7.837 -1.0930  0.3238 -0.3511
 2387SOL    HW118623   4.470   4.301   7.762 -2.8366  1.1338 -1.2189
 2387SOL    HW218624   4.484   4.302   7.910 -1.0319 -1.3754 -1.6969
 2388SOL     OW18625   4.476   1.903   8.165  0.5285  0.3624 -0.8062
 2388SOL    HW118626   4.546   1.916   8.229 -0.9595 -0.9990  1.1220
 2388SOL    HW218627   4.529   1.883   8.088  0.8055 -2.5191  0.1266
 2389SOL     OW18628   4.627   1.213   9.461  0.1880  0.0611 -0.2780
 2389SOL    HW118629   4.693   1.195   9.395  0.1135  1.8701 -0.8453
 2389SOL    HW218630   4.687   1.206   9.536 -1.6284 -2.3958  0.9160
 2390SOL     OW18631   2.574   2.436  17.107 -0.1940  0.4556 -0.3929
 2390SOL    HW118632   2.488   2.426  17.066 -1.0725  1.9430  1.0871
 2390SOL    HW218633   2.642   2.412  17.042  2.7392 -0.0064  2.8510
 2391SOL     OW18634   4.396   0.167   2.759  0.2726 -0.0391 -0.2775
 2391SOL    HW118635   4.342   0.113   2.701  0.8546 -0.4673 -0.4190
 2391SOL    HW218636   4.438   0.223   2.694 -1.4734 -0.1523 -1.5055
 2392SOL     OW18637   1.675   1.243   2.926 -0.6011  0.6250 -0.4705
 2392SOL    HW118638   1.743   1.183   2.897 -1.2588 -0.0105 -0.7095
 2392SOL    HW218639   1.623   1.197   2.992  0.7510 -2.0407 -1.2878
 2393SOL     OW18640   1.552   2.271   0.971  0.0612  0.2323  0.3106
 2393SOL    HW118641   1.603   2.350   0.957  0.2686 -0.1517 -1.1840
 2393SOL    HW218642   1.534   2.272   1.065 -1.1473  0.9568  0.0744
 2394SOL     OW18643   0.429   2.373  14.442  0.2110  0.2723  0.7305
 2394SOL    HW118644   0.418   2.287  14.484  2.1726  0.5961  1.9070
 2394SOL    HW218645   0.384   2.359  14.359 -0.4276  0.4340  1.0473
 2395SOL     OW18646   2.422   0.056   1.958  0.0477 -0.4930  0.2114
 2395SOL    HW118647   2.466   4.707   1.999 -0.9847  1.3240  4.5222
 2395SOL    HW218648   2.482   0.099   1.896 -0.2463  1.3111  1.1741
 2396SOL     OW18649   1.674   0.495  11.939 -0.3055  0.2010 -0.2819
 2396SOL    HW118650   1.717   0.581  11.934  0.0167 -0.2120 -4.1130
 2396SOL    HW218651   1.596   0.519  11.888 -0.9821 -1.3338  0.0488
 2397SOL     OW18652   3.659   4.618   1.323 -0.1711  0.1846  0.6854
 2397SOL    HW118653   3.679   4.666   1.404 -1.2279  1.1576  0.3554
 2397SOL    HW218654   3.690   4.532   1.354 -1.8197 -0.3512  0.8378
 2398SOL     OW18655   2.028   1.621   4.033 -0.1136 -0.6534 -0.0776
 2398SOL    HW118656   1.983   1.655   3.955 -0.8082  0.6560  0.8886
 2398SOL    HW218657   2.075   1.702   4.056 -1.6803  1.0025 -2.7166
 2399SOL     OW18658   3.002   0.981   7.397 -0.0833  0.2672 -0.4773
 2399SOL    HW118659   3.054   1.036   7.456 -2.1101 -0.1192  1.6473
 2399SOL    HW218660   2.926   0.977   7.455  0.6376 -0.3824  0.4283
 2400SOL     OW18661   0.440   1.086  15.106 -0.2804 -0.6349 -0.3712
 2400SOL    HW118662   0.425   1.002  15.065  3.5119 -1.8070  0.6356
 2400SOL    HW218663   0.535   1.090  15.117 -0.4041  0.5733  0.3078
 2401SOL     OW18664   3.259   3.317   8.752 -0.0129  0.6135  0.1311
 2401SOL    HW118665   3.200   3.311   8.827  0.5101  1.6671  0.6319
 2401SOL    HW218666   3.287   3.408   8.764  1.8980  0.0584 -0.1458
 2402SOL     OW18667   3.865   0.671   2.948  0.1759  0.3614  0.1728
 2402SOL    HW118668   3.897   0.752   2.907 -1.9689  0.9437 -0.3532
 2402SOL    HW218669   3.835   0.625   2.869  2.3328  0.4895 -0.7055
 2403SOL     OW18670   2.044   0.276   0.972 -0.2406  0.0470  0.4362
 2403SOL    HW118671   2.108   0.234   1.030  0.9639 -0.9922 -1.6660
 2403SOL    HW218672   1.999   0.195   0.949  0.1403  0.2893 -1.1018
 2404SOL     OW18673   0.798   4.611   9.350  0.3652  0.7345 -0.5061
 2404SOL    HW118674   0.867   4.545   9.356  0.7582  1.1046 -1.0126
 2404SOL    HW218675   0.716   4.566   9.373  0.0112  1.9777  0.6342
 2405SOL     OW18676   3.154   0.088   5.195 -0.5292  0.5382 -0.6736
 2405SOL    HW118677   3.234   0.114   5.149 -0.1711  0.5845 -0.0245
 2405SOL    HW218678   3.146   4.719   5.178  4.4875 -0.0865  0.3834
 2406SOL     OW18679   2.058   2.913   8.602 -0.1658  0.2156  0.4780
 2406SOL    HW118680   2.042   3.007   8.593  2.5107  0.6628  0.3876
 2406SOL    HW218681   2.148   2.914   8.569 -0.8254  1.2592 -1.2774
 2407SOL     OW18682   4.240   4.673   2.007  0.5363  0.2384 -0.2124
 2407SOL    HW118683   4.235   4.577   2.007  0.8618  0.2219 -0.2162
 2407SOL    HW218684   4.282   4.696   2.089 -0.6904  0.5340  0.3346
 2408SOL     OW18685   1.016   2.878  10.483 -0.0404  0.2599 -0.0604
 2408SOL    HW118686   1.088   2.940  10.492  1.7460 -1.6077 -1.3816
 2408SOL    HW218687   0.959   2.930  10.425 -0.4432 -1.7227 -1.4630
 2409SOL     OW18688   3.180   3.981   5.708 -0.3605 -0.1777  0.3716
 2409SOL    HW118689   3.250   4.046   5.702 -0.3428 -0.1785  0.5799
 2409SOL    HW218690   3.227   3.897   5.713 -1.5394 -0.7558  1.8110
 2410SOL     OW18691   2.965   4.309   8.041 -0.3950 -0.6103  0.0240
 2410SOL    HW118692   2.997   4.234   8.091 -0.6962  0.3738  1.7096
 2410SOL    HW218693   2.935   4.361   8.116 -2.2349 -0.7781 -0.5884
 2411SOL     OW18694   4.273   3.242   1.643 -0.1822 -0.8203 -0.1456
 2411SOL    HW118695   4.348   3.301   1.658 -1.5459  0.5722  1.2208
 2411SOL    HW218696   4.208   3.266   1.710  0.2994 -0.2159  0.1150
 2412SOL     OW18697   1.472   1.991   5.543 -0.2221  0.0213  0.3240
 2412SOL    HW118698   1.512   2.068   5.583 -0.5049  0.0676  0.5194
 2412SOL    HW218699   1.386   1.993   5.587 -0.4260  1.1267 -0.1436
 2413SOL     OW18700   0.347   0.103  17.648  0.1038  0.6960 -0.0458
 2413SOL    HW118701   0.304   0.037   0.001  0.5438  2.3327  2.2939
 2413SOL    HW218702   0.371   0.061  17.566 -1.1998  0.2334 -0.1897
 2414SOL     OW18703   1.444   2.200   7.736 -0.6354 -0.5502  0.0116
 2414SOL    HW118704   1.403   2.277   7.776  1.1195  0.6862 -0.5997
 2414SOL    HW218705   1.419   2.217   7.645  1.3740 -1.9544 -0.8197
 2415SOL     OW18706   1.277   2.479  13.681  0.5882  0.7047 -0.0107
 2415SOL    HW118707   1.229   2.555  13.651 -1.6261 -0.5433  0.3350
 2415SOL    HW218708   1.223   2.468  13.760  0.5121 -2.3958 -0.5024
 2416SOL     OW18709   2.069   2.450  11.509 -0.7502 -0.2653  0.5332
 2416SOL    HW118710   2.005   2.422  11.574  1.9505 -0.7519  3.0166
 2416SOL    HW218711   2.141   2.489  11.559 -1.0704  1.0728 -0.0499
 2417SOL     OW18712   0.336   0.879   6.543  0.5388  0.0078 -0.4112
 2417SOL    HW118713   0.258   0.875   6.488  0.0841  0.7119  0.1810
 2417SOL    HW218714   0.339   0.788   6.572  0.6500 -0.1771 -1.0186
 2418SOL     OW18715   1.581   3.461   8.255  0.5415 -0.0519  0.0864
 2418SOL    HW118716   1.537   3.390   8.301  1.4073 -0.0166  0.9628
 2418SOL    HW218717   1.508   3.523   8.268  0.7686  0.5535 -1.5297
 2419SOL     OW18718   2.906   2.475   9.521  0.8067 -0.0801  0.5016
 2419SOL    HW118719   2.936   2.421   9.593 -0.4809  2.2963  2.8139
 2419SOL    HW218720   2.995   2.490   9.488  0.4225 -0.5198 -0.7447
 2420SOL     OW18721   3.441   3.588   5.665 -0.4478 -0.0746  0.0624
 2420SOL    HW118722   3.356   3.552   5.689 -0.0637 -1.2182 -0.2953
 2420SOL    HW218723   3.442   3.668   5.716  1.9618 -1.0385  1.5310
 2421SOL     OW18724   0.315   0.548   2.075  0.1045 -0.1365  0.2134
 2421SOL    HW118725   0.276   0.588   2.152 -0.7974 -0.4338 -0.0893
 2421SOL    HW218726   0.282   0.610   2.010  2.3700 -1.3148 -2.0766
 2422SOL     OW18727   0.723   3.140   4.362 -0.1052  0.1305  0.2273
 2422SOL    HW118728   0.784   3.211   4.382  1.2894 -0.7869 -0.6973
 2422SOL    HW218729   0.729   3.069   4.426  2.9759 -2.0460 -2.4665
 2423SOL     OW18730   0.609   0.518  14.785  0.1455 -0.0064  0.3044
 2423SOL    HW118731   0.654   0.600  14.767 -0.8725  0.2583 -0.9761
 2423SOL    HW218732   0.667   0.456  14.741 -0.4803  1.1807 -2.1471
 2424SOL     OW18733   2.326   0.847  16.403 -0.5888  0.5029 -0.5147
 2424SOL    HW118734   2.299   0.899  16.479  2.1414 -0.8681  1.3745
 2424SOL    HW218735   2.366   0.917  16.351 -0.8120  1.1144  0.1294
 2425SOL     OW18736   3.636   2.141  14.784 -0.7080 -0.2864 -0.3970
 2425SOL    HW118737   3.588   2.059  14.769  1.0332 -1.2765 -0.6295
 2425SOL    HW218738   3.683   2.151  14.701 -2.4384  0.1047 -1.3387
 2426SOL     OW18739   2.510   2.531   7.127 -0.1669 -0.3675 -0.3895
 2426SOL    HW118740   2.511   2.578   7.043  1.1975 -0.5370 -0.4651
 2426SOL    HW218741   2.470   2.598   7.182  1.4166  0.6375 -0.4496
 2427SOL     OW18742   0.017   1.581   8.510 -0.2868  0.1184 -0.1665
 2427SOL    HW118743   0.090   1.588   8.571 -3.0302  0.6752  3.0252
 2427SOL    HW218744   0.051   1.634   8.438  0.7712 -1.5169 -0.8879
 2428SOL     OW18745   2.302   1.620   7.711 -0.0930  0.0847  0.3602
 2428SOL    HW118746   2.273   1.538   7.751  1.9479  0.3018  2.2893
 2428SOL    HW218747   2.249   1.681   7.762  0.9240  2.2512 -1.1876
 2429SOL     OW18748   2.565   3.468   6.159  0.6272 -0.7182  0.1715
 2429SOL    HW118749   2.587   3.491   6.249  1.9810 -0.2287 -0.2875
 2429SOL    HW218750   2.593   3.377   6.165 -0.2978 -1.0976 -1.3413
 2430SOL     OW18751   0.501   3.679   9.084 -0.0664 -0.1428 -0.1555
 2430SOL    HW118752   0.473   3.592   9.114  2.3252 -0.1908  1.9501
 2430SOL    HW218753   0.420   3.730   9.083 -0.6704 -1.0519  1.5680
 2431SOL     OW18754   0.282   3.983   7.211 -0.3444 -0.0687  0.1029
 2431SOL    HW118755   0.253   3.954   7.297  1.2129  0.8047  0.9193
 2431SOL    HW218756   0.216   4.047   7.186 -0.5403 -0.5451 -0.6007
 2432SOL     OW18757   2.760   1.538   9.309 -0.4637  0.6578 -0.7970
 2432SOL    HW118758   2.817   1.596   9.258  0.1204  0.8312  0.0483
 2432SOL    HW218759   2.826   1.472   9.331  0.3177  1.6889  0.0122
 2433SOL     OW18760   2.354   3.782   7.040  0.3472 -0.4298 -0.0276
 2433SOL    HW118761   2.341   3.770   7.134  0.1675 -0.4523 -0.0543
 2433SOL    HW218762   2.354   3.877   7.048 -1.6053 -0.4835  0.5882
 2434SOL     OW18763   1.331   0.422   8.786 -0.5403  0.1973  0.0090
 2434SOL    HW118764   1.347   0.351   8.849  2.1593  0.4645 -0.3715
 2434SOL    HW218765   1.413   0.407   8.739  0.2585  0.0226  1.4419
 2435SOL     OW18766   1.375   2.572  16.694  0.2678 -0.1214  0.3146
 2435SOL    HW118767   1.469   2.562  16.681  0.6756  0.7377  2.6816
 2435SOL    HW218768   1.343   2.584  16.604 -1.2062  1.9252  1.1242
 2436SOL     OW18769   1.559   4.566   2.212 -0.0761 -0.6373  0.5028
 2436SOL    HW118770   1.487   4.616   2.172 -1.0919 -1.6187  1.0963
 2436SOL    HW218771   1.549   4.478   2.173  1.4950  0.9836 -3.5983
 2437SOL     OW18772   2.353   1.279   4.542 -0.2217  0.0005  0.6846
 2437SOL    HW118773   2.412   1.206   4.520  0.5017  1.3033 -1.7116
 2437SOL    HW218774   2.268   1.241   4.520  1.0815 -2.7946  0.4468
 2438SOL     OW18775   1.824   0.844   6.456 -0.0447  0.5405 -0.3611
 2438SOL    HW118776   1.737   0.820   6.487  0.0439  0.6381 -0.0440
 2438SOL    HW218777   1.887   0.780   6.487 -1.7162 -0.4815  0.9038
 2439SOL     OW18778   3.862   3.503   7.138 -0.0848 -0.1315 -0.3833
 2439SOL    HW118779   3.829   3.570   7.198  0.3252 -1.6274  1.4919
 2439SOL    HW218780   3.787   3.445   7.148 -1.1569  0.6989 -3.4053
 2440SOL     OW18781   0.095   1.122   0.204 -0.0666 -0.6896  0.5325
 2440SOL    HW118782   0.115   1.191   0.267  0.3357 -1.4781  1.2611
 2440SOL    HW218783   0.148   1.048   0.233  0.4808 -0.3169  0.4758
 2441SOL     OW18784   2.143   3.188   3.461  0.3241  0.7970  0.8130
 2441SOL    HW118785   2.122   3.109   3.512 -1.4783  0.5626 -0.3129
 2441SOL    HW218786   2.158   3.238   3.541 -1.4677  2.8218 -0.1138
 2442SOL     OW18787   2.813   0.811   4.292  0.6097 -0.3364 -0.2920
 2442SOL    HW118788   2.828   0.878   4.225 -2.1462 -0.0974 -0.6592
 2442SOL    HW218789   2.899   0.773   4.309 -0.0937 -1.6537  0.2600
 2443SOL     OW18790   0.828   3.373   7.329  0.0728 -0.2184 -0.3599
 2443SOL    HW118791   0.903   3.403   7.380 -0.3370  0.7935 -0.3587
 2443SOL    HW218792   0.806   3.435   7.259 -0.4443  0.2310  0.1980
 2444SOL     OW18793   0.015   4.640  15.590  0.4220 -0.0257  0.2940
 2444SOL    HW118794   0.012   4.719  15.535 -2.0195 -1.8251 -2.1631
 2444SOL    HW218795   0.065   4.580  15.535  0.1346  0.4983 -0.5451
 2445SOL     OW18796   1.049   1.958   6.976 -0.2885 -0.3172 -0.0220
 2445SOL    HW118797   1.016   1.899   6.908  0.2066  0.4029 -0.8701
 2445SOL    HW218798   0.984   2.028   6.970  0.0279 -0.1338 -1.1725
 2446SOL     OW18799   4.598   3.749   5.752  0.1321  0.3447  0.0173
 2446SOL    HW118800   4.525   3.776   5.809  0.1491 -0.3432  0.3695
 2446SOL    HW218801   4.653   3.824   5.733 -0.1106  0.3021 -0.8359
 2447SOL     OW18802   4.564   0.541   8.262 -0.0886 -0.4667 -0.3643
 2447SOL    HW118803   4.508   0.618   8.277  0.3597 -0.0830 -0.6310
 2447SOL    HW218804   4.641   0.593   8.236  0.4642 -0.8827  0.4509
 2448SOL     OW18805   1.321   3.620   3.020  0.5286  0.0976  0.2439
 2448SOL    HW118806   1.399   3.660   3.059  0.0770 -0.1155  1.3748
 2448SOL    HW218807   1.339   3.615   2.926 -3.0231  1.7768 -0.5613
 2449SOL     OW18808   4.651   2.287   6.803 -0.0042  0.1408 -0.0489
 2449SOL    HW118809   4.720   2.350   6.818  1.1351 -1.1813  0.2093
 2449SOL    HW218810   4.685   2.225   6.738  0.4873  0.3299  0.0345
 2450SOL     OW18811   0.382   0.745   9.105  0.2277 -0.1473  0.4003
 2450SOL    HW118812   0.384   0.701   9.190 -2.5194 -0.8273  0.1124
 2450SOL    HW218813   0.367   0.835   9.135 -0.6357 -0.2710  0.3418
 2451SOL     OW18814   2.499   3.057   4.922  0.1085  0.6655  0.3138
 2451SOL    HW118815   2.501   3.063   4.827  1.6378  2.3584  0.4600
 2451SOL    HW218816   2.477   2.964   4.927  2.4860  0.1846  1.6097
 2452SOL     OW18817   3.749   0.613   6.824 -0.7407 -0.5103 -0.3435
 2452SOL    HW118818   3.750   0.641   6.733  2.6469  1.1755  0.2467
 2452SOL    HW218819   3.682   0.676   6.850 -0.3030  0.3059 -1.2194
 2453SOL     OW18820   0.646   3.525  12.883  0.1302  0.4308  0.0146
 2453SOL    HW118821   0.654   3.433  12.857  1.1894  0.7468 -0.7967
 2453SOL    HW218822   0.610   3.520  12.972 -1.8812  1.2492 -0.7509
 2454SOL     OW18823   0.674   4.502   7.380  0.0547  0.3772 -0.2665
 2454SOL    HW118824   0.704   4.556   7.453 -0.5607 -1.1513  1.1364
 2454SOL    HW218825   0.652   4.420   7.424  0.3203 -0.5574 -1.8755
 2455SOL     OW18826   0.102   4.269   6.877 -0.2645 -0.1473  0.6230
 2455SOL    HW118827   0.130   4.361   6.878 -0.1780 -0.1693 -0.4889
 2455SOL    HW218828   0.080   4.251   6.969 -1.4823 -4.1084 -0.4297
 2456SOL     OW18829   0.891   0.238   7.573 -0.1878  0.9772  0.2296
 2456SOL    HW118830   0.939   0.188   7.639  0.4787  0.0983 -0.9350
 2456SOL    HW218831   0.959   0.250   7.507 -0.8365  1.2630 -0.3900
 2457SOL     OW18832   3.929   1.627   6.236 -1.1966 -0.0408 -0.8456
 2457SOL    HW118833   3.862   1.585   6.182  0.0756 -1.5670 -1.2482
 2457SOL    HW218834   3.946   1.702   6.179  1.1044 -0.8061 -1.1896
 2458SOL     OW18835   2.757   2.313   2.772 -0.3809  0.2085  0.2042
 2458SOL    HW118836   2.721   2.237   2.726  2.3595  0.1464 -1.8853
 2458SOL    HW218837   2.823   2.345   2.710 -0.1752  0.2292  0.4354
 2459SOL     OW18838   1.067   1.605   9.465  0.3955  0.7691 -0.5399
 2459SOL    HW118839   1.019   1.674   9.510 -0.9172  0.1851 -1.0374
 2459SOL    HW218840   1.037   1.532   9.519  1.8869  0.0218 -0.7183
 2460SOL     OW18841   3.621   2.050   6.266  0.2829  0.3529  0.5633
 2460SOL    HW118842   3.712   2.021   6.277 -0.0290 -0.1580  1.8298
 2460SOL    HW218843   3.638   2.140   6.238 -3.1618  1.0664  0.7359
 2461SOL     OW18844   3.066   1.682   2.544  0.1424  0.1075 -0.3072
 2461SOL    HW118845   3.067   1.588   2.561 -1.3309 -0.1838 -1.7366
 2461SOL    HW218846   3.115   1.696   2.463  0.4811  0.3238 -0.0638
 2462SOL     OW18847   0.187   4.591   9.534  0.2680 -0.1780  0.3291
 2462SOL    HW118848   0.201   4.501   9.565 -0.7221 -1.1780 -2.1312
 2462SOL    HW218849   0.175   4.643   9.613 -0.2667 -0.5172  0.4704
 2463SOL     OW18850   4.693   1.047   7.825  0.3360 -0.2660 -0.3406
 2463SOL    HW118851   0.035   0.984   7.848  2.2467  1.3617 -1.5015
 2463SOL    HW218852   4.610   1.014   7.860 -0.5332  2.2785  0.0180
 2464SOL     OW18853   3.257   2.073   4.051  0.5768  0.3586 -0.3020
 2464SOL    HW118854   3.301   2.083   3.966 -0.6111 -2.3890 -1.2120
 2464SOL    HW218855   3.186   2.136   4.040 -1.0204 -1.3376  0.3267
 2465SOL     OW18856   3.567   2.763   8.971  0.1810 -0.4861  0.0636
 2465SOL    HW118857   3.649   2.812   8.985  0.8819 -1.5471 -0.2871
 2465SOL    HW218858   3.593   2.691   8.913  1.3351 -0.3808  0.4318
 2466SOL     OW18859   4.559   0.343   8.836 -0.0721  0.5003  0.3505
 2466SOL    HW118860   4.567   0.416   8.774  0.4575 -0.4802 -0.7447
 2466SOL    HW218861   4.641   0.295   8.822 -0.8946 -0.9379  0.4805
 2467SOL     OW18862   1.715   1.452   3.824  0.3550 -0.0194 -0.3852
 2467SOL    HW118863   1.691   1.414   3.739 -0.5341  0.1125 -0.1924
 2467SOL    HW218864   1.695   1.544   3.807  1.5134  0.4200  0.6646
 2468SOL     OW18865   3.961   2.992   4.149 -0.7188 -0.0176 -0.2708
 2468SOL    HW118866   4.042   2.953   4.181 -1.0529 -1.4970 -1.2434
 2468SOL    HW218867   3.952   2.939   4.070 -1.1242 -0.5174  0.1090
 2469SOL     OW18868   2.262   4.223   8.004  0.4461 -0.2224 -0.3349
 2469SOL    HW118869   2.192   4.158   8.003 -0.1066  0.3501  1.1070
 2469SOL    HW218870   2.324   4.182   8.065 -0.5952  1.8254  2.0879
 2470SOL     OW18871   4.572   2.213  14.638  0.3789 -0.0456  0.2678
 2470SOL    HW118872   4.596   2.132  14.683 -1.3635 -0.7487 -0.0435
 2470SOL    HW218873   4.654   2.252  14.609  0.2852 -0.3030 -0.3490
 2471SOL     OW18874   0.725   4.240   0.240 -0.5299  0.1253  0.3342
 2471SOL    HW118875   0.702   4.171   0.179  0.8309 -1.6010  1.7752
 2471SOL    HW218876   0.803   4.267   0.191 -0.9319 -0.9168 -0.8926
 2472SOL     OW18877   3.195   2.652   1.775  0.1700  0.1534  0.1430
 2472SOL    HW118878   3.133   2.608   1.716  1.6112 -1.4918 -0.1468
 2472SOL    HW218879   3.282   2.624   1.746  0.4912 -1.2383  2.4736
 2473SOL     OW18880   4.644   2.423   6.525  0.2156  0.5672  0.2507
 2473SOL    HW118881   4.587   2.500   6.532  1.7393  1.7541 -0.2472
 2473SOL    HW218882   4.676   2.413   6.615 -0.6743  2.2663  0.7528
 2474SOL     OW18883   2.849   0.608  15.049  0.4788  0.5260 -0.4669
 2474SOL    HW118884   2.814   0.619  15.138  2.0872  0.7512  0.1331
 2474SOL    HW218885   2.834   0.697  15.015  1.5671  1.0734  0.4884
 2475SOL     OW18886   4.263   1.534  15.225 -0.2214 -0.1268 -0.0565
 2475SOL    HW118887   4.228   1.451  15.192  2.3654 -0.9619 -0.7426
 2475SOL    HW218888   4.293   1.498  15.309 -1.7434  0.8876  0.8982
 2476SOL     OW18889   3.318   2.889  10.401  0.0042  0.3239  0.1219
 2476SOL    HW118890   3.370   2.861  10.477  1.3318 -0.6274 -1.1318
 2476SOL    HW218891   3.230   2.852  10.410 -0.1685  0.4010 -1.2849
 2477SOL     OW18892   4.225   0.227   5.003 -0.2505 -0.7568 -0.4654
 2477SOL    HW118893   4.274   0.264   4.930  0.0473 -0.9271 -0.3482
 2477SOL    HW218894   4.245   0.133   5.003 -1.6579 -1.0661 -1.4222
 2478SOL     OW18895   4.412   3.887   4.933  0.5583 -0.4879 -0.0748
 2478SOL    HW118896   4.465   3.903   5.010 -1.2585  0.4320  0.9809
 2478SOL    HW218897   4.327   3.897   4.977  2.0340  2.2570  2.0732
 2479SOL     OW18898   4.341   0.709   4.277 -0.6472 -0.7620  0.2371
 2479SOL    HW118899   4.317   0.726   4.368 -3.0912 -1.6542 -0.2391
 2479SOL    HW218900   4.348   0.799   4.245 -0.0870 -0.9924 -0.2748
 2480SOL     OW18901   3.777   0.074   0.467 -0.2845  0.0110  0.1713
 2480SOL    HW118902   3.769   4.722   0.411  0.4175  0.4464 -0.5351
 2480SOL    HW218903   3.693   0.118   0.456 -0.7113 -1.3070 -1.8632
 2481SOL     OW18904   0.649   2.029   8.362 -0.0303 -0.2997  0.1826
 2481SOL    HW118905   0.626   2.043   8.270  0.2264  0.9321  0.3026
 2481SOL    HW218906   0.744   2.041   8.369 -0.0888  0.3539 -0.1540
 2482SOL     OW18907   3.871   0.107   3.505 -0.2674 -0.3841  0.6417
 2482SOL    HW118908   3.931   0.160   3.453  0.9111 -1.5660  0.7878
 2482SOL    HW218909   3.799   0.169   3.514 -0.0373  0.0459 -0.5804
 2483SOL     OW18910   1.918   1.262   2.692 -0.0557  0.5118  0.3273
 2483SOL    HW118911   1.889   1.352   2.706 -1.9244 -0.0875  0.3033
 2483SOL    HW218912   1.957   1.281   2.607  0.6191 -0.7216  0.3616
 2484SOL     OW18913   2.397   2.606   7.610  0.0652  0.3368  0.4510
 2484SOL    HW118914   2.320   2.604   7.554  0.9168 -1.2932 -0.6870
 2484SOL    HW218915   2.424   2.515   7.595 -0.4904  0.1627  0.5220
 2485SOL     OW18916   3.014   4.414   6.575 -0.8063  0.1937 -0.1207
 2485SOL    HW118917   2.974   4.362   6.644 -0.5828  1.1767  0.7393
 2485SOL    HW218918   3.001   4.359   6.497 -0.5298 -2.1766  1.4980
 2486SOL     OW18919   1.690   2.363  12.960 -0.2890 -0.0083 -0.4249
 2486SOL    HW118920   1.614   2.396  13.010 -0.7294 -2.5582  0.5740
 2486SOL    HW218921   1.759   2.426  12.980  1.1399 -1.0331 -2.1962
 2487SOL     OW18922   4.221   3.125   4.085 -0.6076 -0.4430  0.3030
 2487SOL    HW118923   4.217   3.029   4.087  2.2383 -0.5422  1.2376
 2487SOL    HW218924   4.150   3.140   4.147 -0.9208  0.2512 -0.2269
 2488SOL     OW18925   1.468   1.622   2.378 -0.2020 -0.1264  0.0824
 2488SOL    HW118926   1.466   1.526   2.373  0.1881 -0.1581  0.5254
 2488SOL    HW218927   1.372   1.632   2.383 -0.4046 -0.8632 -2.2950
 2489SOL     OW18928   4.290   1.992   6.935 -0.3983 -0.3319 -0.0513
 2489SOL    HW118929   4.305   2.014   6.843 -0.5948 -0.3975 -0.0977
 2489SOL    HW218930   4.200   2.016   6.956  0.1344 -0.4169  2.3227
 2490SOL     OW18931   3.174   3.762   6.225 -0.5643 -0.1739 -0.1080
 2490SOL    HW118932   3.121   3.840   6.244 -0.5058  0.5501 -2.8826
 2490SOL    HW218933   3.147   3.733   6.138  0.9375  0.4245 -0.7872
 2491SOL     OW18934   0.106   3.428   6.708 -0.7760 -0.5190  0.1311
 2491SOL    HW118935   0.109   3.452   6.615 -0.8004  1.0237  0.5258
 2491SOL    HW218936   0.149   3.503   6.749  1.5455 -1.1678 -1.1107
 2492SOL     OW18937   3.405   1.403   5.005  0.2297  0.2842  0.0144
 2492SOL    HW118938   3.447   1.487   4.989  0.7157  0.1358  0.5201
 2492SOL    HW218939   3.383   1.391   4.912 -0.8181 -2.0972  0.5474
 2493SOL     OW18940   0.669   1.317   2.529 -0.4290  0.0726 -0.3304
 2493SOL    HW118941   0.698   1.280   2.612  0.5503  2.6059  0.4408
 2493SOL    HW218942   0.692   1.410   2.531  0.7917 -0.1763 -2.2019
 2494SOL     OW18943   2.070   3.481   0.128  0.0778 -0.2971 -0.5001
 2494SOL    HW118944   2.015   3.408   0.102  0.3976 -0.3781 -0.9547
 2494SOL    HW218945   2.010   3.526   0.187  0.7497 -2.0939  1.5357
 2495SOL     OW18946   1.809   3.312  13.081 -0.5783  0.5485  0.0432
 2495SOL    HW118947   1.817   3.334  12.988  1.5822 -1.2276 -0.1842
 2495SOL    HW218948   1.765   3.395  13.100  0.2487  0.5829  1.8158
 2496SOL     OW18949   1.192   2.994   7.522 -0.0760 -0.7021  0.6216
 2496SOL    HW118950   1.278   3.033   7.508 -1.1779  1.0922 -1.2176
 2496SOL    HW218951   1.186   2.960   7.433 -0.1974 -0.7674  0.6554
 2497SOL     OW18952   0.679   1.177   7.191 -0.0409  0.2910 -0.7521
 2497SOL    HW118953   0.652   1.225   7.112 -3.1116  0.3614  0.3504
 2497SOL    HW218954   0.771   1.202   7.198 -0.8104  2.5743  1.3197
 2498SOL     OW18955   3.534   1.745   4.083  0.2297  0.0982  0.4156
 2498SOL    HW118956   3.608   1.741   4.021 -0.3945 -1.0535 -0.2631
 2498SOL    HW218957   3.581   1.787   4.155 -1.9513 -0.7611  2.3156
 2499SOL     OW18958   0.571   2.338   3.979  0.7017 -0.8355 -0.2707
 2499SOL    HW118959   0.537   2.361   3.892  0.4368 -1.5735 -0.3645
 2499SOL    HW218960   0.551   2.244   3.980 -2.1995 -0.2230  0.7070
 2500SOL     OW18961   0.956   2.565  13.699  0.0511 -0.3037  0.1788
 2500SOL    HW118962   0.966   2.485  13.648 -0.2175 -0.4213  0.3051
 2500SOL    HW218963   0.868   2.592  13.672  0.4103 -0.4579 -1.1366
 2501SOL     OW18964   2.647   2.308  16.660 -0.6468 -0.1591  0.1474
 2501SOL    HW118965   2.602   2.331  16.579 -0.4545  1.4581  0.4996
 2501SOL    HW218966   2.619   2.370  16.727 -3.3928 -1.6037  0.3298
 2502SOL     OW18967   1.655   0.689   2.494 -0.0745 -0.1458  0.4257
 2502SOL    HW118968   1.648   0.721   2.584  0.7594 -0.5068  0.6166
 2502SOL    HW218969   1.586   0.740   2.453  1.0788  2.6310  1.9594
 2503SOL     OW18970   2.059   4.430   1.909 -0.2380  0.0320  0.4929
 2503SOL    HW118971   1.964   4.437   1.918 -0.2138  1.1735 -0.1223
 2503SOL    HW218972   2.081   4.518   1.939  0.3755  0.3637 -0.9364
 2504SOL     OW18973   3.904   4.088   3.137 -0.9463  0.1718  0.3600
 2504SOL    HW118974   3.932   3.997   3.141  1.3107  0.9044  0.9665
 2504SOL    HW218975   3.981   4.128   3.097  0.4835 -2.6534  0.3055
 2505SOL     OW18976   2.809   1.794   5.715  0.5687  0.3292 -0.4869
 2505SOL    HW118977   2.716   1.817   5.711  0.2236 -0.9414  0.4589
 2505SOL    HW218978   2.807   1.706   5.679  1.1751 -0.7198  1.9828
 2506SOL     OW18979   1.899   2.629   8.931  0.0756 -0.0074 -0.2222
 2506SOL    HW118980   1.988   2.651   8.904  0.3422  0.7993  1.3118
 2506SOL    HW218981   1.883   2.703   8.990 -0.9205 -0.8242  0.5413
 2507SOL     OW18982   2.610   0.136   4.863  0.4373 -0.0541 -0.5813
 2507SOL    HW118983   2.544   0.067   4.849  0.4489 -0.1952  0.0729
 2507SOL    HW218984   2.688   0.085   4.843  2.6418  1.9147  3.0379
 2508SOL     OW18985   0.604   4.553   7.135 -0.2805 -0.5986  0.4288
 2508SOL    HW118986   0.624   4.462   7.113  0.5386 -0.5308  0.9012
 2508SOL    HW218987   0.631   4.556   7.227 -2.4795 -1.8790  1.1231
 2509SOL     OW18988   1.592   2.931  14.867  0.4131 -0.1476 -0.4082
 2509SOL    HW118989   1.518   2.900  14.814  0.0341 -0.4356  0.2925
 2509SOL    HW218990   1.662   2.879  14.828 -0.5831 -1.2480 -0.7457
 2510SOL     OW18991   0.891   2.660   0.445 -0.0298  0.1999  0.2617
 2510SOL    HW118992   0.919   2.702   0.527 -0.1844  0.7571  0.0256
 2510SOL    HW218993   0.943   2.580   0.448 -0.2505  0.0747  0.7418
 2511SOL     OW18994   0.812   2.829   7.340 -0.5396  0.2957  0.4537
 2511SOL    HW118995   0.878   2.825   7.270  0.8796  1.9053  1.6925
 2511SOL    HW218996   0.821   2.923   7.352 -3.4115  0.6294 -0.0472
 2512SOL     OW18997   3.717   1.429   7.826 -0.4499  0.3455 -0.0261
 2512SOL    HW118998   3.666   1.409   7.905 -1.2669  1.3835 -0.2902
 2512SOL    HW218999   3.806   1.442   7.857 -1.4471 -0.3724  3.1603
 2513SOL     OW19000   2.174   0.892   6.041 -0.0073  0.3702 -0.0920
 2513SOL    HW119001   2.101   0.872   6.100 -1.5737  2.6843 -1.2473
 2513SOL    HW219002   2.171   0.988   6.044  2.7263  0.4419  0.0556
 2514SOL     OW19003   0.888   4.283   5.046 -0.6628 -0.0011  0.3803
 2514SOL    HW119004   0.827   4.291   4.972 -0.3086 -0.2197  0.0670
 2514SOL    HW219005   0.856   4.354   5.101  1.5998  0.6534  0.8211
 2515SOL     OW19006   0.782   1.203   5.958 -0.1869  0.3153  0.1598
 2515SOL    HW119007   0.811   1.290   5.931 -1.0592  1.0743  1.6913
 2515SOL    HW219008   0.854   1.149   5.926 -1.1046 -1.4626  1.1037
 2516SOL     OW19009   2.437   4.513  13.365 -0.2229 -0.3802  0.2446
 2516SOL    HW119010   2.526   4.478  13.357  0.4403  1.8436 -1.9520
 2516SOL    HW219011   2.438   4.580  13.297  0.1752  0.0439  0.6632
 2517SOL     OW19012   0.493   2.813   9.829  0.3836 -0.1180  0.8254
 2517SOL    HW119013   0.587   2.830   9.828  0.6025 -1.5297 -2.2768
 2517SOL    HW219014   0.463   2.897   9.864 -0.0880 -0.5388  1.4405
 2518SOL     OW19015   0.952   2.005   3.272  0.4297 -0.4351  0.3341
 2518SOL    HW119016   0.916   1.922   3.241  0.9752 -0.1504 -1.0436
 2518SOL    HW219017   0.894   2.069   3.231 -0.7209 -1.0590  0.9744
 2519SOL     OW19018   0.409   2.843   5.803 -0.1222 -0.6263  0.9093
 2519SOL    HW119019   0.419   2.899   5.726  0.7722 -0.8635  0.8570
 2519SOL    HW219020   0.492   2.854   5.849  0.0781  2.7534 -0.2513
 2520SOL     OW19021   0.641   2.492   4.802  0.2200  0.0029 -0.2417
 2520SOL    HW119022   0.556   2.528   4.775 -0.1821 -0.9431 -0.2538
 2520SOL    HW219023   0.708   2.550   4.765  0.7223 -0.8001 -0.5770
 2521SOL     OW19024   2.405   2.050   7.547  0.0838  0.9609  0.0487
 2521SOL    HW119025   2.427   1.958   7.538 -0.7147  0.7023  0.7725
 2521SOL    HW219026   2.318   2.035   7.584 -0.3611  0.5333 -1.1730
 2522SOL     OW19027   1.979   2.841  16.796 -0.4258 -0.1448 -0.2858
 2522SOL    HW119028   1.888   2.824  16.820 -0.2861 -1.3013 -0.5868
 2522SOL    HW219029   2.008   2.756  16.829  0.5596 -0.0749 -0.9528
 2523SOL     OW19030   3.019   0.050   6.370  0.2067  0.2366 -0.1998
 2523SOL    HW119031   2.940   0.101   6.348 -0.0335 -0.5516 -1.1261
 2523SOL    HW219032   3.023   4.711   6.300  1.4046 -2.6309  2.4928
 2524SOL     OW19033   1.326   4.159   3.975 -0.2662  0.1876  0.4348
 2524SOL    HW119034   1.239   4.156   3.936  1.3487 -0.7782 -3.0627
 2524SOL    HW219035   1.341   4.067   3.999 -1.2945  0.2790  1.4155
 2525SOL     OW19036   3.898   1.058   0.095  0.2731  0.2065  0.3953
 2525SOL    HW119037   3.892   0.994   0.024 -0.9591  0.5305  0.2011
 2525SOL    HW219038   3.811   1.053   0.135  0.1391 -2.9414 -0.3398
 2526SOL     OW19039   3.384   1.476   2.563  0.0883 -0.1533  0.0472
 2526SOL    HW119040   3.378   1.380   2.568  0.2813 -0.2020 -0.5897
 2526SOL    HW219041   3.478   1.494   2.565  0.2264 -0.8621  0.1452
 2527SOL     OW19042   0.729   4.252   3.554 -0.2461 -0.4240  0.2091
 2527SOL    HW119043   0.817   4.251   3.518  0.1397  2.4946  1.0540
 2527SOL    HW219044   0.691   4.185   3.497  0.9637 -2.0947  1.3677
 2528SOL     OW19045   0.646   0.591   0.486 -0.0330  0.7569  0.1337
 2528SOL    HW119046   0.575   0.656   0.485 -0.7544 -0.0593 -1.6692
 2528SOL    HW219047   0.658   0.596   0.581  1.0776 -1.9006  0.1318
 2529SOL     OW19048   3.762   0.498   3.746 -0.2942 -0.2186  0.1611
 2529SOL    HW119049   3.847   0.509   3.789  0.2029 -0.1274 -0.8492
 2529SOL    HW219050   3.776   0.551   3.667 -3.1058  0.0427 -0.1789
 2530SOL     OW19051   4.549   1.239   5.403  0.5457  0.2624 -0.3556
 2530SOL    HW119052   4.631   1.214   5.360 -0.6773 -1.4679 -1.7102
 2530SOL    HW219053   4.575   1.269   5.490  0.7296  1.2137 -0.7462
 2531SOL     OW19054   0.057   0.247   3.886  0.1782  0.2643  0.0144
 2531SOL    HW119055   0.125   0.309   3.857 -1.1885  1.6932 -0.1173
 2531SOL    HW219056   0.019   0.306   3.950  0.6498 -0.9758  1.4397
 2532SOL     OW19057   4.599   1.556   3.037 -0.1598 -0.6063 -0.2573
 2532SOL    HW119058   4.538   1.600   3.096  0.2037 -0.5861  0.1025
 2532SOL    HW219059   4.539   1.510   2.978  0.0941 -1.3390  0.0510
 2533SOL     OW19060   1.497   1.957  13.356  0.3511  0.9621  0.0969
 2533SOL    HW119061   1.525   1.979  13.445  2.4370 -1.1654 -0.0297
 2533SOL    HW219062   1.547   1.877  13.337  0.9220  1.3986 -0.2343
 2534SOL     OW19063   3.852   1.908   5.147  0.6198 -0.8882 -0.1953
 2534SOL    HW119064   3.877   1.988   5.193  0.3738 -1.6680  1.2726
 2534SOL    HW219065   3.761   1.890   5.168  0.2493  0.3420 -0.7503
 2535SOL     OW19066   1.057   0.016   6.518  0.0142 -0.3941  0.1683
 2535SOL    HW119067   1.074   4.648   6.505  3.0050 -0.0403  1.3976
 2535SOL    HW219068   1.108   0.055   6.447 -0.6394  0.2259  0.0402
 2536SOL     OW19069   2.118   1.351   7.605 -0.3174  0.1627 -0.4607
 2536SOL    HW119070   2.141   1.424   7.547  2.2283  2.0005  2.9115
 2536SOL    HW219071   2.092   1.409   7.676  0.0970 -1.0581  0.6765
 2537SOL     OW19072   2.493   4.260   5.662 -0.7091 -0.2797  0.1402
 2537SOL    HW119073   2.565   4.323   5.658 -1.4315  0.8596  5.1847
 2537SOL    HW219074   2.421   4.322   5.677 -0.7895 -0.1395 -0.8252
 2538SOL     OW19075   0.377   0.875   0.783 -0.1185 -0.0203 -0.0828
 2538SOL    HW119076   0.369   0.796   0.835 -0.9510 -0.5105 -0.9531
 2538SOL    HW219077   0.468   0.898   0.803 -0.5492  0.8008  0.9129
 2539SOL     OW19078   1.418   3.667   8.403 -0.4440 -0.0880  0.2980
 2539SOL    HW119079   1.405   3.759   8.427 -2.2116 -0.0661 -0.7593
 2539SOL    HW219080   1.421   3.619   8.486 -2.3983  1.8913  1.5365
 2540SOL     OW19081   2.983   1.060   6.506 -0.0198  0.8688 -0.5209
 2540SOL    HW119082   2.970   1.098   6.593  0.0592 -0.1948 -0.0426
 2540SOL    HW219083   3.034   1.133   6.471  1.7423 -0.3040 -0.3765
 2541SOL     OW19084   4.354   3.266   9.983 -0.1562  0.8438 -0.7513
 2541SOL    HW119085   4.268   3.230  10.002 -0.3191  0.8026 -1.5869
 2541SOL    HW219086   4.371   3.282  10.076 -1.3037  0.1202 -0.4109
 2542SOL     OW19087   4.663   1.442   5.061 -0.0141  0.2963 -0.0838
 2542SOL    HW119088   4.719   1.483   5.127  2.0147  0.1915 -1.7399
 2542SOL    HW219089   4.723   1.378   5.022 -1.0951 -1.8325  1.7726
 2543SOL     OW19090   3.983   3.479   2.731 -0.2086  0.0862  0.7532
 2543SOL    HW119091   3.987   3.384   2.720  0.2669  0.0625  1.1319
 2543SOL    HW219092   4.044   3.488   2.804 -0.7810  0.0506  1.2325
 2544SOL     OW19093   4.199   1.606  14.955 -0.1140 -0.5860  0.0018
 2544SOL    HW119094   4.273   1.597  14.896 -0.3971  0.9237 -0.5924
 2544SOL    HW219095   4.230   1.594  15.045 -1.9960 -0.2000  0.7052
 2545SOL     OW19096   4.137   1.533   7.247 -0.3840 -0.1132 -0.0857
 2545SOL    HW119097   4.195   1.601   7.280 -0.5208 -0.7827  1.5174
 2545SOL    HW219098   4.151   1.465   7.313 -0.4360  1.0756  1.1420
 2546SOL     OW19099   0.740   0.102   1.577 -0.7547 -0.3848  0.1825
 2546SOL    HW119100   0.716   0.077   1.488 -0.9106  0.0268  0.1097
 2546SOL    HW219101   0.824   0.148   1.564 -1.5116  0.2933 -2.2604
 2547SOL     OW19102   0.154   1.453  14.981  0.2565 -0.0637  0.2707
 2547SOL    HW119103   0.144   1.435  14.887 -1.1720 -3.7934  1.1511
 2547SOL    HW219104   0.068   1.494  14.995  1.4370  3.4389 -2.5888
 2548SOL     OW19105   4.218   4.007   5.150  0.2817 -0.5293 -0.0177
 2548SOL    HW119106   4.251   3.961   5.227  0.2316 -1.1663 -0.3808
 2548SOL    HW219107   4.251   4.096   5.164  0.4849 -0.5052 -0.6473
 2549SOL     OW19108   4.269   4.053   7.971  0.2939  0.0404 -0.4369
 2549SOL    HW119109   4.306   3.997   7.902  1.2465  0.4668 -0.2713
 2549SOL    HW219110   4.181   4.021   7.953  0.7205 -0.5135 -1.5810
 2550SOL     OW19111   3.709   4.025   2.334 -0.3882 -0.2948 -0.7674
 2550SOL    HW119112   3.615   4.026   2.352 -0.2699  2.1681 -0.3525
 2550SOL    HW219113   3.723   3.933   2.358  0.6673  0.1514  0.3131
 2551SOL     OW19114   2.498   0.812  12.771 -0.1317  0.4135  0.2911
 2551SOL    HW119115   2.559   0.777  12.836  1.3181 -1.4540 -2.0428
 2551SOL    HW219116   2.420   0.769  12.805  1.0732 -0.8489  1.4820
 2552SOL     OW19117   4.533   3.719  14.093 -1.0550  0.0940 -0.0592
 2552SOL    HW119118   4.622   3.724  14.058 -0.7032  1.9378  1.0729
 2552SOL    HW219119   4.527   3.624  14.088  0.0390  0.1395 -2.4393
 2553SOL     OW19120   0.628   0.652   3.684 -0.2107 -0.5075  0.7136
 2553SOL    HW119121   0.549   0.633   3.635 -1.2514 -1.2895  2.6629
 2553SOL    HW219122   0.590   0.636   3.771 -0.6640 -1.3319  0.3695
 2554SOL     OW19123   2.675   3.786   4.526  0.3326 -0.9144  0.6672
 2554SOL    HW119124   2.770   3.791   4.512  0.5324 -1.5016  1.8647
 2554SOL    HW219125   2.682   3.705   4.576  1.3413 -0.9025  0.5402
 2555SOL     OW19126   1.268   0.396   6.553 -0.2099 -0.2674 -0.0174
 2555SOL    HW119127   1.301   0.401   6.463 -1.4357 -2.9866 -0.6208
 2555SOL    HW219128   1.309   0.312   6.575 -1.0089 -0.8690 -0.8124
 2556SOL     OW19129   0.254   1.892   3.073  0.0908  0.1516 -0.1222
 2556SOL    HW119130   0.274   1.959   3.007  2.2406  1.2364  1.6306
 2556SOL    HW219131   0.303   1.815   3.043 -1.9356 -0.4594 -1.8750
 2557SOL     OW19132   0.075   2.505   6.819  0.0504 -0.8133 -0.6999
 2557SOL    HW119133   0.119   2.554   6.888 -2.5387 -0.3222  0.6130
 2557SOL    HW219134   0.075   2.566   6.745  1.8276 -2.0315 -1.6968
 2558SOL     OW19135   4.067   0.080   6.349 -0.1459  0.0077  0.1821
 2558SOL    HW119136   4.003   0.015   6.378 -0.0436 -1.0866 -2.0404
 2558SOL    HW219137   4.040   0.098   6.259  1.2229  0.8815 -0.0544
 2559SOL     OW19138   1.501   0.623   8.088  0.5961  0.0838 -0.4674
 2559SOL    HW119139   1.433   0.664   8.141 -0.3493  0.1996 -1.7616
 2559SOL    HW219140   1.573   0.674   8.126  1.4371 -1.6594  0.2873
 2560SOL     OW19141   2.692   3.051   5.446 -0.2639 -0.6931 -0.1283
 2560SOL    HW119142   2.634   2.980   5.475  0.0627 -0.5065  0.9756
 2560SOL    HW219143   2.650   3.087   5.368  2.7209  0.9347 -0.9396
 2561SOL     OW19144   3.685   4.416   3.490 -0.2287  0.0511 -0.0299
 2561SOL    HW119145   3.635   4.497   3.488 -0.3481 -0.0218 -0.0136
 2561SOL    HW219146   3.691   4.389   3.399 -0.7436  1.6601 -0.5359
 2562SOL     OW19147   2.918   0.534   6.537  0.1561 -0.3045 -0.4840
 2562SOL    HW119148   3.007   0.567   6.548 -0.1517  0.9076 -1.5905
 2562SOL    HW219149   2.899   0.500   6.624 -2.9197  1.4910 -0.4636
 2563SOL     OW19150   3.774   4.200   7.878 -0.4338  0.0828 -0.1390
 2563SOL    HW119151   3.728   4.181   7.960  1.0214 -1.7297  0.2487
 2563SOL    HW219152   3.815   4.279   7.912 -1.7512  1.0491 -0.8107
 2564SOL     OW19153   4.111   3.127  13.452  0.1678 -0.2578  0.1717
 2564SOL    HW119154   4.142   3.041  13.480  2.5324 -0.2063 -2.2865
 2564SOL    HW219155   4.176   3.140  13.383  0.4118  1.6854  0.7794
 2565SOL     OW19156   0.405   1.634   9.453 -0.1763 -0.6240 -0.3582
 2565SOL    HW119157   0.325   1.665   9.411  0.1418 -0.4363 -0.8274
 2565SOL    HW219158   0.410   1.546   9.416 -0.8468 -1.2904  1.1608
 2566SOL     OW19159   3.833   2.176   6.502 -0.1766 -0.3871 -0.1736
 2566SOL    HW119160   3.927   2.194   6.502 -0.2306 -0.1468  2.3044
 2566SOL    HW219161   3.827   2.092   6.455 -0.5247 -1.4479  1.7732
 2567SOL     OW19162   0.520   3.369   4.818  0.3272  0.0807 -0.4412
 2567SOL    HW119163   0.475   3.326   4.746 -2.1598 -0.8031  1.6324
 2567SOL    HW219164   0.541   3.451   4.774  0.5245 -0.3736 -1.1933
 2568SOL     OW19165   3.782   2.069   8.877  0.7393 -0.4346  0.2809
 2568SOL    HW119166   3.774   2.027   8.962  1.1249  0.7346  0.8975
 2568SOL    HW219167   3.785   1.993   8.818 -3.0191  0.7303 -1.4302
 2569SOL     OW19168   3.388   0.322   8.030 -0.1882  0.1829  0.4123
 2569SOL    HW119169   3.458   0.257   8.026 -0.0772  0.3723 -0.6188
 2569SOL    HW219170   3.443   0.398   8.045  0.6661 -0.3093 -0.2582
 2570SOL     OW19171   4.317   4.413  10.151  0.3426 -0.5298 -0.7169
 2570SOL    HW119172   4.309   4.332  10.100  1.1099  0.6766 -2.7233
 2570SOL    HW219173   4.326   4.368  10.235 -1.5122 -0.1811 -0.3274
 2571SOL     OW19174   0.131   1.501   9.517  1.0074 -0.0943 -0.1862
 2571SOL    HW119175   0.140   1.458   9.432  0.0331  1.9264 -1.3449
 2571SOL    HW219176   0.147   1.594   9.498  0.9789  0.1245  0.8542
 2572SOL     OW19177   1.858   0.295  11.930 -0.8561 -0.3089  0.1517
 2572SOL    HW119178   1.791   0.262  11.870 -0.7424  0.4291 -0.3761
 2572SOL    HW219179   1.818   0.379  11.953  0.7250  1.3471 -3.2140
 2573SOL     OW19180   1.123   2.440   4.905  0.4545  0.4961 -0.7115
 2573SOL    HW119181   1.049   2.404   4.855 -1.0110 -0.2865  2.0214
 2573SOL    HW219182   1.178   2.500   4.855  0.6373  0.4521 -0.5612
 2574SOL     OW19183   4.065   3.234  13.037 -0.4020 -0.0546  0.1953
 2574SOL    HW119184   4.071   3.140  13.023 -1.3629 -0.2121  0.8063
 2574SOL    HW219185   4.103   3.246  13.124  2.9201 -3.6388 -0.8032
 2575SOL     OW19186   2.053   1.462   6.331  0.4408  0.6059 -0.2355
 2575SOL    HW119187   1.994   1.535   6.312 -0.7727 -0.9062 -2.2836
 2575SOL    HW219188   2.045   1.457   6.426 -2.8002  2.0016 -0.4387
 2576SOL     OW19189   0.335   1.419   3.134 -0.2019  0.3710  0.2448
 2576SOL    HW119190   0.290   1.336   3.150 -2.0201  1.3238  0.1608
 2576SOL    HW219191   0.277   1.464   3.072 -1.0944 -1.1951 -0.0602
 2577SOL     OW19192   0.921   0.129   4.852 -0.1655 -0.0786  0.1639
 2577SOL    HW119193   0.936   0.159   4.942  0.6895 -0.4976  0.1602
 2577SOL    HW219194   0.989   0.168   4.797  2.0047 -0.1462  2.8179
 2578SOL     OW19195   1.492   2.730   4.051  0.0768  0.2961  0.0589
 2578SOL    HW119196   1.435   2.804   4.028  0.2762  0.0137 -1.3596
 2578SOL    HW219197   1.442   2.667   4.104  0.4248 -0.7644 -0.8607
 2579SOL     OW19198   3.572   1.719   7.383  0.0698 -0.0134  0.0423
 2579SOL    HW119199   3.561   1.796   7.438  1.6969  1.8061 -2.1828
 2579SOL    HW219200   3.610   1.657   7.445  0.1518  1.7112  1.7029
 2580SOL     OW19201   4.553   0.453   0.997  0.3065 -0.2671 -0.7495
 2580SOL    HW119202   4.503   0.534   0.994  0.4567 -0.1525 -0.1648
 2580SOL    HW219203   4.637   0.482   1.034  0.1508 -1.4891  0.5248
 2581SOL     OW19204   1.323   1.909   4.195 -0.5617 -0.7942 -0.0837
 2581SOL    HW119205   1.353   1.988   4.241  2.1970 -3.0443  1.9430
 2581SOL    HW219206   1.229   1.912   4.211 -0.7981  0.4437 -1.6488
 2582SOL     OW19207   1.389   1.391  17.497 -0.2834 -0.0988  0.5769
 2582SOL    HW119208   1.429   1.354  17.575  1.1568  1.7661  0.7550
 2582SOL    HW219209   1.417   1.483  17.502 -0.2969 -0.1234  1.0758
 2583SOL     OW19210   2.706   1.737   4.410  0.4067  0.2398  0.7559
 2583SOL    HW119211   2.781   1.780   4.369 -0.6680  1.7832  0.3950
 2583SOL    HW219212   2.691   1.781   4.494 -0.4620 -1.2831  1.4126
 2584SOL     OW19213   0.676   0.684   6.551 -0.7849 -0.7364  0.2169
 2584SOL    HW119214   0.757   0.732   6.538 -0.7921 -0.5768  0.7455
 2584SOL    HW219215   0.716   0.597   6.557 -1.5206 -1.0353  0.9364
 2585SOL     OW19216   0.782   0.323   7.925  0.3775 -0.2957 -0.1569
 2585SOL    HW119217   0.709   0.283   7.973 -1.5910  3.4360 -0.0229
 2585SOL    HW219218   0.758   0.415   7.928 -2.7298 -1.0714 -1.1534
 2586SOL     OW19219   0.988   2.382   5.187 -0.0883 -0.3429  0.5265
 2586SOL    HW119220   1.050   2.445   5.150  0.1718  0.3505  2.1823
 2586SOL    HW219221   0.994   2.309   5.125 -1.1270  0.7371 -0.8444
 2587SOL     OW19222   1.218   0.481  15.051 -0.4018  0.2199 -0.3070
 2587SOL    HW119223   1.124   0.477  15.032 -0.6718 -1.3375  1.3262
 2587SOL    HW219224   1.225   0.385  15.045 -0.2763  0.2776 -1.1161
 2588SOL     OW19225   1.978   3.463   3.136  0.5052  0.5746  0.3890
 2588SOL    HW119226   1.954   3.388   3.189  0.9309  1.5421  1.9429
 2588SOL    HW219227   2.048   3.427   3.081 -1.0688 -1.4248 -0.2768
 2589SOL     OW19228   1.862   2.745   2.478 -0.1090 -0.2962 -0.3766
 2589SOL    HW119229   1.915   2.769   2.402  1.1005 -2.5326 -0.2323
 2589SOL    HW219230   1.850   2.650   2.475  0.5314 -0.4160  0.9829
 2590SOL     OW19231   4.634   0.705  15.704  0.2358 -0.0652  0.6329
 2590SOL    HW119232   4.655   0.740  15.790  0.1626  1.4137  0.0644
 2590SOL    HW219233   4.583   0.627  15.725 -2.1463  1.0372 -1.0221
 2591SOL     OW19234   3.914   0.230   8.481  0.1358 -0.1925  0.6607
 2591SOL    HW119235   3.853   0.220   8.554 -0.6393 -3.2944 -0.4251
 2591SOL    HW219236   3.983   0.176   8.520 -0.7458 -1.9067 -0.1828
 2592SOL     OW19237   1.319   1.740   0.629 -0.1423 -0.7108  0.0466
 2592SOL    HW119238   1.291   1.800   0.698  3.4843  3.0813 -1.7206
 2592SOL    HW219239   1.306   1.663   0.683  0.6080 -0.8963 -0.0405
 2593SOL     OW19240   0.303   0.783   5.746 -0.5749 -0.0889 -0.1487
 2593SOL    HW119241   0.316   0.792   5.840  0.3186 -0.1959 -0.2640
 2593SOL    HW219242   0.381   0.735   5.721  1.0902  2.3331  0.4487
 2594SOL     OW19243   1.307   2.281   0.851  0.4054  0.2037  0.7125
 2594SOL    HW119244   1.391   2.280   0.897  1.4796 -0.7815 -1.2701
 2594SOL    HW219245   1.309   2.373   0.823  0.0543  0.3454  1.1540
 2595SOL     OW19246   0.648   2.852   5.943  0.3302  0.6945 -0.0623
 2595SOL    HW119247   0.698   2.870   5.864 -0.5762  2.4162 -0.2477
 2595SOL    HW219248   0.706   2.888   6.010  0.8583  1.1099 -0.7457
 2596SOL     OW19249   3.463   4.633  17.648  0.4581 -0.5970  0.3442
 2596SOL    HW119250   3.425   4.612  17.563 -1.9999 -0.9625  1.5312
 2596SOL    HW219251   3.396   4.595   0.003  0.2133 -1.3876 -0.4695
 2597SOL     OW19252   2.536   2.330   3.225  0.0538 -0.6981 -0.5357
 2597SOL    HW119253   2.604   2.262   3.232 -0.6052 -1.0774  2.1874
 2597SOL    HW219254   2.549   2.356   3.133 -1.9018 -0.3607 -0.7010
 2598SOL     OW19255   0.247   0.029   7.962  0.0858 -0.3502 -0.5808
 2598SOL    HW119256   0.260   0.106   8.017 -0.4404 -1.3727  0.9515
 2598SOL    HW219257   0.337   0.005   7.937  1.2900  1.5911  1.9080
 2599SOL     OW19258   1.596   2.711  17.090 -0.0972  0.0491  0.2127
 2599SOL    HW119259   1.513   2.758  17.081 -0.4985 -0.7147 -0.1680
 2599SOL    HW219260   1.631   2.718  17.001  0.7774  0.1479  0.5649
 2600SOL     OW19261   4.428   1.900  13.746  0.0041  1.0094  0.0400
 2600SOL    HW119262   4.481   1.923  13.822  0.5746 -1.2067  0.3009
 2600SOL    HW219263   4.337   1.905  13.777 -0.7627  2.0100 -2.3509
 2601SOL     OW19264   3.324   2.873   2.913 -0.4813 -0.3983  0.1927
 2601SOL    HW119265   3.251   2.920   2.871  0.4364  1.5300  0.7866
 2601SOL    HW219266   3.341   2.796   2.859  3.0304  1.0020 -0.6536
 2602SOL     OW19267   3.587   2.870   4.696 -0.4829 -0.7983 -0.0526
 2602SOL    HW119268   3.657   2.931   4.720 -1.2255  0.4640 -1.0774
 2602SOL    HW219269   3.641   2.814   4.640  0.1060  1.9807 -2.2885
 2603SOL     OW19270   2.511   1.682  11.255  0.4003 -0.5075 -0.8678
 2603SOL    HW119271   2.433   1.698  11.309  0.0051 -2.2901 -0.9039
 2603SOL    HW219272   2.537   1.593  11.279 -0.5111 -0.4857  0.2236
 2604SOL     OW19273   2.337   4.505  10.805 -0.5702  0.3461 -0.4817
 2604SOL    HW119274   2.391   4.582  10.821 -1.3600  0.0982  3.4172
 2604SOL    HW219275   2.261   4.531  10.859 -1.1875 -1.0533 -0.6670
 2605SOL     OW19276   2.217   0.628  10.885  0.3100  0.3143 -0.6234
 2605SOL    HW119277   2.214   0.706  10.939  1.9012  1.4406 -2.1663
 2605SOL    HW219278   2.220   0.559  10.951  1.2414 -0.4401 -1.4388
 2606SOL     OW19279   3.059   3.406  12.187  0.2190 -0.0800  0.0930
 2606SOL    HW119280   3.140   3.423  12.138 -0.6420  0.5499 -1.1223
 2606SOL    HW219281   3.089   3.419  12.277  0.8831 -0.1289 -0.1222
 2607SOL     OW19282   2.640   2.518   4.236  0.4551 -0.2755  0.2372
 2607SOL    HW119283   2.608   2.494   4.322 -0.8527  1.2456  0.1753
 2607SOL    HW219284   2.643   2.614   4.236 -0.4195 -0.2567  1.2776
 2608SOL     OW19285   0.183   1.491   3.804  0.0451 -0.6178  0.4484
 2608SOL    HW119286   0.184   1.401   3.837  0.5512 -0.7167  0.1614
 2608SOL    HW219287   0.203   1.479   3.711  0.8254 -0.3391  0.5823
 2609SOL     OW19288   3.194   3.564   8.150 -0.0606 -0.0092 -0.3633
 2609SOL    HW119289   3.166   3.587   8.238 -0.6269  1.2322 -0.8607
 2609SOL    HW219290   3.115   3.526   8.112 -0.5009  1.5333 -0.9846
 2610SOL     OW19291   3.618   3.341   2.924 -0.2189 -0.1210 -0.1689
 2610SOL    HW119292   3.556   3.378   2.987  0.8396  1.8704 -0.2967
 2610SOL    HW219293   3.581   3.254   2.908 -1.0090  0.7224 -2.8893
 2611SOL     OW19294   3.214   3.886   4.221 -0.1787  0.2804  0.7779
 2611SOL    HW119295   3.276   3.955   4.245  2.3305 -2.5976  2.6951
 2611SOL    HW219296   3.238   3.865   4.131 -0.0287  2.1060  0.3864
 2612SOL     OW19297   2.050   4.040   6.192 -0.2464 -0.6544  0.3117
 2612SOL    HW119298   2.079   4.059   6.103 -3.8160  0.3853 -0.6336
 2612SOL    HW219299   2.105   4.102   6.240  0.0892 -1.2543  0.7053
 2613SOL     OW19300   0.250   3.819  11.900 -0.4900  0.2636  0.2184
 2613SOL    HW119301   0.268   3.730  11.930 -0.2320  0.6747  1.2705
 2613SOL    HW219302   0.252   3.869  11.982 -0.2483  1.1035 -0.3043
 2614SOL     OW19303   0.729   3.771   3.729 -0.5229 -0.2862  0.6605
 2614SOL    HW119304   0.718   3.698   3.667 -1.2588 -0.3436  0.8594
 2614SOL    HW219305   0.652   3.825   3.712 -0.9236 -0.4207  2.0938
 2615SOL     OW19306   4.660   1.969   3.579  0.1684 -0.2356  0.3682
 2615SOL    HW119307   4.638   2.062   3.571  1.2683 -0.0762 -0.6580
 2615SOL    HW219308   0.029   1.967   3.565  0.4248  1.3781  1.7423
 2616SOL     OW19309   1.241   0.349   3.826 -0.1284 -0.1723 -0.3377
 2616SOL    HW119310   1.302   0.358   3.753 -0.1440  1.1774 -0.1956
 2616SOL    HW219311   1.304   0.322   3.893  0.1040  0.6174 -0.2361
 2617SOL     OW19312   0.530   1.483  14.378 -0.3655  0.1372 -0.2592
 2617SOL    HW119313   0.615   1.469  14.338  0.6781 -2.2112  2.7571
 2617SOL    HW219314   0.546   1.440  14.462 -0.6353  1.2515  0.3576
 2618SOL     OW19315   2.878   2.081  11.994  0.2619 -0.0834 -0.4040
 2618SOL    HW119316   2.932   2.158  11.972 -1.5198  1.1454 -0.4532
 2618SOL    HW219317   2.812   2.119  12.052 -1.1892 -2.2272 -0.6588
 2619SOL     OW19318   2.669   3.004   2.114 -0.3275  0.0318 -0.4785
 2619SOL    HW119319   2.702   2.940   2.178 -0.8040  0.8059  0.5402
 2619SOL    HW219320   2.673   2.939   2.044 -0.2191  0.6793 -1.0755
 2620SOL     OW19321   4.130   2.317   8.462 -0.2849  0.0892 -0.1010
 2620SOL    HW119322   4.221   2.343   8.481 -0.5725  0.1613  1.1738
 2620SOL    HW219323   4.128   2.231   8.503  0.2554 -0.0502 -0.3617
 2621SOL     OW19324   2.814   1.723   6.830 -0.2478  0.0573  0.5307
 2621SOL    HW119325   2.810   1.691   6.740 -0.3614  0.2316  0.4744
 2621SOL    HW219326   2.814   1.819   6.826  0.6937 -0.0975 -2.9819
 2622SOL     OW19327   0.309   0.967   8.504 -0.4329 -0.2790  0.1785
 2622SOL    HW119328   0.237   0.977   8.443  0.8363  0.2511 -1.2413
 2622SOL    HW219329   0.290   1.041   8.561 -1.7201 -1.2462  0.9962
 2623SOL     OW19330   0.559   1.876   2.758 -0.9529  0.0618 -0.1454
 2623SOL    HW119331   0.568   1.969   2.777 -0.5353  0.0609 -0.3536
 2623SOL    HW219332   0.481   1.878   2.703 -2.2284 -0.8835  1.6228
 2624SOL     OW19333   2.033   3.224   4.339 -0.2440  0.6908  1.1388
 2624SOL    HW119334   2.045   3.204   4.247  1.1298  2.3790  0.9496
 2624SOL    HW219335   2.117   3.195   4.373 -0.9391 -0.4604  1.8765
 2625SOL     OW19336   3.423   2.881   6.418  1.2142  0.4837 -0.0988
 2625SOL    HW119337   3.431   2.972   6.446  2.4731  0.2184  0.4091
 2625SOL    HW219338   3.358   2.905   6.352 -0.0924 -1.5987  0.4326
 2626SOL     OW19339   4.595   0.338   5.635 -0.2946  0.0500 -0.2468
 2626SOL    HW119340   4.522   0.306   5.582  0.2261  1.8051 -2.0671
 2626SOL    HW219341   4.603   0.425   5.595 -3.4186  0.2565 -0.4164
 2627SOL     OW19342   3.655   0.556   9.198 -0.3765  0.0075 -0.5194
 2627SOL    HW119343   3.653   0.652   9.201  1.2424 -0.0069  1.3185
 2627SOL    HW219344   3.737   0.555   9.149  0.8090 -1.8823  1.5198
 2628SOL     OW19345   3.283   0.054   4.225 -0.2142 -0.1076 -0.3153
 2628SOL    HW119346   3.261   0.065   4.132 -1.1173 -0.2638 -0.1259
 2628SOL    HW219347   3.214   0.102   4.271 -0.4210  2.5750 -3.4765
 2629SOL     OW19348   2.139   2.954   0.570 -0.5209 -0.8319  0.1515
 2629SOL    HW119349   2.199   2.952   0.644  0.6454 -0.0026 -0.7617
 2629SOL    HW219350   2.189   2.985   0.494  1.7645  1.0105  2.4356
 2630SOL     OW19351   0.289   2.284   3.515  0.6882  0.5255  0.4774
 2630SOL    HW119352   0.283   2.318   3.426  0.5907  0.6802  0.5426
 2630SOL    HW219353   0.200   2.290   3.551 -0.2292  0.9116 -1.8598
 2631SOL     OW19354   2.271   2.230   5.809  0.8691 -1.2302 -0.2007
 2631SOL    HW119355   2.321   2.173   5.867  1.9066 -0.3044 -0.1904
 2631SOL    HW219356   2.345   2.279   5.775 -0.1530  0.9806  0.7783
 2632SOL     OW19357   3.310   2.531  11.809 -0.2125  0.2552 -0.3229
 2632SOL    HW119358   3.307   2.528  11.905  2.2954 -1.4999 -0.3272
 2632SOL    HW219359   3.288   2.440  11.791 -0.8937  0.1798  0.8872
 2633SOL     OW19360   4.254   1.500  10.729 -0.1672  0.3604 -0.1096
 2633SOL    HW119361   4.298   1.577  10.692  0.4233 -0.4853 -1.2036
 2633SOL    HW219362   4.325   1.446  10.694 -0.3314 -0.9659  1.6670
 2634SOL     OW19363   4.480   2.046  13.505  0.0595 -0.5248 -0.4840
 2634SOL    HW119364   4.492   1.980  13.573  1.2603  0.4941  0.2743
 2634SOL    HW219365   4.416   1.997  13.452  3.1743 -4.2011 -0.8597
 2635SOL     OW19366   2.488   2.725   6.872 -0.0614 -0.7577 -0.2406
 2635SOL    HW119367   2.497   2.820   6.880 -1.4921 -0.7429  1.2117
 2635SOL    HW219368   2.411   2.727   6.815  0.9328  1.8917 -1.5091
 2636SOL     OW19369   3.328   1.315   6.010  0.2738 -0.2049 -0.0312
 2636SOL    HW119370   3.318   1.356   5.925  0.3811  1.1981  0.6317
 2636SOL    HW219371   3.417   1.282   6.020  0.1415 -0.6868 -0.4418
 2637SOL     OW19372   3.589   1.647   4.977 -0.5032  0.0589 -0.4645
 2637SOL    HW119373   3.562   1.700   4.902 -1.1888  0.4190  0.0298
 2637SOL    HW219374   3.590   1.711   5.049  0.3329 -0.8284  0.3018
 2638SOL     OW19375   1.983   3.698   3.516 -0.4628  0.1769  0.0931
 2638SOL    HW119376   2.006   3.756   3.444  0.8870  0.0190  0.3932
 2638SOL    HW219377   2.070   3.660   3.527 -1.1934 -1.7625 -0.9066
 2639SOL     OW19378   1.444   0.036   2.985 -0.3779  0.2025 -0.1918
 2639SOL    HW119379   1.463   4.681   2.936 -1.1846 -0.9534  1.3772
 2639SOL    HW219380   1.381   0.087   2.934  0.5138  2.3169  0.8614
 2640SOL     OW19381   1.413   4.362   1.393  1.2043  0.4718 -0.3578
 2640SOL    HW119382   1.406   4.427   1.462  5.1937 -1.5797  1.9913
 2640SOL    HW219383   1.328   4.320   1.405  2.1865 -1.0361  1.2865
 2641SOL     OW19384   1.809   1.496   2.762 -0.1698  0.3414 -0.1033
 2641SOL    HW119385   1.781   1.481   2.852  1.1438 -1.7808 -0.0444
 2641SOL    HW219386   1.727   1.524   2.722 -0.3045 -0.6025 -0.4899
 2642SOL     OW19387   2.945   0.733   2.911 -0.8929 -0.2229  0.7828
 2642SOL    HW119388   2.907   0.797   2.970 -1.7891  0.5786 -0.6897
 2642SOL    HW219389   3.018   0.707   2.967 -1.2870 -0.8653  0.9934
 2643SOL     OW19390   1.925   4.381   9.014 -0.0378  0.0913 -0.1985
 2643SOL    HW119391   1.982   4.447   9.053  0.0721 -0.4007  0.4734
 2643SOL    HW219392   1.988   4.319   8.977 -0.3675 -1.2131  1.4605
 2644SOL     OW19393   0.583   0.306   7.679 -0.0930 -0.3757  0.1780
 2644SOL    HW119394   0.641   0.234   7.654  0.5226  0.0178  0.4836
 2644SOL    HW219395   0.647   0.358   7.727 -0.7969 -2.1673  3.0829
 2645SOL     OW19396   3.241   0.826   8.753 -0.1099 -0.5240  0.5328
 2645SOL    HW119397   3.289   0.774   8.817 -0.3114 -0.7443  0.5082
 2645SOL    HW219398   3.153   0.807   8.786 -1.1417 -0.1463 -1.9735
 2646SOL     OW19399   3.626   4.719   8.982 -0.2116  0.5188 -0.5445
 2646SOL    HW119400   3.622   4.655   8.912  2.0519 -0.0478 -0.1575
 2646SOL    HW219401   3.659   0.078   8.950  0.3405 -0.2286 -1.9229
 2647SOL     OW19402   0.426   1.827   1.213  0.2505 -0.0935  0.4389
 2647SOL    HW119403   0.362   1.799   1.278  1.4173  0.6055  1.8830
 2647SOL    HW219404   0.413   1.922   1.217  0.2088 -0.2223  2.9638
 2648SOL     OW19405   0.863   1.254  11.762 -0.3973  1.0308 -0.1241
 2648SOL    HW119406   0.848   1.254  11.857 -4.4922 -1.7066 -0.7614
 2648SOL    HW219407   0.905   1.339  11.749  0.5757  0.5886  0.1441
 2649SOL     OW19408   3.603   4.304   4.140 -0.6603 -0.1125 -0.2234
 2649SOL    HW119409   3.654   4.385   4.138  0.2514 -0.7139 -1.1054
 2649SOL    HW219410   3.668   4.246   4.101 -0.0458 -0.8741  1.9410
 2650SOL     OW19411   2.599   1.568  10.439  0.0637  0.3331 -0.2602
 2650SOL    HW119412   2.607   1.474  10.424  1.9869  0.3354  0.7716
 2650SOL    HW219413   2.648   1.605  10.365  1.8547 -2.1526 -0.2893
 2651SOL     OW19414   4.091   1.562  10.955 -0.3046 -0.0199 -0.2652
 2651SOL    HW119415   4.127   1.650  10.944 -3.2859  1.1108 -1.1502
 2651SOL    HW219416   4.172   1.513  10.946  0.5619  1.0547  1.6886
 2652SOL     OW19417   3.269   1.019  17.074  0.0562 -0.4503  0.1448
 2652SOL    HW119418   3.181   1.043  17.042 -0.1189  2.0097  2.5033
 2652SOL    HW219419   3.297   1.110  17.073 -1.3536 -0.0114 -0.1071
 2653SOL     OW19420   3.084   3.532  10.778  0.7021  0.3131  0.0009
 2653SOL    HW119421   3.070   3.614  10.730  2.2182  0.4358 -0.2368
 2653SOL    HW219422   3.085   3.565  10.868  2.1027 -2.1410  0.8685
 2654SOL     OW19423   1.133   4.090  15.642  0.3658  0.1229 -0.2328
 2654SOL    HW119424   1.072   4.141  15.589  1.6376  0.5476 -1.2584
 2654SOL    HW219425   1.207   4.076  15.584 -1.7739 -0.8154 -2.7273
 2655SOL     OW19426   0.558   4.400  13.361  0.1672 -0.0880 -0.2989
 2655SOL    HW119427   0.628   4.447  13.406  0.7178  0.4235 -1.6786
 2655SOL    HW219428   0.600   4.392  13.275 -2.3714 -2.6659 -1.2900
 2656SOL     OW19429   1.404   0.483   8.387  0.2682  0.3412  0.6275
 2656SOL    HW119430   1.453   0.498   8.306  1.1856  1.1481  1.3280
 2656SOL    HW219431   1.450   0.407   8.424  0.3064  0.1268  0.1475
 2657SOL     OW19432   2.196   3.030   5.260  0.2283  0.0924  0.5076
 2657SOL    HW119433   2.125   3.085   5.294  0.6399  1.2932 -0.5447
 2657SOL    HW219434   2.146   2.975   5.200  0.9553 -1.4834  1.3505
 2658SOL     OW19435   1.503   1.472   7.304  0.5288 -0.2500 -0.0841
 2658SOL    HW119436   1.546   1.401   7.352  1.0065 -0.2590 -0.5263
 2658SOL    HW219437   1.570   1.540   7.307 -0.7016  0.9419  0.3427
 2659SOL     OW19438   3.438   2.448   1.983 -0.4262  0.3477  0.0886
 2659SOL    HW119439   3.387   2.408   1.912  1.1714 -0.1447 -0.7856
 2659SOL    HW219440   3.478   2.521   1.936 -0.7966 -0.6597 -1.7937
 2660SOL     OW19441   0.750   0.086   3.460 -0.5278 -0.1886  0.4569
 2660SOL    HW119442   0.781   4.721   3.457  0.2352 -0.0384  3.2161
 2660SOL    HW219443   0.655   0.078   3.460 -0.5632  0.5494 -2.7143
 2661SOL     OW19444   0.766   0.297   3.763 -0.2603 -0.1092 -0.1687
 2661SOL    HW119445   0.677   0.267   3.744 -0.3100 -0.6996  1.0266
 2661SOL    HW219446   0.810   0.216   3.788 -0.9367 -0.9030 -1.5600
 2662SOL     OW19447   1.094   0.242  15.771 -0.3678 -0.1759 -0.4359
 2662SOL    HW119448   1.098   0.240  15.866 -1.6791  0.5271 -0.3635
 2662SOL    HW219449   1.059   0.159  15.738  0.1048  0.1294 -1.7060
 2663SOL     OW19450   1.142   2.928   3.467 -0.3249  0.5231  0.3611
 2663SOL    HW119451   1.176   3.016   3.452  0.2282  0.4020  0.9251
 2663SOL    HW219452   1.083   2.936   3.541  1.3437 -0.7486  1.8306
 2664SOL     OW19453   1.277   1.014   3.916  0.0654 -0.0284  0.5899
 2664SOL    HW119454   1.276   1.005   3.821  1.6848 -1.5499  0.7335
 2664SOL    HW219455   1.269   1.109   3.921 -0.6107  0.0207 -1.1819
 2665SOL     OW19456   3.569   3.854   2.873 -0.1350 -0.2880  1.0896
 2665SOL    HW119457   3.589   3.936   2.919 -1.5777  2.3686 -3.0642
 2665SOL    HW219458   3.533   3.802   2.945 -0.1610  2.4315  3.0559
 2666SOL     OW19459   0.732   0.446   3.525 -0.1368  0.5285  0.5916
 2666SOL    HW119460   0.773   0.380   3.581 -0.2633  0.5608  0.7219
 2666SOL    HW219461   0.730   0.520   3.586  1.1388  0.9591  0.1097
 2667SOL     OW19462   2.631   1.974   6.572 -0.4270  0.5998  0.4204
 2667SOL    HW119463   2.613   1.956   6.479  1.1521  1.9436 -0.1562
 2667SOL    HW219464   2.584   1.907   6.622 -2.3387  0.4701 -1.5428
 2668SOL     OW19465   1.965   1.375   8.228 -0.0801 -0.1971 -0.0759
 2668SOL    HW119466   2.041   1.430   8.211  1.3997 -2.7141 -1.6445
 2668SOL    HW219467   1.986   1.319   8.302  0.5183 -0.1005 -0.1707
 2669SOL     OW19468   0.091   0.785   7.548  0.3597 -0.0637  0.7362
 2669SOL    HW119469   0.044   0.821   7.472 -3.7964 -0.2875  3.1971
 2669SOL    HW219470   0.009   0.759   7.590 -1.0136  2.3720 -0.4305
 2670SOL     OW19471   2.781   1.229  15.069  0.0363 -0.1674 -0.3976
 2670SOL    HW119472   2.810   1.304  15.017  1.2985 -0.3616  0.0309
 2670SOL    HW219473   2.710   1.264  15.123 -0.7640 -1.8934 -0.3141
 2671SOL     OW19474   2.813   1.907   3.960  0.1782 -0.2833 -0.0024
 2671SOL    HW119475   2.760   1.832   3.931 -0.0496 -0.8232  1.8038
 2671SOL    HW219476   2.890   1.865   4.000  1.4096 -0.3295 -2.3593
 2672SOL     OW19477   3.151   0.656   3.113  0.2954 -0.4739 -0.4675
 2672SOL    HW119478   3.206   0.593   3.160  1.4286  0.2024 -0.8857
 2672SOL    HW219479   3.164   0.731   3.171 -0.2730 -0.1727 -0.7401
 2673SOL     OW19480   2.037   4.681   7.571  0.4167  0.0754 -0.6261
 2673SOL    HW119481   1.993   4.719   7.495 -1.3950 -1.5208 -0.3501
 2673SOL    HW219482   1.969   4.669   7.638  2.9766 -0.1786  1.9168
 2674SOL     OW19483   0.982   3.041   8.995  0.2630 -0.3457  0.0770
 2674SOL    HW119484   0.988   2.990   8.914 -0.7061 -1.5825  0.7787
 2674SOL    HW219485   1.014   2.980   9.061  1.6793 -0.7239 -0.9355
 2675SOL     OW19486   1.946   2.404  15.022 -0.3733  0.2436 -0.6528
 2675SOL    HW119487   1.935   2.421  14.929 -0.1458 -0.2413 -0.7704
 2675SOL    HW219488   1.922   2.312  15.032  0.0803  0.6212  4.0020
 2676SOL     OW19489   1.065   3.648   8.567  0.3127  0.0450 -0.0541
 2676SOL    HW119490   1.131   3.579   8.566  1.8892  1.5476 -0.2305
 2676SOL    HW219491   1.021   3.627   8.485 -1.7937  2.2341  0.5307
 2677SOL     OW19492   1.618   2.438  11.962  0.4161 -0.1432  0.4621
 2677SOL    HW119493   1.703   2.449  12.004 -0.0153 -1.0131  1.5621
 2677SOL    HW219494   1.602   2.346  11.983 -1.6234  0.2259  0.5445
 2678SOL     OW19495   1.878   0.804   4.377  0.3633 -0.1375 -0.3143
 2678SOL    HW119496   1.907   0.875   4.435  0.0488  1.1705 -1.7545
 2678SOL    HW219497   1.948   0.741   4.394  0.1921 -0.0860  0.6107
 2679SOL     OW19498   0.364   2.219  17.120 -0.5740  0.0906 -0.2934
 2679SOL    HW119499   0.320   2.142  17.156 -0.7248 -0.2989 -1.3289
 2679SOL    HW219500   0.414   2.237  17.200  0.6621  0.8051 -1.2307
 2680SOL     OW19501   2.161   4.532   9.107  0.2902  0.2782 -0.0924
 2680SOL    HW119502   2.213   4.501   9.181  0.4011  0.7650  0.0354
 2680SOL    HW219503   2.228   4.541   9.039 -1.5860  3.5250 -1.5166
 2681SOL     OW19504   2.618   4.041   3.688 -0.1465  0.2097 -0.0755
 2681SOL    HW119505   2.545   3.995   3.645  1.0077  0.1509 -1.9277
 2681SOL    HW219506   2.693   3.984   3.672  1.1471  1.9602 -0.2373
 2682SOL     OW19507   1.435   0.680   7.242 -0.2212  0.4877 -0.4508
 2682SOL    HW119508   1.450   0.744   7.311 -2.0075 -1.3704  1.6532
 2682SOL    HW219509   1.520   0.674   7.199  0.1630  2.0786  0.0807
 2683SOL     OW19510   3.136   3.842   6.576  0.4881 -0.2961  0.0425
 2683SOL    HW119511   3.116   3.798   6.659 -0.0651  0.8111  0.4995
 2683SOL    HW219512   3.076   3.916   6.574  1.1872  0.2336 -1.5675
 2684SOL     OW19513   0.929   0.644  15.272  0.5498 -0.1028  0.0351
 2684SOL    HW119514   0.960   0.683  15.190  1.9016 -3.0907 -0.8834
 2684SOL    HW219515   0.890   0.560  15.249  0.7106  0.1296 -1.1271
 2685SOL     OW19516   4.584   0.336   1.507  0.5866  0.0972  0.0010
 2685SOL    HW119517   4.584   0.312   1.600  0.1138  0.6487  0.1401
 2685SOL    HW219518   4.610   0.252   1.470 -0.4085  0.3342 -1.2318
 2686SOL     OW19519   2.934   2.713  14.554  0.3925 -0.0819  0.1135
 2686SOL    HW119520   2.877   2.693  14.480 -1.7732 -2.1128  2.3177
 2686SOL    HW219521   2.876   2.743  14.625  0.3243  0.1213 -0.0283
 2687SOL     OW19522   3.807   4.128   9.848  0.4161 -0.4128 -0.6540
 2687SOL    HW119523   3.801   4.220   9.822 -0.6991 -0.7240 -1.5082
 2687SOL    HW219524   3.890   4.099   9.811  1.2274  0.7490  0.2640
 2688SOL     OW19525   2.745   1.454   8.660 -0.5171  0.3759  0.6786
 2688SOL    HW119526   2.691   1.404   8.722 -1.5289  2.3436  1.3667
 2688SOL    HW219527   2.759   1.388   8.593  0.3683  0.9734  0.2800
 2689SOL     OW19528   0.033   4.386   3.112 -0.1131  0.0840 -0.2666
 2689SOL    HW119529   0.033   4.303   3.064  0.0472 -0.5213  0.7681
 2689SOL    HW219530   4.700   4.439   3.058 -0.1907 -0.3878 -0.6496
 2690SOL     OW19531   0.977   0.937   7.480  0.2753 -0.3250  0.0096
 2690SOL    HW119532   1.062   0.905   7.448 -0.0619  1.1825 -2.3756
 2690SOL    HW219533   0.999   1.026   7.506  0.2721 -0.5448  0.7689
 2691SOL     OW19534   4.685   3.005   2.121  0.0523  0.7793  0.2338
 2691SOL    HW119535   0.010   3.020   2.041 -0.7270  0.9524 -0.2287
 2691SOL    HW219536   4.686   2.910   2.113 -0.8525  0.9142 -1.3968
 2692SOL     OW19537   3.858   0.347  16.481 -0.1059 -0.5296 -0.3631
 2692SOL    HW119538   3.838   0.384  16.567  0.2835  0.2658 -0.6193
 2692SOL    HW219539   3.934   0.397  16.452  0.2253  0.2406  1.8707
 2693SOL     OW19540   4.210   1.824  10.994 -0.5605 -0.5043  0.0078
 2693SOL    HW119541   4.160   1.828  10.912  1.6533  1.5087 -1.2576
 2693SOL    HW219542   4.297   1.842  10.960 -1.1832  2.2949 -0.1467
 2694SOL     OW19543   2.864   3.624   1.871 -0.0643  0.1207  0.3024
 2694SOL    HW119544   2.953   3.654   1.854  0.3774  0.4763  3.1199
 2694SOL    HW219545   2.869   3.606   1.965  1.5123 -1.9287 -0.1936
 2695SOL     OW19546   0.994   4.063   7.205  0.0726  0.0949  0.1143
 2695SOL    HW119547   0.932   4.105   7.265 -0.2258  0.3641 -0.3815
 2695SOL    HW219548   1.050   4.020   7.270 -0.0750 -0.7230 -0.3027
 2696SOL     OW19549   1.766   3.914  14.859 -0.2017  0.1682 -0.2076
 2696SOL    HW119550   1.799   3.886  14.945 -1.0073 -2.1488 -0.6435
 2696SOL    HW219551   1.821   3.991  14.845 -0.0671  0.3042  1.0952
 2697SOL     OW19552   4.114   2.429   7.871 -0.1619 -0.4159 -0.4052
 2697SOL    HW119553   4.050   2.372   7.830  0.8084 -0.2391 -2.1643
 2697SOL    HW219554   4.139   2.369   7.941 -0.5287 -1.1250 -0.8897
 2698SOL     OW19555   1.222   3.765   6.990  0.6354 -0.2355 -0.6007
 2698SOL    HW119556   1.141   3.713   6.985  0.6936 -0.4608  1.0751
 2698SOL    HW219557   1.284   3.736   6.923  1.5024 -2.6113  1.2376
 2699SOL     OW19558   0.521   4.666   4.124  0.0850  0.0792  0.1145
 2699SOL    HW119559   0.496   4.672   4.031  0.4459  2.1344  0.1486
 2699SOL    HW219560   0.615   4.667   4.107 -0.3074 -1.2684 -2.1388
 2700SOL     OW19561   4.245   1.360  15.411 -0.2899  0.0951 -0.0583
 2700SOL    HW119562   4.252   1.269  15.438 -0.2179  0.3796  0.9105
 2700SOL    HW219563   4.171   1.377  15.470  1.1336  2.9614  0.9181
 2701SOL     OW19564   0.932   0.023  15.916  0.3290  0.3161  0.1855
 2701SOL    HW119565   0.954   0.012  15.823 -0.3134  1.7597 -0.1332
 2701SOL    HW219566   0.905   4.659  15.940 -1.3126  0.5560 -0.7422
 2702SOL     OW19567   0.524   1.413  10.734  0.4343  0.1975 -0.5583
 2702SOL    HW119568   0.609   1.432  10.773  1.8620 -4.3434 -1.3712
 2702SOL    HW219569   0.474   1.436  10.812 -1.2857 -0.3788 -1.4931
 2703SOL     OW19570   0.807   4.655   4.013  0.5204  0.3555  0.2609
 2703SOL    HW119571   0.752   4.629   3.939  1.0624  2.1372 -0.7598
 2703SOL    HW219572   0.895   4.654   3.975 -0.1375  0.0810 -1.2821
 2704SOL     OW19573   4.030   0.788   1.421  0.2301 -0.6138  0.4216
 2704SOL    HW119574   3.970   0.862   1.421  1.8547  0.7227  4.1042
 2704SOL    HW219575   3.987   0.724   1.365 -1.7731 -1.6854  3.1667
 2705SOL     OW19576   1.295   4.165   8.305  0.1790  0.4723 -0.1137
 2705SOL    HW119577   1.204   4.142   8.284  0.6998 -0.6800 -1.0768
 2705SOL    HW219578   1.299   4.236   8.369  0.2286 -1.1291  1.6489
 2706SOL     OW19579   1.558   3.594  12.806 -0.0247 -0.3413 -0.8375
 2706SOL    HW119580   1.485   3.644  12.843  0.4331 -0.6839  0.5263
 2706SOL    HW219581   1.515   3.515  12.775  1.2296 -0.5976 -1.8906
 2707SOL     OW19582   0.848   1.781  12.749 -0.5939 -0.5966 -0.0571
 2707SOL    HW119583   0.861   1.777  12.843 -1.7301 -2.4453  0.0111
 2707SOL    HW219584   0.928   1.741  12.714 -0.9677 -1.3606 -0.0347
 2708SOL     OW19585   0.992   0.227   9.053 -0.2317  0.3823 -0.6361
 2708SOL    HW119586   1.004   0.241   9.147 -0.6330  1.3326 -0.7298
 2708SOL    HW219587   0.941   0.304   9.030 -1.1487 -0.2947 -0.8475
 2709SOL     OW19588   3.983   1.546   4.330 -0.2928 -0.7486  0.0047
 2709SOL    HW119589   4.041   1.489   4.280  1.1575 -0.0918  0.9138
 2709SOL    HW219590   4.042   1.594   4.389 -0.8080 -0.7319  0.5061
 2710SOL     OW19591   3.231   3.797   9.870  0.0824 -0.2373 -0.3984
 2710SOL    HW119592   3.202   3.854   9.799 -0.1605  1.2819  0.9366
 2710SOL    HW219593   3.215   3.850   9.948 -1.5940 -0.4745 -0.5853
 2711SOL     OW19594   2.484   2.663   8.081 -0.4759 -0.7322  0.9608
 2711SOL    HW119595   2.452   2.608   8.153  0.0178 -1.4601  0.6225
 2711SOL    HW219596   2.537   2.729   8.125 -2.2375  1.4167 -0.1274
 2712SOL     OW19597   2.720   0.516   0.960 -0.4894  0.6054  0.3113
 2712SOL    HW119598   2.732   0.541   1.051  1.3169  0.1455  0.1975
 2712SOL    HW219599   2.699   0.602   0.922  0.0473  0.3455 -0.5677
 2713SOL     OW19600   3.769   3.785  10.580  0.1267 -0.2098  0.6856
 2713SOL    HW119601   3.842   3.838  10.612  0.5553  0.7696 -1.8855
 2713SOL    HW219602   3.705   3.812  10.645  0.5548  0.5148  0.8072
 2714SOL     OW19603   1.476   1.053   9.234  0.6194  0.2237  0.4864
 2714SOL    HW119604   1.409   0.990   9.261  1.1818 -1.0963 -1.1904
 2714SOL    HW219605   1.535   1.053   9.309  0.1010 -2.5768  0.8873
 2715SOL     OW19606   2.204   4.661   8.201  0.0902 -0.3382 -0.3888
 2715SOL    HW119607   2.246   4.709   8.130 -1.4605  2.0579  0.2845
 2715SOL    HW219608   2.274   4.607   8.236 -0.7913 -0.8770  0.5589
 2716SOL     OW19609   1.098   2.475   0.496  0.4985  0.0871 -0.1550
 2716SOL    HW119610   1.129   2.498   0.584 -1.8081  0.1574  0.6545
 2716SOL    HW219611   1.086   2.381   0.512  3.4237 -0.4078 -0.9495
 2717SOL     OW19612   3.979   0.492   6.903  0.0604 -0.1692  0.1756
 2717SOL    HW119613   3.989   0.527   6.814 -2.6297 -1.1071 -0.4884
 2717SOL    HW219614   3.889   0.522   6.913 -0.0675 -0.6193  0.3583
 2718SOL     OW19615   2.803   4.386   7.832 -0.0181  0.2426  0.1029
 2718SOL    HW119616   2.882   4.360   7.878  0.2243  2.0903  0.7343
 2718SOL    HW219617   2.745   4.312   7.851  1.0768  0.1660  3.1213
 2719SOL     OW19618   3.198   2.175   6.461  0.8027  0.6034  0.4566
 2719SOL    HW119619   3.279   2.225   6.451  0.2083  1.0981 -2.0021
 2719SOL    HW219620   3.154   2.215   6.536  0.7283 -0.3004  0.8963
 2720SOL     OW19621   3.916   2.425   2.115 -0.0973 -0.3317 -0.5800
 2720SOL    HW119622   3.896   2.517   2.133 -1.9940 -0.8967  0.1932
 2720SOL    HW219623   3.969   2.400   2.191 -1.5414 -1.4370  0.0751
 2721SOL     OW19624   2.028   2.438  10.065  0.4763 -0.4342 -0.3934
 2721SOL    HW119625   2.108   2.487  10.049 -0.2998  0.9148 -0.1019
 2721SOL    HW219626   2.063   2.362  10.018  1.2790  1.2494 -2.5036
 2722SOL     OW19627   2.159   1.129   7.023  0.1408  0.0426 -0.3002
 2722SOL    HW119628   2.211   1.144   6.944 -0.3532 -1.1974 -0.8600
 2722SOL    HW219629   2.080   1.091   6.984  1.0171 -1.4507 -0.6121
 2723SOL     OW19630   2.283   4.391  11.844  0.0592  0.1399 -0.6300
 2723SOL    HW119631   2.247   4.476  11.871 -0.4502 -0.4302  0.4910
 2723SOL    HW219632   2.298   4.404  11.750 -1.7811  2.5934 -0.6190
 2724SOL     OW19633   1.856   3.712   7.424  0.5511 -0.1559 -0.4861
 2724SOL    HW119634   1.774   3.673   7.453  1.3961 -2.4378 -1.1738
 2724SOL    HW219635   1.846   3.795   7.471  2.8067 -0.1718  0.0245
 2725SOL     OW19636   3.820   1.919   0.764 -0.7155 -0.4878  0.1400
 2725SOL    HW119637   3.745   1.956   0.810 -1.5665 -1.0585 -0.7526
 2725SOL    HW219638   3.880   1.993   0.762 -0.4280 -0.7319 -0.4169
 2726SOL     OW19639   1.929   2.793   0.041 -0.7920 -0.0846  0.2710
 2726SOL    HW119640   2.014   2.821   0.076 -0.7141 -2.5678  2.0380
 2726SOL    HW219641   1.880   2.868   0.072 -2.7926 -1.4028  0.3151
 2727SOL     OW19642   3.746   2.315   6.180 -0.1964  0.1039  0.0319
 2727SOL    HW119643   3.816   2.378   6.201  1.5077 -1.7969  0.0608
 2727SOL    HW219644   3.669   2.365   6.208  0.4756  0.8587  0.5553
 2728SOL     OW19645   1.963   2.946   7.022 -0.0380  0.1650 -0.1659
 2728SOL    HW119646   1.908   3.004   7.073 -0.3377 -1.4022  1.2820
 2728SOL    HW219647   1.932   2.953   6.931  0.0720 -1.5911 -0.3464
 2729SOL     OW19648   3.929   0.432   3.052 -0.1515  0.4856 -0.0517
 2729SOL    HW119649   3.853   0.384   3.084  0.0185  0.1122 -0.2170
 2729SOL    HW219650   3.897   0.517   3.021 -0.1963  0.5386  0.1448
 2730SOL     OW19651   0.411   1.580   4.423  0.5530  0.0755 -0.5164
 2730SOL    HW119652   0.338   1.519   4.426 -0.1767  0.9659 -0.1762
 2730SOL    HW219653   0.454   1.552   4.343  0.8951  1.3466 -0.7738
 2731SOL     OW19654   0.068   0.449   6.764  0.3346  0.0037  0.7284
 2731SOL    HW119655   0.032   0.394   6.834 -1.1446  0.8758  0.6663
 2731SOL    HW219656   0.040   0.539   6.783 -0.8079  0.0612 -1.1938
 2732SOL     OW19657   2.026   2.277   3.479 -0.8620 -0.2788 -0.0623
 2732SOL    HW119658   2.077   2.243   3.405 -0.3291 -1.0698  0.6658
 2732SOL    HW219659   1.960   2.208   3.485 -1.6291  0.6961  2.8023
 2733SOL     OW19660   3.928   0.324   2.664 -0.0711  0.4002  0.9443
 2733SOL    HW119661   3.889   0.411   2.675 -1.4228 -0.3770  2.3618
 2733SOL    HW219662   3.995   0.342   2.599  0.6294  0.4002  1.6693
 2734SOL     OW19663   1.284   2.800   0.091  0.6707 -0.2988 -0.5109
 2734SOL    HW119664   1.251   2.802   0.001 -0.7492 -0.4333  0.0038
 2734SOL    HW219665   1.288   2.890   0.122 -2.7177 -1.2971  2.7720
 2735SOL     OW19666   2.838   1.533   4.781 -0.2179  0.3624 -0.4080
 2735SOL    HW119667   2.841   1.599   4.711 -1.0294  0.5014 -0.3148
 2735SOL    HW219668   2.765   1.484   4.743  0.9170  0.3846 -2.6006
 2736SOL     OW19669   2.626   3.911  15.193  0.2257  0.4190 -0.7764
 2736SOL    HW119670   2.693   3.930  15.258 -0.9162  0.0815  0.5149
 2736SOL    HW219671   2.641   3.987  15.136  0.3742  0.0210 -1.2667
 2737SOL     OW19672   1.978   0.317   7.750 -0.1562  0.0263  0.0208
 2737SOL    HW119673   1.950   0.335   7.660 -2.1601  2.0357  1.0517
 2737SOL    HW219674   2.058   0.266   7.742  0.2588  0.3485  2.1352
 2738SOL     OW19675   4.690   3.670  16.850 -0.6557  0.5339 -0.4607
 2738SOL    HW119676   4.623   3.602  16.851  1.4538 -1.5958 -1.9047
 2738SOL    HW219677   0.016   3.640  16.775 -0.3374  0.7242 -0.3221
 2739SOL     OW19678   2.430   2.347   8.961 -0.1410 -0.3419 -0.2054
 2739SOL    HW119679   2.460   2.437   8.975 -1.1825  0.0035 -0.2541
 2739SOL    HW219680   2.471   2.324   8.877 -0.7565  0.4246 -0.7138
 2740SOL     OW19681   3.030   4.155   7.803  0.4617  0.0971 -0.6881
 2740SOL    HW119682   3.021   4.194   7.890  0.2969 -0.5066 -0.4353
 2740SOL    HW219683   3.068   4.228   7.754  1.7405  0.2571  0.5431
 2741SOL     OW19684   2.637   4.219   6.402  0.1377  0.0435 -0.4878
 2741SOL    HW119685   2.617   4.138   6.354  2.1427  0.1403 -1.5080
 2741SOL    HW219686   2.731   4.202   6.416  0.0257  0.4467  0.7192
 2742SOL     OW19687   3.766   2.772  16.298  0.1574 -0.2859  0.5068
 2742SOL    HW119688   3.713   2.715  16.353  0.5462 -1.3403 -0.2172
 2742SOL    HW219689   3.825   2.709  16.257  1.3688  0.3637  1.2824
 2743SOL     OW19690   3.826   2.950  11.341  0.3608  0.6526 -0.3839
 2743SOL    HW119691   3.876   2.868  11.339 -0.6298 -0.0566  3.5949
 2743SOL    HW219692   3.826   2.977  11.432 -1.2416 -1.3790  0.2288
 2744SOL     OW19693   3.101   2.923   6.769 -0.0807 -0.9391 -0.0620
 2744SOL    HW119694   3.185   2.884   6.746  0.5177 -0.6601  1.6408
 2744SOL    HW219695   3.048   2.907   6.691 -2.2717 -4.1919  2.1159
 2745SOL     OW19696   3.804   4.576   3.696 -0.8004  0.0326 -0.1644
 2745SOL    HW119697   3.782   4.656   3.650 -1.3015 -0.2038 -0.3338
 2745SOL    HW219698   3.718   4.534   3.700  0.0862 -1.8413 -0.8327
 2746SOL     OW19699   2.805   4.647  15.175 -0.0770  0.0267  0.7422
 2746SOL    HW119700   2.881   4.593  15.196  0.3039 -0.3941 -1.7978
 2746SOL    HW219701   2.826   4.676  15.087  1.8302  1.2145  1.6042
 2747SOL     OW19702   3.080   4.141   8.446 -0.2021  0.4112 -0.3407
 2747SOL    HW119703   3.146   4.133   8.515 -1.0156 -0.9495  0.2705
 2747SOL    HW219704   3.074   4.048   8.423  2.7231  1.1011 -4.0996
 2748SOL     OW19705   0.709   2.469  13.399  0.2346  0.0499  0.3535
 2748SOL    HW119706   0.662   2.511  13.327 -1.0464 -1.3157  0.4044
 2748SOL    HW219707   0.747   2.391  13.359 -0.8859 -0.3837  0.1321
 2749SOL     OW19708   3.157   3.438   8.982  0.0298  0.4426  0.0481
 2749SOL    HW119709   3.232   3.450   9.040 -0.2976 -1.0814  0.7767
 2749SOL    HW219710   3.138   3.531   8.973  1.8235  0.8304  0.2546
 2750SOL     OW19711   3.535   1.591   6.692 -0.0462  0.2045  0.5362
 2750SOL    HW119712   3.452   1.556   6.724 -0.3335  3.0336  2.8526
 2750SOL    HW219713   3.577   1.509   6.665 -0.8884 -0.3018  0.7723
 2751SOL     OW19714   2.455   2.696  11.458  0.0731  0.3579 -0.0047
 2751SOL    HW119715   2.461   2.792  11.460 -1.3366  0.4413  0.0611
 2751SOL    HW219716   2.548   2.673  11.453 -0.0533 -0.4432  1.5415
 2752SOL     OW19717   3.933   1.402  13.006 -0.4741 -0.3118  0.2697
 2752SOL    HW119718   3.909   1.355  13.086  1.6131 -1.0131  0.4754
 2752SOL    HW219719   3.931   1.496  13.027 -3.0184 -0.0469 -1.1265
 2753SOL     OW19720   4.466   4.649   6.953 -0.2419 -0.1349 -0.1956
 2753SOL    HW119721   4.467   4.693   6.868 -0.3488 -1.8360 -1.0904
 2753SOL    HW219722   4.548   4.692   6.978  0.0524 -0.0050 -1.4016
 2754SOL     OW19723   2.469   1.141   3.893 -0.0375 -0.0679  0.6619
 2754SOL    HW119724   2.434   1.180   3.973  0.9139  1.0757  0.5095
 2754SOL    HW219725   2.452   1.207   3.826  0.5705 -1.0710 -0.4882
 2755SOL     OW19726   3.029   2.171   4.615 -0.1144  0.0667 -0.3510
 2755SOL    HW119727   3.066   2.187   4.528  0.3773  1.1415  0.0576
 2755SOL    HW219728   2.952   2.126   4.581 -0.0521 -0.3406  0.0413
 2756SOL     OW19729   1.319   2.863   0.918  0.3206  0.2738  0.3551
 2756SOL    HW119730   1.350   2.869   0.827 -0.5260  0.2095  0.0691
 2756SOL    HW219731   1.239   2.812   0.908  1.3076 -0.8303 -1.7664
 2757SOL     OW19732   4.097   4.058   1.011 -0.2609  0.4399  0.1067
 2757SOL    HW119733   4.018   4.027   1.055  0.5960 -0.2839  1.1428
 2757SOL    HW219734   4.147   3.980   0.987  0.1155  0.8334 -0.3787
 2758SOL     OW19735   3.780   4.445  14.791  0.1349 -0.2855 -0.0956
 2758SOL    HW119736   3.870   4.440  14.820 -0.1646 -0.1364  0.8414
 2758SOL    HW219737   3.767   4.528  14.743  3.4527 -0.0201 -0.5315
 2759SOL     OW19738   0.317   0.781   3.343 -0.1064  0.3623 -0.3882
 2759SOL    HW119739   0.258   0.780   3.418 -0.3284 -0.0696 -0.5688
 2759SOL    HW219740   0.373   0.857   3.362  0.8261 -0.9627  2.1117
 2760SOL     OW19741   2.618   1.639   0.573  0.3801  0.0683 -0.4799
 2760SOL    HW119742   2.573   1.672   0.495  1.1771  0.0005 -0.9777
 2760SOL    HW219743   2.698   1.692   0.577 -0.0191  0.5664  0.7719
 2761SOL     OW19744   0.514   4.685   8.245 -0.0513  0.1043  0.8156
 2761SOL    HW119745   0.438   4.702   8.300  0.3107  0.0182  1.3374
 2761SOL    HW219746   0.513   0.038   8.190 -1.0418 -0.8853 -0.5660
 2762SOL     OW19747   0.129   1.325   5.878  0.0541  0.1136 -0.0538
 2762SOL    HW119748   0.141   1.267   5.803  0.8298 -1.2556  1.1202
 2762SOL    HW219749   0.098   1.263   5.944 -0.4026  1.5522  1.0816
 2763SOL     OW19750   2.858   0.300   4.864  0.2195 -0.0390  0.3325
 2763SOL    HW119751   2.807   0.222   4.885  2.3480 -1.8426 -1.2063
 2763SOL    HW219752   2.802   0.372   4.896 -2.4124 -1.7765 -0.3411
 2764SOL     OW19753   3.487   3.844   3.871  0.1134 -0.6098  0.4025
 2764SOL    HW119754   3.395   3.865   3.882  0.6451  1.2721  1.2330
 2764SOL    HW219755   3.511   3.885   3.788 -2.2598  0.9872  0.5182
 2765SOL     OW19756   1.516   2.976   4.514 -0.0538  0.2750  0.1841
 2765SOL    HW119757   1.463   3.022   4.449  0.5310  1.2164  0.3731
 2765SOL    HW219758   1.450   2.984   4.583 -2.2889 -0.6101 -1.8598
 2766SOL     OW19759   0.376   4.555  14.111 -0.4367 -0.2699  0.1770
 2766SOL    HW119760   0.432   4.543  14.035  0.4472 -0.1830  0.8169
 2766SOL    HW219761   0.434   4.528  14.182  0.2040  1.1494  0.2020
 2767SOL     OW19762   3.109   3.575   7.121  0.2449 -0.4247 -0.3504
 2767SOL    HW119763   3.078   3.658   7.158  0.0652 -1.2269  1.3378
 2767SOL    HW219764   3.135   3.531   7.202  2.7290  0.4320 -0.6964
 2768SOL     OW19765   3.714   1.878  17.667  0.6499  0.0035 -0.0189
 2768SOL    HW119766   3.753   1.887  17.580 -1.7177  2.4342 -0.8138
 2768SOL    HW219767   3.687   1.786  17.667 -4.5457  1.5260  0.1952
 2769SOL     OW19768   1.225   4.523  17.019  0.1631  0.0378  0.2853
 2769SOL    HW119769   1.154   4.466  17.047 -0.6457 -0.1641 -2.1330
 2769SOL    HW219770   1.241   4.579  17.095 -2.3241  1.8724 -0.5566
 2770SOL     OW19771   3.107   4.712   7.863  0.0074 -0.2834 -0.0030
 2770SOL    HW119772   3.096   0.075   7.826 -0.6391  0.1260  1.1643
 2770SOL    HW219773   3.021   4.679   7.838 -1.2163  1.0588  2.4772
 2771SOL     OW19774   2.460   4.384  15.563 -0.5350 -0.0035 -0.2042
 2771SOL    HW119775   2.520   4.428  15.504 -0.2031  0.2639  0.3260
 2771SOL    HW219776   2.476   4.423  15.650  2.6918  1.8316 -1.6142
 2772SOL     OW19777   1.289   2.866  11.513  0.0755 -0.1289 -0.3371
 2772SOL    HW119778   1.354   2.896  11.576 -0.5669  0.7351 -0.0750
 2772SOL    HW219779   1.231   2.942  11.521 -0.3621 -0.3425 -1.5121
 2773SOL     OW19780   3.513   3.207   6.852 -0.4376 -0.2028  0.8541
 2773SOL    HW119781   3.498   3.282   6.910 -0.1682 -0.5940  1.4286
 2773SOL    HW219782   3.559   3.157   6.919  0.5347 -0.1036  0.2645
 2774SOL     OW19783   0.435   0.544   4.861  0.5192 -0.2973 -0.0427
 2774SOL    HW119784   0.420   0.604   4.788  3.1781  0.1364 -0.2313
 2774SOL    HW219785   0.517   0.580   4.896  0.3297  0.9948 -0.9172
 2775SOL     OW19786   3.183   1.491   7.459 -0.3099  0.5362  0.6095
 2775SOL    HW119787   3.099   1.525   7.490 -0.1532  0.9623  0.5594
 2775SOL    HW219788   3.237   1.492   7.538  2.6670 -0.8461 -1.4148
 2776SOL     OW19789   4.673   4.667   8.878  0.5082 -0.5666  0.1452
 2776SOL    HW119790   0.020   4.696   8.934 -0.4025 -0.9331  1.4929
 2776SOL    HW219791   4.711   4.608   8.813 -1.2567 -1.2499 -0.2754
 2777SOL     OW19792   3.120   0.906   3.657 -0.3234  0.9393 -0.4357
 2777SOL    HW119793   3.145   0.922   3.749 -0.7779  0.1107 -0.1680
 2777SOL    HW219794   3.132   0.990   3.613  2.9149  0.2383 -0.9177
 2778SOL     OW19795   2.675   2.648   6.226  0.1186  0.1817  0.6577
 2778SOL    HW119796   2.646   2.711   6.292 -1.3054  0.2360 -0.0316
 2778SOL    HW219797   2.740   2.596   6.274 -1.7109 -1.2532  1.5325
 2779SOL     OW19798   4.713   1.468   9.743  0.0997 -0.4114 -0.2495
 2779SOL    HW119799   0.035   1.475   9.660  0.1580  2.5136  0.0283
 2779SOL    HW219800   0.052   1.421   9.797 -0.5922 -1.7412 -0.5847
 2780SOL     OW19801   4.542   0.821   6.207 -0.4817  0.1045 -0.2186
 2780SOL    HW119802   4.478   0.802   6.275  1.8752 -0.6218  1.7977
 2780SOL    HW219803   4.498   0.763   6.145  0.0687 -0.5240 -0.0107
 2781SOL     OW19804   3.142   4.476   2.506 -0.5050  0.2080  0.2079
 2781SOL    HW119805   3.123   4.422   2.430 -1.9610 -0.2711  0.8971
 2781SOL    HW219806   3.215   4.429   2.546 -0.9952 -0.8636 -0.1667
 2782SOL     OW19807   1.844   3.966   7.557 -0.2758  0.2505  0.4711
 2782SOL    HW119808   1.919   3.948   7.613 -0.1671  1.8944  0.8546
 2782SOL    HW219809   1.833   4.061   7.568  2.2094  0.4609  0.9600
 2783SOL     OW19810   3.001   2.801   8.211  0.2233 -0.5870 -0.5772
 2783SOL    HW119811   3.055   2.832   8.139  0.3216  2.9453  0.9948
 2783SOL    HW219812   3.024   2.868   8.275 -1.2417 -0.2029 -0.4318
 2784SOL     OW19813   0.050   1.922   2.668 -0.3567 -0.3151 -0.0535
 2784SOL    HW119814   0.143   1.918   2.689 -0.5029  0.0788  0.6763
 2784SOL    HW219815   0.057   1.957   2.579  0.1520  0.9787  0.5053
 2785SOL     OW19816   2.879   2.259   5.211 -0.4117  0.0251  0.4471
 2785SOL    HW119817   2.830   2.322   5.158  1.5850  0.4706 -0.8493
 2785SOL    HW219818   2.924   2.217   5.138  0.8061 -0.2181  1.3347
 2786SOL     OW19819   3.741   3.386   8.707 -0.3078  0.1905  0.2371
 2786SOL    HW119820   3.666   3.329   8.723 -0.2591 -0.5181 -2.0863
 2786SOL    HW219821   3.725   3.411   8.616 -0.4909  1.9954  0.7654
 2787SOL     OW19822   0.250   0.618   0.484 -0.3671  0.1180  0.1940
 2787SOL    HW119823   0.255   0.523   0.498  1.9698  0.2173  0.1759
 2787SOL    HW219824   0.168   0.633   0.437  0.6147 -1.0936 -1.9233
 2788SOL     OW19825   0.209   1.791   4.261 -0.5508 -0.6580  0.1232
 2788SOL    HW119826   0.184   1.732   4.189  0.6376 -1.1479  0.1215
 2788SOL    HW219827   0.153   1.867   4.245  0.0270 -0.3674 -0.4891
 2789SOL     OW19828   1.212   0.752   6.140  0.3745 -0.2555 -0.3350
 2789SOL    HW119829   1.292   0.710   6.171 -0.4263 -0.8865  0.8440
 2789SOL    HW219830   1.231   0.746   6.046 -0.1591  1.5228 -0.5603
 2790SOL     OW19831   2.760   2.698  11.146 -0.2601  0.1561  0.3420
 2790SOL    HW119832   2.804   2.748  11.077 -0.1085 -0.0692  0.2764
 2790SOL    HW219833   2.763   2.613  11.102 -1.0208  1.5844 -2.5228
 2791SOL     OW19834   0.064   2.025   3.937 -0.0615  0.1527 -0.3634
 2791SOL    HW119835   0.112   1.981   3.867 -0.4675  1.1181 -1.2455
 2791SOL    HW219836   4.704   1.982   3.934  0.1979 -0.3895 -0.0715
 2792SOL     OW19837   2.348   3.959   0.638 -0.2545  0.0932 -0.2829
 2792SOL    HW119838   2.432   3.945   0.594  0.3236  0.9525  0.5538
 2792SOL    HW219839   2.354   4.052   0.661  1.0626  0.1126 -0.7163
 2793SOL     OW19840   4.126   4.417   2.014  0.0373 -0.6217 -0.1387
 2793SOL    HW119841   4.038   4.397   1.983 -0.0049 -1.7061  0.6674
 2793SOL    HW219842   4.174   4.394   1.935 -1.9473 -0.8100 -1.2861
 2794SOL     OW19843   0.041   3.829   2.396  1.0874 -0.3101  0.2527
 2794SOL    HW119844   0.005   3.744   2.422 -1.4360  1.2542  1.8568
 2794SOL    HW219845   0.134   3.807   2.401  1.3659  0.8635  0.1492
 2795SOL     OW19846   0.751   3.382   0.039  0.0202 -0.4404 -0.7073
 2795SOL    HW119847   0.806   3.339   0.104 -1.2761 -0.1997  0.5440
 2795SOL    HW219848   0.666   3.352   0.071  0.5188  0.6295  1.6339
 2796SOL     OW19849   0.091   0.584   0.267  0.2099 -0.2302  0.0687
 2796SOL    HW119850   0.002   0.617   0.256  0.2468 -0.1590 -0.0210
 2796SOL    HW219851   0.090   0.501   0.219  3.1894 -0.6600  0.6982
 2797SOL     OW19852   4.036   4.567   7.332  0.6525  0.0147  0.1473
 2797SOL    HW119853   4.019   4.588   7.241  0.6681  0.2793  0.2055
 2797SOL    HW219854   4.088   4.644   7.356  0.9047  0.3930 -1.6076
 2798SOL     OW19855   4.015   0.263   1.456  0.4122  0.3557 -0.1767
 2798SOL    HW119856   4.041   0.180   1.416 -1.0978  1.2755 -3.0536
 2798SOL    HW219857   4.080   0.323   1.418  0.9667 -1.2246 -1.7366
 2799SOL     OW19858   3.002   2.571   8.348 -0.4145 -0.5480 -0.1872
 2799SOL    HW119859   3.028   2.505   8.283  0.0582 -0.5331 -0.0147
 2799SOL    HW219860   2.989   2.655   8.304  0.8517  0.5947  1.6337
 2800SOL     OW19861   2.162   1.108   1.287 -0.3002  0.3240 -0.4136
 2800SOL    HW119862   2.200   1.023   1.310  0.8923  0.8057 -0.6288
 2800SOL    HW219863   2.206   1.171   1.345 -2.3003 -0.5006  2.0301
 2801SOL     OW19864   2.896   4.144   6.412 -0.2013  0.2918 -0.0938
 2801SOL    HW119865   2.926   4.101   6.492 -0.3184  0.2447 -0.0748
 2801SOL    HW219866   2.929   4.090   6.341 -1.6742  1.3083 -1.5358
 2802SOL     OW19867   1.780   4.234  14.178 -0.3973 -0.9092 -0.3853
 2802SOL    HW119868   1.775   4.327  14.203 -3.2683 -0.9662 -0.7521
 2802SOL    HW219869   1.816   4.206  14.262  0.0169  0.7064 -0.0292
 2803SOL     OW19870   1.770   1.277   7.429 -0.1842  0.9688 -0.2628
 2803SOL    HW119871   1.724   1.290   7.512 -0.3739  0.3230 -0.2598
 2803SOL    HW219872   1.835   1.219   7.470  1.2599  2.0102 -1.0820
 2804SOL     OW19873   1.755   0.420   8.874 -0.1611 -0.5313  0.0810
 2804SOL    HW119874   1.846   0.395   8.859  0.0470  0.9883 -1.1773
 2804SOL    HW219875   1.764   0.437   8.968  1.3714 -1.6874  0.1488
 2805SOL     OW19876   0.416   0.222  16.899  0.2837 -0.4131 -0.0493
 2805SOL    HW119877   0.430   0.317  16.898 -1.0093 -0.2239 -0.8115
 2805SOL    HW219878   0.391   0.215  16.992 -1.3396 -1.0254 -0.5275
 2806SOL     OW19879   3.386   1.719   8.548 -0.2068  0.3860 -0.2476
 2806SOL    HW119880   3.438   1.717   8.628 -0.6819  1.0420  0.0808
 2806SOL    HW219881   3.341   1.803   8.546 -1.2416 -0.1716 -0.5380
 2807SOL     OW19882   3.257   2.257   9.647  0.0516  0.4285  0.3397
 2807SOL    HW119883   3.219   2.209   9.573  1.7398  0.5544 -0.6129
 2807SOL    HW219884   3.327   2.304   9.600  1.7579 -3.2930 -0.8479
 2808SOL     OW19885   0.537   0.477   8.180  0.2802 -0.0481 -0.0955
 2808SOL    HW119886   0.513   0.533   8.254  2.2316 -2.4089  2.3402
 2808SOL    HW219887   0.553   0.542   8.112 -2.3537 -0.0668 -0.7377
 2809SOL     OW19888   3.691   2.621  15.753  0.1543 -0.0685 -0.1016
 2809SOL    HW119889   3.737   2.631  15.837 -0.8044  0.8562  0.3113
 2809SOL    HW219890   3.698   2.709  15.717  0.3112  0.1105  0.3600
 2810SOL     OW19891   3.826   1.258   5.706 -0.1633  0.0664  1.0719
 2810SOL    HW119892   3.821   1.167   5.677  1.7662 -0.4145  2.2544
 2810SOL    HW219893   3.845   1.248   5.799 -0.8304 -3.2919  0.8516
 2811SOL     OW19894   2.621   1.553  11.989 -0.6131  0.2791  0.9663
 2811SOL    HW119895   2.590   1.497  11.918  1.7747  2.0230 -1.4495
 2811SOL    HW219896   2.540   1.603  11.994 -2.8653 -2.9261 -3.4371
 2812SOL     OW19897   0.863   2.418  11.793  0.3097 -0.0124 -0.4845
 2812SOL    HW119898   0.897   2.331  11.774  0.8211 -0.1688  1.1774
 2812SOL    HW219899   0.941   2.473  11.786  0.8527 -0.8212 -0.7863
 2813SOL     OW19900   2.965   3.321   5.532  0.6355 -0.2864  0.4273
 2813SOL    HW119901   2.941   3.388   5.596  0.4931 -1.7380  1.8825
 2813SOL    HW219902   2.939   3.369   5.453  3.5828 -1.1106 -1.0486
 2814SOL     OW19903   1.500   3.392  13.902 -0.1314  0.1914 -0.3262
 2814SOL    HW119904   1.420   3.340  13.906  0.1049 -0.0869  1.0266
 2814SOL    HW219905   1.560   3.343  13.846 -0.8493 -0.2923 -0.6657
 2815SOL     OW19906   4.388   2.533   1.674  0.3896  0.6785 -0.1749
 2815SOL    HW119907   4.359   2.523   1.765 -0.3073  1.3598 -0.3290
 2815SOL    HW219908   4.461   2.471   1.674  0.4662  0.7511  1.8013
 2816SOL     OW19909   3.420   0.615   9.415 -0.3799  0.0846 -0.1191
 2816SOL    HW119910   3.454   0.693   9.458 -0.4029  0.8425 -1.4719
 2816SOL    HW219911   3.481   0.592   9.345  0.8836  0.5893  0.8309
 2817SOL     OW19912   2.663   0.680   5.456 -0.4954 -0.7371  0.4122
 2817SOL    HW119913   2.711   0.710   5.379  0.4722  0.3169  1.4146
 2817SOL    HW219914   2.725   0.717   5.519  3.2491 -3.3369 -1.7757
 2818SOL     OW19915   4.305   0.270  11.982  0.4940 -0.2129  0.2230
 2818SOL    HW119916   4.368   0.223  12.037  1.3184  1.3134  0.5581
 2818SOL    HW219917   4.239   0.200  11.992 -0.8106  1.2411  1.6914
 2819SOL     OW19918   0.982   0.499   4.880  0.4866 -0.6432 -0.2763
 2819SOL    HW119919   0.898   0.454   4.876  0.2613 -0.2839  0.3263
 2819SOL    HW219920   1.027   0.458   4.807  1.7547 -0.3418  0.3308
 2820SOL     OW19921   4.125   3.919   7.246  0.1968  0.0942  0.2778
 2820SOL    HW119922   4.037   3.944   7.216  0.3942 -0.6102 -0.9153
 2820SOL    HW219923   4.114   3.904   7.340 -3.9460 -3.1500 -0.6912
 2821SOL     OW19924   3.548   4.258   5.512  0.1867 -0.1437  0.0205
 2821SOL    HW119925   3.594   4.315   5.450  1.5778  0.1683  1.3453
 2821SOL    HW219926   3.543   4.182   5.454  2.0690  2.4025 -3.5111
 2822SOL     OW19927   0.339   0.698  10.271  0.4613  0.2052 -0.0975
 2822SOL    HW119928   0.322   0.696  10.365  1.1012 -1.4450 -0.0126
 2822SOL    HW219929   0.292   0.617  10.249  0.2501  0.1052  0.7422
 2823SOL     OW19930   2.420   3.432   0.932  0.4677  0.1858  0.7658
 2823SOL    HW119931   2.359   3.503   0.910  2.4629  1.1969 -1.5034
 2823SOL    HW219932   2.447   3.457   1.020 -0.5247 -0.4853  1.2598
 2824SOL     OW19933   4.680   2.758   6.682  0.1599  0.1509 -0.4831
 2824SOL    HW119934   4.597   2.726   6.649  1.3696  0.3975 -3.7544
 2824SOL    HW219935   4.663   2.852   6.679 -0.7991  0.0181  0.9784
 2825SOL     OW19936   4.438   0.132   9.496  0.2804 -0.0265 -0.7254
 2825SOL    HW119937   4.395   0.174   9.422 -0.2347  1.9514  0.7080
 2825SOL    HW219938   4.484   0.052   9.469 -1.2487 -1.7708  1.7842
 2826SOL     OW19939   0.175   1.896   7.189  0.0957 -0.0439 -0.0040
 2826SOL    HW119940   0.086   1.928   7.170 -0.5303 -2.7240 -1.5552
 2826SOL    HW219941   0.141   1.813   7.222 -1.6291  0.9442  0.7111
 2827SOL     OW19942   1.042   2.758  13.137 -0.1104 -0.2311 -0.1048
 2827SOL    HW119943   1.119   2.735  13.190 -1.7668  1.0780  2.9036
 2827SOL    HW219944   0.983   2.798  13.201 -0.8554  0.3128 -1.1413
 2828SOL     OW19945   3.942   2.484  14.941 -0.5866 -0.0210  0.5814
 2828SOL    HW119946   3.908   2.399  14.970 -1.1339 -0.4696 -1.3468
 2828SOL    HW219947   4.021   2.493  14.993 -0.0705 -1.0488 -0.0107
 2829SOL     OW19948   3.799   3.847   7.697 -0.2586  0.2465 -0.2253
 2829SOL    HW119949   3.769   3.831   7.786  1.7883 -2.4432 -0.0357
 2829SOL    HW219950   3.751   3.924   7.668  0.3098  0.5160 -0.4630
 2830SOL     OW19951   4.696   2.324  14.023  0.1485  0.3147  0.6145
 2830SOL    HW119952   4.642   2.315  13.944  0.2144 -0.1944  0.6268
 2830SOL    HW219953   4.639   2.306  14.097  1.1122 -3.6559  0.3592
 2831SOL     OW19954   4.511   2.226  11.796 -0.3082  0.4414 -0.1922
 2831SOL    HW119955   4.498   2.135  11.824 -0.1739  1.0090  1.7434
 2831SOL    HW219956   4.421   2.256  11.810 -0.1491  0.6225  0.4761
 2832SOL     OW19957   1.900   1.432   0.508  0.1368 -0.2076 -0.6137
 2832SOL    HW119958   1.934   1.518   0.533  0.6263 -0.7832  0.6493
 2832SOL    HW219959   1.880   1.440   0.414 -0.1263 -1.4570 -0.6612
 2833SOL     OW19960   0.417   2.929   8.528  0.4933  0.3563 -0.4283
 2833SOL    HW119961   0.357   2.854   8.520  1.4147 -0.5365  0.9972
 2833SOL    HW219962   0.417   2.936   8.624 -1.2443  2.0201 -0.5700
 2834SOL     OW19963   3.560   4.293   9.612  0.1362 -0.3195  0.0746
 2834SOL    HW119964   3.528   4.285   9.522  0.0579 -0.3590  0.1056
 2834SOL    HW219965   3.621   4.365   9.604 -0.2597 -0.3737 -3.3551
 2835SOL     OW19966   4.558   4.644  12.740 -0.8350 -0.3974 -0.5906
 2835SOL    HW119967   4.466   4.617  12.738 -1.0012  0.0664  0.6973
 2835SOL    HW219968   4.565   4.674  12.830 -2.3093 -1.6095 -0.0763
 2836SOL     OW19969   3.239   2.587   2.169 -0.1520  0.2816  0.0401
 2836SOL    HW119970   3.220   2.670   2.125 -2.8840 -0.7850 -0.7724
 2836SOL    HW219971   3.306   2.545   2.115 -1.8219 -0.9437 -1.0776
 2837SOL     OW19972   1.747   0.727   8.769  0.6724  0.1538 -0.2915
 2837SOL    HW119973   1.743   0.822   8.772 -4.5750 -0.0934  0.5060
 2837SOL    HW219974   1.754   0.713   8.675  0.7807  0.7227 -0.3667
 2838SOL     OW19975   1.341   2.113   1.942 -0.0863 -0.0329  0.2748
 2838SOL    HW119976   1.298   2.197   1.924  2.0602  1.0422  0.1496
 2838SOL    HW219977   1.367   2.129   2.033  0.6115  2.5562 -0.3737
 2839SOL     OW19978   4.180   0.842   2.965  0.1790  0.2908 -0.2641
 2839SOL    HW119979   4.196   0.786   2.889  2.2785 -0.2957  0.6098
 2839SOL    HW219980   4.169   0.925   2.920 -0.7801  0.5850  0.4982
 2840SOL     OW19981   3.606   0.080   5.566  0.0233  0.1599 -0.9588
 2840SOL    HW119982   3.537   0.136   5.601  0.4721 -0.2168  0.5318
 2840SOL    HW219983   3.620   0.001   5.618 -1.1511  1.1899  0.8791
 2841SOL     OW19984   0.759   1.946   4.173  0.4070  0.5706 -0.4986
 2841SOL    HW119985   0.719   1.945   4.085 -1.0884 -2.6078  0.2412
 2841SOL    HW219986   0.763   1.854   4.197  1.5298  0.8257  0.2968
 2842SOL     OW19987   1.824   0.591   2.288 -0.0287 -0.3475 -0.1186
 2842SOL    HW119988   1.870   0.674   2.275  0.7175 -0.6766  0.4105
 2842SOL    HW219989   1.738   0.617   2.323 -0.6362 -1.6105 -0.6887
 2843SOL     OW19990   1.461   3.620   6.565  0.3539 -0.2933 -0.5896
 2843SOL    HW119991   1.433   3.548   6.509 -0.1642 -0.6396  0.1207
 2843SOL    HW219992   1.557   3.615   6.567  0.3307 -0.3336  0.9303
 2844SOL     OW19993   0.533   2.942  16.001 -0.1051 -0.0255 -0.1623
 2844SOL    HW119994   0.520   2.928  15.907  0.6327 -1.2851 -0.0783
 2844SOL    HW219995   0.575   3.027  16.005 -0.3969  0.1068  0.1186
 2845SOL     OW19996   3.599   0.810   4.386  0.1993 -0.2359 -0.1508
 2845SOL    HW119997   3.642   0.728   4.411  2.5892  1.1663  0.3078
 2845SOL    HW219998   3.660   0.828   4.314 -0.8628  2.0616 -0.4584
 2846SOL     OW19999   3.270   1.649  17.073  0.1988  0.0198 -0.5972
 2846SOL    HW120000   3.318   1.594  17.010  2.2091 -0.7393  1.6215
 2846SOL    HW220001   3.293   1.742  17.069 -0.5149  0.3254  3.1601
 2847SOL     OW20002   0.081   1.076   6.058  0.0904 -0.5864  0.1702
 2847SOL    HW120003   0.038   1.113   6.135  0.2010 -0.1177  0.0062
 2847SOL    HW220004   0.063   0.982   6.058 -0.8775 -0.3981  1.7564
 2848SOL     OW20005   1.390   0.238   2.097 -0.2092 -0.2463  0.2692
 2848SOL    HW120006   1.367   0.148   2.121  1.6302 -0.7676  0.0982
 2848SOL    HW220007   1.322   0.295   2.133 -0.9498 -0.1968 -1.2419
 2849SOL     OW20008   4.584   2.914   2.438  0.2624 -0.0014  0.1681
 2849SOL    HW120009   4.620   2.998   2.410  0.8559 -0.7360 -1.3076
 2849SOL    HW220010   4.492   2.914   2.411  0.1938 -0.9940  0.3866
 2850SOL     OW20011   1.326   1.110   2.408 -0.3626 -0.3853  0.9775
 2850SOL    HW120012   1.285   1.062   2.336  2.2170 -0.9809 -0.1112
 2850SOL    HW220013   1.265   1.099   2.480 -0.7287  0.3525  0.7774
 2851SOL     OW20014   1.876   3.898  17.036  0.2579  0.0031  0.4442
 2851SOL    HW120015   1.939   3.887  16.964 -0.1091 -2.2000  0.4562
 2851SOL    HW220016   1.823   3.973  17.009 -1.5222 -1.1966  0.6140
 2852SOL     OW20017   1.925   2.505   6.497  0.0103 -0.3340  0.5228
 2852SOL    HW120018   1.901   2.577   6.555 -0.5127  0.6228 -0.8853
 2852SOL    HW220019   1.906   2.427   6.549 -1.4389 -0.6640 -0.5136
 2853SOL     OW20020   3.961   1.698   7.660 -0.0737  0.0253  0.2819
 2853SOL    HW120021   3.873   1.709   7.625 -0.2216 -3.6883 -0.5215
 2853SOL    HW220022   3.966   1.771   7.721 -3.2928 -0.8161  1.5577
 2854SOL     OW20023   3.113   2.603  10.915  0.0747  0.5622 -0.4458
 2854SOL    HW120024   3.113   2.681  10.970  0.0424 -0.3168  0.7877
 2854SOL    HW220025   3.165   2.634  10.841  1.8180 -2.3625 -0.4480
 2855SOL     OW20026   3.854   0.196   5.767  0.6710 -0.0050  0.5457
 2855SOL    HW120027   3.941   0.168   5.738  0.2770 -0.4199 -0.2444
 2855SOL    HW220028   3.805   0.116   5.784 -1.2999  1.1417  0.3466
 2856SOL     OW20029   3.871   0.052   7.803  0.0275  0.2933  0.0593
 2856SOL    HW120030   3.895   0.008   7.885 -2.4438  1.7068  1.5413
 2856SOL    HW220031   3.835   4.701   7.758 -1.8543  0.2103  1.7115
 2857SOL     OW20032   1.377   0.863   4.751 -0.0319 -0.1873 -0.4041
 2857SOL    HW120033   1.314   0.795   4.774 -0.2082  0.0973 -0.0711
 2857SOL    HW220034   1.443   0.806   4.710 -0.1823  0.4370 -1.5185
 2858SOL     OW20035   1.866   0.431   6.941 -0.2406 -0.6224 -0.4309
 2858SOL    HW120036   1.814   0.472   7.010  1.3174 -0.0862  0.4412
 2858SOL    HW220037   1.802   0.365   6.916 -0.9870 -0.0703  0.0468
 2859SOL     OW20038   3.756   4.158  11.270  0.2349 -0.1946 -0.3721
 2859SOL    HW120039   3.824   4.099  11.302  0.7469 -0.7713 -2.5841
 2859SOL    HW220040   3.797   4.244  11.280  0.1058  0.1254 -2.7051
 2860SOL     OW20041   0.231   1.685   5.606 -0.0311  0.1705 -0.3359
 2860SOL    HW120042   0.232   1.668   5.700  0.9974 -0.6273 -0.4894
 2860SOL    HW220043   0.192   1.608   5.565 -0.7563 -0.4422  1.5197
 2861SOL     OW20044   4.704   4.694   7.107 -0.0143 -0.0247  0.0144
 2861SOL    HW120045   4.675   0.007   7.190 -0.5926  1.1970 -0.7462
 2861SOL    HW220046   0.046   4.635   7.139 -2.0053 -2.3432 -0.0853
 2862SOL     OW20047   3.094   2.450   4.551  0.0544 -0.3287 -0.3294
 2862SOL    HW120048   3.188   2.436   4.550  0.0940 -0.3408  4.4744
 2862SOL    HW220049   3.074   2.430   4.460  0.7055 -1.5168 -0.2147
 2863SOL     OW20050   1.941   3.195   5.798 -0.0706 -0.3830 -0.2299
 2863SOL    HW120051   1.869   3.218   5.857  1.0555  0.9153  0.6379
 2863SOL    HW220052   2.007   3.242   5.850  0.6277  0.2577 -1.6875
 2864SOL     OW20053   0.128   3.326   1.425 -0.1571  0.0462 -0.0183
 2864SOL    HW120054   0.154   3.248   1.475 -2.2443  0.2192  1.3356
 2864SOL    HW220055   0.194   3.327   1.356 -0.7258  0.0256 -0.5533
 2865SOL     OW20056   1.850   2.695   3.793  0.1895 -0.3546 -0.3163
 2865SOL    HW120057   1.937   2.661   3.776 -0.3423 -0.8063 -2.0752
 2865SOL    HW220058   1.822   2.663   3.879  2.3402  0.6779  0.7705
 2866SOL     OW20059   0.771   3.395  11.275  0.0410  0.1795 -0.0802
 2866SOL    HW120060   0.685   3.377  11.238  0.8969 -2.1261 -0.9108
 2866SOL    HW220061   0.793   3.478  11.233  0.3332  0.2819  0.2700
 2867SOL     OW20062   3.662   0.842   1.805 -0.4327  0.8450  0.0611
 2867SOL    HW120063   3.582   0.879   1.843  0.9331  1.2347  2.5974
 2867SOL    HW220064   3.686   0.910   1.742  0.9429 -0.1889 -0.5252
 2868SOL     OW20065   1.441   4.564   8.980 -0.0155 -0.1478  0.0909
 2868SOL    HW120066   1.429   4.625   9.052 -1.2756  2.0222 -1.9739
 2868SOL    HW220067   1.501   4.498   9.016  0.8161 -1.1165 -3.0377
 2869SOL     OW20068   1.196   3.192   8.605  0.4793 -0.2729  0.0347
 2869SOL    HW120069   1.195   3.228   8.694 -0.4356  1.5237 -0.6905
 2869SOL    HW220070   1.109   3.152   8.603 -1.1487  3.0838  1.5884
 2870SOL     OW20071   3.417   0.189   0.250 -0.0920 -0.4051  0.1019
 2870SOL    HW120072   3.412   0.123   0.319  0.5222  0.1986  0.7182
 2870SOL    HW220073   3.366   0.147   0.180  0.5450 -1.0936  0.0555
 2871SOL     OW20074   2.962   4.694   0.898 -0.8490  0.4201 -0.1940
 2871SOL    HW120075   2.932   0.035   0.835  3.3939  1.8528 -0.7769
 2871SOL    HW220076   3.040   4.661   0.852 -0.9396 -1.0202  0.6776
 2872SOL     OW20077   1.025   0.174   6.756  0.2465 -0.1454 -0.2332
 2872SOL    HW120078   1.019   0.132   6.670  0.3277 -1.0292  0.1975
 2872SOL    HW220079   0.955   0.238   6.746  1.1440  0.8653  0.0003
 2873SOL     OW20080   3.434   0.701   2.869  0.0627  0.0652 -0.1988
 2873SOL    HW120081   3.476   0.621   2.901 -0.6611 -0.6784 -1.0808
 2873SOL    HW220082   3.392   0.733   2.949  1.7549  0.4947  0.5129
 2874SOL     OW20083   3.938   0.270   5.045  0.1344  0.0038  0.0044
 2874SOL    HW120084   3.935   0.354   5.091  0.3102  0.3238 -0.5659
 2874SOL    HW220085   4.033   0.257   5.039  0.6160  2.8238  1.7224
 2875SOL     OW20086   3.344   1.706  12.946 -0.1186  0.2488 -0.5722
 2875SOL    HW120087   3.276   1.766  12.977  0.2595 -0.8185  2.3650
 2875SOL    HW220088   3.293   1.627  12.927 -0.7992  0.2312  1.2655
 2876SOL     OW20089   0.210   3.514  14.999  0.2038  0.0866 -0.1788
 2876SOL    HW120090   0.283   3.518  15.060 -0.5784 -0.5378  0.7916
 2876SOL    HW220091   0.258   3.531  14.918  2.9661  1.4019  1.7427
 2877SOL     OW20092   2.409   0.696  12.474  0.1173 -0.1435 -0.1238
 2877SOL    HW120093   2.441   0.778  12.438 -1.1063  0.3946  0.0168
 2877SOL    HW220094   2.452   0.694  12.560 -0.8728  0.8150  0.3934
 2878SOL     OW20095   1.141   1.285   1.090  0.2290  0.1018 -0.2151
 2878SOL    HW120096   1.155   1.262   0.998  0.3809 -1.7382  0.2851
 2878SOL    HW220097   1.066   1.232   1.116  0.1210  1.2776  1.8419
 2879SOL     OW20098   4.222   1.735  14.568  0.4220  0.0588  0.0158
 2879SOL    HW120099   4.132   1.765  14.583  0.2518 -0.1440 -0.5958
 2879SOL    HW220100   4.194   1.682  14.494  0.1804  2.5693 -1.7069
 2880SOL     OW20101   2.728   4.301   4.329 -0.5050 -0.1954 -0.0303
 2880SOL    HW120102   2.701   4.215   4.359 -2.2442  0.5740  0.6321
 2880SOL    HW220103   2.639   4.335   4.325 -0.1518  0.9583  1.6171
 2881SOL     OW20104   3.163   3.114  15.276 -0.3566  0.0873  0.2436
 2881SOL    HW120105   3.128   3.191  15.231 -1.5323 -0.8898 -0.5167
 2881SOL    HW220106   3.234   3.155  15.326 -1.7466 -0.1003  2.3788
 2882SOL     OW20107   2.266   0.373   8.388 -0.1779 -0.3139  0.1045
 2882SOL    HW120108   2.201   0.358   8.457 -2.2914 -0.0046 -1.8187
 2882SOL    HW220109   2.320   0.298   8.412  2.6586  1.7732  0.2729
 2883SOL     OW20110   4.427   0.912   4.521 -0.2856 -0.1090 -0.2795
 2883SOL    HW120111   4.443   1.006   4.528  1.0165 -0.4487  1.4669
 2883SOL    HW220112   4.488   0.882   4.589 -1.2542  0.6498  0.9210
 2884SOL     OW20113   3.814   2.637  16.869 -1.0217 -0.0206 -0.5098
 2884SOL    HW120114   3.852   2.662  16.785  1.4310  1.8110  1.1406
 2884SOL    HW220115   3.835   2.712  16.924  0.0121 -0.7866  0.1243
 2885SOL     OW20116   3.995   1.210   1.362 -0.5023  0.3192  0.3024
 2885SOL    HW120117   3.999   1.135   1.303  1.7563 -0.0485  0.9423
 2885SOL    HW220118   3.986   1.168   1.447 -3.4297 -0.4488 -0.3836
 2886SOL     OW20119   2.033   4.535   9.665 -0.0572 -0.1112 -0.2948
 2886SOL    HW120120   2.024   4.447   9.702  0.0590  0.0558  0.1404
 2886SOL    HW220121   1.980   4.527   9.586 -1.3434  1.0141  0.4526
 2887SOL     OW20122   0.835   2.123   6.956  0.0691  0.0442 -0.1518
 2887SOL    HW120123   0.766   2.064   6.928 -0.5707  0.2746  0.9222
 2887SOL    HW220124   0.811   2.164   7.039  1.8683 -0.6123  0.7039
 2888SOL     OW20125   1.528   2.136   1.569 -0.0343  0.1204 -0.1049
 2888SOL    HW120126   1.548   2.067   1.633  1.1827 -0.4450 -1.1011
 2888SOL    HW220127   1.544   2.096   1.484  0.9615  0.0605  0.1079
 2889SOL     OW20128   0.592   1.564   2.224  0.4469 -0.1795 -0.2584
 2889SOL    HW120129   0.671   1.541   2.273 -0.4716  0.8149  1.6521
 2889SOL    HW220130   0.618   1.557   2.132 -0.9776 -2.3334 -0.5048
 2890SOL     OW20131   0.152   3.646  13.406 -0.2835  0.1319  0.0864
 2890SOL    HW120132   0.100   3.667  13.329  0.0379 -0.9731 -0.4231
 2890SOL    HW220133   0.090   3.650  13.479 -0.5071  0.1809 -0.1072
 2891SOL     OW20134   4.518   4.431   8.467  0.1047  0.1233 -0.3856
 2891SOL    HW120135   4.597   4.380   8.449  0.2190 -0.1113  0.8158
 2891SOL    HW220136   4.501   4.398   8.555 -0.0956 -0.9640 -0.8427
 2892SOL     OW20137   0.043   3.060   5.408 -0.1852  0.0820 -0.3484
 2892SOL    HW120138   4.681   3.088   5.435 -0.5704 -0.7134 -0.7560
 2892SOL    HW220139   0.098   3.093   5.478  1.2523 -0.7967 -1.0619
 2893SOL     OW20140   3.055   2.259   8.386 -0.5047  0.2367 -0.1906
 2893SOL    HW120141   3.130   2.302   8.427 -0.5439  0.3498 -0.2399
 2893SOL    HW220142   2.996   2.225   8.454  0.9713  2.3180  2.1223
 2894SOL     OW20143   1.942   1.588  15.387 -0.3652  0.4198 -0.2072
 2894SOL    HW120144   1.893   1.535  15.324  0.3726  1.2705 -1.5097
 2894SOL    HW220145   2.004   1.529  15.429 -0.7297 -1.6769 -2.6357
 2895SOL     OW20146   2.738   0.759  17.524 -0.4741  0.0660  0.3609
 2895SOL    HW120147   2.752   0.680  17.471  0.1538  2.3969 -2.9427
 2895SOL    HW220148   2.806   0.747  17.590 -1.1610 -0.2089  1.0194
 2896SOL     OW20149   1.060   2.219   2.786 -0.0303  0.6348  0.1189
 2896SOL    HW120150   1.099   2.307   2.780  0.0930  0.5395 -0.5236
 2896SOL    HW220151   1.021   2.217   2.873  0.5177  2.1423  0.4009
 2897SOL     OW20152   3.070   2.042   8.141  0.0208  0.1043  0.1596
 2897SOL    HW120153   3.063   2.097   8.218  1.6901  2.2891 -1.2548
 2897SOL    HW220154   3.043   1.954   8.166 -1.0987  1.5215  3.8841
 2898SOL     OW20155   2.543   1.642  10.784  0.5152  0.4424  0.2058
 2898SOL    HW120156   2.495   1.687  10.854 -0.4690 -0.5699  0.1809
 2898SOL    HW220157   2.478   1.584  10.743 -0.0034  1.4071 -0.3403
 2899SOL     OW20158   0.670   1.024   4.605 -0.8318  0.0844  0.2720
 2899SOL    HW120159   0.751   1.042   4.557  1.1711 -2.0053  2.8515
 2899SOL    HW220160   0.704   1.033   4.694  1.1666 -1.3904 -0.3354
 2900SOL     OW20161   2.321   0.561   5.762 -0.6959 -0.1061 -0.7074
 2900SOL    HW120162   2.404   0.597   5.733 -0.2186 -0.1214  0.6753
 2900SOL    HW220163   2.256   0.613   5.714 -0.6825 -0.1617 -0.7857
 2901SOL     OW20164   2.648   3.173  16.607 -0.4327 -0.0658  0.2235
 2901SOL    HW120165   2.560   3.180  16.570 -1.0646 -0.6070  1.6195
 2901SOL    HW220166   2.636   3.133  16.693  0.6994  0.2180  0.5058
 2902SOL     OW20167   0.412   4.353   8.596  0.8738 -0.0013  0.3282
 2902SOL    HW120168   0.417   4.426   8.658  1.9686 -0.1483  0.4217
 2902SOL    HW220169   0.390   4.282   8.656  0.5223  0.2279  0.4690
 2903SOL     OW20170   0.604   1.024   0.890 -0.1011 -0.5416 -0.5416
 2903SOL    HW120171   0.553   1.105   0.888  1.0413  0.2051  0.6751
 2903SOL    HW220172   0.696   1.042   0.907 -0.2109  0.8029 -1.4116
 2904SOL     OW20173   1.281   3.858   6.471 -0.2487  0.4651  0.0148
 2904SOL    HW120174   1.331   3.932   6.505  0.3345  1.4014 -2.9458
 2904SOL    HW220175   1.333   3.785   6.505 -2.1655 -1.8054 -1.9399
 2905SOL     OW20176   2.698   2.396   1.345  0.4720  0.3593  0.2458
 2905SOL    HW120177   2.714   2.336   1.271  2.6390  1.6563 -0.3230
 2905SOL    HW220178   2.729   2.350   1.423 -2.2999 -2.7204 -0.4730
 2906SOL     OW20179   2.874   1.678  12.022 -0.1725  0.1297  0.0175
 2906SOL    HW120180   2.794   1.626  12.011 -0.8586  1.0777  0.5272
 2906SOL    HW220181   2.916   1.650  11.941  0.5758 -2.1456  1.2072
 2907SOL     OW20182   0.653   4.278   7.176  0.7385  0.5560  0.1214
 2907SOL    HW120183   0.705   4.250   7.251 -0.7116 -0.3063  0.7974
 2907SOL    HW220184   0.594   4.205   7.156  0.2173  0.4423  2.0458
 2908SOL     OW20185   0.894   0.113  13.368  0.6988 -0.5367 -0.0970
 2908SOL    HW120186   0.927   0.203  13.357  0.1286 -0.1629  1.2472
 2908SOL    HW220187   0.944   0.081  13.443  1.7260  1.7339  0.2072
 2909SOL     OW20188   3.079   2.614   3.503 -0.0482 -0.1752 -0.1767
 2909SOL    HW120189   3.105   2.522   3.514 -1.3401 -0.3989  1.0334
 2909SOL    HW220190   3.060   2.616   3.410 -0.0729  1.3645 -0.1350
 2910SOL     OW20191   0.921   1.410   8.292  0.3948 -0.5355 -0.0729
 2910SOL    HW120192   0.831   1.410   8.260  0.4340 -0.8542 -0.1793
 2910SOL    HW220193   0.916   1.329   8.342 -1.4340 -0.0122  0.5817
 2911SOL     OW20194   3.045   3.892  12.813  0.1643  0.2344 -0.3292
 2911SOL    HW120195   3.006   3.958  12.756 -0.5313  1.0690  1.1085
 2911SOL    HW220196   3.033   3.932  12.899  1.5178 -0.3908  0.1517
 2912SOL     OW20197   0.801   3.070  17.317 -0.4165  0.4208  0.2767
 2912SOL    HW120198   0.764   2.989  17.282 -0.6938 -0.0080  1.5590
 2912SOL    HW220199   0.892   3.055  17.292 -0.8396 -0.8254 -0.5160
 2913SOL     OW20200   4.245   3.168   0.246  0.2421  0.2837 -0.3934
 2913SOL    HW120201   4.274   3.239   0.189  2.3030 -1.2266 -1.2277
 2913SOL    HW220202   4.266   3.192   0.336  0.2133  2.2467 -0.9157
 2914SOL     OW20203   3.077   1.858  11.202  0.2267  0.0336 -0.6388
 2914SOL    HW120204   3.163   1.822  11.222  1.2741  3.4883  0.9216
 2914SOL    HW220205   3.017   1.784  11.191 -0.5544  0.6326 -0.4092
 2915SOL     OW20206   3.848   3.978   1.748  0.3015 -0.4777  0.0302
 2915SOL    HW120207   3.877   3.925   1.823  2.4923  0.1520 -0.3699
 2915SOL    HW220208   3.910   4.051   1.745 -0.7557  0.4434  0.7537
 2916SOL     OW20209   1.677   4.330   5.011  0.1855 -0.3175 -0.0666
 2916SOL    HW120210   1.590   4.368   4.999 -0.7437 -3.0517 -1.8573
 2916SOL    HW220211   1.681   4.304   5.103 -1.0625  2.6350  0.8160
 2917SOL     OW20212   3.136   3.171   5.804  0.1439 -0.2837  0.2578
 2917SOL    HW120213   3.220   3.188   5.848  1.2588  1.2720 -2.4976
 2917SOL    HW220214   3.075   3.187   5.876  1.7049 -1.7058  1.9189
 2918SOL     OW20215   1.673   0.662  11.090  0.3165  0.3282 -0.4695
 2918SOL    HW120216   1.596   0.667  11.146  1.4138 -2.4712  1.2746
 2918SOL    HW220217   1.680   0.572  11.058 -1.2865  0.1866 -0.3945
 2919SOL     OW20218   1.071   3.624  10.230 -0.5097  0.4452  0.1744
 2919SOL    HW120219   1.021   3.605  10.150 -2.2154  2.0748  0.8473
 2919SOL    HW220220   0.992   3.650  10.278 -0.5230  0.4742  0.1370
 2920SOL     OW20221   0.332   3.760  15.289  0.6739 -0.0059  0.4056
 2920SOL    HW120222   0.420   3.747  15.325  0.5869  0.6658  0.8733
 2920SOL    HW220223   0.327   3.683  15.234  0.9062 -0.3534  0.8738
 2921SOL     OW20224   1.404   3.783   5.074  0.2920 -0.5959  0.3861
 2921SOL    HW120225   1.435   3.871   5.054 -3.5059  1.0578  1.8500
 2921SOL    HW220226   1.372   3.804   5.162  1.3346 -1.3306  0.9519
 2922SOL     OW20227   0.612   2.009   7.255  0.3583  0.8745  0.0506
 2922SOL    HW120228   0.523   2.036   7.278 -0.8379 -1.7735 -1.4641
 2922SOL    HW220229   0.659   2.092   7.253  2.0655 -0.1232 -0.7706
 2923SOL     OW20230   1.059   0.739   6.486 -0.1858 -0.5188 -0.0700
 2923SOL    HW120231   1.030   0.793   6.559  2.3046  0.1989  0.3910
 2923SOL    HW220232   1.075   0.817   6.432  1.1857 -1.2260 -0.6857
 2924SOL     OW20233   4.512   1.724  12.561  0.0812 -0.6150  0.8338
 2924SOL    HW120234   4.455   1.652  12.533 -1.5159  1.3000 -0.9002
 2924SOL    HW220235   4.478   1.789  12.499 -0.5175 -0.7450  1.0263
 2925SOL     OW20236   0.834   0.471  11.155 -0.3404 -0.0294  0.1765
 2925SOL    HW120237   0.852   0.562  11.130  1.7189 -0.1692  1.2402
 2925SOL    HW220238   0.917   0.432  11.180  0.4651  0.9620 -0.9603
 2926SOL     OW20239   3.264   2.820   3.163 -0.2785  0.6579 -0.6843
 2926SOL    HW120240   3.172   2.794   3.168  0.2848 -0.8840  1.8601
 2926SOL    HW220241   3.280   2.831   3.069  1.6318 -0.0911 -0.4327
 2927SOL     OW20242   2.452   3.893   7.809  0.4147  0.2306 -0.1424
 2927SOL    HW120243   2.386   3.898   7.878  0.3119  1.7377 -0.3625
 2927SOL    HW220244   2.537   3.883   7.853 -0.2871  2.7155  1.7974
 2928SOL     OW20245   0.148   1.982   8.110  0.4786 -0.2008 -0.2999
 2928SOL    HW120246   0.097   2.013   8.035 -0.9541 -1.2768  0.2170
 2928SOL    HW220247   0.181   1.895   8.087 -1.0325 -0.1049 -2.8199
 2929SOL     OW20248   2.086   2.386   6.847 -0.7489 -0.4737  0.3148
 2929SOL    HW120249   2.139   2.439   6.789 -2.1963 -1.7772 -2.1999
 2929SOL    HW220250   2.152   2.345   6.904  0.3968  2.6091  1.1923
 2930SOL     OW20251   4.168   4.141   3.014  1.0273  0.3277  0.6530
 2930SOL    HW120252   4.259   4.137   2.986  0.7688 -1.0552  0.0203
 2930SOL    HW220253   4.163   4.219   3.070  0.4942 -0.1678  1.2983
 2931SOL     OW20254   1.346   1.072   6.558 -0.2186 -0.5414  0.1000
 2931SOL    HW120255   1.352   1.166   6.540  2.3947 -0.5952  0.6032
 2931SOL    HW220256   1.291   1.048   6.483 -0.9782 -2.4537  1.2784
 2932SOL     OW20257   3.885   2.824   3.305 -0.1178 -0.0368  0.3360
 2932SOL    HW120258   3.863   2.916   3.321  0.9883  0.1214  0.9562
 2932SOL    HW220259   3.973   2.832   3.267 -0.8786  1.0074 -1.1922
 2933SOL     OW20260   3.111   3.623  15.083  0.1716 -0.5720  0.4258
 2933SOL    HW120261   3.036   3.570  15.058 -0.5550  0.2306  0.8969
 2933SOL    HW220262   3.171   3.596  15.013 -2.0288 -0.6796 -1.4116
 2934SOL     OW20263   1.843   1.399   9.343  0.0364 -0.4497  0.3236
 2934SOL    HW120264   1.926   1.403   9.391  0.7583 -2.0663 -0.7659
 2934SOL    HW220265   1.793   1.367   9.417 -1.8864  1.6352 -0.0714
 2935SOL     OW20266   2.853   2.116  10.097  0.3300 -0.3587  0.1609
 2935SOL    HW120267   2.823   2.135  10.186 -1.8037  0.5627 -0.7530
 2935SOL    HW220268   2.777   2.148  10.048  0.6406  0.7040  0.3806
 2936SOL     OW20269   2.617   4.550   8.034  0.3751  0.7124 -0.5265
 2936SOL    HW120270   2.633   4.493   7.959  0.6831 -0.1999  0.2298
 2936SOL    HW220271   2.547   4.605   7.998 -0.9606 -0.7902 -0.1891
 2937SOL     OW20272   0.601   2.941   6.708  0.4353 -0.2505 -0.4620
 2937SOL    HW120273   0.598   3.036   6.720 -0.3980 -0.1465 -1.4912
 2937SOL    HW220274   0.606   2.928   6.613 -0.1664 -0.6061 -0.4503
 2938SOL     OW20275   1.958   2.719   4.820  0.0858  0.2557  0.2273
 2938SOL    HW120276   1.898   2.731   4.894 -1.1283 -0.0327 -0.7069
 2938SOL    HW220277   1.890   2.717   4.753  1.3059  1.1807 -1.0053
 2939SOL     OW20278   0.191   3.559   2.230 -0.0161  0.0176 -0.6859
 2939SOL    HW120279   0.264   3.500   2.212 -0.4681 -0.5114 -0.7860
 2939SOL    HW220280   0.236   3.631   2.276 -0.4326 -1.7541  2.4723
 2940SOL     OW20281   2.121   1.623   5.016 -0.3764  0.2022 -0.2260
 2940SOL    HW120282   2.107   1.666   4.932 -0.2635  0.7950  0.0564
 2940SOL    HW220283   2.133   1.706   5.063  0.1818  1.0142 -1.8143
 2941SOL     OW20284   3.523   0.670   0.454  0.4245  0.2440 -0.0358
 2941SOL    HW120285   3.551   0.669   0.362 -0.2202  2.5699 -0.2477
 2941SOL    HW220286   3.458   0.600   0.456 -1.7243  2.2169 -1.1142
 2942SOL     OW20287   1.268   3.188   3.455 -0.1958 -0.4246 -0.6569
 2942SOL    HW120288   1.291   3.166   3.546 -0.4134 -0.5026 -0.6215
 2942SOL    HW220289   1.357   3.188   3.419  0.1259 -2.6675  0.1277
 2943SOL     OW20290   1.608   3.416  10.471  0.4457 -0.2663 -0.1376
 2943SOL    HW120291   1.594   3.361  10.548 -0.6547  2.1418  1.3828
 2943SOL    HW220292   1.634   3.354  10.402  0.4923 -0.8675  0.4218
 2944SOL     OW20293   3.243   2.060  11.006 -0.4746  0.1178  0.6502
 2944SOL    HW120294   3.286   2.145  11.016 -0.1517 -0.2024  2.0754
 2944SOL    HW220295   3.172   2.070  11.070 -0.7707 -1.4817  0.5774
 2945SOL     OW20296   3.679   2.814   1.149 -0.3316  0.1586  0.1945
 2945SOL    HW120297   3.631   2.737   1.119 -1.5035  1.0167 -0.1465
 2945SOL    HW220298   3.684   2.874   1.074  0.3608  2.9908  2.5114
 2946SOL     OW20299   4.052   0.056   4.501  0.5809  0.2687  0.2843
 2946SOL    HW120300   4.058   0.032   4.409  0.0724  1.3826 -0.0385
 2946SOL    HW220301   4.105   4.712   4.541  0.7221  0.2656  0.0891
 2947SOL     OW20302   0.976   2.922   2.912  0.1902 -0.1944  0.1071
 2947SOL    HW120303   1.061   2.908   2.954  0.6041  1.1187 -0.3203
 2947SOL    HW220304   0.997   2.954   2.824 -0.8002 -1.8097 -0.7423
 2948SOL     OW20305   3.085   2.465   4.237  0.8831 -0.6172 -0.1049
 2948SOL    HW120306   3.005   2.436   4.192  0.4322 -0.7106  0.7511
 2948SOL    HW220307   3.084   2.555   4.205 -0.5461 -0.4903  0.2500
 2949SOL     OW20308   1.353   1.755   9.751  0.5695  0.1315  0.2138
 2949SOL    HW120309   1.386   1.811   9.821 -2.2706  1.1760  0.7505
 2949SOL    HW220310   1.262   1.737   9.775  0.4359  1.1410  0.4851
 2950SOL     OW20311   0.762   0.365   4.810 -0.2447 -0.4465 -0.8409
 2950SOL    HW120312   0.682   0.354   4.862 -1.4107  0.3468 -2.4672
 2950SOL    HW220313   0.801   0.279   4.824  0.7236  0.5471  2.4400
 2951SOL     OW20314   4.597   0.058   3.834 -0.5131  0.0858  0.1975
 2951SOL    HW120315   4.667   0.123   3.847 -0.0388 -0.6881  1.5220
 2951SOL    HW220316   4.576   0.075   3.742  0.1263  0.2471  0.0744
 2952SOL     OW20317   4.694   2.758   1.428 -0.1125  0.3348  0.2757
 2952SOL    HW120318   4.712   2.666   1.444  1.0024  0.4649 -0.2254
 2952SOL    HW220319   4.605   2.777   1.458 -0.1122  0.2586  0.3226
 2953SOL     OW20320   2.888   2.195  16.657 -0.2023  0.9300 -0.1104
 2953SOL    HW120321   2.808   2.246  16.644  0.9810  2.6856 -0.5363
 2953SOL    HW220322   2.952   2.239  16.600 -0.2651  1.6726  0.3946
 2954SOL     OW20323   2.283   4.112   5.426 -0.2830  0.0615  0.0317
 2954SOL    HW120324   2.376   4.138   5.425  0.1217 -1.4209 -0.5241
 2954SOL    HW220325   2.236   4.186   5.388  1.7324  0.3371 -1.9149
 2955SOL     OW20326   0.591   1.886   8.723  0.3804  0.0663 -0.2272
 2955SOL    HW120327   0.569   1.860   8.633 -0.7905  0.6767 -0.1194
 2955SOL    HW220328   0.662   1.948   8.704  1.1533 -0.5532  0.6037
 2956SOL     OW20329   2.074   1.136   7.425  0.5918 -0.6194 -0.1660
 2956SOL    HW120330   2.104   1.167   7.340 -1.9572 -1.2092 -1.2691
 2956SOL    HW220331   2.099   1.212   7.476 -0.4251 -0.0085 -0.5825
 2957SOL     OW20332   0.425   0.454   2.352  0.9367 -0.3770 -0.5609
 2957SOL    HW120333   0.440   0.542   2.316 -2.0838  0.1370 -0.5760
 2957SOL    HW220334   0.416   0.396   2.276  0.5298 -1.7906  0.5805
 2958SOL     OW20335   1.493   3.987  17.312  0.1280  0.4028  0.3386
 2958SOL    HW120336   1.569   3.931  17.298 -0.3616 -0.4034  0.8588
 2958SOL    HW220337   1.451   3.928  17.375  3.4856  1.0527  3.1416
 2959SOL     OW20338   3.850   3.602   4.984 -0.6946 -0.2399  0.6127
 2959SOL    HW120339   3.794   3.629   4.911  0.6136 -1.0688 -0.6971
 2959SOL    HW220340   3.838   3.507   4.992  1.4760 -0.5549 -0.0701
 2960SOL     OW20341   0.970   1.532   5.467  0.1006 -0.4349  0.4076
 2960SOL    HW120342   1.044   1.474   5.451 -1.8261 -3.2317  1.6730
 2960SOL    HW220343   0.901   1.465   5.471 -0.0594 -0.3026 -0.0366
 2961SOL     OW20344   4.640   4.473  10.195  0.6895 -0.4638  0.1310
 2961SOL    HW120345   4.581   4.535  10.152  1.4073  0.2214  0.1320
 2961SOL    HW220346   4.616   4.390  10.155  0.6332 -0.3896  0.0096
 2962SOL     OW20347   1.179   0.853   7.335 -0.6814  0.7101 -0.3229
 2962SOL    HW120348   1.231   0.808   7.268  0.2214  0.0318  0.8490
 2962SOL    HW220349   1.232   0.930   7.358 -0.5045 -0.4176  2.9782
 2963SOL     OW20350   2.492   1.752   8.824  0.4288  0.3727 -0.2190
 2963SOL    HW120351   2.579   1.788   8.844  0.3622  2.1285 -3.0156
 2963SOL    HW220352   2.496   1.674   8.880  0.1467 -1.6619 -3.0013
 2964SOL     OW20353   0.272   0.060  11.358  0.0053  0.4710 -0.0691
 2964SOL    HW120354   0.214   0.090  11.288  0.9861  0.1634 -1.0155
 2964SOL    HW220355   0.346   0.116  11.337  0.4145 -0.8956 -2.2048
 2965SOL     OW20356   1.165   4.480   2.425  0.1024 -0.4388 -0.3687
 2965SOL    HW120357   1.107   4.509   2.496 -0.2250 -1.7800 -0.0959
 2965SOL    HW220358   1.140   4.544   2.358  3.6899 -0.7267 -1.9364
 2966SOL     OW20359   3.106   3.202   8.107 -0.0996  0.6631  0.3749
 2966SOL    HW120360   3.038   3.268   8.092  0.0559  0.7619  0.1088
 2966SOL    HW220361   3.089   3.177   8.198  1.0890  0.1629  0.4496
 2967SOL     OW20362   1.606   2.431   7.395 -0.2508  0.4495 -0.0539
 2967SOL    HW120363   1.633   2.521   7.414 -0.4361 -0.0941  2.6991
 2967SOL    HW220364   1.514   2.449   7.414 -0.3932 -0.1725 -0.1693
 2968SOL     OW20365   4.371   3.176   6.993 -0.1625  0.2631  0.3115
 2968SOL    HW120366   4.285   3.153   7.028 -0.2311  0.1008  0.0370
 2968SOL    HW220367   4.369   3.271   6.984  0.0926  0.2206 -0.2253
 2969SOL     OW20368   0.182   4.496  15.775 -0.4635 -0.6195  0.2593
 2969SOL    HW120369   0.121   4.549  15.723  1.2598 -0.5241 -1.6392
 2969SOL    HW220370   0.134   4.419  15.806 -2.1855 -0.3672 -1.7851
 2970SOL     OW20371   2.825   1.487   6.007  0.0832  0.0461 -0.1732
 2970SOL    HW120372   2.886   1.432   5.958 -0.3458 -0.3832 -0.2300
 2970SOL    HW220373   2.831   1.435   6.087  1.1413  0.2193 -0.1438
 2971SOL     OW20374   0.892   4.045   4.003  0.6058  0.1571 -0.2560
 2971SOL    HW120375   0.820   4.055   3.941  0.4992 -0.7557 -0.2827
 2971SOL    HW220376   0.909   3.952   3.990  1.6538  0.0949  1.6035
 2972SOL     OW20377   4.137   2.981   8.211 -0.2293  0.1498 -0.5816
 2972SOL    HW120378   4.095   2.987   8.125 -1.0047  2.4475 -0.0415
 2972SOL    HW220379   4.062   2.999   8.266  0.4744  0.0905  0.4009
 2973SOL     OW20380   4.538   1.078   8.767 -0.1529  0.3986 -0.0773
 2973SOL    HW120381   4.573   1.068   8.855  0.6309 -0.2345 -0.4659
 2973SOL    HW220382   4.463   1.129   8.800  0.3068 -0.1247  1.7455
 2974SOL     OW20383   2.383   3.063   9.012  0.2415  0.0580 -0.2423
 2974SOL    HW120384   2.340   3.088   8.930  0.5649  0.7695 -0.1960
 2974SOL    HW220385   2.322   2.990   9.027  0.1938 -0.1964 -1.6805
 2975SOL     OW20386   0.975   3.297   5.665  0.1420  0.1211 -0.1521
 2975SOL    HW120387   0.963   3.250   5.747 -1.3218  0.0524 -0.4039
 2975SOL    HW220388   1.063   3.331   5.685 -0.1415  1.0966 -0.5403
 2976SOL     OW20389   2.006   3.042   6.131 -0.6583  0.0139  0.1479
 2976SOL    HW120390   2.016   2.987   6.053  0.0347  0.3038  0.0328
 2976SOL    HW220391   2.081   3.102   6.129 -1.9524  1.6054 -0.3967
 2977SOL     OW20392   0.599   2.714   7.456  0.2363 -0.3016  0.1774
 2977SOL    HW120393   0.602   2.775   7.530  0.5757  0.6092 -0.5844
 2977SOL    HW220394   0.679   2.749   7.417 -0.3177  2.8428  1.7981
 2978SOL     OW20395   0.233   3.216  12.380  0.4892  0.5445  0.4398
 2978SOL    HW120396   0.312   3.198  12.431 -0.9713 -1.3075  2.0517
 2978SOL    HW220397   0.163   3.164  12.417 -0.1276  0.3774 -0.9490
 2979SOL     OW20398   2.491   2.328  11.776  0.0464 -0.2251 -0.6528
 2979SOL    HW120399   2.569   2.383  11.780 -1.2705  1.4827  1.0838
 2979SOL    HW220400   2.445   2.339  11.859  0.3617  0.9407 -0.6419
 2980SOL     OW20401   1.048   4.497   9.062 -0.4844  0.3807  0.5659
 2980SOL    HW120402   1.105   4.420   9.060  2.3410  2.4910  0.7579
 2980SOL    HW220403   1.034   4.498   9.157 -4.3854 -2.4822  0.0385
 2981SOL     OW20404   1.445   4.710   9.221 -0.1668  0.0614 -0.5798
 2981SOL    HW120405   1.368   0.040   9.225 -0.3655 -0.1067 -2.0972
 2981SOL    HW220406   1.517   0.048   9.213 -0.0914  0.0580  0.0555
 2982SOL     OW20407   4.276   1.929   2.324 -0.0262  0.8645 -0.8642
 2982SOL    HW120408   4.330   1.978   2.262  0.3509  0.3150 -0.9676
 2982SOL    HW220409   4.255   1.853   2.272 -1.9249  0.4426  0.5366
 2983SOL     OW20410   1.591   3.486   5.363  0.2099 -0.4203 -0.3972
 2983SOL    HW120411   1.552   3.555   5.309  1.1058  2.3104  2.4928
 2983SOL    HW220412   1.683   3.514   5.356 -0.0105 -0.3946 -3.1720
 2984SOL     OW20413   0.574   3.463   2.945 -0.3642  0.1652 -0.2073
 2984SOL    HW120414   0.578   3.412   2.864  1.7504  1.6420 -1.0274
 2984SOL    HW220415   0.540   3.391   2.999 -1.5221  0.2337 -0.8429
 2985SOL     OW20416   1.621   2.426   8.113  0.6205  0.0968  0.3410
 2985SOL    HW120417   1.635   2.446   8.206 -1.2673  0.7655  0.4615
 2985SOL    HW220418   1.550   2.364   8.125  0.6450  0.0242  0.1127
 2986SOL     OW20419   2.485   0.322   4.406 -0.8971  0.4897 -0.0239
 2986SOL    HW120420   2.549   0.254   4.386 -2.0110 -0.0635 -1.7452
 2986SOL    HW220421   2.508   0.345   4.496  1.5001 -1.0750 -0.2319
 2987SOL     OW20422   4.369   0.132   8.619 -0.3521  0.0253 -0.1830
 2987SOL    HW120423   4.364   0.100   8.709 -2.3582 -1.6187 -0.8706
 2987SOL    HW220424   4.401   0.222   8.623  0.2547 -0.2738  1.8012
 2988SOL     OW20425   4.199   2.612   6.440  0.3259 -0.3729 -0.4591
 2988SOL    HW120426   4.228   2.537   6.388  0.9848  0.5979 -1.4712
 2988SOL    HW220427   4.111   2.585   6.466 -0.1027  0.1164 -1.4046
 2989SOL     OW20428   4.327   2.338   4.917 -0.0805  0.1882 -0.2433
 2989SOL    HW120429   4.321   2.271   4.984  0.9020  0.1805 -0.1624
 2989SOL    HW220430   4.420   2.349   4.898 -0.2854  1.1120 -0.7289
 2990SOL     OW20431   0.513   1.336  17.002 -0.1104  0.0972  0.3619
 2990SOL    HW120432   0.572   1.343  17.077 -1.2092  2.6180  0.9949
 2990SOL    HW220433   0.458   1.259  17.017  2.0518 -1.0442  2.2785
 2991SOL     OW20434   1.286   3.102   9.369 -1.2968  0.6287 -0.1024
 2991SOL    HW120435   1.208   3.157   9.362 -1.5946  0.0232 -1.4034
 2991SOL    HW220436   1.265   3.030   9.310 -0.2810  0.4143 -0.2181
 2992SOL     OW20437   2.730   2.372   2.281 -0.5458  0.1253  0.1585
 2992SOL    HW120438   2.803   2.360   2.220 -1.6196 -0.8544 -0.9581
 2992SOL    HW220439   2.654   2.399   2.229 -1.2793 -0.3117  0.9885
 2993SOL     OW20440   2.612   0.560   8.821 -0.0914 -0.2925 -0.0063
 2993SOL    HW120441   2.587   0.469   8.809 -0.3018 -0.2149 -0.1534
 2993SOL    HW220442   2.611   0.561   8.917  0.8722 -1.1797  0.0199
 2994SOL     OW20443   1.399   0.248  11.588  1.5839  0.4068  0.1903
 2994SOL    HW120444   1.444   0.164  11.593  2.0970  0.7066  0.7111
 2994SOL    HW220445   1.347   0.240  11.508  1.2034  0.4108  0.4390
 2995SOL     OW20446   2.521   2.628  12.274  0.0759 -0.3566  0.3467
 2995SOL    HW120447   2.506   2.584  12.357  2.2187 -1.6808  0.0143
 2995SOL    HW220448   2.608   2.665  12.289  0.9089 -2.2317  0.1488
 2996SOL     OW20449   0.265   1.370   8.824 -0.1054 -0.3277 -0.0407
 2996SOL    HW120450   0.253   1.332   8.737  4.0266  1.0379 -1.1509
 2996SOL    HW220451   0.185   1.358   8.877 -0.8493 -3.6065 -1.8537
 2997SOL     OW20452   0.085   3.311   7.321 -0.0638 -0.4177  0.2945
 2997SOL    HW120453   0.001   3.332   7.281 -0.8524  3.0484  3.7648
 2997SOL    HW220454   0.112   3.392   7.364  3.8998 -1.1568 -0.8159
 2998SOL     OW20455   1.643   1.142  13.310  0.7605 -0.0618 -0.3214
 2998SOL    HW120456   1.554   1.167  13.286  1.3243 -0.6609 -3.0575
 2998SOL    HW220457   1.635   1.110  13.399  0.1124  0.4352 -0.2038
 2999SOL     OW20458   3.259   4.002   8.632 -1.0116  0.4596 -0.6608
 2999SOL    HW120459   3.206   4.010   8.712  1.8970  0.5087  1.2413
 2999SOL    HW220460   3.272   3.908   8.644  1.4380  1.0774  1.5491
 3000SOL     OW20461   3.633   0.260   8.592 -0.3750  0.1289  0.3135
 3000SOL    HW120462   3.645   0.238   8.684  0.2419  1.6795  0.6007
 3000SOL    HW220463   3.541   0.284   8.597 -0.8675 -2.1309  2.2733
 3001SOL     OW20464   0.078   4.269   9.878 -0.0679  0.6990  0.0086
 3001SOL    HW120465   0.081   4.249   9.972  2.3943 -2.5698 -0.7815
 3001SOL    HW220466   0.009   4.336   9.875 -1.1923 -0.6471 -3.4136
 3002SOL     OW20467   0.671   0.441   0.132  0.0267 -0.3297  0.3884
 3002SOL    HW120468   0.586   0.401   0.117  0.8264 -1.8602 -0.0179
 3002SOL    HW220469   0.660   0.509   0.199 -0.9953 -0.0832 -0.0320
 3003SOL     OW20470   1.668   2.125  17.521  0.2036 -0.4235  0.4920
 3003SOL    HW120471   1.581   2.105  17.489  1.1991 -1.3094 -1.6526
 3003SOL    HW220472   1.710   2.170  17.448  0.5493  0.6106  1.3272
 3004SOL     OW20473   4.268   4.668   5.101  0.6109  0.0561  0.0044
 3004SOL    HW120474   4.346   4.626   5.064  0.0459  0.5824 -1.7955
 3004SOL    HW220475   4.195   4.639   5.047 -0.3425 -1.0364  1.8672
 3005SOL     OW20476   4.076   1.569   9.077  0.3839 -0.5057 -0.2944
 3005SOL    HW120477   4.104   1.518   9.152 -1.5870 -1.2272 -0.0560
 3005SOL    HW220478   4.035   1.502   9.023  1.0521 -2.0658  1.1585
 3006SOL     OW20479   4.503   1.494   8.071 -0.3014 -0.3187 -0.3485
 3006SOL    HW120480   4.576   1.473   8.013 -2.0571 -3.4998 -1.4124
 3006SOL    HW220481   4.542   1.528   8.151 -1.0134 -1.2491  0.3898
 3007SOL     OW20482   0.888   4.450   5.254  0.0178  0.3911 -0.3086
 3007SOL    HW120483   0.925   4.538   5.240  0.9315 -0.1592 -1.2823
 3007SOL    HW220484   0.804   4.472   5.295 -0.2848  1.8970 -1.7079
 3008SOL     OW20485   0.731   2.190   0.334 -0.6776 -0.3718 -0.2237
 3008SOL    HW120486   0.750   2.274   0.375 -2.1486 -1.2411  2.2581
 3008SOL    HW220487   0.768   2.200   0.247  0.3948  2.0668  0.5055
 3009SOL     OW20488   2.006   1.615   8.364  0.6750  0.6015 -0.2773
 3009SOL    HW120489   1.978   1.610   8.455  0.7890  1.7894 -0.1759
 3009SOL    HW220490   1.919   1.619   8.324  1.3367  1.3877 -1.6436
 3010SOL     OW20491   2.601   2.632  14.281 -0.1077  0.2472 -0.3694
 3010SOL    HW120492   2.694   2.646  14.265  0.3261 -2.4048 -0.0957
 3010SOL    HW220493   2.554   2.657  14.201  0.5812 -0.9276 -1.1389
 3011SOL     OW20494   0.477   1.144  10.243 -0.1511 -0.0216  0.4686
 3011SOL    HW120495   0.460   1.201  10.168  0.7024 -0.1569  0.1814
 3011SOL    HW220496   0.456   1.190  10.325 -1.5242 -1.1382  0.7413
 3012SOL     OW20497   4.005   2.241   8.848 -0.2595 -0.1581 -0.4905
 3012SOL    HW120498   3.927   2.197   8.882  0.6103 -1.0655  0.3512
 3012SOL    HW220499   4.040   2.286   8.925 -0.5051  0.9003 -1.0108
 3013SOL     OW20500   3.662   4.135  10.636  0.5192  0.4107  0.8577
 3013SOL    HW120501   3.713   4.146  10.717 -0.4106  2.2980  1.1912
 3013SOL    HW220502   3.704   4.054  10.607  0.5706  0.3552  1.0821
 3014SOL     OW20503   2.790   3.203   7.558  0.3918  0.2556 -0.2685
 3014SOL    HW120504   2.798   3.157   7.474  1.5966  0.4911 -0.2885
 3014SOL    HW220505   2.726   3.141   7.593  1.2299 -1.7741 -2.2800
 3015SOL     OW20506   2.383   0.492   7.239 -0.1702 -0.4039 -0.6806
 3015SOL    HW120507   2.416   0.406   7.214  0.0548 -1.7401  4.2140
 3015SOL    HW220508   2.463   0.545   7.239 -1.4225  1.5148 -0.5513
 3016SOL     OW20509   3.206   0.641   3.632 -0.5376  0.1295  0.3915
 3016SOL    HW120510   3.186   0.730   3.659 -0.6929  0.8734 -2.1705
 3016SOL    HW220511   3.289   0.621   3.675 -0.4725 -1.6567 -0.5331
 3017SOL     OW20512   0.215   4.201  12.992 -0.3202  0.1001  0.3472
 3017SOL    HW120513   0.131   4.246  12.990  0.2030  0.9611 -1.8744
 3017SOL    HW220514   0.282   4.268  12.980  0.5754 -0.1319  4.0845
 3018SOL     OW20515   3.588   1.231   6.700 -0.5103  0.8881  0.0737
 3018SOL    HW120516   3.626   1.261   6.783 -2.7856  0.0831  1.3775
 3018SOL    HW220517   3.661   1.205   6.643  0.1910  1.7354  0.5812
 3019SOL     OW20518   2.478   0.794   0.068 -0.0070  0.2766  0.1495
 3019SOL    HW120519   2.492   0.888   0.073  0.2752  0.2181  0.4108
 3019SOL    HW220520   2.401   0.790   0.125 -0.9599  0.4572 -1.1137
 3020SOL     OW20521   2.606   3.349   3.427 -0.1219  0.1960 -0.8821
 3020SOL    HW120522   2.649   3.323   3.346 -0.0230 -2.0951 -0.0972
 3020SOL    HW220523   2.516   3.329   3.402  0.3448 -0.9944 -1.5800
 3021SOL     OW20524   2.780   0.118   5.547 -0.3831  0.2532 -0.6435
 3021SOL    HW120525   2.844   0.048   5.559  0.9515  1.8048  1.2345
 3021SOL    HW220526   2.838   0.194   5.556  1.0373 -0.7494 -1.4042
 3022SOL     OW20527   3.974   3.327   0.349 -0.2128 -0.2884 -0.4291
 3022SOL    HW120528   3.973   3.408   0.298 -0.3343  0.0660  0.1272
 3022SOL    HW220529   4.054   3.349   0.398 -0.2958 -0.9375 -0.0062
 3023SOL     OW20530   2.690   0.247   5.315  0.5034  0.1049 -0.4031
 3023SOL    HW120531   2.767   0.213   5.270  1.1706  0.0995  0.7526
 3023SOL    HW220532   2.694   0.203   5.399  0.6510  1.5079  0.3287
 3024SOL     OW20533   3.726   1.355   5.303  0.3962  0.0688  0.3822
 3024SOL    HW120534   3.774   1.402   5.234 -0.4526  0.6792  0.2069
 3024SOL    HW220535   3.700   1.434   5.349 -1.9385 -0.8258  0.6002
 3025SOL     OW20536   3.013   3.391   4.519  0.4080  0.5664 -0.3774
 3025SOL    HW120537   3.106   3.404   4.538  0.0907  2.5362 -0.1801
 3025SOL    HW220538   2.996   3.469   4.467 -2.7927 -0.6015 -1.1102
 3026SOL     OW20539   2.763   0.791   8.104 -0.0387  0.3324 -0.4371
 3026SOL    HW120540   2.740   0.698   8.094  1.0469 -0.1903  2.0599
 3026SOL    HW220541   2.828   0.785   8.174 -0.4543  1.4852  0.0438
 3027SOL     OW20542   2.260   0.577   0.420 -1.1911 -0.1256 -0.1452
 3027SOL    HW120543   2.218   0.538   0.343  0.9063  1.6077 -2.1750
 3027SOL    HW220544   2.350   0.551   0.401 -0.6503 -0.4855  3.0195
 3028SOL     OW20545   1.965   1.976   6.862  0.1944  0.5678 -0.6957
 3028SOL    HW120546   1.916   1.911   6.912  2.5879  0.2125  1.1791
 3028SOL    HW220547   1.987   2.027   6.940  1.5273 -0.9330 -0.0833
 3029SOL     OW20548   1.034   0.162   3.097 -0.4377  0.8176 -0.3604
 3029SOL    HW120549   1.107   0.135   3.153 -0.8972  1.7295  0.6763
 3029SOL    HW220550   1.041   0.257   3.093  1.6346  0.6911  0.1470
 3030SOL     OW20551   4.302   1.110   5.308  0.0999 -0.3991  0.0734
 3030SOL    HW120552   4.302   1.112   5.212  1.2697 -0.1378  0.0827
 3030SOL    HW220553   4.386   1.153   5.324 -0.2663  0.4170 -0.2247
 3031SOL     OW20554   2.585   4.568   5.266 -0.2924 -0.4085  0.0206
 3031SOL    HW120555   2.523   4.580   5.194  0.5582 -2.8376 -1.1120
 3031SOL    HW220556   2.534   4.541   5.342 -0.7209 -0.5897 -0.3255
 3032SOL     OW20557   3.367   4.178   5.693 -0.4078  0.1801 -0.4512
 3032SOL    HW120558   3.426   4.218   5.629 -0.9575  1.1174 -0.3648
 3032SOL    HW220559   3.429   4.180   5.766 -0.7116 -3.4829 -0.1140
 3033SOL     OW20560   0.597   0.731   1.096  0.0224 -0.5381  0.0893
 3033SOL    HW120561   0.506   0.738   1.125 -0.7292  1.3512 -2.7716
 3033SOL    HW220562   0.621   0.823   1.084 -0.1212 -0.4505  0.4873
 3034SOL     OW20563   2.538   0.207  10.530  0.3602 -0.1990 -0.3542
 3034SOL    HW120564   2.473   0.140  10.549  1.2295 -1.0656 -0.4164
 3034SOL    HW220565   2.597   0.188  10.603  0.4128 -0.8304 -0.5591
 3035SOL     OW20566   4.090   1.949   0.348  0.2074  0.0626 -0.3290
 3035SOL    HW120567   4.155   2.018   0.334  0.9066 -0.7039 -0.8049
 3035SOL    HW220568   4.059   1.938   0.258 -2.8114 -0.2755  0.7393
 3036SOL     OW20569   4.651   3.239   7.915 -0.3040  0.2304  0.2276
 3036SOL    HW120570   4.669   3.274   7.828 -0.1156  0.1197  0.2232
 3036SOL    HW220571   4.558   3.263   7.924 -0.6160 -0.9145  0.0069
 3037SOL     OW20572   1.453   1.649  17.530 -0.3776  0.2260 -0.3877
 3037SOL    HW120573   1.385   1.705  17.569  1.6484  1.5007  1.2846
 3037SOL    HW220574   1.522   1.715  17.524  0.2503 -0.3566  0.5198
 3038SOL     OW20575   2.824   3.676   2.733 -0.3137  0.0791  0.2468
 3038SOL    HW120576   2.872   3.746   2.777  0.3862  0.7149 -1.5229
 3038SOL    HW220577   2.733   3.707   2.734  0.0237  1.0294  1.3506
 3039SOL     OW20578   3.019   4.263  10.829  0.1712  0.3320 -0.1708
 3039SOL    HW120579   2.987   4.205  10.898  1.7238 -1.1281 -0.7011
 3039SOL    HW220580   3.037   4.336  10.888 -1.2007 -0.9472  1.8361
 3040SOL     OW20581   3.073   1.049   2.877  0.5039  0.5082 -0.1940
 3040SOL    HW120582   3.028   1.128   2.907 -1.5177 -0.5275 -0.5141
 3040SOL    HW220583   3.004   0.988   2.901  1.9535 -1.6640 -1.6272
 3041SOL     OW20584   2.467   1.203  12.426  0.0500  0.1484 -0.1541
 3041SOL    HW120585   2.504   1.167  12.506 -0.6679 -0.5221 -0.1214
 3041SOL    HW220586   2.474   1.121  12.377 -1.0274 -0.3673  0.5594
 3042SOL     OW20587   4.352   0.055   0.475 -0.0301  0.2520  0.1606
 3042SOL    HW120588   4.448   0.056   0.479 -0.0823 -0.9227  2.2124
 3042SOL    HW220589   4.326   4.691   0.451  0.3125 -0.0278  0.7990
 3043SOL     OW20590   4.609   3.198   1.311  0.1067 -0.3911 -0.0305
 3043SOL    HW120591   4.531   3.179   1.259 -0.0711 -0.5408  0.2888
 3043SOL    HW220592   4.646   3.111   1.297 -1.0704 -1.1768  1.6338
 3044SOL     OW20593   2.556   0.473  15.068  0.0088  0.3819  0.3143
 3044SOL    HW120594   2.525   0.502  15.154 -2.3561  2.2482 -1.1610
 3044SOL    HW220595   2.491   0.403  15.061  0.7638 -0.4096  1.1588
 3045SOL     OW20596   3.900   3.663  16.341  0.5171  0.5777 -0.4630
 3045SOL    HW120597   3.990   3.689  16.324 -0.4205  1.4287 -4.0260
 3045SOL    HW220598   3.892   3.628  16.252 -2.2322  2.0541 -0.7845
 3046SOL     OW20599   3.250   1.272   2.273 -0.4072  0.2711 -0.3017
 3046SOL    HW120600   3.214   1.235   2.193 -0.1953 -0.1041 -0.2207
 3046SOL    HW220601   3.218   1.209   2.337 -0.5030  1.0519  0.4204
 3047SOL     OW20602   3.111   2.345   3.526 -0.8753 -0.5281 -0.2067
 3047SOL    HW120603   3.021   2.320   3.545 -0.3947 -0.3056  2.3500
 3047SOL    HW220604   3.150   2.258   3.516 -1.7875 -0.5571 -3.3613
 3048SOL     OW20605   1.291   3.165   1.457 -0.0094 -0.1934 -0.4702
 3048SOL    HW120606   1.294   3.215   1.375  1.9782  0.6954  0.1484
 3048SOL    HW220607   1.384   3.144   1.468  0.4785  1.6134 -1.2643
 3049SOL     OW20608   1.282   1.521   3.236  0.2909  0.8121 -0.3683
 3049SOL    HW120609   1.284   1.600   3.182  0.9819  0.4788 -0.8254
 3049SOL    HW220610   1.206   1.487   3.189  2.1113 -1.3948 -1.6871
 3050SOL     OW20611   3.418   3.663   6.315  0.3443  0.4495  0.2245
 3050SOL    HW120612   3.411   3.722   6.390  1.1078  0.5208  0.2376
 3050SOL    HW220613   3.336   3.679   6.267  0.3797  0.1593  0.0705
 3051SOL     OW20614   3.177   2.663  15.729 -0.2683 -0.3180  0.3527
 3051SOL    HW120615   3.131   2.664  15.645 -0.1657 -1.0648  0.2933
 3051SOL    HW220616   3.168   2.571  15.754 -2.9612 -0.6178 -1.6440
 3052SOL     OW20617   2.143   3.334  11.390  0.2726 -0.7464  0.2924
 3052SOL    HW120618   2.172   3.413  11.435 -1.5169  0.6693 -1.0885
 3052SOL    HW220619   2.048   3.339  11.392  0.2754  1.0584 -3.4518
 3053SOL     OW20620   2.754   2.272   9.403  0.2544  0.5131  0.1012
 3053SOL    HW120621   2.799   2.342   9.449  0.2476  0.6699 -0.1339
 3053SOL    HW220622   2.731   2.316   9.321 -1.7862 -0.2353  0.2489
 3054SOL     OW20623   2.014   0.604   0.520  0.1803 -0.2035  0.0937
 3054SOL    HW120624   2.035   0.542   0.590 -1.2054 -0.9481 -0.1345
 3054SOL    HW220625   2.094   0.598   0.468 -1.5565 -1.7145 -2.4588
 3055SOL     OW20626   2.367   3.046   4.106 -0.5161  0.2461 -0.3026
 3055SOL    HW120627   2.455   3.016   4.082 -0.7420 -1.4422  1.0527
 3055SOL    HW220628   2.366   3.000   4.189 -2.1628 -1.2043 -1.1314
 3056SOL     OW20629   4.511   4.481   6.086 -0.2789 -0.9609  0.2161
 3056SOL    HW120630   4.601   4.508   6.070 -0.2145 -0.5371  1.2926
 3056SOL    HW220631   4.503   4.504   6.179 -0.8140 -1.8122  0.3816
 3057SOL     OW20632   1.349   3.358   0.156  0.4754  0.0716  0.0283
 3057SOL    HW120633   1.286   3.303   0.110 -0.4019  0.8356  0.3055
 3057SOL    HW220634   1.326   3.347   0.249  0.6079 -1.0833 -0.0809
 3058SOL     OW20635   3.036   3.226  10.358 -0.0477  0.3451 -0.6698
 3058SOL    HW120636   3.105   3.241  10.422 -0.1566 -1.4939 -0.1018
 3058SOL    HW220637   3.006   3.138  10.382 -1.2684  0.8946 -0.1953
 3059SOL     OW20638   0.159   0.433  17.011 -0.2144 -0.0155  0.2498
 3059SOL    HW120639   0.221   0.467  17.076 -0.2061  3.1498 -1.4262
 3059SOL    HW220640   0.122   0.518  16.989 -1.1404 -0.6963 -0.8324
 3060SOL     OW20641   3.383   2.340   6.532  0.0549 -0.3781  0.4473
 3060SOL    HW120642   3.410   2.287   6.607 -0.7506 -0.3284  0.7633
 3060SOL    HW220643   3.400   2.427   6.568 -0.3310 -0.1218  0.0153
 3061SOL     OW20644   4.309   2.028  12.122 -0.4611  0.2877 -0.2739
 3061SOL    HW120645   4.369   2.062  12.055  0.8147  2.5424  2.0322
 3061SOL    HW220646   4.253   1.967  12.074  0.1755 -1.9402  1.8464
 3062SOL     OW20647   2.553   0.982   4.206 -0.2124 -0.2539  0.9246
 3062SOL    HW120648   2.621   1.046   4.185 -0.8532  0.8439  2.1673
 3062SOL    HW220649   2.577   0.907   4.152  2.3702  1.3751 -0.1716
 3063SOL     OW20650   2.504   3.399   2.683  0.6557 -0.0863  1.1383
 3063SOL    HW120651   2.434   3.346   2.645  0.5481 -0.5430  1.9863
 3063SOL    HW220652   2.481   3.480   2.637 -2.2600 -0.6737  1.5488
 3064SOL     OW20653   0.351   0.178  15.300 -0.1163 -0.6194  0.1549
 3064SOL    HW120654   0.383   0.090  15.320 -0.8765 -1.7984 -3.6753
 3064SOL    HW220655   0.276   0.175  15.359  1.7006  0.5977  2.4829
 3065SOL     OW20656   4.180   3.853   2.232 -0.0392  0.0585 -0.1467
 3065SOL    HW120657   4.110   3.822   2.289  1.0212 -2.3495 -0.1708
 3065SOL    HW220658   4.242   3.781   2.236  0.0488  0.0873 -0.9049
 3066SOL     OW20659   1.927   0.800   3.207 -0.0582  0.1214 -0.2927
 3066SOL    HW120660   1.892   0.815   3.119 -0.0755  0.9587 -0.1397
 3066SOL    HW220661   1.983   0.724   3.191 -0.5281 -0.5343  1.1369
 3067SOL     OW20662   3.613   3.617  15.733  0.1809 -0.2160  0.5260
 3067SOL    HW120663   3.700   3.605  15.695 -0.3043  2.9194 -1.5320
 3067SOL    HW220664   3.602   3.712  15.729 -0.7873 -0.3532 -0.1299
 3068SOL     OW20665   4.253   0.487   6.809  0.2373  0.1519  0.7160
 3068SOL    HW120666   4.306   0.424   6.857 -0.5647 -0.5615  0.6735
 3068SOL    HW220667   4.164   0.469   6.839 -0.7474  1.9616 -1.1024
 3069SOL     OW20668   4.416   1.669  13.956 -0.0115  0.1243  0.4972
 3069SOL    HW120669   4.495   1.616  13.949 -1.2881 -1.8679  0.9840
 3069SOL    HW220670   4.411   1.711  13.870  1.1962  0.0481  0.3939
 3070SOL     OW20671   0.761   0.983  11.418 -0.8843  0.5769 -0.2695
 3070SOL    HW120672   0.837   0.926  11.408 -0.3971  1.1805  0.0018
 3070SOL    HW220673   0.693   0.933  11.374 -0.0078 -0.5354 -0.3552
 3071SOL     OW20674   3.220   4.133   6.310  0.0843  0.2502 -0.6870
 3071SOL    HW120675   3.148   4.070   6.304  0.1583  0.1893 -0.9758
 3071SOL    HW220676   3.196   4.209   6.257 -3.0911 -1.3252 -1.4867
 3072SOL     OW20677   3.161   1.446  15.363  0.3098 -0.2767  0.3484
 3072SOL    HW120678   3.197   1.388  15.431  0.7785  0.4036  0.6828
 3072SOL    HW220679   3.241   1.490  15.333 -1.4333  2.3625 -0.4583
 3073SOL     OW20680   3.035   0.881   4.690  0.3562 -0.1020  0.0313
 3073SOL    HW120681   3.023   0.790   4.662 -1.2033  0.2457 -0.4216
 3073SOL    HW220682   3.128   0.881   4.666  0.1552  0.9486 -0.7539
 3074SOL     OW20683   4.322   3.431   4.369  0.3461 -0.4692  0.5012
 3074SOL    HW120684   4.416   3.414   4.375  0.6076 -0.1493 -2.4444
 3074SOL    HW220685   4.296   3.413   4.279  1.0811 -1.2450  0.4470
 3075SOL     OW20686   0.705   4.322   4.108  0.2165  0.3870  0.2431
 3075SOL    HW120687   0.635   4.342   4.170  0.5067  1.4467  0.2199
 3075SOL    HW220688   0.779   4.338   4.166  0.3417 -2.0015  0.7644
 3076SOL     OW20689   0.457   1.508   8.025  0.9087 -0.0751 -0.1854
 3076SOL    HW120690   0.411   1.503   7.941 -1.3396 -1.4808  1.1355
 3076SOL    HW220691   0.390   1.469   8.081  1.0012 -0.5883 -0.4241
 3077SOL     OW20692   2.514   0.270   6.051 -0.1085 -0.5164 -0.1971
 3077SOL    HW120693   2.487   0.359   6.074 -0.3780 -0.4953 -0.5993
 3077SOL    HW220694   2.539   0.296   5.962  0.0535 -0.1926 -0.0600
 3078SOL     OW20695   1.893   4.218   7.635  0.1788  0.6370  0.2896
 3078SOL    HW120696   1.905   4.279   7.563  0.5375 -0.7322 -0.8061
 3078SOL    HW220697   1.982   4.190   7.655 -0.9930 -2.1369  1.6368
 3079SOL     OW20698   2.536   4.311   3.676  0.4362 -0.1736 -0.2014
 3079SOL    HW120699   2.549   4.223   3.712 -3.5836  0.1728  2.0933
 3079SOL    HW220700   2.443   4.327   3.687  1.0762  3.0405  0.3563
 3080SOL     OW20701   4.523   1.473  16.387  0.4608 -0.6959 -0.1475
 3080SOL    HW120702   4.580   1.534  16.339  0.0683  0.1975  0.5235
 3080SOL    HW220703   4.517   1.400  16.325 -3.7440  0.1133 -0.7557
 3081SOL     OW20704   0.302   3.983   7.953 -0.0609 -0.2030 -0.8671
 3081SOL    HW120705   0.343   4.054   7.903  0.8261  0.5727  0.9740
 3081SOL    HW220706   0.248   3.954   7.879 -2.9457 -3.2996  2.4707
 3082SOL     OW20707   0.701   4.567  10.059  0.2469 -0.1898 -0.0067
 3082SOL    HW120708   0.751   4.488  10.043 -1.6711 -0.8275 -2.8206
 3082SOL    HW220709   0.679   4.557  10.152 -0.5349 -0.2654 -0.2005
 3083SOL     OW20710   4.591   3.585   3.829 -0.1606  0.3577  0.0109
 3083SOL    HW120711   4.614   3.522   3.897 -0.2979  2.9037  2.4322
 3083SOL    HW220712   4.513   3.631   3.861 -0.1243  0.0749  0.4869
 3084SOL     OW20713   3.655   0.182  11.937  0.3248 -0.3772 -0.4799
 3084SOL    HW120714   3.703   0.103  11.911 -0.4383 -1.0525  0.1753
 3084SOL    HW220715   3.672   0.197  12.030 -0.6377  1.9888 -0.7038
 3085SOL     OW20716   2.075   4.586   2.977 -0.6964  0.6123 -0.0365
 3085SOL    HW120717   2.088   4.575   2.882  0.4001  2.3732 -0.0887
 3085SOL    HW220718   1.982   4.607   2.969 -1.6057 -3.5186 -0.4625
 3086SOL     OW20719   2.807   1.595  16.077 -0.2771 -0.0757  0.4038
 3086SOL    HW120720   2.714   1.618  16.076 -0.5453 -1.2117  0.0260
 3086SOL    HW220721   2.805   1.504  16.047  0.8160 -0.0391  0.2215
 3087SOL     OW20722   2.639   1.128   8.772  0.2493 -0.0109 -0.0487
 3087SOL    HW120723   2.548   1.139   8.743 -0.1502 -2.0836  0.4353
 3087SOL    HW220724   2.635   1.044   8.818  0.5618 -0.2686 -0.4956
 3088SOL     OW20725   0.694   3.108  12.887 -0.1758 -0.4428  0.4255
 3088SOL    HW120726   0.752   3.037  12.915  0.6953 -1.0567 -2.9118
 3088SOL    HW220727   0.623   3.060  12.844 -0.5897  0.0583  0.5476
 3089SOL     OW20728   3.289   1.092   8.753  0.1516 -0.2498  0.0859
 3089SOL    HW120729   3.212   1.135   8.792  1.0990  0.6097  1.0410
 3089SOL    HW220730   3.260   1.002   8.763  0.8598 -0.4303  0.5711
 3090SOL     OW20731   2.259   0.438   7.514  0.6097  0.6152  0.0578
 3090SOL    HW120732   2.254   0.502   7.585 -0.2543 -2.2713  2.5987
 3090SOL    HW220733   2.215   0.487   7.445 -1.8504 -0.8656  0.5944
 3091SOL     OW20734   4.146   2.437  14.626 -0.4730  0.5533 -0.1482
 3091SOL    HW120735   4.224   2.486  14.600 -0.7613  1.1105  0.0325
 3091SOL    HW220736   4.130   2.477  14.711 -2.5325 -0.9505  0.1583
 3092SOL     OW20737   1.985   3.664   1.761 -0.5159  0.0816  0.1295
 3092SOL    HW120738   2.014   3.578   1.791  0.7078 -0.3088 -2.1967
 3092SOL    HW220739   1.948   3.688   1.846  1.7886  3.5012  0.1515
 3093SOL     OW20740   2.919   0.976   1.291  0.0407  0.0895  0.1962
 3093SOL    HW120741   2.827   0.951   1.305 -0.4780 -0.0589 -3.4712
 3093SOL    HW220742   2.936   0.931   1.208 -0.6670 -1.6417  0.9781
 3094SOL     OW20743   2.755   1.045  16.551  0.0669 -0.0625  0.2861
 3094SOL    HW120744   2.843   1.051  16.588 -0.5437 -0.0082  1.7225
 3094SOL    HW220745   2.765   1.066  16.458  0.6458 -0.7732  0.1820
 3095SOL     OW20746   4.366   4.073  17.537  0.3432  0.1977  0.4803
 3095SOL    HW120747   4.399   4.036  17.455  1.8765  1.2960  0.6120
 3095SOL    HW220748   4.445   4.100  17.583  1.2922 -0.5138 -0.6991
 3096SOL     OW20749   3.885   1.521   2.361 -0.2313 -0.9245  0.3403
 3096SOL    HW120750   3.967   1.505   2.315  0.5378 -0.1455  1.4306
 3096SOL    HW220751   3.915   1.529   2.452  1.5609  2.1442 -0.5224
 3097SOL     OW20752   3.726   1.816   5.871  0.0414  0.2507  0.1966
 3097SOL    HW120753   3.759   1.768   5.795 -0.6268 -1.2598  0.8721
 3097SOL    HW220754   3.648   1.766   5.895  0.3646 -0.7412 -0.8478
 3098SOL     OW20755   3.992   1.759  16.935  0.2525 -0.5933  0.0212
 3098SOL    HW120756   3.940   1.795  17.007  1.2315  0.7142  0.0835
 3098SOL    HW220757   4.011   1.845  16.898  1.5638 -1.4798 -1.3341
 3099SOL     OW20758   3.043   1.184   1.415 -0.4171  0.0682 -0.1208
 3099SOL    HW120759   3.015   1.100   1.378 -2.7079  0.5732  0.4423
 3099SOL    HW220760   3.030   1.241   1.338 -1.1275 -1.0877 -0.8601
 3100SOL     OW20761   0.891   1.594   2.618  0.1954  1.2470  0.3025
 3100SOL    HW120762   0.924   1.660   2.678  0.3538  2.2816 -0.9134
 3100SOL    HW220763   0.963   1.531   2.619 -1.9233 -1.1841  0.9052
 3101SOL     OW20764   0.196   3.079   8.721 -0.5584 -0.2655  0.6432
 3101SOL    HW120765   0.161   3.104   8.807 -1.3973 -0.5718  0.3941
 3101SOL    HW220766   0.184   2.984   8.716 -0.5733 -0.1939 -0.7862
 3102SOL     OW20767   3.574   0.911  13.382 -0.4211  0.3324 -0.2845
 3102SOL    HW120768   3.491   0.900  13.336 -0.0031 -2.1143 -0.4573
 3102SOL    HW220769   3.594   0.823  13.415 -0.6136 -0.1714 -1.4928
 3103SOL     OW20770   4.147   0.655   5.099  0.6799  0.0990  0.3750
 3103SOL    HW120771   4.157   0.728   5.159  1.4286  0.4051 -0.1122
 3103SOL    HW220772   4.080   0.608   5.148  0.8946 -1.0444 -0.4141
 3104SOL     OW20773   0.032   2.081   7.868 -0.2082 -0.0340  0.6044
 3104SOL    HW120774   0.055   2.162   7.823 -0.3198 -1.7871 -2.6350
 3104SOL    HW220775   4.664   2.089   7.889 -0.2981 -2.4643  1.1322
 3105SOL     OW20776   4.098   4.714   2.376  0.4659  0.1101 -0.3948
 3105SOL    HW120777   4.184   4.675   2.392 -0.9291 -3.0059 -0.3059
 3105SOL    HW220778   4.059   4.652   2.314  2.5286 -0.7332 -0.8402
 3106SOL     OW20779   1.741   3.715   1.217 -0.2068  0.2062 -0.0459
 3106SOL    HW120780   1.655   3.741   1.184  0.1523 -0.9509 -1.9229
 3106SOL    HW220781   1.759   3.782   1.282 -1.1230 -0.4315  0.8602
 3107SOL     OW20782   0.614   4.446   8.890 -0.3285 -0.1395 -0.5249
 3107SOL    HW120783   0.691   4.497   8.915  0.4602 -1.0848 -1.0184
 3107SOL    HW220784   0.566   4.443   8.972  0.8361 -1.8359  0.1088
 3108SOL     OW20785   4.640   2.753  11.135  0.2925 -0.1011 -0.2507
 3108SOL    HW120786   4.638   2.662  11.164 -0.8371 -0.3244 -1.0300
 3108SOL    HW220787   0.008   2.747  11.112  0.1505  0.0686 -0.8672
 3109SOL     OW20788   0.671   3.237   5.482 -0.0434  0.0672  0.2890
 3109SOL    HW120789   0.748   3.241   5.425  0.0147 -1.7405  0.2312
 3109SOL    HW220790   0.615   3.308   5.451  1.8962  1.8466  0.8288
 3110SOL     OW20791   1.648   2.022   0.994  0.4311 -0.1333 -0.1229
 3110SOL    HW120792   1.570   1.970   1.011  0.7373 -0.5473  0.0306
 3110SOL    HW220793   1.611   2.108   1.014 -0.6934 -0.2255 -1.8378
 3111SOL     OW20794   3.698   1.469   9.847  0.5093 -0.3514 -0.1140
 3111SOL    HW120795   3.769   1.443   9.905 -0.6787 -2.3756  0.4239
 3111SOL    HW220796   3.656   1.384   9.831  0.5931 -0.3749 -0.2159
 3112SOL     OW20797   2.280   0.832  15.888 -0.4536  0.3585 -0.9643
 3112SOL    HW120798   2.365   0.793  15.868 -2.0877 -3.4649 -0.4168
 3112SOL    HW220799   2.243   0.763  15.942 -1.7155  1.9146  0.1469
 3113SOL     OW20800   2.226   2.891   9.600  0.5355  0.0982  0.2434
 3113SOL    HW120801   2.190   2.967   9.646 -2.7616 -1.8585  0.8982
 3113SOL    HW220802   2.201   2.819   9.658  0.3299 -0.0687 -0.0524
 3114SOL     OW20803   3.811   2.800   2.328 -0.2151  0.1797  0.4821
 3114SOL    HW120804   3.842   2.742   2.398  0.4113 -0.8132 -0.6308
 3114SOL    HW220805   3.813   2.733   2.260 -2.5048 -1.1776  1.7938
 3115SOL     OW20806   4.228   4.667  15.076  0.1260 -0.7781 -0.6476
 3115SOL    HW120807   4.267   4.584  15.047 -0.7723 -1.5909  0.4612
 3115SOL    HW220808   4.132   4.660  15.081 -0.0092  1.7607  0.0962
 3116SOL     OW20809   1.616   3.376   5.610 -0.0845 -0.4245 -0.4583
 3116SOL    HW120810   1.586   3.415   5.528  1.2100 -1.5749 -1.4818
 3116SOL    HW220811   1.618   3.447   5.675 -1.8088 -1.0006  0.2053
 3117SOL     OW20812   3.632   1.237   2.658 -0.6384 -0.1850 -0.5514
 3117SOL    HW120813   3.693   1.174   2.618  1.5586  1.2886  0.4674
 3117SOL    HW220814   3.681   1.319   2.653 -2.9796  1.1497 -1.1304
 3118SOL     OW20815   1.761   0.679   7.702 -0.5063  0.1269 -0.8485
 3118SOL    HW120816   1.806   0.652   7.782 -2.1952  1.9542  0.7500
 3118SOL    HW220817   1.676   0.708   7.736  0.5525  1.3350  0.7333
 3119SOL     OW20818   2.216   1.523  17.226 -0.4791 -0.6216  0.1768
 3119SOL    HW120819   2.244   1.533  17.317 -1.7883  0.8645  0.4123
 3119SOL    HW220820   2.224   1.615  17.200 -1.7726  0.0573  2.1798
 3120SOL     OW20821   2.597   2.151   5.281  0.5233 -0.0182  0.0466
 3120SOL    HW120822   2.543   2.215   5.328 -0.0982 -1.0275  0.7088
 3120SOL    HW220823   2.679   2.154   5.330 -0.8131 -1.3516  2.3756
 3121SOL     OW20824   0.042   3.384   3.357  0.0318  0.7052  0.0544
 3121SOL    HW120825   0.133   3.378   3.388 -0.1297  1.9771  0.7659
 3121SOL    HW220826   0.009   3.300   3.388 -0.8014  1.5935  1.5715
 3122SOL     OW20827   2.524   3.805   6.619  0.2768  0.1092  0.1048
 3122SOL    HW120828   2.545   3.743   6.689  1.0857  1.6418  1.2298
 3122SOL    HW220829   2.459   3.863   6.657  1.5205  1.4863  0.1576
 3123SOL     OW20830   3.519   2.882  16.148  0.1904 -0.4803  0.1885
 3123SOL    HW120831   3.529   2.843  16.061 -0.2702 -0.0473 -0.0637
 3123SOL    HW220832   3.608   2.859  16.172  0.8031 -0.9012 -2.5045
 3124SOL     OW20833   1.141   4.576  16.586  0.5040 -0.0756  0.4420
 3124SOL    HW120834   1.082   4.550  16.658  0.0996 -1.1805 -0.2858
 3124SOL    HW220835   1.140   4.670  16.602 -1.7071  0.0127 -0.2717
 3125SOL     OW20836   1.503   3.886  14.924  0.9550  0.0670  0.4326
 3125SOL    HW120837   1.559   3.948  14.971 -1.0193  4.5887 -3.0807
 3125SOL    HW220838   1.557   3.856  14.850 -1.0684 -2.0031 -0.2005
 3126SOL     OW20839   2.309   1.239  13.681 -0.3299 -0.4562  0.0866
 3126SOL    HW120840   2.236   1.219  13.740  1.4117 -0.1310  2.3693
 3126SOL    HW220841   2.302   1.163  13.623 -2.1348  0.1601 -0.5122
 3127SOL     OW20842   0.290   3.041   2.931 -0.2540  0.0957  0.2569
 3127SOL    HW120843   0.234   2.965   2.950 -1.9643  1.6059  1.1723
 3127SOL    HW220844   0.368   3.004   2.973  0.8980  0.4299 -1.6127
 3128SOL     OW20845   2.209   2.135  14.180  0.4731  0.1184  0.1679
 3128SOL    HW120846   2.265   2.162  14.253 -0.0463  1.1612  0.1849
 3128SOL    HW220847   2.194   2.219  14.135 -0.6646 -1.0935 -1.6883
 3129SOL     OW20848   3.742   3.094   9.439  0.6027  0.0488  0.1346
 3129SOL    HW120849   3.831   3.104   9.407  0.6340 -0.8268 -0.0472
 3129SOL    HW220850   3.701   3.178   9.419 -0.7323 -0.2010  1.7669
 3130SOL     OW20851   2.009   3.226   2.832 -0.0704 -0.5855  0.0104
 3130SOL    HW120852   1.919   3.205   2.859 -0.6728 -0.5697 -1.9062
 3130SOL    HW220853   2.019   3.168   2.756  1.6085  0.3862 -0.5050
 3131SOL     OW20854   3.424   1.779   9.171 -0.9464 -0.3106  0.0529
 3131SOL    HW120855   3.379   1.749   9.249 -0.2209  0.2404  0.6898
 3131SOL    HW220856   3.463   1.861   9.203  1.5840 -2.3659  2.2258
 3132SOL     OW20857   4.669   3.571  11.975 -0.5815  0.3594 -0.1405
 3132SOL    HW120858   0.025   3.605  12.014 -0.5388 -0.1913  0.2386
 3132SOL    HW220859   4.706   3.526  11.899 -0.4038  0.3235 -0.0334
 3133SOL     OW20860   1.732   2.123   9.454 -0.3132  0.0233  0.2681
 3133SOL    HW120861   1.774   2.202   9.419  0.4576  0.3442  1.9415
 3133SOL    HW220862   1.739   2.145   9.547 -0.0797  3.9221 -0.6842
 3134SOL     OW20863   2.681   1.051  11.602  0.4673 -0.0851 -0.0900
 3134SOL    HW120864   2.766   1.025  11.637 -0.4136  0.3038  2.3463
 3134SOL    HW220865   2.661   0.972  11.552 -0.4404  0.1352 -0.0830
 3135SOL     OW20866   3.497   4.237   6.804 -0.0465 -0.2271 -0.3739
 3135SOL    HW120867   3.486   4.314   6.860 -0.2251 -0.3333 -0.2646
 3135SOL    HW220868   3.427   4.254   6.741  1.6674 -0.6511 -2.4301
 3136SOL     OW20869   1.461   2.967   8.204 -0.1601  0.2733  0.1905
 3136SOL    HW120870   1.550   2.962   8.238 -0.6579 -5.0541  0.7261
 3136SOL    HW220871   1.482   2.991   8.114  0.5221  2.6874  0.9951
 3137SOL     OW20872   1.322   0.907  14.494  0.6447 -0.7539  0.0190
 3137SOL    HW120873   1.414   0.902  14.522  0.4744  2.6623  1.1888
 3137SOL    HW220874   1.287   0.837  14.549 -0.8714  0.1403  0.1911
 3138SOL     OW20875   2.277   2.536   5.231  0.1787 -0.4197  0.3099
 3138SOL    HW120876   2.371   2.539   5.212 -0.1413 -1.9912 -1.5766
 3138SOL    HW220877   2.241   2.552   5.144 -1.1170  0.3143  0.9959
 3139SOL     OW20878   0.250   3.742  10.190 -0.4606 -0.0132 -0.1053
 3139SOL    HW120879   0.212   3.691  10.261  3.3300 -3.5908 -0.6601
 3139SOL    HW220880   0.175   3.777  10.142 -0.0346  1.5395  0.3675
 3140SOL     OW20881   0.339   3.154  10.199  0.0078 -0.1910  0.5391
 3140SOL    HW120882   0.294   3.235  10.174  0.2224 -0.0835  0.4992
 3140SOL    HW220883   0.266   3.109  10.242 -0.3336 -0.5945 -0.4613
 3141SOL     OW20884   2.038   2.490   0.165 -0.1247  0.0221 -0.2858
 3141SOL    HW120885   1.945   2.468   0.150 -0.8752  1.0623  2.9562
 3141SOL    HW220886   2.042   2.488   0.260  0.8887 -2.0003 -0.3728
 3142SOL     OW20887   2.010   1.259   8.685 -0.5722  0.1995 -0.0914
 3142SOL    HW120888   2.104   1.244   8.687 -0.7205 -0.8606 -1.3125
 3142SOL    HW220889   1.980   1.238   8.774  0.5603 -1.6411 -0.1425
 3143SOL     OW20890   1.728   1.607   8.271  0.0891  0.0283  0.6559
 3143SOL    HW120891   1.691   1.519   8.262 -1.1670  0.6455 -0.1622
 3143SOL    HW220892   1.757   1.629   8.183  0.7056 -0.4685  0.7364
 3144SOL     OW20893   3.617   4.040  12.533  0.2160 -0.4007  0.0768
 3144SOL    HW120894   3.532   4.042  12.577 -0.1961 -1.7442 -0.6472
 3144SOL    HW220895   3.642   3.960  12.580  2.9608  0.0447 -0.6457
 3145SOL     OW20896   4.377   0.150   1.299 -0.1655  0.4180  0.1619
 3145SOL    HW120897   4.439   0.079   1.283  2.9329  2.4762  3.1104
 3145SOL    HW220898   4.316   0.110   1.361  0.8646  0.2223  1.0569
 3146SOL     OW20899   4.407   3.935   5.328  0.2112  0.8326 -0.3858
 3146SOL    HW120900   4.486   3.989   5.329  0.3385  0.6480 -0.1838
 3146SOL    HW220901   4.453   3.855   5.302  2.5010  1.9059  0.3524
 3147SOL     OW20902   2.261   4.034   2.244 -0.1544  0.1044  0.5827
 3147SOL    HW120903   2.180   4.079   2.222  0.4170  0.5757 -0.5848
 3147SOL    HW220904   2.314   4.105   2.282  1.2622 -0.3837 -0.4565
 3148SOL     OW20905   0.414   1.709  12.294 -0.3333  0.8396  0.3969
 3148SOL    HW120906   0.424   1.790  12.344 -0.0056  2.1943 -1.8623
 3148SOL    HW220907   0.321   1.696  12.313 -0.6564  0.8412 -1.1716
 3149SOL     OW20908   0.504   3.452   5.957  0.0117 -0.1873 -0.3579
 3149SOL    HW120909   0.418   3.410   5.963  1.0070 -2.3490 -1.1660
 3149SOL    HW220910   0.548   3.403   6.026 -0.7697  1.6687  1.4815
 3150SOL     OW20911   2.204   1.777  13.969  0.1792 -0.5133 -0.8496
 3150SOL    HW120912   2.264   1.702  13.966 -2.5544 -2.7340 -0.4569
 3150SOL    HW220913   2.205   1.805  14.061  0.9155  2.1496 -1.6656
 3151SOL     OW20914   4.504   0.652   7.407  0.6191  0.4005  0.1366
 3151SOL    HW120915   4.456   0.643   7.489 -2.2096  3.5730 -1.1936
 3151SOL    HW220916   4.580   0.703   7.436 -0.7405  3.3359 -1.5465
 3152SOL     OW20917   2.410   3.633   2.524  0.5227 -0.1838  0.1413
 3152SOL    HW120918   2.328   3.613   2.570  0.2815 -1.2422 -0.7405
 3152SOL    HW220919   2.377   3.642   2.434  1.2792 -1.8093 -0.2936
 3153SOL     OW20920   0.122   2.414   4.361 -0.0237 -0.3610 -0.9602
 3153SOL    HW120921   0.211   2.408   4.325  0.3366 -0.7106 -0.0340
 3153SOL    HW220922   0.117   2.333   4.413  2.1048 -1.1087 -1.9078
 3154SOL     OW20923   4.479   4.486   1.818 -0.0808 -0.3687  0.0285
 3154SOL    HW120924   4.525   4.538   1.885  2.0979 -2.3400  0.0611
 3154SOL    HW220925   4.549   4.490   1.753  1.5750  1.5909  1.9402
 3155SOL     OW20926   3.139   3.335   1.532 -0.0216  0.1905 -0.2738
 3155SOL    HW120927   3.205   3.398   1.563  1.1722 -1.3085  0.2188
 3155SOL    HW220928   3.087   3.385   1.469 -1.8422 -0.5052  0.6662
 3156SOL     OW20929   3.476   0.136   8.356 -0.5927  0.0649 -0.0261
 3156SOL    HW120930   3.506   0.051   8.324 -0.4990  0.4398 -0.9420
 3156SOL    HW220931   3.436   0.119   8.441  0.2224  1.6604  0.6867
 3157SOL     OW20932   1.610   1.345  13.047  0.7379 -0.1888 -0.2606
 3157SOL    HW120933   1.676   1.375  13.109 -0.6296  2.2930 -0.0066
 3157SOL    HW220934   1.626   1.402  12.972  2.9220  0.8476  1.0165
 3158SOL     OW20935   4.710   1.844   3.062 -0.0289 -0.6326 -0.2687
 3158SOL    HW120936   4.707   1.748   3.065  3.1376 -0.7894 -2.2852
 3158SOL    HW220937   0.079   1.859   3.062  0.0640 -1.2230  0.3924
 3159SOL     OW20938   2.280   1.970  11.677  0.6696  0.1935  0.5461
 3159SOL    HW120939   2.249   1.940  11.763 -1.0137 -0.4421 -0.2990
 3159SOL    HW220940   2.241   2.057  11.687 -0.5971 -0.6679  3.0654
 3160SOL     OW20941   4.039   2.820   7.239  0.2353  0.3246  0.6559
 3160SOL    HW120942   4.121   2.853   7.276  0.1690  0.6229  0.5430
 3160SOL    HW220943   4.061   2.755   7.173 -0.5345  0.4785  0.2474
 3161SOL     OW20944   4.692   2.669  16.625  0.1426 -0.4845  0.1282
 3161SOL    HW120945   4.607   2.714  16.622 -0.0192 -0.8632 -0.8341
 3161SOL    HW220946   4.676   2.626  16.709 -1.6770  0.7810  0.4309
 3162SOL     OW20947   1.485   2.933  15.734  0.0054 -0.2545  0.1056
 3162SOL    HW120948   1.485   2.885  15.817  1.2958  1.5007  1.1433
 3162SOL    HW220949   1.395   2.919  15.705 -0.8807  0.2700  2.5774
 3163SOL     OW20950   3.578   0.265   0.489  0.2006  0.4291 -0.3421
 3163SOL    HW120951   3.575   0.281   0.583  1.2427  0.5153 -0.3272
 3163SOL    HW220952   3.647   0.324   0.458  0.1373 -0.6389 -2.4865
 3164SOL     OW20953   4.063   1.952  15.212 -0.1328  0.1381  0.0403
 3164SOL    HW120954   4.029   1.870  15.248 -2.4643  0.8307 -0.5657
 3164SOL    HW220955   4.156   1.942  15.231 -0.1021 -0.6061 -0.5011
 3165SOL     OW20956   2.137   0.897  11.031 -0.2155 -0.1754 -0.4128
 3165SOL    HW120957   2.046   0.908  11.059 -0.6778 -0.1879 -1.8950
 3165SOL    HW220958   2.178   0.976  11.065  1.3963 -0.5879 -1.3935
 3166SOL     OW20959   1.986   1.873   0.789 -0.0745  0.7581 -0.1355
 3166SOL    HW120960   2.058   1.883   0.852  2.1832 -1.7141 -2.3537
 3166SOL    HW220961   1.940   1.956   0.781  2.4528  2.2951  0.9566
 3167SOL     OW20962   0.024   4.440   8.742 -0.3918  0.6423  0.2495
 3167SOL    HW120963   0.090   4.392   8.792 -1.8852 -1.4955  0.1737
 3167SOL    HW220964   4.687   4.372   8.717 -0.7203  0.8299  0.5445
 3168SOL     OW20965   2.103   3.114  16.319 -0.6313  0.3780 -0.4103
 3168SOL    HW120966   2.189   3.073  16.313 -0.8196  0.0671 -0.9576
 3168SOL    HW220967   2.045   3.050  16.278 -1.7168  0.6331  0.7017
 3169SOL     OW20968   2.786   2.029   5.482  0.3319 -0.2912  0.1542
 3169SOL    HW120969   2.716   2.029   5.548 -0.7922  1.8826 -1.0196
 3169SOL    HW220970   2.779   1.938   5.456 -1.8303  0.0092 -0.3359
 3170SOL     OW20971   4.494   3.531   8.239  0.4204 -0.2984  0.0057
 3170SOL    HW120972   4.470   3.535   8.146 -0.2170  2.1649  0.2614
 3170SOL    HW220973   4.589   3.521   8.237  0.7207  2.7636 -1.9501
 3171SOL     OW20974   2.871   4.624   7.711  0.1328 -0.9568  0.4041
 3171SOL    HW120975   2.811   4.556   7.744 -0.2021 -1.0884 -0.4864
 3171SOL    HW220976   2.813   4.694   7.682  0.1577 -0.8347  0.6506
 3172SOL     OW20977   1.996   0.499   2.534 -0.6895  0.0984 -0.3796
 3172SOL    HW120978   1.952   0.521   2.451  0.9954 -0.6441 -1.4727
 3172SOL    HW220979   1.926   0.496   2.600  1.1731  0.0555  1.5852
 3173SOL     OW20980   1.887   3.139  13.274  0.1897 -0.3536 -0.0005
 3173SOL    HW120981   1.846   3.217  13.234 -0.3848 -1.1796 -1.0293
 3173SOL    HW220982   1.946   3.115  13.203 -0.7996  1.5673 -1.4836
 3174SOL     OW20983   1.206   4.272   9.043 -0.4221 -0.0385 -0.2902
 3174SOL    HW120984   1.288   4.236   9.078 -0.1599 -0.1115 -0.9830
 3174SOL    HW220985   1.140   4.217   9.085  1.0356 -0.9927  0.7721
 3175SOL     OW20986   1.119   0.285  13.586  0.5245 -0.1305  0.5486
 3175SOL    HW120987   1.045   0.324  13.633  0.5423  3.0737 -2.0607
 3175SOL    HW220988   1.087   0.195  13.591  0.3238 -0.3346 -3.7478
 3176SOL     OW20989   4.719   0.360   4.733 -0.0903  0.1270  0.1894
 3176SOL    HW120990   4.629   0.331   4.718 -0.7333  1.1016  2.1640
 3176SOL    HW220991   0.034   0.276   4.711  0.8358  0.7266 -0.3568
 3177SOL     OW20992   0.930   1.553   3.021 -0.3433 -0.1325 -0.1805
 3177SOL    HW120993   0.881   1.552   3.103 -0.4384 -1.2829 -0.2484
 3177SOL    HW220994   0.926   1.646   2.999  0.3625  0.4224  2.0336
 3178SOL     OW20995   2.865   4.341   7.035 -0.4043 -0.2824  0.9863
 3178SOL    HW120996   2.887   4.434   7.039  1.0235 -0.5565 -0.6724
 3178SOL    HW220997   2.856   4.321   7.129 -0.7458 -1.6931  0.6417
 3179SOL     OW20998   4.609   4.026   6.566  0.2071  0.7189  0.6127
 3179SOL    HW120999   4.624   4.075   6.647  0.2191 -1.1574  1.7558
 3179SOL    HW221000   4.522   3.998   6.592  0.0438 -1.0907 -1.9001
 3180SOL     OW21001   4.390   4.600   2.274  0.0854 -0.4221 -0.4425
 3180SOL    HW121002   4.447   4.677   2.265  0.2461 -0.6183 -1.1146
 3180SOL    HW221003   4.450   4.527   2.260 -1.5686 -2.4173  2.8657
 3181SOL     OW21004   0.528   2.544  13.754 -0.1252  0.0347 -0.0784
 3181SOL    HW121005   0.559   2.460  13.718 -1.2323 -0.8212  0.9425
 3181SOL    HW221006   0.610   2.592  13.744  0.8189 -1.1975  1.7759
 3182SOL     OW21007   1.002   4.603   3.297  0.4643 -0.0788  0.4360
 3182SOL    HW121008   1.011   4.571   3.207  2.2571 -0.2866  0.6946
 3182SOL    HW221009   1.090   4.629   3.322 -0.1378  0.7698  1.6699
 3183SOL     OW21010   4.651   1.728   2.805  0.3232 -0.4797  0.3477
 3183SOL    HW121011   4.707   1.778   2.746  1.0525 -2.3068 -0.4987
 3183SOL    HW221012   4.673   1.776   2.885  1.0558  0.9367 -0.6910
 3184SOL     OW21013   2.378   2.303   0.920 -0.2835  0.1904  0.0065
 3184SOL    HW121014   2.291   2.270   0.943 -0.3794  0.6373  0.2790
 3184SOL    HW221015   2.423   2.323   1.002  0.6580 -1.6342 -0.0667
 3185SOL     OW21016   1.772   3.493   8.881 -0.0988 -0.5846  0.3965
 3185SOL    HW121017   1.706   3.460   8.942 -0.0190  1.5243  1.6156
 3185SOL    HW221018   1.813   3.414   8.844 -1.2142 -2.0189  2.2364
 3186SOL     OW21019   3.773   2.686  13.959  0.4950 -0.3130 -0.6516
 3186SOL    HW121020   3.761   2.623  13.889 -1.1401 -0.2763 -0.4109
 3186SOL    HW221021   3.781   2.767  13.908 -0.7632  0.1305 -0.1356
 3187SOL     OW21022   2.801   1.549   5.629  0.7787  0.3803 -0.0581
 3187SOL    HW121023   2.893   1.541   5.653  0.8057  1.5782  0.2409
 3187SOL    HW221024   2.769   1.477   5.683  1.2452  0.2442  0.0329
 3188SOL     OW21025   4.173   2.138   6.258 -0.4011 -0.0152  0.4675
 3188SOL    HW121026   4.229   2.201   6.303  1.5442 -1.8389  0.6211
 3188SOL    HW221027   4.173   2.063   6.317 -0.3873  0.1188  0.6356
 3189SOL     OW21028   1.686   2.363   1.585  0.1075  0.2875 -0.3291
 3189SOL    HW121029   1.657   2.277   1.615 -0.7409  0.2637 -1.2031
 3189SOL    HW221030   1.751   2.346   1.517 -0.2353 -0.1942 -0.5370
 3190SOL     OW21031   1.903   4.357   3.544  1.2854  0.5515  0.8024
 3190SOL    HW121032   1.867   4.400   3.621  1.8246  1.7849  0.3786
 3190SOL    HW221033   1.882   4.426   3.480 -1.0304  0.2070  1.2146
 3191SOL     OW21034   3.112   4.121   2.692  0.3853 -0.3318  1.0092
 3191SOL    HW121035   3.181   4.069   2.733 -0.0508  2.0247  4.7474
 3191SOL    HW221036   3.108   4.086   2.603  1.7589  1.9209  0.0398
 3192SOL     OW21037   4.550   2.828  10.331  0.4115  0.2376 -0.1287
 3192SOL    HW121038   4.482   2.887  10.364 -1.1517 -1.7798  0.2538
 3192SOL    HW221039   4.506   2.778  10.263 -0.5793  0.3314  0.4430
 3193SOL     OW21040   3.299   3.803  12.684 -0.0456 -1.3258  0.2950
 3193SOL    HW121041   3.244   3.726  12.693 -0.1950 -1.2033  0.4262
 3193SOL    HW221042   3.316   3.824  12.776  0.1394  0.3797 -0.1332
 3194SOL     OW21043   1.759   4.192   2.997 -0.6417  0.4800 -0.3237
 3194SOL    HW121044   1.828   4.183   2.931  1.5378 -0.5608  2.0786
 3194SOL    HW221045   1.788   4.261   3.057  0.5675  0.7867 -1.2614
 3195SOL     OW21046   2.825   2.247   5.846  0.0283  0.2188 -0.2516
 3195SOL    HW121047   2.782   2.258   5.761 -0.4145  2.0659  0.2182
 3195SOL    HW221048   2.754   2.244   5.910  1.6019 -2.8431  1.3606
 3196SOL     OW21049   2.964   4.036   6.652 -0.0558 -0.1429 -0.8216
 3196SOL    HW121050   2.893   3.972   6.664 -1.2360  1.7998  2.5528
 3196SOL    HW221051   2.949   4.105   6.716 -0.3601 -0.4191 -0.5953
 3197SOL     OW21052   1.702   0.654   7.081  0.5413  0.4682  0.4239
 3197SOL    HW121053   1.754   0.695   7.012 -0.2904  0.8727  0.0459
 3197SOL    HW221054   1.756   0.659   7.160  0.2809  1.2899  0.5514
 3198SOL     OW21055   4.117   3.903  13.664  0.0734  0.1274 -0.3887
 3198SOL    HW121056   4.135   3.854  13.744  0.9861  0.4233 -0.4251
 3198SOL    HW221057   4.181   3.973  13.662  1.0606 -0.7673  0.0174
 3199SOL     OW21058   3.252   0.445   7.005  0.2089  0.0784  0.2269
 3199SOL    HW121059   3.158   0.441   7.017 -0.0127 -0.4559 -1.6237
 3199SOL    HW221060   3.257   0.387   6.929 -2.0502  0.0169  0.1320
 3200SOL     OW21061   0.649   1.558   0.101 -0.3831  0.4196 -0.1242
 3200SOL    HW121062   0.706   1.620   0.054  1.1430 -0.6511  0.2994
 3200SOL    HW221063   0.566   1.598   0.075 -0.1893  1.4340  0.8236
 3201SOL     OW21064   0.887   3.818   2.578  0.2669  0.2862  0.3314
 3201SOL    HW121065   0.803   3.771   2.580 -0.2298  1.1453 -0.1016
 3201SOL    HW221066   0.916   3.782   2.494  1.1253  0.7520  0.4321
 3202SOL     OW21067   2.229   2.459   0.528 -0.0299 -0.7293  0.3900
 3202SOL    HW121068   2.189   2.389   0.579 -1.5454  2.2527  3.2378
 3202SOL    HW221069   2.316   2.427   0.501  0.5305  0.8815  0.2911
 3203SOL     OW21070   1.926   4.133  12.842 -0.3874 -0.0140 -0.1552
 3203SOL    HW121071   1.987   4.109  12.772  0.0827  0.9875 -0.0908
 3203SOL    HW221072   1.893   4.219  12.815 -0.0415 -0.9097 -3.5143
 3204SOL     OW21073   4.697   4.611   4.038  0.1998  0.0276 -0.0311
 3204SOL    HW121074   0.014   4.676   4.095 -0.1641 -0.9826  1.3766
 3204SOL    HW221075   4.646   4.666   3.978 -2.7482 -1.4073  1.1944
 3205SOL     OW21076   0.713   1.691   6.970  0.5776 -0.5728 -0.0572
 3205SOL    HW121077   0.784   1.681   6.906  0.3611  0.3778 -0.4599
 3205SOL    HW221078   0.635   1.652   6.930  0.3425  0.5963 -0.7532
 3206SOL     OW21079   1.053   4.330   5.843 -0.0789 -0.2818 -1.0233
 3206SOL    HW121080   0.982   4.394   5.846 -0.3319 -0.6301  0.4011
 3206SOL    HW221081   1.064   4.342   5.749  1.6510 -0.0552 -0.7845
 3207SOL     OW21082   2.382   2.021   4.631  0.1616 -0.4814 -0.2438
 3207SOL    HW121083   2.423   2.036   4.546  0.5460 -1.6497 -0.2640
 3207SOL    HW221084   2.390   1.926   4.630  1.4796 -0.3734 -0.6318
 3208SOL     OW21085   4.362   3.322   7.902  0.6740  0.1318  0.2980
 3208SOL    HW121086   4.349   3.252   7.966  0.4209  0.2995  0.4326
 3208SOL    HW221087   4.307   3.309   7.825 -1.4425 -3.8269  2.4800
 3209SOL     OW21088   2.124   1.181   5.759  0.1144  0.4202  0.4295
 3209SOL    HW121089   2.101   1.269   5.730  0.8476  0.9373  1.4384
 3209SOL    HW221090   2.193   1.200   5.822  1.4530  2.7349 -1.7628
 3210SOL     OW21091   2.185   0.577   3.456 -0.3026 -0.5815  0.2464
 3210SOL    HW121092   2.196   0.672   3.449 -2.6110 -0.2555  1.1135
 3210SOL    HW221093   2.135   0.565   3.375  1.1678  1.0384 -0.8957
 3211SOL     OW21094   0.255   3.936   3.856 -0.0803 -0.5422 -0.5042
 3211SOL    HW121095   0.261   4.008   3.794 -3.0871 -1.5562 -1.9584
 3211SOL    HW221096   0.175   3.887   3.838 -0.1610 -0.0013 -1.5859
 3212SOL     OW21097   1.274   1.586   4.505  0.1104  0.5065 -0.6324
 3212SOL    HW121098   1.318   1.578   4.590 -1.4458 -2.1170 -0.0639
 3212SOL    HW221099   1.333   1.526   4.459 -0.9918 -0.4048 -0.8595
 3213SOL     OW21100   0.118   1.640   4.029 -0.5412 -0.8607 -0.2905
 3213SOL    HW121101   0.032   1.672   4.003 -0.4380 -0.4914 -0.1820
 3213SOL    HW221102   0.140   1.590   3.950  1.1921 -0.3501 -0.1520
 3214SOL     OW21103   2.066   3.702  12.225  0.2424  0.2593  0.0926
 3214SOL    HW121104   1.979   3.741  12.234 -0.3519 -0.9450 -0.3929
 3214SOL    HW221105   2.099   3.693  12.315  1.9352 -0.8128 -0.6506
 3215SOL     OW21106   2.512   0.804   5.765  0.3788 -0.0586 -0.1560
 3215SOL    HW121107   2.514   0.865   5.839 -1.2945 -0.5582  0.3081
 3215SOL    HW221108   2.604   0.790   5.745  0.4776 -0.6940  0.7717
 3216SOL     OW21109   0.112   2.479   2.046 -0.1975  0.8610 -0.5497
 3216SOL    HW121110   0.114   2.512   2.136 -1.7763 -0.9960  0.1729
 3216SOL    HW221111   0.195   2.498   2.002 -1.9178  5.0917 -1.8577
 3217SOL     OW21112   0.168   3.440   5.232 -0.3367 -0.1051  0.6541
 3217SOL    HW121113   0.245   3.399   5.193  0.1936  0.5789  0.9814
 3217SOL    HW221114   0.186   3.424   5.324  1.4090  1.3139  0.5647
 3218SOL     OW21115   2.253   4.052  16.715 -0.7832  0.0324 -0.1078
 3218SOL    HW121116   2.230   4.123  16.775 -1.5290  0.8500 -1.3519
 3218SOL    HW221117   2.332   4.025  16.761 -0.9833  1.0132  0.8113
 3219SOL     OW21118   2.371   2.832   5.228  0.1523  0.1835 -0.3633
 3219SOL    HW121119   2.290   2.795   5.263  0.4119  0.6367  0.7059
 3219SOL    HW221120   2.351   2.926   5.223 -1.1644 -0.1293 -0.9641
 3220SOL     OW21121   3.256   4.633   5.643  0.2711  0.7229 -0.0084
 3220SOL    HW121122   3.334   4.577   5.638 -1.8248 -2.1180 -0.7783
 3220SOL    HW221123   3.262   4.651   5.737  0.8848  0.2040  0.0517
 3221SOL     OW21124   1.845   2.678   6.690 -0.7050 -0.3913 -0.4161
 3221SOL    HW121125   1.899   2.674   6.769 -0.9417  1.0538 -0.1954
 3221SOL    HW221126   1.764   2.640   6.725  0.4628 -1.8988  0.6858
 3222SOL     OW21127   1.628   4.647   3.938 -0.1336  0.4152  0.2360
 3222SOL    HW121128   1.561   4.588   3.972  0.1663 -0.5532 -0.8487
 3222SOL    HW221129   1.586   4.703   3.873  1.6116  1.1764 -0.2289
 3223SOL     OW21130   4.616   1.886   2.219 -0.2158 -0.1323  0.4620
 3223SOL    HW121131   4.570   1.802   2.231  0.9447 -0.8898 -0.3779
 3223SOL    HW221132   4.546   1.951   2.225 -0.6655 -0.7442  1.9301
 3224SOL     OW21133   4.209   2.059  12.532  0.3804 -0.3361 -1.0246
 3224SOL    HW121134   4.135   2.057  12.471 -2.4135 -1.0904  2.3757
 3224SOL    HW221135   4.243   2.147  12.514 -0.7336  0.8645  2.9643
 3225SOL     OW21136   3.025   3.057   3.139 -0.3254 -0.5359 -0.8661
 3225SOL    HW121137   3.017   3.128   3.202 -2.1913 -0.8201 -0.7972
 3225SOL    HW221138   3.022   3.109   3.059 -0.0414 -1.5169 -1.5112
 3226SOL     OW21139   3.541   3.976   7.908 -0.2245  0.4880 -0.5258
 3226SOL    HW121140   3.521   3.883   7.920  3.3468 -0.4032 -1.5061
 3226SOL    HW221141   3.609   3.991   7.972 -1.0530 -0.5146  0.5926
 3227SOL     OW21142   4.312   4.437  13.374 -0.7119  0.3653  0.6432
 3227SOL    HW121143   4.350   4.418  13.460 -2.8496  0.5284  1.6264
 3227SOL    HW221144   4.339   4.528  13.361  0.9548 -0.2364 -0.0464
 3228SOL     OW21145   1.178   1.647   4.932  0.0628  0.2447 -0.1965
 3228SOL    HW121146   1.270   1.672   4.934  0.9935 -3.0734 -1.8095
 3228SOL    HW221147   1.141   1.727   4.971  0.8180  0.8039 -0.6254
 3229SOL     OW21148   4.684   3.567   7.490  0.3384  0.4265  0.0490
 3229SOL    HW121149   4.593   3.577   7.463 -0.3667 -3.1392  1.0752
 3229SOL    HW221150   4.685   3.611   7.575  0.5963 -1.3293  0.9628
 3230SOL     OW21151   2.019   2.192   4.762  0.1515 -0.3495  0.0991
 3230SOL    HW121152   2.092   2.192   4.823  1.6319  1.5272 -1.6985
 3230SOL    HW221153   2.049   2.159   4.678  2.0840  2.7525 -0.4090
 3231SOL     OW21154   4.162   3.999   5.948 -0.3210  0.4632  0.6275
 3231SOL    HW121155   4.254   3.982   5.963 -0.1742  0.7937  0.1008
 3231SOL    HW221156   4.128   3.992   6.037 -0.2794  0.5054  0.6463
 3232SOL     OW21157   4.406   1.078   5.823  0.6892 -0.0918  0.0363
 3232SOL    HW121158   4.421   0.987   5.799  0.2439 -0.2536  0.3692
 3232SOL    HW221159   4.468   1.134   5.776  0.3054 -0.4170 -0.8507
 3233SOL     OW21160   2.170   2.282   8.589 -0.4005  0.2586 -0.4627
 3233SOL    HW121161   2.196   2.197   8.626  2.1825  1.2565  0.0572
 3233SOL    HW221162   2.081   2.272   8.555 -0.7316  0.6856  0.2805
 3234SOL     OW21163   1.392   2.245   7.050 -0.1768  0.5604  0.1211
 3234SOL    HW121164   1.398   2.337   7.076 -0.7230  0.3207  1.1102
 3234SOL    HW221165   1.460   2.203   7.102 -2.3004 -0.1193  2.3781
 3235SOL     OW21166   4.265   1.209   3.090  0.1080 -0.2273 -0.8581
 3235SOL    HW121167   4.240   1.160   3.011  1.8634 -0.5183 -1.2375
 3235SOL    HW221168   4.349   1.250   3.071  0.1736 -0.6808 -1.5496
 3236SOL     OW21169   3.381   2.681   7.281  0.6226 -0.7502  0.1300
 3236SOL    HW121170   3.331   2.686   7.362  0.4906  0.6010 -0.0388
 3236SOL    HW221171   3.306   2.695   7.223  0.6596 -0.1122  0.2312
 3237SOL     OW21172   4.369   2.633   2.857 -0.4885 -0.2376 -0.1819
 3237SOL    HW121173   4.321   2.573   2.913  0.3652  0.4872  1.3373
 3237SOL    HW221174   4.370   2.577   2.780 -1.5467 -0.3504 -0.1059
 3238SOL     OW21175   0.733   4.306   6.874 -0.4435  0.0157 -0.3106
 3238SOL    HW121176   0.700   4.252   6.946  1.7722 -1.8923 -0.7400
 3238SOL    HW221177   0.824   4.280   6.886 -0.8573 -2.5846 -3.0782
 3239SOL     OW21178   1.237   1.179   4.995  0.4337 -0.3458  0.1706
 3239SOL    HW121179   1.238   1.186   5.090 -0.0851 -0.7524  0.2079
 3239SOL    HW221180   1.188   1.250   4.952  0.2198 -0.1171  0.7905
 3240SOL     OW21181   1.608   2.723   2.595  0.1867 -0.3813 -0.3973
 3240SOL    HW121182   1.573   2.809   2.616  0.8602 -0.5587  1.4602
 3240SOL    HW221183   1.683   2.740   2.538 -1.3130 -0.2321 -2.3056
 3241SOL     OW21184   2.965   3.607   8.630 -0.1794  0.3170  0.2903
 3241SOL    HW121185   2.905   3.549   8.676  1.5493  0.4735  2.7497
 3241SOL    HW221186   2.928   3.693   8.645 -2.2663 -0.7290  1.1196
 3242SOL     OW21187   1.541   4.620   4.830  0.2727  0.4439  0.2989
 3242SOL    HW121188   1.456   4.621   4.874 -0.1110  0.0918 -0.4173
 3242SOL    HW221189   1.600   4.641   4.902 -0.8768  0.8774  1.1053
 3243SOL     OW21190   0.861   2.958   5.785 -0.0505  0.0705 -0.6042
 3243SOL    HW121191   0.828   2.921   5.703 -0.1240 -2.4379  0.5327
 3243SOL    HW221192   0.955   2.968   5.771  0.0026  2.9519  1.7726
 3244SOL     OW21193   1.397   1.259   3.343 -0.3809  0.4404 -0.2551
 3244SOL    HW121194   1.362   1.343   3.314 -1.7894 -0.3365 -0.7951
 3244SOL    HW221195   1.316   1.214   3.366  0.1174 -0.0675  0.5311
 3245SOL     OW21196   0.884   0.747   6.801  0.3019 -0.8028  0.5430
 3245SOL    HW121197   0.930   0.668   6.771 -1.9011 -2.1931  0.8173
 3245SOL    HW221198   0.932   0.767   6.881 -3.5807 -2.6161  3.3381
 3246SOL     OW21199   4.349   3.019   8.571 -0.0035 -0.0981 -0.0464
 3246SOL    HW121200   4.423   3.080   8.572 -0.2464  0.1963  0.6148
 3246SOL    HW221201   4.307   3.033   8.486 -0.7088 -1.8495  0.0305
 3247SOL     OW21202   3.584   4.108   1.271  0.1717  0.0723  0.0812
 3247SOL    HW121203   3.506   4.101   1.216 -0.0621  0.4335  0.3657
 3247SOL    HW221204   3.650   4.148   1.214 -0.8815 -1.1384 -1.9613
 3248SOL     OW21205   2.073   1.793   4.506  0.3073  0.3704 -0.1930
 3248SOL    HW121206   2.030   1.735   4.444 -1.5775 -0.1045  1.5716
 3248SOL    HW221207   2.088   1.725   4.572  2.0580  0.0449 -0.9175
 3249SOL     OW21208   0.805   1.647   8.608  0.5111  0.4406 -0.6873
 3249SOL    HW121209   0.829   1.733   8.574  2.5240  0.7183  1.4558
 3249SOL    HW221210   0.888   1.604   8.630 -0.6006 -1.3990 -0.0573
 3250SOL     OW21211   3.244   4.563   2.123 -0.4339  0.1446 -0.1564
 3250SOL    HW121212   3.315   4.574   2.186 -1.7452  0.2788  1.3107
 3250SOL    HW221213   3.289   4.573   2.039  0.5758 -1.5728  0.1851
 3251SOL     OW21214   3.946   1.471   8.544 -0.2662 -0.3886 -0.2737
 3251SOL    HW121215   3.881   1.472   8.614 -1.4513  0.1744 -1.3808
 3251SOL    HW221216   4.029   1.489   8.588  1.6583  0.0708 -4.0982
 3252SOL     OW21217   3.679   1.269   1.224  0.4435  0.7990  0.9030
 3252SOL    HW121218   3.591   1.248   1.255  0.7351 -1.7238  0.0610
 3252SOL    HW221219   3.665   1.270   1.129  3.1551  1.6787  0.4994
 3253SOL     OW21220   1.974   0.942   5.765  0.9943 -0.0676  0.1078
 3253SOL    HW121221   2.046   1.002   5.783  0.3409  0.6407  0.3568
 3253SOL    HW221222   1.923   0.984   5.696 -1.4256 -2.5153  0.4130
 3254SOL     OW21223   4.424   3.328   3.240  0.2472  0.2689  0.6984
 3254SOL    HW121224   4.422   3.263   3.170 -2.6737  1.4951 -0.3198
 3254SOL    HW221225   4.437   3.267   3.313  2.8219 -1.4662 -1.1792
 3255SOL     OW21226   0.014   1.688  12.674 -0.0187 -0.2034 -0.0433
 3255SOL    HW121227   0.030   1.663  12.583  0.7568  1.7381 -0.4315
 3255SOL    HW221228   4.644   1.686  12.669  0.0694  0.1540 -1.7960
 3256SOL     OW21229   4.454   3.802  16.718  0.0179  0.1198 -0.1999
 3256SOL    HW121230   4.399   3.750  16.660  0.4063  1.3480 -1.6583
 3256SOL    HW221231   4.493   3.738  16.778  0.6650 -0.2288 -0.9970
 3257SOL     OW21232   3.325   1.253   7.042 -0.0048  0.4275  0.1198
 3257SOL    HW121233   3.249   1.309   7.029  0.5943  0.9573 -1.1496
 3257SOL    HW221234   3.363   1.284   7.124 -1.5508  0.3240  0.8763
 3258SOL     OW21235   4.519   1.299   2.358  0.0778  0.3518 -0.3017
 3258SOL    HW121236   4.512   1.262   2.270 -0.8876 -0.2787  0.0420
 3258SOL    HW221237   4.584   1.368   2.344  2.1136 -1.1802  1.4557
 3259SOL     OW21238   0.608   2.381   5.982  0.3392 -0.7982 -0.2606
 3259SOL    HW121239   0.558   2.352   5.906 -2.5294  1.9773  0.5524
 3259SOL    HW221240   0.547   2.418   6.046 -0.3915 -1.9213 -0.3122
 3260SOL     OW21241   3.379   2.950   4.241  0.1100 -0.4280 -0.0744
 3260SOL    HW121242   3.344   3.030   4.203 -0.8625 -1.4971 -1.3934
 3260SOL    HW221243   3.407   2.994   4.321 -0.0238 -1.1439  0.3675
 3261SOL     OW21244   4.352   4.528   0.255  0.2116  0.5722  0.1853
 3261SOL    HW121245   4.292   4.505   0.325 -1.4026  0.8337 -1.1027
 3261SOL    HW221246   4.344   4.459   0.190  0.0545 -0.6173  1.4723
 3262SOL     OW21247   3.563   0.198   0.952  0.1039 -0.7806 -0.3372
 3262SOL    HW121248   3.583   0.155   1.035  1.6195 -0.4299 -0.5188
 3262SOL    HW221249   3.489   0.250   0.983  0.4394  0.6363 -1.8951
 3263SOL     OW21250   2.036   3.773   2.049  0.2593 -0.8283 -0.2851
 3263SOL    HW121251   1.957   3.742   2.093 -0.3398 -0.0314 -0.7848
 3263SOL    HW221252   2.082   3.690   2.044 -0.3487 -1.2608  1.4468
 3264SOL     OW21253   4.560   4.472   9.853  0.1258  0.5769  0.1711
 3264SOL    HW121254   4.481   4.455   9.801  0.5794  0.9805 -0.6466
 3264SOL    HW221255   4.548   4.565   9.872 -0.8899  0.2333  1.2494
 3265SOL     OW21256   3.164   2.359   5.573 -0.1808 -0.1696 -0.2934
 3265SOL    HW121257   3.146   2.289   5.510 -0.7454 -1.0092  0.8019
 3265SOL    HW221258   3.156   2.314   5.657 -0.9856  1.4636  0.5072
 3266SOL     OW21259   4.069   2.950  10.567  0.1266 -0.1297  0.3451
 3266SOL    HW121260   4.001   2.978  10.628  0.6890  1.5041  0.2364
 3266SOL    HW221261   4.132   3.022  10.558  0.3141 -0.4050 -0.5414
 3267SOL     OW21262   1.794   2.020   2.568 -0.3805 -0.5001  0.2433
 3267SOL    HW121263   1.782   2.082   2.640  1.2356  0.7694 -0.5678
 3267SOL    HW221264   1.707   2.014   2.527  1.1974 -2.7553 -2.7895
 3268SOL     OW21265   3.841   1.074  16.284  0.0159  0.3605  0.3625
 3268SOL    HW121266   3.841   1.126  16.364 -2.5696  0.3237  0.3606
 3268SOL    HW221267   3.750   1.074  16.256  0.0955 -0.0812  0.0984
 3269SOL     OW21268   1.526   1.616   7.897  0.6079  0.0589  0.2103
 3269SOL    HW121269   1.549   1.679   7.828 -1.4341 -1.0041 -1.4434
 3269SOL    HW221270   1.513   1.679   7.967  1.7311  0.2913  0.2118
 3270SOL     OW21271   2.746   2.698   5.570  0.1273  0.6044 -0.0434
 3270SOL    HW121272   2.816   2.738   5.519  0.5810 -1.5942 -1.1650
 3270SOL    HW221273   2.671   2.729   5.518 -0.2657 -1.1960 -0.5534
 3271SOL     OW21274   2.757   3.387   3.178 -0.1026 -0.1473 -0.0215
 3271SOL    HW121275   2.848   3.360   3.193  0.5140  1.2345 -1.2881
 3271SOL    HW221276   2.716   3.308   3.143 -0.8232  0.4194 -0.4520
 3272SOL     OW21277   3.897   3.685   1.568  0.0759  0.0653 -0.2859
 3272SOL    HW121278   3.972   3.715   1.620  0.3855  0.0659 -0.7377
 3272SOL    HW221279   3.882   3.767   1.522  0.2585 -0.8229 -1.9172
 3273SOL     OW21280   4.665   0.788   2.477  0.2261  0.0948  0.3584
 3273SOL    HW121281   4.662   0.702   2.520  0.4052 -0.4422 -0.7174
 3273SOL    HW221282   4.577   0.793   2.439 -0.4132 -0.3894  1.7612
 3274SOL     OW21283   0.573   3.182   8.601 -0.5180  0.7645  0.1295
 3274SOL    HW121284   0.651   3.202   8.550  0.5243  2.9149  2.6115
 3274SOL    HW221285   0.561   3.088   8.588 -0.1533  0.7861 -0.3720
 3275SOL     OW21286   1.301   3.046   1.141  0.1254  0.1666 -0.4814
 3275SOL    HW121287   1.205   3.037   1.145  0.2985 -0.4331  2.4149
 3275SOL    HW221288   1.319   3.014   1.053  1.2074  1.1261 -0.5971
 3276SOL     OW21289   3.263   3.405  11.053  0.1665 -0.4627  0.2388
 3276SOL    HW121290   3.330   3.429  11.118  1.3032  1.5794 -1.6588
 3276SOL    HW221291   3.216   3.488  11.044  1.2059  0.1659  0.5110
 3277SOL     OW21292   1.461   0.727   8.559  0.2615  0.0886  0.3968
 3277SOL    HW121293   1.556   0.730   8.570  0.2541 -0.1149  0.5284
 3277SOL    HW221294   1.452   0.640   8.520 -1.3946 -0.2724  1.5599
 3278SOL     OW21295   0.279   1.171  13.468 -0.5978 -0.0525  0.1462
 3278SOL    HW121296   0.268   1.260  13.435 -0.8416 -1.0658 -2.4790
 3278SOL    HW221297   0.308   1.135  13.385  0.1027  2.2423 -0.6169
 3279SOL     OW21298   3.159   3.699   3.427  0.7154  0.2155  0.4400
 3279SOL    HW121299   3.170   3.794   3.415  1.7330  0.1926  1.2204
 3279SOL    HW221300   3.069   3.692   3.397  0.5368 -1.9700  1.4845
 3280SOL     OW21301   0.726   1.297   5.235  0.2312 -0.5740 -0.6476
 3280SOL    HW121302   0.764   1.382   5.210  1.8108 -1.1141 -0.0963
 3280SOL    HW221303   0.667   1.293   5.160  0.4874 -1.9353 -0.7629
 3281SOL     OW21304   4.423   3.621   7.200  0.0244  0.2026  0.2578
 3281SOL    HW121305   4.367   3.643   7.274 -1.6481 -2.8687 -0.1030
 3281SOL    HW221306   4.391   3.690   7.141 -0.7012  0.1599  0.5996
 3282SOL     OW21307   3.211   2.802   1.998 -0.2891 -0.2281 -0.1139
 3282SOL    HW121308   3.182   2.748   1.925 -0.1290  0.8506 -0.9751
 3282SOL    HW221309   3.267   2.866   1.955 -0.1476 -0.9278 -0.9565
 3283SOL     OW21310   2.030   3.664   1.283  0.3806 -0.1793  0.4054
 3283SOL    HW121311   2.010   3.732   1.218  1.5543  2.3050  2.6525
 3283SOL    HW221312   2.034   3.711   1.366  1.8756 -2.5340  1.6447
 3284SOL     OW21313   4.305   3.082   8.847 -0.5520 -0.1574  0.1385
 3284SOL    HW121314   4.288   3.048   8.759 -2.0339  1.5222 -0.2523
 3284SOL    HW221315   4.386   3.038   8.872 -1.0034 -1.9957 -1.6700
 3285SOL     OW21316   0.932   3.778   6.513  0.0457 -0.1135 -0.2858
 3285SOL    HW121317   0.902   3.728   6.589 -0.7724 -3.1945 -2.6703
 3285SOL    HW221318   1.020   3.747   6.494  0.6498  1.7126 -0.5436
 3286SOL     OW21319   0.934   0.931  14.595  0.1778 -0.0769 -0.3095
 3286SOL    HW121320   0.946   0.837  14.580 -0.7036  0.0387 -1.7575
 3286SOL    HW221321   1.022   0.969  14.597 -1.1027  2.9476 -1.7453
 3287SOL     OW21322   0.882   1.286   1.443 -0.4666 -0.1780 -0.3017
 3287SOL    HW121323   0.951   1.276   1.508 -0.8545  1.9154  0.4015
 3287SOL    HW221324   0.896   1.199   1.404 -0.7624 -1.4192  2.3547
 3288SOL     OW21325   3.497   1.664   3.295 -0.8436 -0.1801  0.1897
 3288SOL    HW121326   3.480   1.576   3.328 -2.0567 -0.3400 -0.8753
 3288SOL    HW221327   3.553   1.710   3.357 -1.3366  1.3183 -0.4830
 3289SOL     OW21328   1.127   1.842  10.605 -0.3460 -0.5654  0.3756
 3289SOL    HW121329   1.064   1.835  10.677  2.1175 -2.1771  2.3609
 3289SOL    HW221330   1.167   1.926  10.627  1.0435 -1.2590  0.4639
 3290SOL     OW21331   3.756   0.853   2.169 -0.6632 -0.1369 -0.1030
 3290SOL    HW121332   3.771   0.788   2.100 -0.1682  2.8551 -2.8557
 3290SOL    HW221333   3.774   0.934   2.121  0.6525  0.0307  0.6600
 3291SOL     OW21334   2.280   0.899   0.651  0.3700  0.3749  0.0766
 3291SOL    HW121335   2.226   0.841   0.704 -0.0150 -0.2417 -0.9772
 3291SOL    HW221336   2.219   0.929   0.583 -1.1573  1.2401  1.8465
 3292SOL     OW21337   4.582   2.897   2.873  0.3875 -0.2882 -0.2074
 3292SOL    HW121338   4.526   2.971   2.850  1.4753  0.7123  0.3566
 3292SOL    HW221339   4.520   2.829   2.846  2.3645 -2.1802  0.0613
 3293SOL     OW21340   3.818   2.979   3.716  0.3775  0.1693  0.4761
 3293SOL    HW121341   3.822   3.068   3.680 -0.0591  0.4247  1.0588
 3293SOL    HW221342   3.733   2.936   3.707 -0.3031  1.4730  0.6505
 3294SOL     OW21343   1.286   0.756   3.407 -0.0661  0.0969 -0.1073
 3294SOL    HW121344   1.243   0.739   3.491  0.4012  1.3506  0.3832
 3294SOL    HW221345   1.378   0.769   3.428  0.6968  0.4074 -3.6405
 3295SOL     OW21346   2.153   2.687   8.170  0.7030 -0.0987 -0.3757
 3295SOL    HW121347   2.146   2.780   8.191  2.3785  0.5378 -2.5998
 3295SOL    HW221348   2.155   2.649   8.258 -1.2390 -0.8094 -0.6314
 3296SOL     OW21349   0.764   3.236   8.947 -0.1160 -0.1910  0.0767
 3296SOL    HW121350   0.822   3.160   8.946  0.5334  0.2989  1.0292
 3296SOL    HW221351   0.819   3.304   8.909 -3.0058  3.6235  2.7067
 3297SOL     OW21352   1.307   3.196  13.915 -0.9167 -0.2056 -0.3495
 3297SOL    HW121353   1.285   3.105  13.892  1.7660 -1.2538  1.1501
 3297SOL    HW221354   1.291   3.201  14.009 -0.6032  0.1951 -0.3189
 3298SOL     OW21355   0.794   4.186   0.858 -0.0960 -0.0102  0.3775
 3298SOL    HW121356   0.804   4.126   0.783 -0.8442  0.6326 -0.2405
 3298SOL    HW221357   0.797   4.119   0.926 -0.3351  1.7273  2.0834
 3299SOL     OW21358   4.358   0.941   9.878  0.0147  0.3488 -0.2566
 3299SOL    HW121359   4.288   0.981   9.929 -1.7593 -0.0299 -2.3961
 3299SOL    HW221360   4.436   0.989   9.905 -0.6772  1.3023  0.0713
 3300SOL     OW21361   1.090   3.567   2.554 -0.0411 -0.5037 -0.1261
 3300SOL    HW121362   1.174   3.602   2.526  0.8288 -1.7085  0.9734
 3300SOL    HW221363   1.037   3.622   2.495 -0.1504  1.8852  2.1918
 3301SOL     OW21364   2.105   0.077   4.154 -0.1388  0.2509  0.0730
 3301SOL    HW121365   2.055   0.004   4.117 -0.0881 -0.6901  1.8489
 3301SOL    HW221366   2.185   0.040   4.193  0.2797  1.6264  0.4994
 3302SOL     OW21367   4.144   4.725   3.976  0.6748  0.3304  0.8409
 3302SOL    HW121368   4.135   4.645   3.923 -0.2403  1.7713 -1.1496
 3302SOL    HW221369   4.096   0.062   3.922 -0.8754 -0.1388  1.6934
 3303SOL     OW21370   3.589   0.701  15.508  0.3276  0.4865 -0.2021
 3303SOL    HW121371   3.651   0.700  15.435 -0.3166  1.3161 -0.7572
 3303SOL    HW221372   3.511   0.733  15.463  1.2917  0.8767 -1.6065
 3304SOL     OW21373   3.291   2.775   7.546 -0.4059 -0.4812  0.6053
 3304SOL    HW121374   3.366   2.774   7.606  0.6103 -1.9812 -0.6892
 3304SOL    HW221375   3.232   2.712   7.586 -2.6450  1.8460  0.9802
 3305SOL     OW21376   0.986   1.501  11.718 -0.0688 -0.0316 -0.1736
 3305SOL    HW121377   1.056   1.564  11.734  1.5500 -1.1934 -2.6497
 3305SOL    HW221378   0.923   1.559  11.674  1.0575 -0.0910 -1.8778
 3306SOL     OW21379   3.123   3.928   6.922  0.9209 -0.1193  0.2754
 3306SOL    HW121380   3.079   3.846   6.901  3.4977 -1.4719  0.1563
 3306SOL    HW221381   3.072   3.951   7.000 -0.4360  0.1691 -0.6852
 3307SOL     OW21382   0.209   2.422   3.235  0.1687  0.4654 -0.0004
 3307SOL    HW121383   0.202   2.338   3.190  0.3972  0.5168 -0.1318
 3307SOL    HW221384   0.276   2.467   3.185 -0.0263  1.2710  0.4579
 3308SOL     OW21385   3.559   0.459   6.959 -0.4678  0.2325 -1.0153
 3308SOL    HW121386   3.620   0.452   7.033 -0.8467  0.2024 -0.7039
 3308SOL    HW221387   3.610   0.470   6.879  1.0520 -0.3903 -0.1393
 3309SOL     OW21388   4.659   1.927  15.031  0.1587 -0.5585 -0.0030
 3309SOL    HW121389   4.640   1.964  15.117  0.0567 -0.4570 -0.0700
 3309SOL    HW221390   4.592   1.859  15.021 -0.7377  0.2190  0.6838
 3310SOL     OW21391   1.520   0.334  11.292 -0.0000 -0.4290 -0.1329
 3310SOL    HW121392   1.428   0.309  11.287 -0.2351 -0.0193  2.2547
 3310SOL    HW221393   1.551   0.248  11.263 -1.0496 -0.4822 -1.0823
 3311SOL     OW21394   3.959   4.144  12.074 -0.0931  0.2042  0.0884
 3311SOL    HW121395   3.872   4.108  12.090  0.2009  0.8734  3.1249
 3311SOL    HW221396   4.023   4.102  12.132  0.4175  0.9870  0.0947
 3312SOL     OW21397   3.019   3.027  11.939 -0.0293 -0.6057 -0.3397
 3312SOL    HW121398   2.988   3.110  11.902 -0.5427 -0.8735 -0.5157
 3312SOL    HW221399   2.993   3.035  12.031 -0.2072 -1.2740 -0.3357
 3313SOL     OW21400   1.087   2.359   3.314 -0.6281 -0.0436 -0.7278
 3313SOL    HW121401   1.052   2.447   3.302 -0.9046 -0.3207 -1.9303
 3313SOL    HW221402   1.032   2.324   3.384 -0.9776  1.3955 -0.2741
 3314SOL     OW21403   1.459   3.346   4.510  0.4458  0.3546  0.0011
 3314SOL    HW121404   1.386   3.404   4.488  1.7019  1.8087 -0.3665
 3314SOL    HW221405   1.471   3.347   4.605 -1.1623  0.5532  0.2102
 3315SOL     OW21406   2.884   0.250  11.512  0.8250 -0.0828 -0.2767
 3315SOL    HW121407   2.967   0.204  11.528  1.3109  0.3511 -1.5367
 3315SOL    HW221408   2.844   0.234  11.598 -1.4386  1.9997 -0.9435
 3316SOL     OW21409   0.213   0.748   5.032  0.0715  0.0443 -0.5693
 3316SOL    HW121410   0.303   0.715   5.022  1.2311  3.1421 -0.2287
 3316SOL    HW221411   0.160   0.697   4.971 -1.5655  1.1973 -0.0975
 3317SOL     OW21412   2.617   0.192   1.840 -0.4875  0.2995  0.0652
 3317SOL    HW121413   2.586   0.263   1.898  1.9426  1.2196  0.2376
 3317SOL    HW221414   2.704   0.187   1.880 -0.4891 -1.5921 -0.1591
 3318SOL     OW21415   0.998   3.119  13.423  0.3927  0.1402  0.7868
 3318SOL    HW121416   0.932   3.187  13.442  0.1814  0.0757  0.2661
 3318SOL    HW221417   1.063   3.182  13.392 -0.9465  0.9166 -0.4403
 3319SOL     OW21418   3.592   4.120   2.885  0.5189  0.0074 -0.1742
 3319SOL    HW121419   3.560   4.201   2.845  0.3965 -0.8350 -1.7936
 3319SOL    HW221420   3.545   4.121   2.968  0.6706  2.5886 -0.1194
 3320SOL     OW21421   2.565   0.519  10.463 -0.1213  0.6054 -0.4052
 3320SOL    HW121422   2.534   0.609  10.460 -0.4618  0.5382  0.9615
 3320SOL    HW221423   2.537   0.500  10.553  0.9737 -0.2529 -0.2368
 3321SOL     OW21424   0.719   3.475   5.770  0.5055 -0.1352 -0.5770
 3321SOL    HW121425   0.645   3.469   5.831 -0.0315 -1.4473 -1.3498
 3321SOL    HW221426   0.719   3.388   5.730  0.3877  0.2707 -1.4518
 3322SOL     OW21427   0.058   4.293   8.365  0.0316  0.7191 -0.2646
 3322SOL    HW121428   0.084   4.258   8.280  3.5102 -2.7187  2.1981
 3322SOL    HW221429   0.133   4.352   8.370  0.0328  0.6718  0.3733
 3323SOL     OW21430   2.298   2.892   1.964 -0.0792 -0.5896  0.0646
 3323SOL    HW121431   2.382   2.919   1.928 -0.8374 -0.3297 -1.5038
 3323SOL    HW221432   2.236   2.912   1.894  1.6631 -2.5947 -2.0856
 3324SOL     OW21433   2.949   3.589   7.991 -0.6128  0.2339  0.1963
 3324SOL    HW121434   2.950   3.493   7.988  0.1095  0.2778 -0.9058
 3324SOL    HW221435   2.956   3.619   7.900 -2.6070  2.7959  0.9095
 3325SOL     OW21436   3.095   1.430   4.924  0.2875  0.0951 -0.4063
 3325SOL    HW121437   3.121   1.395   4.839 -0.0941  0.5250 -0.6969
 3325SOL    HW221438   3.005   1.453   4.904 -0.7310 -2.4651  1.2246
 3326SOL     OW21439   3.769   3.125   0.183  0.3695 -0.0757  0.1400
 3326SOL    HW121440   3.730   3.043   0.213  0.2345 -0.6327 -1.5528
 3326SOL    HW221441   3.705   3.145   0.114  1.0275  2.0059  0.1431
 3327SOL     OW21442   1.105   1.144  16.083 -0.0448 -0.2006  0.4226
 3327SOL    HW121443   1.025   1.115  16.128 -1.3940  1.1964 -1.0478
 3327SOL    HW221444   1.081   1.089  16.008 -1.3940 -1.1300  1.5236
 3328SOL     OW21445   0.955   3.072   6.501  0.3239 -0.3021 -0.0298
 3328SOL    HW121446   0.916   3.148   6.543  1.5360  2.4838 -3.9512
 3328SOL    HW221447   1.006   3.121   6.436  1.8582 -0.7637  0.8048
 3329SOL     OW21448   0.099   3.916   8.327  0.3368 -0.2793 -0.3350
 3329SOL    HW121449   0.143   3.875   8.402 -0.8002 -0.7299  0.0829
 3329SOL    HW221450   0.039   3.975   8.374  0.1812 -0.7193  0.0272
 3330SOL     OW21451   0.757   2.639  15.869 -0.0987  0.1332  0.1230
 3330SOL    HW121452   0.693   2.646  15.940  0.3169 -0.7796  0.5873
 3330SOL    HW221453   0.721   2.703  15.808 -2.0363 -1.6134 -0.5428
 3331SOL     OW21454   1.032   1.398   6.113 -0.5349 -0.0533  0.2644
 3331SOL    HW121455   0.968   1.409   6.043 -0.9597  1.2193  0.8601
 3331SOL    HW221456   1.075   1.482   6.101  0.1816 -0.7048 -1.7516
 3332SOL     OW21457   0.767   0.476   9.286  0.0809 -0.1021  0.2144
 3332SOL    HW121458   0.748   0.410   9.353  0.0928 -0.5041 -0.1688
 3332SOL    HW221459   0.842   0.522   9.322  0.1987 -1.0081  1.1356
 3333SOL     OW21460   3.113   1.281   6.449  0.1779 -0.0706 -0.0060
 3333SOL    HW121461   3.083   1.369   6.475 -0.0299 -0.9585  2.7145
 3333SOL    HW221462   3.197   1.270   6.493  0.8451 -0.4697 -1.3673
 3334SOL     OW21463   1.281   1.263   8.687  0.3899  0.0533  0.7573
 3334SOL    HW121464   1.240   1.305   8.762  0.0926 -1.4397  1.4260
 3334SOL    HW221465   1.369   1.301   8.690  0.5691 -0.2834 -0.2296
 3335SOL     OW21466   4.423   3.364  13.186 -0.0024  0.2365 -0.0459
 3335SOL    HW121467   4.516   3.383  13.176  0.0597  0.3844  0.8361
 3335SOL    HW221468   4.373   3.439  13.154 -1.9139 -1.0827 -0.1173
 3336SOL     OW21469   0.973   2.868  11.671  0.4528 -0.0127 -0.2867
 3336SOL    HW121470   0.901   2.928  11.652  0.6136  0.5700  0.8932
 3336SOL    HW221471   1.040   2.937  11.678  0.2815  0.2935 -1.6642
 3337SOL     OW21472   1.580   0.404  16.590 -0.0765  0.2251 -0.3745
 3337SOL    HW121473   1.492   0.441  16.593  0.3700  1.4233 -1.4524
 3337SOL    HW221474   1.589   0.387  16.683 -0.4514  0.3297 -0.3217
 3338SOL     OW21475   1.557   3.806  15.281  0.2557 -0.5512 -0.0987
 3338SOL    HW121476   1.530   3.722  15.245 -0.1510 -0.2760 -0.4244
 3338SOL    HW221477   1.582   3.864  15.210  1.0498  3.3896  3.3894
 3339SOL     OW21478   4.710   4.194   3.682  0.1950  0.5214 -0.3493
 3339SOL    HW121479   0.075   4.187   3.653 -0.1699  0.4628 -1.4644
 3339SOL    HW221480   4.696   4.285   3.653 -2.7220 -0.0236 -0.7176
 3340SOL     OW21481   0.393   4.416  12.911 -0.3276  0.6515 -0.7051
 3340SOL    HW121482   0.317   4.472  12.895 -1.2196 -0.2565  0.3592
 3340SOL    HW221483   0.465   4.454  12.861  2.1465 -0.6454  1.8792
 3341SOL     OW21484   3.086   0.655   5.472 -0.1929  0.1555 -0.6866
 3341SOL    HW121485   3.082   0.612   5.558 -0.3221  2.0135  0.2314
 3341SOL    HW221486   3.059   0.741   5.504  0.8186 -0.8322  2.8160
 3342SOL     OW21487   3.267   1.091   3.134  0.0264 -0.0336  0.0862
 3342SOL    HW121488   3.320   1.130   3.064 -0.4131 -2.3467 -1.5614
 3342SOL    HW221489   3.221   1.024   3.084 -2.3096  0.8485  1.0567
 3343SOL     OW21490   2.331   2.471  10.885 -0.0909 -0.1722  0.0804
 3343SOL    HW121491   2.338   2.380  10.857 -0.8394 -0.2581  0.1772
 3343SOL    HW221492   2.421   2.486  10.915 -0.9523  1.2730  1.9700
 3344SOL     OW21493   3.487   1.269   2.970  0.0317  0.2944 -0.0019
 3344SOL    HW121494   3.529   1.326   3.035  1.0397  2.4316 -2.4997
 3344SOL    HW221495   3.534   1.292   2.889  0.0279 -1.0891 -0.3878
 3345SOL     OW21496   3.118   3.242   9.395  0.7644  0.0289 -0.6485
 3345SOL    HW121497   3.124   3.176   9.326 -0.5131  0.8938 -1.5865
 3345SOL    HW221498   3.026   3.248   9.370 -0.1690 -3.0821  1.9545
 3346SOL     OW21499   1.023   3.857  12.777  0.1093  0.1360  0.1766
 3346SOL    HW121500   1.023   3.922  12.708  0.5712  1.7858  1.7364
 3346SOL    HW221501   0.943   3.876  12.826  0.4132 -1.1239  1.1808
 3347SOL     OW21502   1.231   2.379   1.812  0.5768 -0.4279 -0.1262
 3347SOL    HW121503   1.296   2.407   1.877 -0.6508  0.1566  0.8543
 3347SOL    HW221504   1.150   2.398   1.859  0.4048 -0.6631 -0.3239
 3348SOL     OW21505   2.281   2.435   3.225  1.3128  0.3212 -0.1340
 3348SOL    HW121506   2.311   2.509   3.277 -0.5201 -0.3181  1.8359
 3348SOL    HW221507   2.357   2.378   3.239 -0.0315 -1.1907  0.9121
 3349SOL     OW21508   1.532   2.822   1.335  0.0288  0.0799  0.1679
 3349SOL    HW121509   1.606   2.822   1.274 -0.7607 -0.4637 -0.7869
 3349SOL    HW221510   1.558   2.765   1.407 -0.7264 -1.5337 -0.8292
 3350SOL     OW21511   3.162   1.890  10.668  0.1584 -0.2206 -0.2091
 3350SOL    HW121512   3.229   1.870  10.733  0.8749  2.6450 -0.0579
 3350SOL    HW221513   3.171   1.984  10.683  0.0541 -0.0596 -1.1707
 3351SOL     OW21514   3.771   4.701  11.079  0.1614  0.4422  0.1552
 3351SOL    HW121515   3.776   4.607  11.093 -0.7614  0.4760  0.7023
 3351SOL    HW221516   3.704   4.697  11.011  0.3801 -0.9996  0.0322
 3352SOL     OW21517   1.220   0.948   7.649 -0.3897 -0.2748 -0.1160
 3352SOL    HW121518   1.229   0.971   7.742 -1.3264  0.5886 -0.2389
 3352SOL    HW221519   1.183   1.032   7.619 -0.1569 -0.7770 -1.7970
 3353SOL     OW21520   0.460   4.278   8.175 -0.7419 -0.0636  0.1416
 3353SOL    HW121521   0.529   4.275   8.241  0.0726  0.7841 -0.6738
 3353SOL    HW221522   0.495   4.355   8.130  2.1464  0.8285  3.8973
 3354SOL     OW21523   4.262   4.668  13.017  0.5542 -0.0751  0.3287
 3354SOL    HW121524   4.249   4.606  12.945  0.7323 -1.7068  1.7146
 3354SOL    HW221525   4.208   0.018  12.991 -0.6110 -0.8411  0.5382
 3355SOL     OW21526   3.784   4.464   3.044 -0.2328  0.2879 -0.1113
 3355SOL    HW121527   3.854   4.400   3.030  1.4753  2.3046 -0.8775
 3355SOL    HW221528   3.809   4.520   3.118  1.1836 -1.1932  0.5546
 3356SOL     OW21529   3.544   2.522  14.883 -0.0602  0.1353 -0.2577
 3356SOL    HW121530   3.592   2.527  14.966 -0.1768  1.4550 -0.2670
 3356SOL    HW221531   3.485   2.449  14.899 -2.1756  1.6533 -1.0804
 3357SOL     OW21532   3.209   2.658   6.503  0.0414 -0.3192 -0.5496
 3357SOL    HW121533   3.116   2.639   6.518 -0.5028  0.4573 -3.0095
 3357SOL    HW221534   3.205   2.681   6.410 -0.7892 -2.5518 -1.0820
 3358SOL     OW21535   3.773   4.075   8.678  0.5611 -0.0565  0.1896
 3358SOL    HW121536   3.787   4.168   8.695 -1.6743  0.1952  0.7123
 3358SOL    HW221537   3.858   4.042   8.650  0.0065 -1.4479  0.1530
 3359SOL     OW21538   1.165   2.109   8.509  0.3164  0.5257 -0.5618
 3359SOL    HW121539   1.080   2.143   8.534 -1.0106 -1.0602 -2.9495
 3359SOL    HW221540   1.208   2.194   8.495  1.2894  0.1209 -0.0227
 3360SOL     OW21541   1.662   1.831  17.519 -0.4252  0.2135  0.1873
 3360SOL    HW121542   1.594   1.866  17.461  2.0424  1.7221 -1.7857
 3360SOL    HW221543   1.704   1.917  17.529 -1.3061  0.8876 -1.9870
 3361SOL     OW21544   3.901   4.188  10.290 -0.6568 -0.8426 -0.1062
 3361SOL    HW121545   3.858   4.141  10.219  0.1825  1.1017 -1.9171
 3361SOL    HW221546   3.959   4.117  10.315 -0.5650 -0.1609  1.5935
 3362SOL     OW21547   1.300   2.143   3.474  0.3984 -0.1512  0.3200
 3362SOL    HW121548   1.332   2.228   3.443  0.5648 -1.5930 -3.5152
 3362SOL    HW221549   1.207   2.155   3.455  0.1659 -0.0152  1.5924
 3363SOL     OW21550   1.901   2.546  11.274 -0.3288  0.6933  0.1052
 3363SOL    HW121551   1.934   2.560  11.185  0.4603 -4.3093 -0.4285
 3363SOL    HW221552   1.980   2.543  11.329 -0.6008 -1.1511  0.4026
 3364SOL     OW21553   4.254   0.750   4.007  0.3416 -0.7774  0.4052
 3364SOL    HW121554   4.244   0.660   4.039 -0.7569  0.9094  4.6678
 3364SOL    HW221555   4.349   0.744   4.005  0.5011  1.1826  2.2299
 3365SOL     OW21556   3.156   2.580   6.792  0.0208 -0.3878  0.0201
 3365SOL    HW121557   3.223   2.532   6.839 -0.8023 -0.8499  0.7250
 3365SOL    HW221558   3.209   2.609   6.718 -1.7615  0.0749 -1.0884
 3366SOL     OW21559   0.839   2.795  11.330 -0.7238  0.1648  0.2149
 3366SOL    HW121560   0.835   2.705  11.363  1.2833 -0.6679 -1.7753
 3366SOL    HW221561   0.932   2.815  11.320 -1.0779 -0.4917 -4.5253
 3367SOL     OW21562   4.492   2.524   5.854  0.1928 -0.3242  0.3454
 3367SOL    HW121563   4.584   2.542   5.875 -0.0492 -0.8069  1.7906
 3367SOL    HW221564   4.461   2.473   5.928 -0.7186 -3.2484 -2.0228
 3368SOL     OW21565   0.176   1.750  14.294  0.3422  0.1083 -0.7762
 3368SOL    HW121566   0.087   1.716  14.298 -0.1543  1.4172 -0.6488
 3368SOL    HW221567   0.155   1.842  14.310 -0.8408 -0.3975  0.5090
 3369SOL     OW21568   4.383   1.057   6.878 -0.0475 -0.0059 -0.1544
 3369SOL    HW121569   4.368   1.148   6.852 -0.9530 -0.1123  0.0126
 3369SOL    HW221570   4.320   1.053   6.950  1.3354 -0.5347  1.0160
 3370SOL     OW21571   0.610   0.496   7.463 -0.0835  0.4171 -0.3198
 3370SOL    HW121572   0.523   0.456   7.462 -0.3926  1.1024 -0.8192
 3370SOL    HW221573   0.605   0.574   7.408  1.5397  0.6390 -0.1570
 3371SOL     OW21574   4.696   4.078  16.989  0.3314 -0.0849  0.1829
 3371SOL    HW121575   4.687   4.171  16.968  0.1835 -0.5237 -1.6548
 3371SOL    HW221576   4.604   4.055  17.001  0.3990 -0.5920 -0.3015
 3372SOL     OW21577   3.269   2.586   2.694 -0.2151 -0.1851  0.2548
 3372SOL    HW121578   3.315   2.531   2.757  0.3418 -1.8367 -1.6005
 3372SOL    HW221579   3.328   2.590   2.619 -0.7271 -1.0784 -0.2036
 3373SOL     OW21580   4.383   2.394   8.536  0.4761 -0.2532 -0.2474
 3373SOL    HW121581   4.383   2.376   8.630  0.2718 -0.3833 -0.2723
 3373SOL    HW221582   4.474   2.371   8.519  0.3411 -2.0014  1.3697
 3374SOL     OW21583   0.056   4.461  15.050  0.5690  0.2326 -0.0814
 3374SOL    HW121584   0.078   4.396  14.983 -0.2048  0.8369 -0.9136
 3374SOL    HW221585   0.041   4.400  15.122 -1.2985  0.9739  0.1480
 3375SOL     OW21586   0.305   0.031  12.999  0.0118  0.7627  0.4590
 3375SOL    HW121587   0.313   4.708  13.082 -0.8693 -1.6377 -0.8383
 3375SOL    HW221588   0.235   0.093  13.018 -1.5625 -0.5001 -1.2473
 3376SOL     OW21589   1.322   3.188   6.831  0.3835  0.2505 -0.1124
 3376SOL    HW121590   1.393   3.125   6.817  0.4355  0.2522  0.1337
 3376SOL    HW221591   1.252   3.144   6.783  0.1402  2.4303 -1.7557
 3377SOL     OW21592   0.039   4.561   7.578  0.3497  0.4365  0.2299
 3377SOL    HW121593   4.723   4.538   7.661  0.2050 -2.2595 -0.5607
 3377SOL    HW221594   0.047   4.478   7.530  0.5662  0.0376  0.9628
 3378SOL     OW21595   3.718   1.177   3.745  0.3924 -0.2243 -0.0808
 3378SOL    HW121596   3.754   1.266   3.739  0.6738 -0.5534 -3.0920
 3378SOL    HW221597   3.783   1.130   3.796 -1.0509 -1.4404  0.6405
 3379SOL     OW21598   2.112   2.962   2.701  0.3409 -0.2412 -0.5238
 3379SOL    HW121599   2.059   2.882   2.708  0.0897 -0.0091  0.2716
 3379SOL    HW221600   2.067   3.004   2.628  0.1910  0.2689 -0.1302
 3380SOL     OW21601   1.776   4.297  12.579  0.6969 -0.4945  0.5042
 3380SOL    HW121602   1.800   4.379  12.536 -1.6399 -0.6958 -1.2085
 3380SOL    HW221603   1.783   4.323  12.671  1.3882  0.0625  0.2927
 3381SOL     OW21604   0.644   4.509   1.495  0.3415  0.0945  0.2295
 3381SOL    HW121605   0.598   4.470   1.421  1.8814 -0.7335 -0.2664
 3381SOL    HW221606   0.660   4.598   1.466  1.0292  0.4253  1.6125
 3382SOL     OW21607   3.742   2.697   8.120 -0.3698 -0.2410  0.1225
 3382SOL    HW121608   3.822   2.678   8.071  0.2212 -1.2960  1.4909
 3382SOL    HW221609   3.762   2.695   8.214 -1.8736  3.4706  0.5273
 3383SOL     OW21610   2.250   3.385   7.085  0.1100 -0.0436 -0.5788
 3383SOL    HW121611   2.188   3.404   7.155  2.2884  1.0917  1.0546
 3383SOL    HW221612   2.334   3.404   7.127  0.0465  2.3162 -1.5605
 3384SOL     OW21613   1.185   2.819   5.936 -0.4197 -0.1994 -0.0612
 3384SOL    HW121614   1.241   2.861   5.871  1.3453 -0.3673  1.3292
 3384SOL    HW221615   1.122   2.886   5.962  1.0983  0.1375  2.7522
 3385SOL     OW21616   4.323   0.851   3.518  0.1069  0.3350  0.1334
 3385SOL    HW121617   4.296   0.919   3.456  0.3638 -0.2850 -0.6627
 3385SOL    HW221618   4.235   0.814   3.526  0.7029 -1.4121 -1.3114
 3386SOL     OW21619   1.451   3.435   4.781 -0.4337 -0.0881  0.3469
 3386SOL    HW121620   1.421   3.466   4.866 -0.9956 -3.0494  1.2151
 3386SOL    HW221621   1.528   3.390   4.816 -1.1136 -2.2275 -0.8873
 3387SOL     OW21622   3.641   4.102   7.347  0.0721 -0.3432  0.0338
 3387SOL    HW121623   3.645   4.081   7.440  1.0464 -1.4780 -0.2551
 3387SOL    HW221624   3.620   4.195   7.352 -1.1950 -0.6268 -0.1432
 3388SOL     OW21625   2.052   3.615   8.399 -0.3170 -0.6902  0.5367
 3388SOL    HW121626   1.960   3.632   8.421  0.4034  1.8455  1.5769
 3388SOL    HW221627   2.039   3.626   8.305  1.5442 -0.8615  0.2658
 3389SOL     OW21628   2.365   0.207  11.537 -0.1672 -0.0665 -0.0652
 3389SOL    HW121629   2.299   0.262  11.579 -1.4491 -2.0255  0.4919
 3389SOL    HW221630   2.392   0.259  11.461 -0.9890 -1.1239 -1.0954
 3390SOL     OW21631   0.797   2.110  13.415  0.4299  0.0628  0.4547
 3390SOL    HW121632   0.861   2.040  13.416 -0.0162 -0.3466  0.4523
 3390SOL    HW221633   0.768   2.116  13.324  1.1486  0.1276  0.2354
 3391SOL     OW21634   2.761   1.796   4.707 -0.2757  0.1409  1.1658
 3391SOL    HW121635   2.757   1.888   4.732 -0.2916 -0.1082  2.0723
 3391SOL    HW221636   2.696   1.758   4.766  0.9088 -0.6454  1.9508
 3392SOL     OW21637   3.022   3.699   3.165 -0.3230 -0.1327  0.2080
 3392SOL    HW121638   2.930   3.681   3.145 -0.2641 -1.6171  1.2333
 3392SOL    HW221639   3.045   3.607   3.181 -0.0094 -0.6182 -3.0923
 3393SOL     OW21640   0.374   2.482   8.631 -0.1851  0.6017 -0.5924
 3393SOL    HW121641   0.418   2.401   8.655  0.6763  1.8661  2.0810
 3393SOL    HW221642   0.306   2.482   8.698 -0.7036  1.6948 -1.1153
 3394SOL     OW21643   1.235   2.250   2.565  0.2182 -0.0063 -0.3022
 3394SOL    HW121644   1.280   2.232   2.483  1.1133  0.7212  0.0168
 3394SOL    HW221645   1.148   2.218   2.544  1.1471 -3.1273  0.7272
 3395SOL     OW21646   2.529   3.519   4.802  0.6706 -0.5927 -0.3567
 3395SOL    HW121647   2.620   3.534   4.774  1.0330 -0.8924  0.6636
 3395SOL    HW221648   2.488   3.488   4.721 -0.1408  0.7708 -0.4727
 3396SOL     OW21649   1.077   4.252  10.049 -0.1908 -0.1140 -0.2552
 3396SOL    HW121650   1.135   4.304   9.993  0.8018  0.1528  1.0272
 3396SOL    HW221651   1.090   4.164  10.013  1.2521 -0.4660  1.1227
 3397SOL     OW21652   0.220   3.379   4.151  0.1122 -0.4220 -0.9694
 3397SOL    HW121653   0.265   3.413   4.074 -0.0077  2.4148  0.2163
 3397SOL    HW221654   0.243   3.449   4.212  0.0404  0.8673 -2.4069
 3398SOL     OW21655   3.592   4.554   5.949  0.4983 -0.1464  0.2351
 3398SOL    HW121656   3.661   4.583   5.889  0.8988 -2.3245 -0.3760
 3398SOL    HW221657   3.619   4.605   6.025 -1.9809  0.5777  0.6248
 3399SOL     OW21658   4.094   3.688   1.779 -0.0816  0.6242 -0.0267
 3399SOL    HW121659   4.079   3.760   1.841 -0.3456  0.2261  0.3710
 3399SOL    HW221660   4.112   3.609   1.830  0.1525  1.0578  0.5713
 3400SOL     OW21661   2.006   4.131   2.187 -0.4185 -0.2153 -0.2123
 3400SOL    HW121662   2.001   4.107   2.094 -1.6838  0.8842 -0.4249
 3400SOL    HW221663   1.917   4.166   2.199 -1.0033 -1.9673  0.4889
 3401SOL     OW21664   0.724   0.865   6.288  0.7082 -0.2633 -0.7305
 3401SOL    HW121665   0.671   0.932   6.244 -0.0961  1.4045  2.7714
 3401SOL    HW221666   0.784   0.932   6.322 -2.2276  1.3359  1.2831
 3402SOL     OW21667   3.702   2.108   5.626  1.2485  0.3519 -0.2205
 3402SOL    HW121668   3.790   2.085   5.598  1.2070 -1.0761  0.8560
 3402SOL    HW221669   3.719   2.202   5.638  0.9675  0.5571 -1.4451
 3403SOL     OW21670   3.239   3.672  10.198  0.4625  0.1921 -0.6375
 3403SOL    HW121671   3.185   3.751  10.187 -0.9163 -0.6600 -0.0107
 3403SOL    HW221672   3.209   3.622  10.122 -0.7061 -0.7260  0.4226
 3404SOL     OW21673   3.073   2.878   4.591 -0.8868  0.3458  0.0103
 3404SOL    HW121674   3.132   2.890   4.666  1.1702  1.9563 -1.8632
 3404SOL    HW221675   3.028   2.962   4.598  0.1914  0.9558 -0.4232
 3405SOL     OW21676   2.945   2.252   1.490 -0.2013  0.0623  0.6662
 3405SOL    HW121677   2.902   2.190   1.549  0.1181 -0.6982  0.1016
 3405SOL    HW221678   3.035   2.219   1.484  0.3535  1.2493  2.2857
 3406SOL     OW21679   2.405   2.911   4.376 -0.6313 -0.2526 -1.0693
 3406SOL    HW121680   2.485   2.858   4.383 -1.9183 -1.7880  2.1952
 3406SOL    HW221681   2.332   2.852   4.395 -1.7348  0.8386 -1.9186
 3407SOL     OW21682   2.875   4.491   1.293 -0.0133  0.1835 -0.2584
 3407SOL    HW121683   2.935   4.447   1.352  0.3449 -0.9228 -1.4432
 3407SOL    HW221684   2.790   4.463   1.327  0.1974  0.3229  0.3707
 3408SOL     OW21685   2.315   0.063   2.283 -0.0875 -0.2373 -0.3701
 3408SOL    HW121686   2.335   0.101   2.369 -1.1166  1.7223 -1.0203
 3408SOL    HW221687   2.319   0.149   2.243  1.5707 -0.6762 -1.1393
 3409SOL     OW21688   1.681   2.659   7.584 -0.2228 -0.2043  0.1999
 3409SOL    HW121689   1.634   2.742   7.590  0.3321  0.2721 -2.0896
 3409SOL    HW221690   1.638   2.603   7.648  0.8728 -0.7526  0.4566
 3410SOL     OW21691   4.665   0.542   5.487  0.2247  0.4101 -0.2251
 3410SOL    HW121692   4.703   0.609   5.430 -0.4618  0.7182 -0.3185
 3410SOL    HW221693   4.699   0.459   5.452 -0.9225  0.0966 -0.5961
 3411SOL     OW21694   4.214   2.045   8.825  0.7604 -0.2782  0.9084
 3411SOL    HW121695   4.258   2.085   8.900  2.2941  0.8890 -0.6219
 3411SOL    HW221696   4.156   2.120   8.811  0.4749 -1.2147 -3.0457
 3412SOL     OW21697   1.107   3.065  11.536  0.9031  0.3231 -0.2368
 3412SOL    HW121698   1.036   3.086  11.475  0.3449 -0.2790  0.1980
 3412SOL    HW221699   1.125   3.154  11.567 -1.0362  1.4341 -2.2774
 3413SOL     OW21700   2.236   4.374   5.693 -0.8363 -0.0715  0.0338
 3413SOL    HW121701   2.229   4.372   5.788  1.8817  0.7213  0.2409
 3413SOL    HW221702   2.153   4.335   5.664 -0.7909  0.5643 -0.9460
 3414SOL     OW21703   3.693   2.045  17.132 -0.3520 -0.0402 -0.2393
 3414SOL    HW121704   3.705   2.115  17.067 -0.1121  0.5029  0.3940
 3414SOL    HW221705   3.673   2.101  17.207  1.9957  0.3726  0.0920
 3415SOL     OW21706   1.351   2.330   8.508 -0.4615  0.0505  0.9838
 3415SOL    HW121707   1.357   2.425   8.513 -0.0118  0.0909 -0.3494
 3415SOL    HW221708   1.403   2.311   8.586  1.3888 -1.0452 -0.5415
 3416SOL     OW21709   0.153   1.799   5.175  0.2597 -0.2305 -0.3754
 3416SOL    HW121710   0.092   1.802   5.250  0.1440 -0.3724 -0.4651
 3416SOL    HW221711   0.229   1.787   5.233 -0.0775  1.3807  0.3945
 3417SOL     OW21712   3.847   4.006   7.204 -0.2002 -0.2320  0.0761
 3417SOL    HW121713   3.790   4.066   7.250 -0.0614  0.9371 -1.2857
 3417SOL    HW221714   3.790   3.989   7.129 -0.6571 -2.4126  0.9095
 3418SOL     OW21715   2.069   4.146  13.093 -0.2277 -0.3058 -0.1528
 3418SOL    HW121716   2.001   4.135  13.027  0.1466 -0.9494 -0.4317
 3418SOL    HW221717   2.048   4.078  13.157  2.5420  1.9447  3.1711
 3419SOL     OW21718   4.045   1.588   9.907 -0.1290 -0.0763  0.1300
 3419SOL    HW121719   4.122   1.589   9.850  0.2220  1.9756  0.6483
 3419SOL    HW221720   4.003   1.667   9.873  0.5056 -0.4724 -1.5639
 3420SOL     OW21721   4.043   0.573  14.434 -0.1030  0.5112 -0.2048
 3420SOL    HW121722   4.106   0.638  14.401  2.3177 -1.5830  0.3293
 3420SOL    HW221723   4.045   0.506  14.367 -3.4899  0.1333  0.0682
 3421SOL     OW21724   4.555   4.502   5.722  0.1090 -0.7350  0.1454
 3421SOL    HW121725   4.577   4.417   5.683 -0.6818 -1.0249  0.3425
 3421SOL    HW221726   4.608   4.562   5.669  0.8440 -1.0407  0.5320
 3422SOL     OW21727   2.130   1.953   5.742  0.3799 -0.5094  0.5992
 3422SOL    HW121728   2.143   1.898   5.665 -1.3071 -2.0830  1.4208
 3422SOL    HW221729   2.221   1.959   5.771  0.6690 -1.2417 -0.1730
 3423SOL     OW21730   0.164   2.318   6.352  0.0112 -0.8990 -0.7320
 3423SOL    HW121731   0.241   2.369   6.374  0.4219 -0.9559 -2.0453
 3423SOL    HW221732   0.098   2.370   6.398 -0.4464 -2.6740  0.5885
 3424SOL     OW21733   1.912   0.862  13.939  0.3914  0.1741  0.5377
 3424SOL    HW121734   1.821   0.889  13.927  0.2191 -2.1366 -3.2009
 3424SOL    HW221735   1.928   0.821  13.855 -0.3227  0.7065  0.1395
 3425SOL     OW21736   4.473   0.384   8.050 -0.2408  0.5484  0.0751
 3425SOL    HW121737   4.504   0.457   8.104 -0.6257  0.2734  0.6671
 3425SOL    HW221738   4.406   0.346   8.107 -0.0561  1.5266  0.9506
 3426SOL     OW21739   2.394   0.301   8.823 -0.3420 -0.1079  0.1271
 3426SOL    HW121740   2.351   0.374   8.866  2.1488  1.3460  0.1300
 3426SOL    HW221741   2.345   0.227   8.860 -0.4941  0.0309  0.2024
 3427SOL     OW21742   0.060   4.268  15.249  0.1065 -0.3014 -0.4197
 3427SOL    HW121743   0.061   4.180  15.211 -1.2321 -0.1573 -0.8019
 3427SOL    HW221744   0.084   4.251  15.340  1.0549 -0.2504 -0.6684
 3428SOL     OW21745   4.566   1.708   3.983  0.3399 -0.2076  0.2538
 3428SOL    HW121746   4.483   1.677   3.948 -0.1337  2.7794 -1.2412
 3428SOL    HW221747   4.551   1.801   4.000  3.3900 -0.0726  2.3177
 3429SOL     OW21748   1.784   0.089   4.859  0.1289  0.0074  0.0746
 3429SOL    HW121749   1.844   0.147   4.906  1.3394 -0.0911 -1.3722
 3429SOL    HW221750   1.711   0.081   4.920 -0.6479 -1.2631 -1.0304
 3430SOL     OW21751   1.528   3.560   1.663 -0.3331  0.4928  0.3473
 3430SOL    HW121752   1.609   3.594   1.624  0.1879  0.6693  1.5723
 3430SOL    HW221753   1.473   3.546   1.586  1.1358 -0.8798 -0.4748
 3431SOL     OW21754   1.884   2.891  13.348 -0.1024  0.0329 -0.0204
 3431SOL    HW121755   1.853   2.981  13.353  2.5560  1.0621 -2.0923
 3431SOL    HW221756   1.936   2.895  13.267 -1.1038 -0.8767 -0.7069
 3432SOL     OW21757   3.937   3.018   5.952  0.0252  0.2480 -0.5420
 3432SOL    HW121758   3.932   3.007   5.858  1.5539 -0.4692 -0.5445
 3432SOL    HW221759   3.993   2.942   5.971 -0.6794  0.1171  1.0094
 3433SOL     OW21760   2.397   1.744   4.672 -0.1351  0.2294  0.0768
 3433SOL    HW121761   2.434   1.662   4.638  0.2122  0.0662  0.8488
 3433SOL    HW221762   2.351   1.701   4.744  1.3100 -3.4425 -1.2173
 3434SOL     OW21763   0.752   3.606   6.283 -0.2231  0.4896  0.6175
 3434SOL    HW121764   0.670   3.605   6.333  1.4522  2.2919  3.4362
 3434SOL    HW221765   0.739   3.683   6.228 -0.5840  0.8235  1.1623
 3435SOL     OW21766   2.157   1.144   6.107 -0.5500  0.2526 -0.4778
 3435SOL    HW121767   2.205   1.224   6.083 -1.3372  0.5947 -0.9097
 3435SOL    HW221768   2.070   1.178   6.128  0.1658  0.8108  1.6554
 3436SOL     OW21769   0.286   0.271   5.951 -1.0031 -0.7465 -0.0066
 3436SOL    HW121770   0.270   0.183   5.916  0.7610 -0.7649 -0.7376
 3436SOL    HW221771   0.357   0.308   5.899 -1.6087 -0.7914 -0.8553
 3437SOL     OW21772   0.445   0.598  14.986  0.7263  0.9134  0.1652
 3437SOL    HW121773   0.505   0.561  14.921  0.4189 -2.5912  1.8548
 3437SOL    HW221774   0.472   0.545  15.061 -2.9150 -0.8317  0.2344
 3438SOL     OW21775   3.067   0.934   8.311  0.2454  0.2739 -0.3385
 3438SOL    HW121776   3.059   0.840   8.297 -0.3610  0.1863  0.5348
 3438SOL    HW221777   3.132   0.940   8.382 -1.1927 -3.2599  1.2821
 3439SOL     OW21778   1.693   1.012  15.848  0.1251  0.2888 -0.8155
 3439SOL    HW121779   1.617   1.012  15.791  0.8821 -1.3985 -1.8285
 3439SOL    HW221780   1.723   1.102  15.834  1.2865  0.3103  1.7941
 3440SOL     OW21781   1.013   2.344   8.603 -0.2873 -0.5463  0.3997
 3440SOL    HW121782   1.061   2.355   8.685  1.0988  0.0682 -0.4790
 3440SOL    HW221783   1.027   2.426   8.555 -0.5925 -0.9493 -0.3765
 3441SOL     OW21784   2.117   4.616   3.512  0.6701 -0.3102  0.5648
 3441SOL    HW121785   2.173   4.542   3.489 -0.8542 -1.0054 -0.8885
 3441SOL    HW221786   2.183   4.667   3.559 -1.2005  0.4762  2.3156
 3442SOL     OW21787   1.256   3.888   7.233 -0.0750 -0.1449  0.1776
 3442SOL    HW121788   1.351   3.879   7.222  0.2345  0.2489  2.7392
 3442SOL    HW221789   1.233   3.847   7.149 -0.1551  1.7503 -0.7244
 3443SOL     OW21790   3.893   0.940   1.252 -0.0950  0.1391  0.6116
 3443SOL    HW121791   3.800   0.922   1.239 -0.0002  1.8956 -2.5068
 3443SOL    HW221792   3.925   0.921   1.163  1.0291 -0.4256  1.1326
 3444SOL     OW21793   1.678   4.113   3.734 -0.4448  0.2920  0.3188
 3444SOL    HW121794   1.746   4.104   3.802 -1.1862 -1.2582  0.8695
 3444SOL    HW221795   1.734   4.142   3.662 -0.8579 -2.4592 -1.1154
 3445SOL     OW21796   3.878   4.103   8.368 -0.1588  0.7445  0.1655
 3445SOL    HW121797   3.945   4.099   8.437 -1.9450 -1.3866  1.7825
 3445SOL    HW221798   3.878   4.199   8.362  0.8472  0.8470  1.6301
 3446SOL     OW21799   2.448   4.344   4.332  0.6869  0.0735 -0.2235
 3446SOL    HW121800   2.424   4.269   4.387 -1.2693 -0.3351 -1.6340
 3446SOL    HW221801   2.371   4.347   4.275  1.2819  0.5971 -0.9973
 3447SOL     OW21802   2.273   0.490   8.967  0.5936  0.1029  0.3848
 3447SOL    HW121803   2.349   0.527   9.012  0.1601  0.3500  0.9111
 3447SOL    HW221804   2.221   0.441   9.031  1.1923 -2.1258 -0.8174
 3448SOL     OW21805   4.478   0.884   8.562 -0.8202 -0.1704 -0.4537
 3448SOL    HW121806   4.511   0.925   8.642  2.2422 -3.3034 -0.1174
 3448SOL    HW221807   4.402   0.936   8.537  0.4311  1.8401 -0.0423
 3449SOL     OW21808   2.949   4.566   0.342  0.3122 -0.2908  0.2140
 3449SOL    HW121809   2.916   4.627   0.408  2.2431 -1.2323  2.0635
 3449SOL    HW221810   2.975   4.490   0.393 -0.6609 -0.2441  0.7885
 3450SOL     OW21811   3.251   3.461   2.184  0.1327 -1.3595 -0.2589
 3450SOL    HW121812   3.268   3.488   2.094 -3.3087  2.5619  0.2593
 3450SOL    HW221813   3.194   3.386   2.167  0.1793 -1.4325 -0.0933
 3451SOL     OW21814   2.630   1.689   2.733 -0.3636 -0.3941 -0.4186
 3451SOL    HW121815   2.546   1.651   2.760 -0.1355  0.5314  1.5774
 3451SOL    HW221816   2.596   1.726   2.651 -0.4004  0.7394  0.1111
 3452SOL     OW21817   1.913   3.288   9.451 -0.0419  0.0582  0.4822
 3452SOL    HW121818   1.840   3.335   9.411 -2.6421 -1.6987  3.1518
 3452SOL    HW221819   1.993   3.320   9.410 -1.4726  1.6719 -1.0451
 3453SOL     OW21820   3.004   4.420   8.497  0.1551 -0.4024  0.1305
 3453SOL    HW121821   3.032   4.333   8.467  0.2890 -0.4493  0.3921
 3453SOL    HW221822   2.973   4.462   8.417  1.6412  1.1294  0.3540
 3454SOL     OW21823   4.695   1.455  12.826 -0.5629  0.9610  0.1452
 3454SOL    HW121824   4.649   1.524  12.874  1.8568  1.7421  1.3229
 3454SOL    HW221825   0.054   1.488  12.796 -1.4779  2.4261 -0.7821
 3455SOL     OW21826   1.183   3.775   4.930 -0.2253 -0.2971  0.2791
 3455SOL    HW121827   1.217   3.792   4.842  0.3732  0.1261  0.5949
 3455SOL    HW221828   1.260   3.788   4.986  1.2339 -2.4665 -1.1925
 3456SOL     OW21829   2.159   4.285  10.040  0.6770  0.0187  0.6442
 3456SOL    HW121830   2.144   4.289   9.945 -0.4387 -1.6467  0.7321
 3456SOL    HW221831   2.147   4.373  10.073 -0.3045  0.0391  0.2410
 3457SOL     OW21832   3.256   1.125   7.656  0.1845 -0.1809  0.5871
 3457SOL    HW121833   3.231   1.198   7.713 -1.2593  0.6662 -1.1214
 3457SOL    HW221834   3.224   1.154   7.571 -0.1776  0.4752  0.9375
 3458SOL     OW21835   1.748   1.711   5.804  0.3988 -0.2789 -0.1263
 3458SOL    HW121836   1.750   1.759   5.721  0.6130  0.5157  0.3420
 3458SOL    HW221837   1.839   1.710   5.834  0.0721  0.8143  0.8808
 3459SOL     OW21838   1.668   3.958   2.518 -0.2137  0.2066 -0.5020
 3459SOL    HW121839   1.630   3.896   2.580 -1.5685  1.0981 -0.4518
 3459SOL    HW221840   1.644   3.927   2.430  0.6199  0.0294 -0.6645
 3460SOL     OW21841   4.555   4.596  13.323  0.5149  0.4622  0.4281
 3460SOL    HW121842   4.473   4.635  13.294 -0.0117  0.1223  1.4893
 3460SOL    HW221843   4.612   4.610  13.247  2.0334  1.3208  1.7304
 3461SOL     OW21844   2.944   3.896   2.882 -0.1744 -0.9159 -0.3759
 3461SOL    HW121845   2.944   3.991   2.896  1.1039 -0.9782  0.0828
 3461SOL    HW221846   3.030   3.870   2.916 -1.3803 -0.1091  3.3174
 3462SOL     OW21847   3.569   4.535   8.464  0.5822  0.2542  0.0026
 3462SOL    HW121848   3.483   4.492   8.459  1.3434 -1.5258  2.0541
 3462SOL    HW221849   3.610   4.518   8.380 -1.9320 -0.1492 -1.1368
 3463SOL     OW21850   0.650   2.056   4.558  0.2962 -0.6709 -0.0132
 3463SOL    HW121851   0.599   1.978   4.537 -1.2087  0.1644  0.5716
 3463SOL    HW221852   0.715   2.025   4.621  1.1157  0.3129 -0.3766
 3464SOL     OW21853   4.300   3.461   7.008  0.2142  0.0768  0.1414
 3464SOL    HW121854   4.236   3.456   7.079  0.1315  0.5170  0.0959
 3464SOL    HW221855   4.350   3.536   7.040  0.6777  0.2099 -0.8667
 3465SOL     OW21856   2.177   1.827   5.483 -0.0774  0.2752  0.5696
 3465SOL    HW121857   2.269   1.825   5.455 -0.5225  0.9936 -0.9477
 3465SOL    HW221858   2.157   1.738   5.513  0.1852  0.2448  0.6588
 3466SOL     OW21859   0.382   2.040   3.532 -0.0239 -0.4954 -0.5150
 3466SOL    HW121860   0.346   2.011   3.448  3.0997 -2.9850 -0.9949
 3466SOL    HW221861   0.355   2.132   3.526  0.2400 -0.3248  0.8673
 3467SOL     OW21862   2.122   3.124  11.065  0.2415  0.4811  0.1783
 3467SOL    HW121863   2.076   3.208  11.058 -1.0823 -0.0516  2.2443
 3467SOL    HW221864   2.092   3.088  10.981 -1.6553 -0.1195  1.1098
 3468SOL     OW21865   3.029   0.782   3.973  0.2323 -0.1517  0.5614
 3468SOL    HW121866   2.938   0.807   3.953  0.4173 -0.4276 -0.5983
 3468SOL    HW221867   3.077   0.861   3.949  0.3440  0.2459  2.0963
 3469SOL     OW21868   0.949   1.015  15.863  0.0946 -0.0529 -1.1609
 3469SOL    HW121869   0.995   0.950  15.809 -1.7187 -2.9734  0.8112
 3469SOL    HW221870   0.881   0.971  15.914  0.7856 -0.2816 -0.4445
 3470SOL     OW21871   3.966   3.267   7.882  0.4003 -0.0021 -0.7862
 3470SOL    HW121872   3.902   3.331   7.852 -0.5714 -0.1402  0.9778
 3470SOL    HW221873   3.943   3.263   7.975 -0.0710 -0.2389 -0.9088
 3471SOL     OW21874   2.044   2.477  12.567  0.1060 -0.6125 -0.5302
 3471SOL    HW121875   2.076   2.565  12.583  0.5139 -1.0872  1.2589
 3471SOL    HW221876   2.126   2.428  12.576 -1.0712 -2.7169 -1.1674
 3472SOL     OW21877   0.921   0.248   5.673  0.2740 -0.7380  0.0197
 3472SOL    HW121878   0.888   0.235   5.584 -0.8190 -0.8859  0.4494
 3472SOL    HW221879   0.845   0.280   5.722 -0.3865 -0.3969 -1.2311
 3473SOL     OW21880   3.733   2.457  15.387 -0.2572  0.2506  0.7018
 3473SOL    HW121881   3.761   2.366  15.377 -0.8982 -0.2306  3.2039
 3473SOL    HW221882   3.686   2.453  15.471 -0.5612 -0.0518  0.5155
 3474SOL     OW21883   1.430   2.988  11.256 -0.2747 -0.2088  0.0458
 3474SOL    HW121884   1.408   2.954  11.343  0.7506  0.8742  0.7467
 3474SOL    HW221885   1.513   3.035  11.265 -1.4080  1.4799  1.7625
 3475SOL     OW21886   2.628   4.265   4.856 -0.1021 -0.0269  0.1936
 3475SOL    HW121887   2.706   4.214   4.836  1.3133  1.9621  0.5986
 3475SOL    HW221888   2.666   4.319   4.925 -0.7892 -1.3235  1.5831
 3476SOL     OW21889   0.411   1.132   8.294 -0.5501 -0.3851  0.7877
 3476SOL    HW121890   0.486   1.074   8.277 -1.6824 -1.3597 -0.9632
 3476SOL    HW221891   0.459   1.187   8.355  1.2449  0.0889 -1.0493
 3477SOL     OW21892   1.722   1.949   6.160  0.1029  0.7941 -0.0001
 3477SOL    HW121893   1.647   2.005   6.182 -0.8212 -0.3072 -0.3786
 3477SOL    HW221894   1.684   1.880   6.106 -1.6693 -0.5607  2.9855
 3478SOL     OW21895   4.448   1.500  14.799  0.3056 -0.5384  0.2434
 3478SOL    HW121896   4.458   1.524  14.707  0.2273  0.4914  0.5060
 3478SOL    HW221897   4.471   1.407  14.804  0.0612 -0.6457 -0.6702
 3479SOL     OW21898   0.848   1.894  11.638  0.9048  0.1793 -0.0925
 3479SOL    HW121899   0.780   1.862  11.697 -0.0038 -0.5338 -1.5353
 3479SOL    HW221900   0.792   1.945  11.579  1.6686  0.9797 -0.1389
 3480SOL     OW21901   0.990   1.830   9.627  0.8577 -0.2194 -0.1294
 3480SOL    HW121902   0.997   1.792   9.715 -0.1963 -2.6055 -1.0754
 3480SOL    HW221903   0.915   1.889   9.636  0.4273 -0.7495 -0.2370
 3481SOL     OW21904   1.561   3.424   0.345  0.3722 -0.0804  0.5298
 3481SOL    HW121905   1.530   3.413   0.435 -0.6984  0.6812  0.2599
 3481SOL    HW221906   1.497   3.489   0.317  0.2610 -0.3563  0.1427
 3482SOL     OW21907   2.870   1.484   3.165 -0.4481  0.4900  0.2966
 3482SOL    HW121908   2.836   1.455   3.249  0.9846 -0.1009  0.6638
 3482SOL    HW221909   2.797   1.532   3.125  1.1543  2.0692 -0.7283
 3483SOL     OW21910   0.644   0.383   0.782  0.3501 -0.1482  0.2893
 3483SOL    HW121911   0.611   0.362   0.694  1.8549 -0.8447 -0.1089
 3483SOL    HW221912   0.597   0.324   0.841  0.8989 -0.1134  0.7522
 3484SOL     OW21913   1.804   3.341  12.533 -0.0924 -0.5490 -0.7530
 3484SOL    HW121914   1.889   3.374  12.503  0.3350 -2.6669 -1.8344
 3484SOL    HW221915   1.757   3.408  12.483  3.0983  1.0600 -1.6049
 3485SOL     OW21916   2.202   3.676  11.794 -0.4329 -0.2371 -0.5607
 3485SOL    HW121917   2.201   3.612  11.723  0.7393 -0.6610 -0.1959
 3485SOL    HW221918   2.163   3.754  11.757 -0.2288  0.3809  0.5249
 3486SOL     OW21919   0.699   3.723   9.647 -0.2548 -0.2044 -1.0925
 3486SOL    HW121920   0.627   3.783   9.663  0.2705  0.5723 -1.6145
 3486SOL    HW221921   0.729   3.685   9.730  1.6027 -1.3876 -2.2956
 3487SOL     OW21922   2.778   3.195  16.934  0.0858 -0.4088 -0.3338
 3487SOL    HW121923   2.815   3.248  16.863  2.3174  2.4812  2.9839
 3487SOL    HW221924   2.787   3.258  17.005 -0.5799 -1.4053  0.6435
 3488SOL     OW21925   0.202   4.640  14.881  0.8454 -0.4194 -0.5663
 3488SOL    HW121926   0.172   4.600  14.962 -0.7928  2.3919  0.2257
 3488SOL    HW221927   0.144   4.716  14.869  0.5238 -0.1069  2.9505
 3489SOL     OW21928   2.121   1.120   3.820  0.5812 -0.4777 -0.3074
 3489SOL    HW121929   2.109   1.158   3.733  1.2377 -2.1689 -1.1485
 3489SOL    HW221930   2.031   1.101   3.846  0.6871  0.1156  0.4952
 3490SOL     OW21931   1.812   2.820  11.929 -0.3078  0.2838  0.5358
 3490SOL    HW121932   1.833   2.907  11.895  2.8936 -0.6675  0.0660
 3490SOL    HW221933   1.749   2.847  11.995 -0.9439  1.9152 -0.7331
 3491SOL     OW21934   1.978   3.024   3.862  0.2867 -0.1083 -0.5944
 3491SOL    HW121935   2.058   3.033   3.913 -0.7272 -0.9418  1.1394
 3491SOL    HW221936   1.930   2.960   3.914  1.5844  0.4311  1.2359
 3492SOL     OW21937   3.164   4.270   1.403  0.5302  0.2880 -0.1019
 3492SOL    HW121938   3.105   4.283   1.477  0.9896  1.1257  0.1120
 3492SOL    HW221939   3.151   4.351   1.355  1.0007 -0.0064 -0.7234
 3493SOL     OW21940   2.315   3.272  10.639  0.3027  0.2894  0.2307
 3493SOL    HW121941   2.235   3.251  10.688  0.4101 -0.0653  0.2540
 3493SOL    HW221942   2.373   3.301  10.710  1.4247 -1.9580  0.2218
 3494SOL     OW21943   3.948   1.790  12.474  0.0949 -0.0824  0.3418
 3494SOL    HW121944   4.037   1.785  12.509 -0.7671 -0.4158  2.4875
 3494SOL    HW221945   3.965   1.724  12.407 -0.7145 -0.5845  0.6267
 3495SOL     OW21946   0.793   2.446   5.741 -0.4855 -0.5003  0.1428
 3495SOL    HW121947   0.742   2.388   5.798  0.2214  0.2022  1.4860
 3495SOL    HW221948   0.797   2.531   5.783  2.5914 -2.2464  3.4227
 3496SOL     OW21949   2.167   3.130   4.699  0.0344 -0.2330  0.2041
 3496SOL    HW121950   2.226   3.179   4.756  1.0892  0.7621 -1.7600
 3496SOL    HW221951   2.201   3.149   4.611 -0.5190 -0.9501 -0.1643
 3497SOL     OW21952   1.486   4.175   8.981  0.2775  0.5340  0.1820
 3497SOL    HW121953   1.402   4.128   8.977  0.6237 -0.0152 -0.5782
 3497SOL    HW221954   1.542   4.107   9.019  0.5093  0.8213  0.3554
 3498SOL     OW21955   4.577   1.998   9.390 -0.4960 -0.2223 -0.3133
 3498SOL    HW121956   4.583   2.092   9.404  3.5108 -0.4299 -0.7047
 3498SOL    HW221957   4.494   1.982   9.435 -0.0668 -1.0909  0.1649
 3499SOL     OW21958   3.611   2.972   6.056  0.3066 -0.2291  0.3479
 3499SOL    HW121959   3.635   2.961   6.148  1.5910  1.3191  0.1995
 3499SOL    HW221960   3.692   2.950   6.010  0.1013 -0.0148 -0.1113
 3500SOL     OW21961   0.556   0.278  17.150 -1.0279  0.2739 -0.1431
 3500SOL    HW121962   0.548   0.269  17.245 -0.6717  0.8366 -0.0597
 3500SOL    HW221963   0.599   0.364  17.155  1.8537 -1.1181 -0.6577
 3501SOL     OW21964   3.359   1.743   3.053 -0.1768  0.2432  0.4838
 3501SOL    HW121965   3.273   1.709   3.074 -0.1002 -0.1196  0.2056
 3501SOL    HW221966   3.413   1.693   3.115  2.1980  2.1489 -0.0273
 3502SOL     OW21967   1.707   1.840   2.859 -0.3994 -0.1268 -0.0499
 3502SOL    HW121968   1.679   1.800   2.777  1.2343  2.8507 -2.0442
 3502SOL    HW221969   1.621   1.839   2.903 -0.9681  0.9336 -1.1556
 3503SOL     OW21970   4.406   4.644   8.977 -0.3833 -0.0023  0.8708
 3503SOL    HW121971   4.496   4.629   8.949 -0.3633 -1.5351  1.7474
 3503SOL    HW221972   4.343   4.584   8.937  1.0544 -0.2610 -1.0160
 3504SOL     OW21973   2.867   4.455   9.736  0.6527 -0.3008 -0.4517
 3504SOL    HW121974   2.851   4.505   9.816  0.3475 -1.3726  0.1567
 3504SOL    HW221975   2.859   4.365   9.768 -0.9108  0.0948  0.2905
 3505SOL     OW21976   2.889   1.670   8.724  0.4759  0.1968  0.0564
 3505SOL    HW121977   2.826   1.721   8.775  2.0935 -0.4408  2.6827
 3505SOL    HW221978   2.832   1.601   8.689 -0.6778  0.4133  1.4757
 3506SOL     OW21979   3.387   1.376   4.740  0.6268 -0.1235 -0.3557
 3506SOL    HW121980   3.445   1.398   4.668  0.8308 -3.1568 -1.1158
 3506SOL    HW221981   3.300   1.399   4.707  0.8097  0.8135 -0.1903
 3507SOL     OW21982   3.582   4.091   6.565 -0.5450  0.0589  0.2130
 3507SOL    HW121983   3.636   4.164   6.533 -1.0159  0.3364  0.0526
 3507SOL    HW221984   3.551   4.128   6.648 -1.9974  0.2780 -0.4225
 3508SOL     OW21985   4.201   0.862   9.667  0.6197 -0.4753 -0.5179
 3508SOL    HW121986   4.158   0.778   9.687  1.2309 -0.4238  0.9675
 3508SOL    HW221987   4.263   0.871   9.738  1.3719 -0.2069 -1.2119
 3509SOL     OW21988   0.238   0.518   4.272  0.7023  0.0198  0.1226
 3509SOL    HW121989   0.301   0.580   4.235  2.2959 -1.5864  0.1734
 3509SOL    HW221990   0.295   0.452   4.310 -0.9614 -1.7070 -0.4163
 3510SOL     OW21991   4.154   0.349  13.611  0.5191 -0.0052 -0.4156
 3510SOL    HW121992   4.189   0.438  13.606  0.0239  0.1963 -0.3307
 3510SOL    HW221993   4.134   0.347  13.705 -3.2717 -2.6668 -1.3043
 3511SOL     OW21994   3.988   3.337   9.805  0.4024  0.2080 -0.3625
 3511SOL    HW121995   3.920   3.270   9.814 -0.2411  0.7003 -1.5516
 3511SOL    HW221996   4.002   3.359   9.897  0.7545  0.3513 -0.4493
 3512SOL     OW21997   1.122   1.763   1.053  0.2351 -0.1099 -0.1514
 3512SOL    HW121998   1.042   1.809   1.079  0.0208  0.5379 -1.9789
 3512SOL    HW221999   1.095   1.744   0.963 -2.3612  0.8668  0.4460
 3513SOL     OW22000   2.354   3.551  16.932 -0.1535  0.2391  0.4866
 3513SOL    HW122001   2.420   3.583  16.871  0.0096 -1.8846 -0.4361
 3513SOL    HW222002   2.295   3.496  16.882  0.5563  0.7436 -0.9134
 3514SOL     OW22003   4.230   1.200   7.255 -0.3087  0.0561  0.3740
 3514SOL    HW122004   4.325   1.211   7.249 -0.2259 -1.3221 -0.8751
 3514SOL    HW222005   4.211   1.259   7.328 -0.2464  0.9922 -0.3532
 3515SOL     OW22006   4.014   2.868  11.039 -0.0627  0.0095  0.1066
 3515SOL    HW122007   3.931   2.821  11.026 -0.1516 -0.8210  3.6492
 3515SOL    HW222008   4.082   2.810  11.007 -1.3755 -0.0174 -2.6256
 3516SOL     OW22009   0.886   3.756   3.946 -0.2475 -0.1911  0.3834
 3516SOL    HW122010   0.825   3.747   3.873  2.0601 -2.2738 -1.3113
 3516SOL    HW222011   0.962   3.709   3.912 -1.5293 -0.7756 -1.6804
 3517SOL     OW22012   2.622   1.726  15.743 -0.1296  0.0456  0.1936
 3517SOL    HW122013   2.598   1.786  15.673 -0.1464  2.0146  1.8828
 3517SOL    HW222014   2.717   1.733  15.739 -0.1030 -0.1876  0.3789
 3518SOL     OW22015   0.270   2.100  14.034  0.2116 -0.2951  0.3956
 3518SOL    HW122016   0.224   2.065  14.110  1.2494  1.9401  2.0476
 3518SOL    HW222017   0.302   2.177  14.081  1.0496 -0.0773 -0.5181
 3519SOL     OW22018   4.660   0.979   9.004  0.1681  0.2906  0.3982
 3519SOL    HW122019   4.678   1.028   9.085  0.3955  0.1646  0.4248
 3519SOL    HW222020   4.604   0.907   9.035  0.1821 -0.4656 -1.3315
 3520SOL     OW22021   0.054   0.754   6.090  0.2670  0.1907  0.0651
 3520SOL    HW122022   4.692   0.779   6.122  0.1281 -0.6389  0.3152
 3520SOL    HW222023   0.055   0.659   6.084  0.5610  0.2649 -1.0602
 3521SOL     OW22024   4.359   2.633   1.403  0.0911  0.3477 -0.3407
 3521SOL    HW122025   4.382   2.600   1.490 -0.1940  0.3998 -0.2473
 3521SOL    HW222026   4.394   2.722   1.409  1.4527 -0.2583  0.6395
 3522SOL     OW22027   2.635   3.030   1.553  0.0075  0.5051  0.6593
 3522SOL    HW122028   2.582   3.102   1.521  0.7386  0.8315  0.1863
 3522SOL    HW222029   2.597   2.953   1.510  2.0876  0.1840 -0.6545
 3523SOL     OW22030   0.817   3.478   8.040 -0.6723  0.2880  0.4683
 3523SOL    HW122031   0.790   3.394   8.078 -1.2032  0.3851  0.3042
 3523SOL    HW222032   0.730   3.518   8.030 -0.3029  1.1016  0.5736
 3524SOL     OW22033   3.780   4.052  10.105  0.3376 -0.2974 -0.3044
 3524SOL    HW122034   3.787   4.094  10.020  0.0761 -2.0784 -1.2067
 3524SOL    HW222035   3.767   3.961  10.079 -1.0388 -0.3139  0.4427
 3525SOL     OW22036   0.706   0.954   2.934 -0.0740  0.2684 -0.2963
 3525SOL    HW122037   0.694   0.861   2.953 -0.6482  0.4791  0.3825
 3525SOL    HW222038   0.789   0.957   2.886  1.3579  2.3521  2.2457
 3526SOL     OW22039   0.839   4.116   8.401  0.8756  0.4796  0.1478
 3526SOL    HW122040   0.846   4.020   8.404 -1.2135  0.3973  2.2418
 3526SOL    HW222041   0.744   4.119   8.415  1.0743 -1.1741  1.9398
 3527SOL     OW22042   4.405   3.512  11.677 -0.5190  0.1809 -0.2424
 3527SOL    HW122043   4.358   3.523  11.760  0.2477 -0.2486  0.2580
 3527SOL    HW222044   4.334   3.543  11.622 -0.8740  0.4021  0.3380
 3528SOL     OW22045   3.577   0.488   7.614  0.4499 -0.0365 -0.0521
 3528SOL    HW122046   3.527   0.419   7.657  0.6607  0.9919  1.8450
 3528SOL    HW222047   3.563   0.565   7.670  1.1679 -0.2805  0.4689
 3529SOL     OW22048   0.631   1.336   7.604 -0.5132  0.0391  0.2859
 3529SOL    HW122049   0.646   1.369   7.515 -3.3482  2.5363  0.7578
 3529SOL    HW222050   0.603   1.245   7.589  0.9191 -0.1445 -1.2946
 3530SOL     OW22051   1.200   2.748   8.468 -0.1916  0.2118 -0.2846
 3530SOL    HW122052   1.205   2.844   8.466 -1.5192  0.2788 -0.2575
 3530SOL    HW222053   1.273   2.709   8.420 -0.9763  0.3316 -1.5740
 3531SOL     OW22054   0.770   2.984  11.544 -0.3405  0.1280 -0.5249
 3531SOL    HW122055   0.783   2.925  11.470 -0.1468  0.7244 -0.9694
 3531SOL    HW222056   0.806   3.062  11.501  1.6052 -1.1412 -1.1438
 3532SOL     OW22057   2.758   3.448   2.546 -0.1960  0.2307  0.2506
 3532SOL    HW122058   2.741   3.520   2.607 -2.1880 -0.8443  0.9463
 3532SOL    HW222059   2.811   3.388   2.598  1.6631  0.6807 -1.1020
 3533SOL     OW22060   3.368   0.912   6.385  0.1301 -0.2905  0.2313
 3533SOL    HW122061   3.303   0.962   6.336  2.0115  2.2143  0.2835
 3533SOL    HW222062   3.352   0.936   6.476  1.4606 -1.0871  0.6867
 3534SOL     OW22063   0.187   2.385   5.021  0.6146  0.5961  0.2543
 3534SOL    HW122064   0.195   2.480   5.033 -1.8054  0.3956  3.3251
 3534SOL    HW222065   0.193   2.360   5.113  0.0713 -1.3209 -0.2368
 3535SOL     OW22066   0.861   1.140   0.694 -0.2330  0.1661  0.4463
 3535SOL    HW122067   0.858   1.067   0.632 -0.0222  2.4925 -2.2820
 3535SOL    HW222068   0.804   1.205   0.654 -1.9688 -0.4722  1.8480
 3536SOL     OW22069   1.360   2.603  11.623 -0.5880  0.0346  0.2457
 3536SOL    HW122070   1.454   2.586  11.620 -0.5170  0.8463 -2.2881
 3536SOL    HW222071   1.354   2.690  11.582  2.3904  0.2368  0.2785
 3537SOL     OW22072   2.200   1.524   5.556  0.2974  0.0467 -0.0137
 3537SOL    HW122073   2.178   1.475   5.477  0.6288 -0.6934  0.3590
 3537SOL    HW222074   2.146   1.483   5.623 -0.1119  2.9376  1.4448
 3538SOL     OW22075   0.140   4.018   4.095 -0.2826  0.1724  0.3526
 3538SOL    HW122076   0.172   4.034   4.006  1.7208 -1.4539  0.7832
 3538SOL    HW222077   0.082   3.941   4.091 -1.5820  1.1159  1.0934
 3539SOL     OW22078   1.582   4.467   3.503 -0.6140 -0.1269 -0.0944
 3539SOL    HW122079   1.665   4.474   3.455 -1.3007 -0.2322 -1.2825
 3539SOL    HW222080   1.543   4.395   3.454  1.1828 -3.0849  2.8251
 3540SOL     OW22081   2.785   4.407  13.844 -0.4653  0.1840 -0.5422
 3540SOL    HW122082   2.712   4.407  13.783 -1.3459  0.5575  0.5195
 3540SOL    HW222083   2.745   4.435  13.926 -0.4518  0.8051 -0.7473
 3541SOL     OW22084   3.815   4.539   4.701 -0.5758 -0.6857  0.3198
 3541SOL    HW122085   3.784   4.577   4.619 -2.0569  0.5555  1.4638
 3541SOL    HW222086   3.736   4.514   4.749 -0.8523  1.0967  0.8015
 3542SOL     OW22087   1.145   4.299  10.490 -0.3773 -0.1419  0.0011
 3542SOL    HW122088   1.088   4.288  10.414 -0.3164  0.2133 -0.0952
 3542SOL    HW222089   1.184   4.383  10.469  0.7050 -0.4638  0.7465
 3543SOL     OW22090   1.189   4.452   3.663  0.4294 -0.3173 -0.1544
 3543SOL    HW122091   1.242   4.374   3.646  1.5108  0.1224  1.1451
 3543SOL    HW222092   1.248   4.527   3.656 -0.6264  0.6345  1.1254
 3544SOL     OW22093   3.850   1.188   9.537  0.3494 -0.1805 -0.1044
 3544SOL    HW122094   3.818   1.274   9.563 -0.6066 -1.0360  1.5397
 3544SOL    HW222095   3.944   1.209   9.529  0.2586 -0.1119 -0.9441
 3545SOL     OW22096   0.210   0.991   5.157  0.3529  0.1320  0.0044
 3545SOL    HW122097   0.244   0.944   5.080 -0.3387 -0.9212  0.3416
 3545SOL    HW222098   0.120   1.010   5.130 -0.3716 -2.1069  0.8596
 3546SOL     OW22099   2.647   2.795   0.558 -0.3817  0.5104 -0.5623
 3546SOL    HW122100   2.684   2.755   0.479  4.2113 -0.6735  2.1546
 3546SOL    HW222101   2.563   2.750   0.566  0.4475 -0.7818  0.8504
 3547SOL     OW22102   0.085   0.660   8.623  0.4221 -1.1733  0.3826
 3547SOL    HW122103   0.078   0.715   8.701 -2.3704 -0.8748 -0.0684
 3547SOL    HW222104   0.009   0.603   8.636 -1.0534  0.9672  1.0450
 3548SOL     OW22105   4.684   0.111   9.307  0.1843  0.3579 -0.2582
 3548SOL    HW122106   4.588   0.116   9.303 -0.0456 -2.4296  1.5372
 3548SOL    HW222107   4.696   0.016   9.304  2.4280  0.5897  1.6242
 3549SOL     OW22108   3.602   3.877  10.780 -0.3797  0.3630 -0.1909
 3549SOL    HW122109   3.602   3.930  10.859  2.5263  0.0827 -0.0337
 3549SOL    HW222110   3.508   3.869  10.763 -0.3559  0.6588 -0.4674
 3550SOL     OW22111   3.777   4.660   6.875  0.1805 -0.1461 -0.1940
 3550SOL    HW122112   3.775   0.030   6.889 -0.2683 -0.2863  0.7025
 3550SOL    HW222113   3.855   4.662   6.820  0.3306 -2.9840 -0.0677
 3551SOL     OW22114   1.870   3.107   5.039 -0.7314  0.1751 -0.5536
 3551SOL    HW122115   1.815   3.114   4.961  0.1032  3.3723 -0.8445
 3551SOL    HW222116   1.825   3.167   5.099 -2.3454  1.1672 -2.7677
 3552SOL     OW22117   0.220   0.930   2.164  0.4784 -0.1311  0.3197
 3552SOL    HW122118   0.141   0.876   2.158  0.0374  0.5393  0.1327
 3552SOL    HW222119   0.191   1.013   2.200  3.1239  1.0117 -0.2021
 3553SOL     OW22120   3.085   4.541  14.965 -0.0120 -0.6841 -0.0769
 3553SOL    HW122121   3.019   4.610  14.955 -0.5141 -1.0948  0.3745
 3553SOL    HW222122   3.084   4.525  15.060 -0.2671 -0.1236  0.0138
 3554SOL     OW22123   0.208   3.732   5.763  0.1669  0.3368 -0.3262
 3554SOL    HW122124   0.294   3.727   5.803 -0.4985  1.5673  1.2646
 3554SOL    HW222125   0.167   3.800   5.816 -3.6674 -1.2117 -1.3088
 3555SOL     OW22126   1.613   3.628   4.076 -0.1927  0.0834 -0.4415
 3555SOL    HW122127   1.525   3.641   4.042 -0.9031 -0.0384  1.3225
 3555SOL    HW222128   1.594   3.546   4.122 -0.0300  0.8688  1.0433
 3556SOL     OW22129   3.732   1.372  11.628  0.4583  0.1785 -0.1621
 3556SOL    HW122130   3.784   1.298  11.661 -1.9873 -1.6597 -0.4161
 3556SOL    HW222131   3.694   1.404  11.710 -0.6198 -1.4701 -0.0088
 3557SOL     OW22132   1.638   2.429   6.037 -0.9230  0.3962  0.7451
 3557SOL    HW122133   1.656   2.492   5.968  0.0224  0.0631  0.6972
 3557SOL    HW222134   1.667   2.345   6.001 -0.7859  0.6468  0.2847
 3558SOL     OW22135   2.951   1.798   7.631  0.6425  0.1377  0.7260
 3558SOL    HW122136   2.862   1.803   7.666 -0.1739  0.4096 -1.3573
 3558SOL    HW222137   2.980   1.713   7.663  0.7854 -0.5113 -1.0991
 3559SOL     OW22138   0.413   2.209   4.952  0.3187 -0.4960 -0.4429
 3559SOL    HW122139   0.397   2.161   4.871  0.2796 -1.6099  0.2110
 3559SOL    HW222140   0.337   2.266   4.963  2.3348  1.8864  1.1395
 3560SOL     OW22141   2.692   2.571   9.080  0.0845  0.0431  0.3156
 3560SOL    HW122142   2.698   2.608   9.168 -1.5799 -0.1490  0.4997
 3560SOL    HW222143   2.657   2.644   9.029 -1.4232  0.0203  1.3449
 3561SOL     OW22144   0.178   3.155   8.982 -0.0505 -0.7031  0.5087
 3561SOL    HW122145   0.151   3.227   9.039 -0.2935  0.7944 -1.4990
 3561SOL    HW222146   0.251   3.111   9.026 -0.4028 -0.7668  1.0253
 3562SOL     OW22147   1.990   0.820   3.642 -0.1939  0.0202  0.0158
 3562SOL    HW122148   2.005   0.737   3.686 -3.9155 -1.1291 -0.8481
 3562SOL    HW222149   1.933   0.865   3.706  1.3400 -1.9600  2.7362
 3563SOL     OW22150   1.343   0.889   2.796 -0.1723 -0.7806 -0.7399
 3563SOL    HW122151   1.257   0.910   2.758 -0.1749  0.4861 -0.0621
 3563SOL    HW222152   1.338   0.810   2.850  1.0186 -1.0178 -0.9824
 3564SOL     OW22153   1.009   4.683   0.742  0.4225  0.9101 -0.3320
 3564SOL    HW122154   1.025   0.049   0.721 -0.1338  0.7524 -1.4422
 3564SOL    HW222155   0.941   4.691   0.808  0.6400  3.0050 -0.3821
 3565SOL     OW22156   4.219   1.911  11.692 -0.2539 -0.5521 -0.2030
 3565SOL    HW122157   4.199   1.848  11.622  1.5769  0.4765 -1.6430
 3565SOL    HW222158   4.250   1.848  11.757 -0.0041 -0.4909 -0.2633
 3566SOL     OW22159   1.604   2.167  12.053 -0.3255  0.2754  0.3109
 3566SOL    HW122160   1.655   2.124  12.121 -0.2447 -1.1160 -0.6303
 3566SOL    HW222161   1.599   2.106  11.979  0.4684  2.5240 -1.6350
 3567SOL     OW22162   4.279   1.051   5.038  0.0505 -0.3865  0.4593
 3567SOL    HW122163   4.202   0.998   5.061 -1.8883  1.9146 -0.6939
 3567SOL    HW222164   4.254   1.077   4.949  1.4501 -1.2488 -0.1883
 3568SOL     OW22165   1.522   1.487   6.879 -0.0334 -0.3845 -0.3876
 3568SOL    HW122166   1.565   1.420   6.826 -0.5990  0.7699 -2.2965
 3568SOL    HW222167   1.447   1.440   6.915  0.5926  0.0565  1.5211
 3569SOL     OW22168   1.231   1.139   5.276  0.4060  0.0417  0.2546
 3569SOL    HW122169   1.313   1.098   5.303  0.5607 -0.6792 -1.3040
 3569SOL    HW222170   1.168   1.077   5.311 -0.5091  2.0222  2.1123
 3570SOL     OW22171   2.355   1.712   3.294  0.1979 -0.1772 -0.4570
 3570SOL    HW122172   2.344   1.803   3.266  0.2972  0.0110  0.1078
 3570SOL    HW222173   2.267   1.687   3.321  0.6086 -1.4641 -0.3241
 3571SOL     OW22174   1.067   3.925   6.776  0.5395  0.3019  0.0603
 3571SOL    HW122175   1.041   3.833   6.772 -0.3865  0.4885  1.5575
 3571SOL    HW222176   1.162   3.920   6.765  0.3887  1.4840 -1.7856
 3572SOL     OW22177   1.013   3.056   6.911  0.6478  0.4433 -0.0759
 3572SOL    HW122178   1.025   3.042   6.817  1.1114 -0.5745  0.1382
 3572SOL    HW222179   0.922   3.030   6.924  0.7728 -0.2343 -0.5089
 3573SOL     OW22180   1.178   3.911   2.334 -0.2619 -0.2951 -0.5876
 3573SOL    HW122181   1.224   3.983   2.378  0.9445 -1.1485 -0.4552
 3573SOL    HW222182   1.106   3.963   2.299 -1.5458 -0.9775  1.0081
 3574SOL     OW22183   3.615   3.982   0.261  0.0136 -0.3289 -0.1702
 3574SOL    HW122184   3.625   4.077   0.269 -0.0831 -0.5096  2.0406
 3574SOL    HW222185   3.640   3.970   0.169  0.1028  1.0373 -0.3186
 3575SOL     OW22186   3.872   0.881   7.275  0.4812 -0.0435 -0.3989
 3575SOL    HW122187   3.917   0.952   7.229  3.8831 -0.7423  1.8278
 3575SOL    HW222188   3.922   0.805   7.246  1.2423  0.3978 -0.2589
 3576SOL     OW22189   2.857   4.724   4.936 -0.1503  0.5695  0.0252
 3576SOL    HW122190   2.810   4.650   4.975  0.0885  0.0297 -0.7191
 3576SOL    HW222191   2.927   4.674   4.895 -1.4159  1.5000 -3.2955
 3577SOL     OW22192   1.158   3.661   1.719  0.6335 -0.3932  0.1110
 3577SOL    HW122193   1.075   3.673   1.673 -0.6294 -0.2161  2.4408
 3577SOL    HW222194   1.196   3.738   1.675 -3.4819  1.0644 -0.8898
 3578SOL     OW22195   1.160   2.636   6.988  0.3243 -0.7404  0.0847
 3578SOL    HW122196   1.180   2.671   6.901  0.0434  0.9738  0.6994
 3578SOL    HW222197   1.156   2.544   6.962  0.1328 -1.3069  2.1455
 3579SOL     OW22198   3.443   2.179   5.233  0.0766  0.1950 -0.5537
 3579SOL    HW122199   3.422   2.086   5.232 -0.0958  0.2642 -2.1473
 3579SOL    HW222200   3.378   2.217   5.175  0.9286  1.8052 -0.4677
 3580SOL     OW22201   2.705   3.917   1.466  0.3081 -0.1816 -0.3052
 3580SOL    HW122202   2.721   4.005   1.500 -1.7897 -0.0751  0.3481
 3580SOL    HW222203   2.715   3.859   1.542 -1.5083  1.1314  0.9138
 3581SOL     OW22204   3.795   0.963   2.838  0.3225  0.8937 -1.1796
 3581SOL    HW122205   3.801   1.031   2.772 -0.8261  1.2327 -0.9503
 3581SOL    HW222206   3.702   0.942   2.827  0.0564  0.3319  1.9397
 3582SOL     OW22207   1.113   0.597  16.334  0.4834 -0.0435  0.5506
 3582SOL    HW122208   1.043   0.647  16.292  1.3940  0.8888  0.1477
 3582SOL    HW222209   1.063   0.577  16.413 -1.5003 -0.5433 -0.8382
 3583SOL     OW22210   2.263   1.072   0.992  0.0888  0.6027 -0.5567
 3583SOL    HW122211   2.305   1.085   0.907 -0.2850  0.4283 -0.7672
 3583SOL    HW222212   2.297   0.986   1.015 -0.7277  0.6885  1.0146
 3584SOL     OW22213   0.370   0.736   2.505  0.3641  0.0900 -0.3859
 3584SOL    HW122214   0.294   0.785   2.474 -0.7912 -0.6750  1.2893
 3584SOL    HW222215   0.414   0.729   2.420 -1.2671  0.2787 -1.2367
 3585SOL     OW22216   4.624   0.078   5.079  0.4734  0.0810  0.0295
 3585SOL    HW122217   4.621   4.718   5.123  0.9620 -0.0061 -0.0978
 3585SOL    HW222218   4.717   0.091   5.059  0.5926 -0.2373  0.3612
 3586SOL     OW22219   1.260   0.044   4.694  0.3306 -0.0098  0.0651
 3586SOL    HW122220   1.323   0.019   4.626 -1.4656  0.3907 -1.7592
 3586SOL    HW222221   1.242   4.688   4.743 -0.8302  0.5380  0.5639
 3587SOL     OW22222   1.015   1.455   2.209  0.0342  0.3963  0.1749
 3587SOL    HW122223   0.940   1.456   2.268  0.1786 -1.9395  0.4125
 3587SOL    HW222224   0.980   1.508   2.137  1.0789  1.3058  0.3203
 3588SOL     OW22225   2.734   3.186  12.008 -0.4608  0.2860  0.3723
 3588SOL    HW122226   2.789   3.214  11.934 -0.7513 -0.3744 -0.0941
 3588SOL    HW222227   2.684   3.264  12.032  0.4137  1.5218 -1.7978
 3589SOL     OW22228   0.300   1.362  13.061  0.0775  0.4141  0.0285
 3589SOL    HW122229   0.281   1.415  12.984 -0.3894 -0.2802 -0.3365
 3589SOL    HW222230   0.392   1.379  13.083 -0.3073 -0.5654  2.3703
 3590SOL     OW22231   2.925   1.859  12.972 -0.0460  0.7343 -0.1818
 3590SOL    HW122232   2.955   1.881  13.060 -1.3951 -2.1101  0.9797
 3590SOL    HW222233   3.000   1.875  12.914  2.0341 -1.1201  1.9821
 3591SOL     OW22234   0.493   0.303  17.438  0.1261  0.3529 -0.3683
 3591SOL    HW122235   0.496   0.380  17.495 -1.4348 -1.2035  1.8470
 3591SOL    HW222236   0.435   0.241  17.482  0.5004 -1.3594 -2.2586
 3592SOL     OW22237   3.248   0.336   7.548 -0.1617  0.0086 -0.4635
 3592SOL    HW122238   3.197   0.349   7.468 -1.1342  0.6385  0.2620
 3592SOL    HW222239   3.246   0.241   7.561 -2.2725  0.0457 -0.4213
 3593SOL     OW22240   0.634   1.699  17.466  0.1396  0.1890  0.4867
 3593SOL    HW122241   0.624   1.727  17.557  2.3207  0.8691  0.5121
 3593SOL    HW222242   0.720   1.730  17.437  0.3548  1.0615  2.0577
 3594SOL     OW22243   4.402   0.259   3.581  0.0662 -0.1877  0.1563
 3594SOL    HW122244   4.471   0.325   3.580 -0.5563  0.4452 -0.7622
 3594SOL    HW222245   4.378   0.258   3.488  1.6030 -0.9238 -0.2390
 3595SOL     OW22246   1.544   2.765   7.995 -0.1034 -0.0171 -0.2754
 3595SOL    HW122247   1.569   2.857   8.002 -0.8761  0.2866 -1.4406
 3595SOL    HW222248   1.618   2.721   8.037  0.5584  0.8362 -0.5487
 3596SOL     OW22249   2.709   1.875   7.710  0.6812 -0.2129 -0.1910
 3596SOL    HW122250   2.720   1.896   7.803 -0.3828 -0.8412  0.0845
 3596SOL    HW222251   2.616   1.853   7.700  0.6128 -0.0500  0.0685
 3597SOL     OW22252   1.358   3.447  15.043  0.2936 -0.5493 -0.1376
 3597SOL    HW122253   1.292   3.446  15.113 -0.4758 -1.6668 -0.8724
 3597SOL    HW222254   1.434   3.487  15.084 -0.9114  0.5752  1.0385
 3598SOL     OW22255   3.036   2.611   3.242 -0.0301  0.8033  0.4652
 3598SOL    HW122256   2.944   2.601   3.217  0.6616 -0.7898 -1.4697
 3598SOL    HW222257   3.077   2.606   3.156  0.0346 -1.3274  0.6111
 3599SOL     OW22258   2.549   1.518   3.194 -0.1618 -0.0678  0.2591
 3599SOL    HW122259   2.506   1.439   3.163  0.4494 -0.1041 -0.4997
 3599SOL    HW222260   2.475   1.569   3.227  1.4497  2.0185  0.6594
 3600SOL     OW22261   4.591   3.336   8.887 -0.0433 -0.5647 -0.1491
 3600SOL    HW122262   4.641   3.262   8.921  0.2693  0.4877  1.7143
 3600SOL    HW222263   4.566   3.306   8.800  1.0671 -0.0824 -0.6408
 3601SOL     OW22264   2.769   2.584   3.150 -0.0743 -0.1007 -0.1788
 3601SOL    HW122265   2.707   2.546   3.213  3.1835 -3.6229  0.9026
 3601SOL    HW222266   2.746   2.545   3.066 -0.9266 -0.2587  0.1241
 3602SOL     OW22267   1.484   1.736   4.067  0.0076  0.6331  0.0449
 3602SOL    HW122268   1.425   1.805   4.096 -0.1675  0.7988 -0.7236
 3602SOL    HW222269   1.565   1.770   4.105 -0.0371  0.2223  0.5021
 3603SOL     OW22270   4.360   2.668   8.464  0.1030 -0.2816 -0.4605
 3603SOL    HW122271   4.384   2.577   8.482  0.9979 -0.0554 -0.5080
 3603SOL    HW222272   4.266   2.668   8.482  0.4384 -0.6784  1.2929
 3604SOL     OW22273   4.562   2.014   6.023 -0.0296 -0.4264 -0.2725
 3604SOL    HW122274   4.517   1.947   5.972 -1.0610  1.6207 -2.0915
 3604SOL    HW222275   4.548   2.086   5.961  0.4017  1.3529  1.6947
 3605SOL     OW22276   1.177   3.228   8.878 -0.3779  0.0780  0.3606
 3605SOL    HW122277   1.099   3.224   8.933 -0.4437  0.1578  0.2745
 3605SOL    HW222278   1.225   3.151   8.908 -2.1381 -1.0791  0.1691
 3606SOL     OW22279   0.560   2.330   2.594  0.0202  0.3405 -0.7463
 3606SOL    HW122280   0.655   2.330   2.587  0.0582  0.6339 -0.2905
 3606SOL    HW222281   0.528   2.397   2.533 -3.7511  0.2443  1.1086
 3607SOL     OW22282   0.505   2.350  16.289  0.1341 -1.4295 -0.3973
 3607SOL    HW122283   0.544   2.300  16.361 -0.1637 -0.9288  0.1151
 3607SOL    HW222284   0.556   2.431  16.290 -0.3793 -1.1046 -0.7017
 3608SOL     OW22285   4.502   0.298   4.995  0.1914 -0.3693  0.4891
 3608SOL    HW122286   4.529   0.213   5.028 -3.3619 -1.3402  0.8864
 3608SOL    HW222287   4.572   0.352   5.031  0.1828 -0.1786  0.2238
 3609SOL     OW22288   3.231   0.083   3.967 -0.7756  0.2578  0.0277
 3609SOL    HW122289   3.186   0.165   3.945 -0.4695  0.2492 -0.6306
 3609SOL    HW222290   3.314   0.099   3.923 -0.4264  0.8437  0.8863
 3610SOL     OW22291   1.196   2.388  10.742 -0.9563 -0.3921 -0.4034
 3610SOL    HW122292   1.220   2.460  10.682 -1.0836  1.8994  2.3017
 3610SOL    HW222293   1.246   2.405  10.821 -0.6058 -3.2585 -0.0133
 3611SOL     OW22294   2.346   0.603   8.543 -0.0892  0.3470  0.0468
 3611SOL    HW122295   2.342   0.519   8.499  0.7206  0.5086 -0.3217
 3611SOL    HW222296   2.275   0.603   8.608 -0.1496 -0.1671 -0.0181
 3612SOL     OW22297   4.361   4.169  14.035 -0.0934 -0.1833  0.0084
 3612SOL    HW122298   4.316   4.235  13.983  0.6759  0.1332 -0.2626
 3612SOL    HW222299   4.320   4.192  14.118  0.2104  0.7484 -0.1081
 3613SOL     OW22300   3.898   2.200   4.452 -0.1015 -0.0253 -0.2353
 3613SOL    HW122301   3.977   2.217   4.503 -0.6571  0.2781  0.5184
 3613SOL    HW222302   3.913   2.108   4.430  0.9088  0.0558  0.1199
 3614SOL     OW22303   1.731   0.533   3.066  0.4093  0.8724 -0.4659
 3614SOL    HW122304   1.658   0.578   3.106  1.2289 -0.1686  2.1986
 3614SOL    HW222305   1.711   0.440   3.076 -0.8139  1.3992  1.7434
 3615SOL     OW22306   2.347   1.623  16.610  0.1469  0.0099 -0.5066
 3615SOL    HW122307   2.403   1.656  16.680 -0.1304  0.7812 -0.6541
 3615SOL    HW222308   2.344   1.532  16.641 -1.3309  0.5707  1.0057
 3616SOL     OW22309   4.474   1.269   6.314  0.0098  0.3878  1.0833
 3616SOL    HW122310   4.425   1.251   6.234 -1.0653 -1.1217  2.0888
 3616SOL    HW222311   4.546   1.206   6.306 -0.4974 -0.0037 -0.5137
 3617SOL     OW22312   0.404   1.305   5.227  0.2414 -0.1273 -0.5203
 3617SOL    HW122313   0.389   1.225   5.278 -1.1975  0.1074 -0.5782
 3617SOL    HW222314   0.432   1.364   5.297  0.0331 -1.9184  1.0805
 3618SOL     OW22315   3.469   0.399   4.612  0.5269  0.4855 -0.2967
 3618SOL    HW122316   3.374   0.390   4.597  0.8314 -1.4883 -1.0837
 3618SOL    HW222317   3.498   0.333   4.549 -1.4698 -0.3086 -0.3897
 3619SOL     OW22318   4.532   1.108   2.553 -0.4746  0.1049  0.4184
 3619SOL    HW122319   4.525   1.175   2.484 -1.1982  0.9331  1.2883
 3619SOL    HW222320   4.617   1.137   2.587 -0.8600  0.9137  0.6990
 3620SOL     OW22321   0.275   1.293  17.434  0.9330 -0.4055  0.0712
 3620SOL    HW122322   0.216   1.287  17.510 -1.1582 -2.0489 -1.6848
 3620SOL    HW222323   0.345   1.352  17.462  0.7849  0.1362 -0.6851
 3621SOL     OW22324   4.396   3.421   4.085  0.5898 -0.4983 -0.1518
 3621SOL    HW122325   4.369   3.363   4.014  1.1100  1.0276 -1.5698
 3621SOL    HW222326   4.490   3.405   4.077  0.2732 -0.9805 -2.7233
 3622SOL     OW22327   2.949   3.367   1.314 -0.3208  0.4690  0.0657
 3622SOL    HW122328   3.000   3.354   1.234  1.7740  0.4998  1.4057
 3622SOL    HW222329   2.889   3.293   1.304  1.0978 -0.6806  0.0618
 3623SOL     OW22330   3.652   0.285  11.701 -0.2444  0.0065 -0.4040
 3623SOL    HW122331   3.642   0.373  11.736 -2.2256 -0.4514  0.1411
 3623SOL    HW222332   3.638   0.237  11.782 -0.3143 -0.4528 -0.6858
 3624SOL     OW22333   1.449   0.971  17.475  0.2622 -0.1157  0.4148
 3624SOL    HW122334   1.427   0.927  17.557  0.2463 -0.3211  0.3013
 3624SOL    HW222335   1.358   0.989  17.452  1.0067  2.5221 -0.4312
 3625SOL     OW22336   0.399   1.273   0.025  0.1665 -0.0416 -0.0745
 3625SOL    HW122337   0.458   1.205   0.057 -1.5062 -1.8572 -0.8434
 3625SOL    HW222338   0.313   1.239   0.049 -0.2393  0.2662 -1.0690
 3626SOL     OW22339   2.787   1.907  11.310 -0.1946  0.4074 -0.5287
 3626SOL    HW122340   2.691   1.905  11.306 -0.3754  2.5813  2.6588
 3626SOL    HW222341   2.803   1.857  11.390  0.1383 -0.0980 -0.9106
 3627SOL     OW22342   4.214   0.795   2.688  0.1340  0.2009  0.3923
 3627SOL    HW122343   4.190   0.857   2.620  0.3004  0.6687  0.7642
 3627SOL    HW222344   4.216   0.715   2.635 -1.7077  1.4983 -1.6000
 3628SOL     OW22345   2.189   1.280  16.000  0.2664 -0.3122 -0.8369
 3628SOL    HW122346   2.154   1.192  16.008  0.8287 -0.3354  1.4319
 3628SOL    HW222347   2.167   1.288  15.907  0.6701  0.1538 -0.8896
 3629SOL     OW22348   1.447   0.537   4.397 -0.3164 -0.0732  0.1713
 3629SOL    HW122349   1.459   0.443   4.388  0.4806  0.1832 -1.3711
 3629SOL    HW222350   1.371   0.554   4.342  0.3814  1.1580 -0.4336
 3630SOL     OW22351   1.318   0.982   4.232  0.0371  0.1681 -0.1794
 3630SOL    HW122352   1.411   0.967   4.247  0.0229  0.1730 -0.0876
 3630SOL    HW222353   1.309   1.005   4.139  2.2478  0.5037 -0.2914
 3631SOL     OW22354   0.934   0.616   9.467  0.1525  0.3439  0.0069
 3631SOL    HW122355   0.987   0.566   9.529 -1.1327  0.2687  1.0492
 3631SOL    HW222356   0.988   0.694   9.454 -2.1936  2.4292  2.6632
 3632SOL     OW22357   3.163   0.344  17.433  0.4016  0.5084  0.2589
 3632SOL    HW122358   3.067   0.342  17.427  0.4807  0.1478 -0.8790
 3632SOL    HW222359   3.190   0.259  17.398  0.8394  0.1923  1.3577
 3633SOL     OW22360   0.988   1.666   7.715 -0.0696  0.0525  0.1192
 3633SOL    HW122361   1.011   1.574   7.726  0.7223  0.2121 -0.1418
 3633SOL    HW222362   0.938   1.664   7.633 -0.9231 -0.1434  0.6476
 3634SOL     OW22363   1.520   0.743   7.821 -0.6044 -0.5546  0.4975
 3634SOL    HW122364   1.523   0.713   7.912 -1.8190 -0.8473  0.4454
 3634SOL    HW222365   1.454   0.687   7.781  1.0011 -1.0902 -1.3791
 3635SOL     OW22366   2.386   2.015   2.812  0.4981  0.3027  0.2979
 3635SOL    HW122367   2.481   2.027   2.803  0.6325 -1.3456 -0.4375
 3635SOL    HW222368   2.374   1.940   2.754 -0.7517  1.1266 -0.4976
 3636SOL     OW22369   2.812   3.536   7.607  0.3940 -0.1934 -0.3708
 3636SOL    HW122370   2.824   3.606   7.543  1.1739 -1.2718 -1.4213
 3636SOL    HW222371   2.902   3.503   7.614  0.2063 -0.6426 -0.0470
 3637SOL     OW22372   1.201   0.252   5.661 -0.3990  0.2201 -0.1394
 3637SOL    HW122373   1.105   0.248   5.669 -0.6258  1.6108 -2.0704
 3637SOL    HW222374   1.222   0.270   5.752 -1.4559 -0.0913  0.1658
 3638SOL     OW22375   1.441   0.586  11.810  0.9220  0.3055  0.0769
 3638SOL    HW122376   1.430   0.601  11.716  0.1827  1.5068  0.3475
 3638SOL    HW222377   1.373   0.527  11.841  1.4299 -0.4174 -0.1917
 3639SOL     OW22378   1.744   3.382  16.565  0.2771 -0.1820  0.0340
 3639SOL    HW122379   1.707   3.425  16.488  0.9849 -0.3460 -0.3935
 3639SOL    HW222380   1.775   3.301  16.525 -0.9168 -1.9047  2.6010
 3640SOL     OW22381   1.448   1.716   7.566  0.3096 -0.2288  0.0545
 3640SOL    HW122382   1.374   1.677   7.521  0.3111  0.1108 -0.2413
 3640SOL    HW222383   1.417   1.806   7.578 -0.2567 -0.5588  1.1203
 3641SOL     OW22384   1.683   4.319  13.959  0.2883 -0.4616  0.2116
 3641SOL    HW122385   1.647   4.239  13.919 -1.1692  0.5661 -0.5388
 3641SOL    HW222386   1.718   4.293  14.044 -0.0304 -0.7722  0.2487
 3642SOL     OW22387   0.439   3.785   6.549  0.6185  0.7395 -1.2819
 3642SOL    HW122388   0.529   3.819   6.544  0.7050  0.5535 -0.9940
 3642SOL    HW222389   0.400   3.860   6.504 -0.4451  0.6345 -0.5395
 3643SOL     OW22390   1.917   0.792   4.872  0.0795  0.8790 -0.0644
 3643SOL    HW122391   1.849   0.859   4.862 -0.1614  0.5846 -0.4012
 3643SOL    HW222392   1.975   0.824   4.941 -0.0986 -1.7658  1.2862
 3644SOL     OW22393   4.318   4.175   2.241 -0.0407  0.1674 -0.2175
 3644SOL    HW122394   4.367   4.204   2.164  1.7356 -0.2838  0.7567
 3644SOL    HW222395   4.298   4.083   2.220 -0.4268  0.3795 -0.7795
 3645SOL     OW22396   3.178   3.634   2.354  0.1576 -0.1258 -0.3672
 3645SOL    HW122397   3.083   3.645   2.350  0.4149  2.1059 -0.4221
 3645SOL    HW222398   3.202   3.565   2.293 -2.0378 -1.2635  0.0552
 3646SOL     OW22399   0.905   3.520   5.465  0.1379  0.3729 -0.8777
 3646SOL    HW122400   0.811   3.538   5.470  0.3584  1.6081 -1.2476
 3646SOL    HW222401   0.923   3.459   5.536  0.4806  1.5421  0.0413
 3647SOL     OW22402   2.862   2.868  10.929 -0.0219  0.1061 -0.5061
 3647SOL    HW122403   2.781   2.919  10.928 -0.7084 -0.9658  0.8638
 3647SOL    HW222404   2.911   2.884  10.849  2.5839  2.8960  1.6298
 3648SOL     OW22405   3.639   2.483  15.140  0.4380  0.3097 -0.8327
 3648SOL    HW122406   3.676   2.492  15.228  1.2683  3.2878 -1.4877
 3648SOL    HW222407   3.680   2.404  15.105  0.3035 -0.2550  0.2721
 3649SOL     OW22408   2.796   0.369   6.103 -0.3245  0.4268 -0.6052
 3649SOL    HW122409   2.707   0.334   6.113  0.5990 -1.4889  0.7296
 3649SOL    HW222410   2.817   0.356   6.010 -0.2297  2.0729 -0.8145
 3650SOL     OW22411   1.753   1.007   2.442  0.1805  0.2079  0.7922
 3650SOL    HW122412   1.674   0.991   2.390 -0.0841  1.3503  0.8422
 3650SOL    HW222413   1.810   0.933   2.422  0.2425  0.5297 -0.2374
 3651SOL     OW22414   2.698   2.793  16.795 -0.1729  0.1906  0.2452
 3651SOL    HW122415   2.789   2.822  16.802 -0.6338  1.3439  1.3222
 3651SOL    HW222416   2.651   2.876  16.800 -2.0416 -1.0257  2.8401
 3652SOL     OW22417   2.301   3.312  11.166 -0.2919 -0.3177  0.0446
 3652SOL    HW122418   2.234   3.251  11.135 -0.2128 -2.2961  3.8906
 3652SOL    HW222419   2.257   3.353  11.240 -0.9356  0.5070 -0.7825
 3653SOL     OW22420   3.963   1.407   8.906 -0.2162  0.0875  0.0261
 3653SOL    HW122421   3.902   1.333   8.909 -0.5727  0.3547 -0.6146
 3653SOL    HW222422   4.012   1.391   8.826 -1.2199  2.3521 -1.0463
 3654SOL     OW22423   2.355   0.463  16.077  0.8768  0.1570 -0.1922
 3654SOL    HW122424   2.378   0.413  15.999  0.1159 -1.6761  0.7770
 3654SOL    HW222425   2.439   0.475  16.123  2.0541  0.8566 -2.5153
 3655SOL     OW22426   0.275   1.613   6.261  0.2015  0.2327  0.3028
 3655SOL    HW122427   0.276   1.698   6.305  1.5399  1.8941 -3.0001
 3655SOL    HW222428   0.216   1.628   6.187 -1.1871 -0.1803  1.3163
 3656SOL     OW22429   3.903   1.738   3.561 -0.4103 -0.2451 -0.2503
 3656SOL    HW122430   3.932   1.733   3.652  0.9186  1.8087 -0.5613
 3656SOL    HW222431   3.958   1.670   3.521 -0.7043  0.5408 -1.9989
 3657SOL     OW22432   3.911   3.204   1.544  0.0883  0.0108 -0.7248
 3657SOL    HW122433   3.971   3.273   1.516  0.7171 -0.1319  0.2682
 3657SOL    HW222434   3.825   3.245   1.532 -0.5642 -1.1190  0.0531
 3658SOL     OW22435   1.486   3.986  10.529  0.1344 -0.0976 -0.7107
 3658SOL    HW122436   1.421   4.046  10.565  0.8384 -1.0411  2.1520
 3658SOL    HW222437   1.565   4.036  10.549 -0.3034  0.6185 -0.7958
 3659SOL     OW22438   0.134   2.848  12.458  0.2155 -0.4695  0.1579
 3659SOL    HW122439   0.083   2.794  12.518  2.6635  0.1420  2.7559
 3659SOL    HW222440   0.077   2.924  12.443  0.5518 -0.0963  0.7543
 3660SOL     OW22441   3.202   4.241   3.018 -0.8352 -0.8984 -0.4968
 3660SOL    HW122442   3.119   4.198   2.997 -0.8821 -0.9510 -0.2059
 3660SOL    HW222443   3.196   4.327   2.976  0.0695 -0.2957  0.6138
 3661SOL     OW22444   2.150   2.878   7.451  0.2204 -0.5721  0.4637
 3661SOL    HW122445   2.066   2.836   7.433 -0.3505  1.1566 -0.9071
 3661SOL    HW222446   2.121   2.968   7.436 -2.2518 -1.3976  0.2335
 3662SOL     OW22447   0.369   1.224   5.598  0.1699 -0.0348  0.3695
 3662SOL    HW122448   0.442   1.211   5.659  0.8464  0.3941 -0.3401
 3662SOL    HW222449   0.386   1.161   5.529  1.1956  0.3241  0.2847
 3663SOL     OW22450   1.865   3.342  12.808 -0.6984 -0.8147 -0.8727
 3663SOL    HW122451   1.956   3.315  12.806 -0.7869 -1.1352 -0.6123
 3663SOL    HW222452   1.836   3.316  12.720  0.7392 -0.8591 -1.3267
 3664SOL     OW22453   4.026   4.485  10.216 -0.2629 -0.1508 -0.4011
 3664SOL    HW122454   4.026   4.432  10.136  0.9049 -1.4437  0.4540
 3664SOL    HW222455   4.098   4.547  10.206  0.1167 -0.9371 -2.6355
 3665SOL     OW22456   3.988   1.330  15.549 -0.0336 -0.4649 -0.1106
 3665SOL    HW122457   3.931   1.277  15.494 -2.2849  2.1782 -0.3302
 3665SOL    HW222458   4.023   1.270  15.615  1.3957  1.3360  0.7918
 3666SOL     OW22459   0.170   1.482   9.227  0.2856  0.4793 -0.5403
 3666SOL    HW122460   0.245   1.476   9.167  0.6063 -0.7502 -0.0277
 3666SOL    HW222461   0.164   1.573   9.255 -0.1676 -0.4985  2.5700
 3667SOL     OW22462   0.070   2.690   7.587  0.7703 -0.1819  0.4283
 3667SOL    HW122463   0.042   2.728   7.503 -0.2857 -2.5460 -0.3056
 3667SOL    HW222464   4.725   2.625   7.594 -0.0373  0.5913 -0.5201
 3668SOL     OW22465   0.336   0.150   4.553  0.0258  0.0429  0.0606
 3668SOL    HW122466   0.316   0.120   4.465  2.9983 -1.0011 -0.2561
 3668SOL    HW222467   0.375   0.233   4.526 -0.7069  0.6066  0.7387
 3669SOL     OW22468   1.351   3.831  16.108 -0.8323  0.3112  0.3568
 3669SOL    HW122469   1.294   3.876  16.045  0.8457  3.1915  0.8890
 3669SOL    HW222470   1.418   3.900  16.101  0.5328 -0.9261  1.2017
 3670SOL     OW22471   0.325   1.435   7.387 -0.7599  0.0011 -0.4082
 3670SOL    HW122472   0.391   1.434   7.318 -0.8350  3.7805 -0.5051
 3670SOL    HW222473   0.304   1.342   7.395 -0.3465  0.0234  1.0546
 3671SOL     OW22474   1.435   1.406   0.707 -0.4864 -0.1351  0.2780
 3671SOL    HW122475   1.524   1.379   0.684 -0.7235  0.6354 -1.5381
 3671SOL    HW222476   1.426   1.484   0.653  2.5296 -0.9625 -1.4288
 3672SOL     OW22477   0.599   1.539  10.306 -0.0393  0.2448 -0.0047
 3672SOL    HW122478   0.635   1.501  10.226  2.2643 -0.1025  1.2264
 3672SOL    HW222479   0.585   1.456  10.352  2.2940 -0.8908 -1.3362
 3673SOL     OW22480   2.321   4.515   7.246  0.0068 -0.6201 -0.1051
 3673SOL    HW122481   2.295   4.432   7.287 -1.2311  0.2206  0.8077
 3673SOL    HW222482   2.356   4.556   7.324  1.4700  2.3433 -2.3232
 3674SOL     OW22483   0.429   2.707   4.908  0.3177  0.1827 -0.0471
 3674SOL    HW122484   0.386   2.673   4.986 -1.1496 -0.1266 -0.9827
 3674SOL    HW222485   0.351   2.714   4.853  1.2546 -0.5585 -1.4856
 3675SOL     OW22486   2.465   3.028   6.837 -0.0566  0.1959  0.5502
 3675SOL    HW122487   2.501   3.089   6.773 -0.8955  0.2217  0.0968
 3675SOL    HW222488   2.392   3.082   6.868  0.5051  0.4368  1.4642
 3676SOL     OW22489   1.764   3.144   8.533 -0.4624  0.7861  0.0153
 3676SOL    HW122490   1.753   3.105   8.446 -0.7578  0.9170 -0.0071
 3676SOL    HW222491   1.708   3.079   8.575  0.0396  0.9642  0.9677
 3677SOL     OW22492   2.531   0.420   2.706  0.5486 -0.2203  0.6555
 3677SOL    HW122493   2.580   0.497   2.735 -0.5927  0.3517  1.0873
 3677SOL    HW222494   2.584   0.381   2.637 -2.1647 -1.5749 -0.6601
 3678SOL     OW22495   4.279   4.643   5.366  0.7577  0.1258  0.3372
 3678SOL    HW122496   4.202   4.658   5.420 -1.1547 -1.9183 -1.8100
 3678SOL    HW222497   4.245   4.663   5.279  2.7163 -0.5584 -0.5884
 3679SOL     OW22498   1.995   3.643   8.143 -0.3616 -0.5789  0.1923
 3679SOL    HW122499   1.939   3.707   8.099 -0.2771 -1.4795 -1.1951
 3679SOL    HW222500   1.994   3.559   8.098 -0.1235 -0.5947  0.2184
 3680SOL     OW22501   1.181   0.161   4.088 -0.1035 -0.1825  0.4933
 3680SOL    HW122502   1.193   0.214   4.009 -1.5537 -0.1404  0.2991
 3680SOL    HW222503   1.171   0.074   4.049  0.6136 -0.7570  1.5849
 3681SOL     OW22504   4.576   3.176   9.827  0.9535 -0.1564  0.6203
 3681SOL    HW122505   4.578   3.110   9.896 -0.9150 -0.8237  0.0130
 3681SOL    HW222506   4.502   3.224   9.864  0.0720 -0.6790 -0.4610
 3682SOL     OW22507   0.657   2.700  13.224 -0.6665  0.9515 -0.1291
 3682SOL    HW122508   0.584   2.738  13.273  0.7193  0.3373  2.4096
 3682SOL    HW222509   0.728   2.763  13.237 -0.6427  0.8821  0.0720
 3683SOL     OW22510   4.345   4.723   6.275  0.2661  0.6889  0.4975
 3683SOL    HW122511   4.266   0.006   6.328 -0.5339 -1.7915 -0.3384
 3683SOL    HW222512   4.343   0.082   6.229 -2.0205  0.5339  0.3184
 3684SOL     OW22513   1.289   1.316   8.268  0.1726  0.9187  0.2350
 3684SOL    HW122514   1.302   1.384   8.202  0.5388 -0.2826 -0.9565
 3684SOL    HW222515   1.379   1.292   8.290  0.4231  0.8954 -0.7952
 3685SOL     OW22516   3.124   0.072   5.463 -0.0372 -0.1560  0.0540
 3685SOL    HW122517   3.152   0.089   5.374 -1.4809  0.2802 -0.3174
 3685SOL    HW222518   3.182   0.005   5.499 -2.0727 -2.0608 -0.2170
 3686SOL     OW22519   3.961   1.910   0.108 -0.4705  0.3614 -0.0012
 3686SOL    HW122520   3.981   1.998   0.077 -2.2636  0.0708 -1.9396
 3686SOL    HW222521   3.872   1.893   0.079  0.0630 -2.5531  0.0690
 3687SOL     OW22522   2.201   0.344  15.214 -0.0633 -0.5209 -0.3448
 3687SOL    HW122523   2.249   0.282  15.160 -1.5186 -1.1403 -0.9431
 3687SOL    HW222524   2.137   0.370  15.148 -1.2137  1.4531  1.5489
 3688SOL     OW22525   0.835   1.901   0.547 -0.1650 -0.0292  0.8010
 3688SOL    HW122526   0.758   1.943   0.584  2.0930  2.9966  2.0583
 3688SOL    HW222527   0.901   1.970   0.542 -0.7126  0.1708 -3.0240
 3689SOL     OW22528   0.379   2.610   4.231  0.0531  0.9923  0.1300
 3689SOL    HW122529   0.456   2.623   4.175  0.4825  2.0772  0.9586
 3689SOL    HW222530   0.322   2.567   4.168  1.2071 -0.7767  0.2816
 3690SOL     OW22531   3.262   1.922   0.914  0.2981 -0.1473  0.3069
 3690SOL    HW122532   3.309   1.877   0.844  0.7018  0.0551  0.4469
 3690SOL    HW222533   3.313   2.004   0.916 -0.4047  0.3147 -0.9721
 3691SOL     OW22534   4.549   0.501   3.832 -0.6783  0.3007  0.7346
 3691SOL    HW122535   4.515   0.575   3.882  0.6849  0.7182  1.0320
 3691SOL    HW222536   4.610   0.538   3.770  0.2032 -0.5036  1.1197
 3692SOL     OW22537   1.172   3.873  10.738  0.0122 -0.4734  0.2822
 3692SOL    HW122538   1.212   3.841  10.819  0.9748  2.5720  1.0334
 3692SOL    HW222539   1.115   3.806  10.700 -0.7778  0.4453 -0.1556
 3693SOL     OW22540   3.032   2.356   9.747 -0.5099 -0.0870 -0.8466
 3693SOL    HW122541   3.126   2.343   9.734  0.5594  4.5725  1.9743
 3693SOL    HW222542   3.024   2.339   9.841 -0.9748 -0.4937 -0.9602
 3694SOL     OW22543   4.009   0.201   6.071 -0.0965  0.0740 -0.9681
 3694SOL    HW122544   3.971   0.194   5.984  0.0836  2.5955 -1.2598
 3694SOL    HW222545   4.085   0.252   6.043  0.0576  0.1579 -0.3917
 3695SOL     OW22546   2.437   3.023  13.510 -0.1454  0.4089  0.0572
 3695SOL    HW122547   2.504   2.988  13.568  0.2953  0.6831 -0.2801
 3695SOL    HW222548   2.404   2.942  13.471  1.2098  0.2246 -0.7261
 3696SOL     OW22549   4.104   1.419   3.237 -0.0883  0.4067  0.2550
 3696SOL    HW122550   4.163   1.354   3.200 -0.5588  0.4378 -0.5552
 3696SOL    HW222551   4.082   1.473   3.161 -0.8782 -1.1540 -0.6251
 3697SOL     OW22552   4.331   3.388   8.967 -0.3579 -0.7215 -0.1108
 3697SOL    HW122553   4.283   3.360   8.889  0.5709 -1.7486 -0.3060
 3697SOL    HW222554   4.415   3.351   8.941  0.4828  0.3370  1.1253
 3698SOL     OW22555   3.724   0.856   8.956  0.7412 -0.0046  0.0856
 3698SOL    HW122556   3.726   0.768   8.920 -1.9575  0.7071 -1.8105
 3698SOL    HW222557   3.698   0.841   9.047  2.0283  0.1304  0.4692
 3699SOL     OW22558   0.547   4.705   5.823 -0.0577 -0.0509  0.3491
 3699SOL    HW122559   0.616   0.009   5.882  1.3611 -1.1583 -0.7564
 3699SOL    HW222560   0.484   4.657   5.877 -0.7293  0.7944  0.3207
 3700SOL     OW22561   3.237   4.146   6.680 -0.0297 -0.0199  0.0606
 3700SOL    HW122562   3.240   4.167   6.587  2.0340  0.2410  0.1766
 3700SOL    HW222563   3.163   4.086   6.685 -0.3077  0.2580 -0.8467
 3701SOL     OW22564   2.999   4.454   2.887  0.3836  0.0124 -0.0995
 3701SOL    HW122565   2.938   4.408   2.944 -1.0772  0.6179 -1.1710
 3701SOL    HW222566   2.979   4.410   2.804 -0.5764 -0.3874  0.3454
 3702SOL     OW22567   4.673   1.557  10.337  0.2715 -0.1235  0.3384
 3702SOL    HW122568   4.671   1.628  10.273  1.7277  1.0627  1.6122
 3702SOL    HW222569   4.670   1.612  10.415 -0.1243  2.4243 -1.4839
 3703SOL     OW22570   2.383   0.419  13.995  0.6020 -0.4444 -0.2820
 3703SOL    HW122571   2.476   0.418  13.970  0.3738  2.5097 -1.2535
 3703SOL    HW222572   2.360   0.329  13.971  1.6509 -1.2221  1.6241
 3704SOL     OW22573   1.642   3.530  13.078 -0.1384 -0.6282  0.0102
 3704SOL    HW122574   1.633   3.539  12.983 -0.7703 -1.3431  0.0029
 3704SOL    HW222575   1.687   3.613  13.092  0.4244 -0.7170 -1.2376
 3705SOL     OW22576   0.035   0.537  11.921 -0.2168  0.1854  0.4488
 3705SOL    HW122577   0.130   0.545  11.915 -0.2374  0.7878  0.8908
 3705SOL    HW222578   0.019   0.545  12.015 -0.8482 -2.0917  0.5421
 3706SOL     OW22579   2.379   3.389  10.917  0.0733 -0.1679  0.2817
 3706SOL    HW122580   2.366   3.375  11.010  2.2086 -1.0148  0.4642
 3706SOL    HW222581   2.333   3.471  10.900  1.9578  0.8052 -0.0928
 3707SOL     OW22582   4.557   3.568   6.339 -0.2668  0.5503 -0.1849
 3707SOL    HW122583   4.590   3.599   6.424 -2.4169  0.1912  0.7758
 3707SOL    HW222584   4.463   3.564   6.354 -0.0371  1.4327  1.5070
 3708SOL     OW22585   4.676   4.158   4.994  0.0664 -0.4511  0.5630
 3708SOL    HW122586   4.645   4.071   5.022  0.0793  0.0128  2.0426
 3708SOL    HW222587   4.597   4.179   4.945 -0.3851 -2.1081  0.5653
 3709SOL     OW22588   4.010   2.222   2.395  0.1890 -0.5149  0.2868
 3709SOL    HW122589   4.032   2.170   2.317 -0.7445 -0.5081  0.0139
 3709SOL    HW222590   4.002   2.143   2.448 -0.5567 -0.3126  0.4748
 3710SOL     OW22591   1.442   3.042   7.389  1.0370  0.4961 -0.5634
 3710SOL    HW122592   1.454   3.046   7.294  0.0936 -3.5932 -0.8443
 3710SOL    HW222593   1.491   3.122   7.409  2.0535 -0.7433  1.8334
 3711SOL     OW22594   0.589   0.640   8.695  0.6105 -0.0724  0.4539
 3711SOL    HW122595   0.536   0.640   8.616  0.9971  0.6627  0.1986
 3711SOL    HW222596   0.671   0.682   8.670 -0.3853  0.3580 -2.0380
 3712SOL     OW22597   0.403   1.848  14.378 -0.2629 -0.2545  0.3675
 3712SOL    HW122598   0.327   1.790  14.369 -0.9869  1.2132 -2.8625
 3712SOL    HW222599   0.453   1.798  14.313 -0.0844  0.3541  0.0393
 3713SOL     OW22600   0.385   1.054   9.466 -0.1931 -0.6279  0.0857
 3713SOL    HW122601   0.382   1.061   9.561  1.4980 -0.4094  0.1266
 3713SOL    HW222602   0.386   1.149   9.449 -0.5330 -0.7063 -0.3634
 3714SOL     OW22603   0.468   2.804   2.731  0.0812 -0.7418 -0.2198
 3714SOL    HW122604   0.479   2.897   2.751 -2.5889 -0.1886 -1.2258
 3714SOL    HW222605   0.373   2.791   2.743 -0.2838  1.6877 -0.4722
 3715SOL     OW22606   2.762   0.545   3.686 -0.1408 -0.0303 -0.2391
 3715SOL    HW122607   2.832   0.493   3.645 -0.8168 -0.4709 -0.8269
 3715SOL    HW222608   2.762   0.625   3.635 -2.6047  0.4043  0.4401
 3716SOL     OW22609   1.397   2.001  14.665  0.6323  0.1572 -0.3301
 3716SOL    HW122610   1.472   1.947  14.690 -0.6837 -0.4706  2.2755
 3716SOL    HW222611   1.339   1.985  14.739  1.1840  1.7460  0.4662
 3717SOL     OW22612   0.509   1.837   8.472 -0.4250  0.3969 -0.3138
 3717SOL    HW122613   0.556   1.891   8.408 -1.5986  3.0643  1.0687
 3717SOL    HW222614   0.432   1.886   8.499 -0.1407  0.5055  0.2790
 3718SOL     OW22615   4.244   0.694  17.114  0.1562 -0.0725 -0.3071
 3718SOL    HW122616   4.261   0.641  17.192  1.6994 -2.6496 -2.4107
 3718SOL    HW222617   4.209   0.631  17.052 -0.5739 -3.0203  3.0992
 3719SOL     OW22618   3.927   1.604   5.784  0.3310 -0.0005 -0.0625
 3719SOL    HW122619   3.973   1.558   5.714 -3.5635 -0.0537 -2.6058
 3719SOL    HW222620   3.975   1.687   5.777  2.9003 -1.4569  0.4962
 3720SOL     OW22621   1.216   0.898   8.889 -0.1291 -0.2130  0.2756
 3720SOL    HW122622   1.232   0.804   8.887  0.4497 -0.1233  0.4706
 3720SOL    HW222623   1.306   0.923   8.911  0.0861 -0.7323 -0.0114
 3721SOL     OW22624   3.902   4.673   2.606  0.2581 -0.9776 -0.0421
 3721SOL    HW122625   3.957   4.679   2.528  0.5957  0.8925  0.3554
 3721SOL    HW222626   3.959   4.648   2.678 -0.0312 -2.4713 -0.3235
 3722SOL     OW22627   0.274   2.621   0.013 -0.2996  0.3946  0.0510
 3722SOL    HW122628   0.224   2.681   0.068  1.9041  1.3409  1.0603
 3722SOL    HW222629   0.215   2.602  17.642 -0.4640  0.2992  0.2115
 3723SOL     OW22630   3.376   3.286  13.517 -0.1250  0.4834 -0.0386
 3723SOL    HW122631   3.312   3.273  13.446 -1.5962 -1.9220  1.7061
 3723SOL    HW222632   3.457   3.303  13.468 -0.9231  0.5982 -1.3196
 3724SOL     OW22633   0.229   0.012   8.906  0.6849 -0.4818 -0.3629
 3724SOL    HW122634   0.255   4.679   8.978 -1.5137 -3.0137 -1.5798
 3724SOL    HW222635   0.288   4.706   8.838  1.7807 -0.5780  0.6382
 3725SOL     OW22636   2.041   1.465   4.520 -0.3690  0.1328 -0.3380
 3725SOL    HW122637   1.974   1.482   4.454 -0.9414  0.3506  0.2886
 3725SOL    HW222638   2.116   1.434   4.470  0.1961 -0.3413  0.8091
 3726SOL     OW22639   2.072   0.318  16.106 -0.0491 -0.2799 -0.1936
 3726SOL    HW122640   2.070   0.343  16.013 -1.4975  1.7915  0.3976
 3726SOL    HW222641   2.120   0.236  16.094 -0.6333 -0.4095 -1.6545
 3727SOL     OW22642   3.221   1.295   2.862 -0.8656  0.1890  0.4977
 3727SOL    HW122643   3.297   1.274   2.915 -2.1130 -2.4307  1.2457
 3727SOL    HW222644   3.186   1.210   2.834  1.1888 -0.3474 -0.4692
 3728SOL     OW22645   4.025   1.652  15.305  0.4160 -0.2386  0.8144
 3728SOL    HW122646   3.972   1.587  15.259 -0.3714  1.0563 -0.1163
 3728SOL    HW222647   4.110   1.614  15.284  1.0265  1.6811 -0.2283
 3729SOL     OW22648   0.724   3.698   4.174  0.2078 -0.0152 -0.4456
 3729SOL    HW122649   0.788   3.725   4.108 -0.2006 -0.1772 -0.9120
 3729SOL    HW222650   0.647   3.746   4.143  0.7297 -0.4761 -2.4270
 3730SOL     OW22651   4.407   1.087   6.094 -0.9666 -0.2358 -0.4129
 3730SOL    HW122652   4.415   1.075   6.000 -2.1709  0.9251 -0.6593
 3730SOL    HW222653   4.471   1.024   6.127  0.8210  0.5329 -2.4257
 3731SOL     OW22654   3.971   2.054  17.212  0.0935  0.3745 -0.5899
 3731SOL    HW122655   3.878   2.045  17.192 -0.2216 -0.3896  1.1877
 3731SOL    HW222656   3.989   1.988  17.279 -1.0585 -0.1395 -0.7944
 3732SOL     OW22657   3.132   2.936   5.153 -0.1676 -0.2954 -0.2493
 3732SOL    HW122658   3.050   2.986   5.154  0.9602  1.5225  1.4097
 3732SOL    HW222659   3.107   2.853   5.193 -3.6697  0.5457 -0.6909
 3733SOL     OW22660   2.308   2.592   4.249 -0.6387  0.1729  0.1353
 3733SOL    HW122661   2.276   2.622   4.164 -2.0996  0.6221  0.8428
 3733SOL    HW222662   2.304   2.498   4.231  1.1686  0.0727  0.2777
 3734SOL     OW22663   4.437   0.909   6.611 -0.0217 -0.7032  0.2113
 3734SOL    HW122664   4.439   0.957   6.694 -1.5967  0.4170 -0.3819
 3734SOL    HW222665   4.382   0.971   6.562  1.1215 -1.2749 -1.8134
 3735SOL     OW22666   0.665   3.855   4.510 -0.1003  0.1102  0.0483
 3735SOL    HW122667   0.576   3.887   4.493 -0.0980  0.6987  1.1392
 3735SOL    HW222668   0.717   3.930   4.482 -0.3915  0.6289  0.8946
 3736SOL     OW22669   2.829   1.472   4.437 -0.1315 -0.4225  0.6712
 3736SOL    HW122670   2.797   1.562   4.428  1.1490 -0.0785 -0.4756
 3736SOL    HW222671   2.783   1.426   4.367 -3.4021  0.5839  2.1558
 3737SOL     OW22672   3.048   2.188   9.320  0.0504  0.2936  0.1192
 3737SOL    HW122673   2.966   2.140   9.312  0.0120  1.0735 -4.1170
 3737SOL    HW222674   3.083   2.148   9.400 -0.3006 -0.2851 -0.0158
 3738SOL     OW22675   3.852   3.085   3.330  0.6543 -0.2145 -0.3706
 3738SOL    HW122676   3.763   3.115   3.350  0.1673 -2.6374  1.0501
 3738SOL    HW222677   3.875   3.125   3.246  1.7267 -0.7803 -0.3445
 3739SOL     OW22678   4.652   4.686  13.817  0.4706  0.1007 -0.5119
 3739SOL    HW122679   4.719   4.640  13.868 -0.5054  1.0448  1.6073
 3739SOL    HW222680   4.663   4.651  13.729 -1.3171  1.5548 -1.3083
 3740SOL     OW22681   4.690   0.535   4.520  0.1858 -0.3539 -0.4993
 3740SOL    HW122682   0.014   0.485   4.586  0.5621 -0.8479 -1.1417
 3740SOL    HW222683   4.615   0.567   4.569  0.3728 -4.2165  2.2953
 3741SOL     OW22684   2.908   4.712   2.940 -0.5973 -0.1293  0.3970
 3741SOL    HW122685   2.918   4.622   2.909  0.4967 -0.3078  1.2999
 3741SOL    HW222686   2.829   0.011   2.892 -1.5430 -0.3041  1.8844
 3742SOL     OW22687   4.022   1.011  12.884  0.3201 -0.8283  0.3966
 3742SOL    HW122688   4.071   1.020  12.966  0.2857 -0.8455  0.4190
 3742SOL    HW222689   3.982   0.927  12.903 -2.1576  0.9728  3.1184
 3743SOL     OW22690   3.773   1.955   9.112 -0.7750  0.3319 -0.6094
 3743SOL    HW122691   3.722   1.927   9.189 -1.8028  0.4978 -1.2234
 3743SOL    HW222692   3.825   1.877   9.092  0.7712  0.8604  1.3007
 3744SOL     OW22693   0.212   3.896   2.108 -0.6711 -0.1321 -0.0627
 3744SOL    HW122694   0.239   3.827   2.168  0.1152 -0.0177 -0.2801
 3744SOL    HW222695   0.197   3.969   2.168  0.6172  0.9608 -1.0635
 3745SOL     OW22696   1.887   3.931   2.705  0.3694  0.6650 -0.9948
 3745SOL    HW122697   1.957   3.946   2.640  1.2512 -0.3863 -0.2930
 3745SOL    HW222698   1.801   3.939   2.664  0.2999  0.0849 -0.9535
 3746SOL     OW22699   1.128   1.061   2.994 -0.1368  0.2429  0.2885
 3746SOL    HW122700   1.209   1.062   2.943  0.3342 -3.5915  0.9647
 3746SOL    HW222701   1.161   1.039   3.081 -2.1892  0.2223  1.0623
 3747SOL     OW22702   2.618   3.043   7.676  0.5792  0.5599  0.1734
 3747SOL    HW122703   2.622   2.979   7.746  0.5368  1.3836  0.9267
 3747SOL    HW222704   2.538   3.018   7.630 -0.0488  1.2422  0.9031
 3748SOL     OW22705   4.426   0.027  16.879 -0.2833  0.0061 -0.2717
 3748SOL    HW122706   4.502   0.053  16.827  1.7183 -1.5674  1.8573
 3748SOL    HW222707   4.397   0.110  16.916 -1.8560 -0.7302  0.1625
 3749SOL     OW22708   0.959   2.631   6.504  0.1034  0.1255  0.2548
 3749SOL    HW122709   0.919   2.558   6.457 -2.4572  1.4122  0.4444
 3749SOL    HW222710   0.920   2.704   6.456 -0.9225 -2.0352 -2.1832
 3750SOL     OW22711   3.160   2.225   5.798 -0.2503  0.5561  0.6350
 3750SOL    HW122712   3.211   2.191   5.871 -1.1073  0.3489  1.1211
 3750SOL    HW222713   3.099   2.156   5.775 -0.3797  1.3450 -1.3997
 3751SOL     OW22714   4.267   3.131  13.220 -0.9243 -0.1144  0.3949
 3751SOL    HW122715   4.341   3.191  13.207 -0.7055 -0.5910 -0.5737
 3751SOL    HW222716   4.244   3.097  13.133 -0.8926  1.1661 -0.1279
 3752SOL     OW22717   4.249   4.425  10.452  0.2968 -0.6121 -0.9837
 3752SOL    HW122718   4.232   4.449  10.543  1.4977  2.9287 -1.6895
 3752SOL    HW222719   4.182   4.357  10.443 -2.2679  1.8270 -0.5533
 3753SOL     OW22720   3.546   1.838   6.987  0.3035  0.1571 -0.2830
 3753SOL    HW122721   3.506   1.840   6.900 -3.4433  2.7663  1.5198
 3753SOL    HW222722   3.470   1.810   7.037  1.0653  0.4080  1.0036
 3754SOL     OW22723   1.676   0.957  13.531 -0.3378 -0.1590  0.2795
 3754SOL    HW122724   1.720   0.873  13.518  1.0117  0.4609  0.8613
 3754SOL    HW222725   1.613   0.936  13.600 -0.5528 -2.7539 -0.6872
 3755SOL     OW22726   4.678   1.695  16.303 -0.3148  0.2080 -0.9272
 3755SOL    HW122727   0.014   1.621  16.306  1.2966  1.6324  1.1038
 3755SOL    HW222728   4.716   1.768  16.352 -1.9004  0.8985 -0.7140
 3756SOL     OW22729   2.301   1.775   9.607  0.0294 -0.2421  0.3244
 3756SOL    HW122730   2.264   1.856   9.642 -0.2389  0.2775 -1.1511
 3756SOL    HW222731   2.346   1.799   9.526 -0.4380 -1.4350 -0.2836
 3757SOL     OW22732   1.422   3.444   7.865  0.5636  0.0014 -0.5867
 3757SOL    HW122733   1.392   3.518   7.918  1.6692  0.2658 -0.3253
 3757SOL    HW222734   1.509   3.482   7.854  1.4468 -1.8717 -0.0529
 3758SOL     OW22735   2.852   0.150   9.337 -0.2758  0.4868 -0.3301
 3758SOL    HW122736   2.861   0.244   9.322 -0.1060  0.5863  0.4401
 3758SOL    HW222737   2.904   0.139   9.416 -0.9602  0.3621  0.1093
 3759SOL     OW22738   2.138   3.399  12.492  0.3513  0.2593  0.3467
 3759SOL    HW122739   2.158   3.379  12.401  1.5923  0.0812  0.6607
 3759SOL    HW222740   2.123   3.492  12.506  1.0749  0.4485 -0.1523
 3760SOL     OW22741   0.440   1.165   7.306 -0.4957  0.1455 -0.0727
 3760SOL    HW122742   0.524   1.171   7.262 -1.2682  1.9457 -1.3168
 3760SOL    HW222743   0.448   1.084   7.357 -1.3282  0.0969 -0.0186
 3761SOL     OW22744   1.745   2.952   4.044  0.2652  0.4313  0.0988
 3761SOL    HW122745   1.664   2.991   4.077  1.0411  2.0896  0.0415
 3761SOL    HW222746   1.798   2.952   4.123  0.1895 -0.1730  0.1483
 3762SOL     OW22747   0.337   0.042  12.709 -0.4916 -0.3409  0.1938
 3762SOL    HW122748   0.368   0.064  12.621  0.8130 -1.4731  0.3792
 3762SOL    HW222749   0.245   0.065  12.695 -0.0719  1.8105  1.0770
 3763SOL     OW22750   2.180   2.597  14.860 -0.1974  0.0166  0.7144
 3763SOL    HW122751   2.224   2.539  14.798  0.1148  1.8666 -0.7956
 3763SOL    HW222752   2.112   2.634  14.803  1.2563  0.8295 -0.4947
 3764SOL     OW22753   2.811   0.499   7.582  0.3664 -0.5923  0.2911
 3764SOL    HW122754   2.878   0.493   7.651 -0.0045  0.7451  0.7721
 3764SOL    HW222755   2.839   0.422   7.532  0.9109  1.6817 -2.9027
 3765SOL     OW22756   3.176   0.149   6.073 -0.2796 -0.2844 -0.1316
 3765SOL    HW122757   3.109   0.082   6.066 -0.1566 -0.4017 -0.1848
 3765SOL    HW222758   3.135   0.233   6.054 -0.4166 -0.5840 -1.1973
 3766SOL     OW22759   2.410   3.969   3.129 -0.0871  0.3240  0.0237
 3766SOL    HW122760   2.359   4.033   3.179  0.2061 -1.2301  2.3624
 3766SOL    HW222761   2.353   3.951   3.054 -0.3321  1.8679 -0.1528
 3767SOL     OW22762   2.664   3.913   9.074  0.3352  0.1863 -0.3599
 3767SOL    HW122763   2.578   3.877   9.095  0.0071  1.8365  1.1278
 3767SOL    HW222764   2.636   3.972   9.004  1.0278  1.3099  0.3019
 3768SOL     OW22765   2.813   2.447   5.406  0.2526  0.3055  0.7041
 3768SOL    HW122766   2.850   2.395   5.336 -1.1641 -1.1136  1.0184
 3768SOL    HW222767   2.890   2.495   5.436 -0.6619  2.1062  0.1620
 3769SOL     OW22768   1.595   1.719   2.631  0.2719 -0.4749  0.5770
 3769SOL    HW122769   1.547   1.677   2.560 -1.7831 -2.0564  2.8999
 3769SOL    HW222770   1.687   1.716   2.607  0.5948 -1.5477  1.9298
 3770SOL     OW22771   1.433   1.520   9.238 -0.5418  0.5619 -0.2614
 3770SOL    HW122772   1.430   1.437   9.191 -1.4903  0.2665  0.3177
 3770SOL    HW222773   1.506   1.568   9.198  0.1279  0.8099  1.2602
 3771SOL     OW22774   0.764   0.276   2.243  0.4588 -0.4841 -0.4026
 3771SOL    HW122775   0.688   0.335   2.240  0.5495 -0.2048  2.7877
 3771SOL    HW222776   0.796   0.277   2.333  0.3086 -1.1606 -0.3418
 3772SOL     OW22777   0.080   2.205   9.855  0.0800 -0.5767  0.3249
 3772SOL    HW122778   0.064   2.205   9.950  2.1432 -0.5334  0.6756
 3772SOL    HW222779   0.108   2.294   9.833  0.1873 -1.1433 -1.8196
 3773SOL     OW22780   3.259   4.061   9.931 -0.3049 -0.0792 -0.2262
 3773SOL    HW122781   3.230   4.110   9.855  1.8090  1.2511 -0.1651
 3773SOL    HW222782   3.353   4.075   9.922 -0.2307 -0.3571  0.0757
 3774SOL     OW22783   2.610   0.721   5.021  0.8326 -0.1477 -0.2238
 3774SOL    HW122784   2.645   0.683   5.102  2.2569  2.3433  0.3067
 3774SOL    HW222785   2.623   0.812   5.046 -1.4781  0.0140  0.3644
 3775SOL     OW22786   4.602   0.601   1.395  0.3018  0.4757  0.0676
 3775SOL    HW122787   4.589   0.507   1.407 -0.5976  0.6784  0.7024
 3775SOL    HW222788   4.636   0.614   1.484  4.0732  2.2566 -1.6360
 3776SOL     OW22789   2.992   1.626  16.549 -0.2597 -0.1703 -0.2964
 3776SOL    HW122790   3.014   1.696  16.487  1.4191 -0.6225 -0.2291
 3776SOL    HW222791   2.906   1.594  16.521 -0.4622 -0.1751  0.3459
 3777SOL     OW22792   4.596   2.370   1.647  0.2030  0.0141  0.0037
 3777SOL    HW122793   4.634   2.441   1.595  0.8132 -0.9387 -0.8525
 3777SOL    HW222794   4.577   2.311   1.574 -2.1406  1.5040 -0.5762
 3778SOL     OW22795   2.634   4.117   8.893  0.3326 -0.1626  0.9666
 3778SOL    HW122796   2.592   4.203   8.894  2.4133  0.8222  2.4541
 3778SOL    HW222797   2.570   4.072   8.838 -0.6997  0.5208  1.6037
 3779SOL     OW22798   3.966   0.607   6.321  0.1546 -0.3560 -0.2434
 3779SOL    HW122799   3.974   0.682   6.261  0.0237  0.7680  1.1328
 3779SOL    HW222800   3.932   0.546   6.256 -0.6446 -1.2410  1.0063
 3780SOL     OW22801   0.661   1.431   8.170  0.3028  0.3338 -1.1084
 3780SOL    HW122802   0.651   1.500   8.236  0.7438  1.5845 -2.3370
 3780SOL    HW222803   0.587   1.454   8.113  0.1494 -0.1398 -1.0945
 3781SOL     OW22804   0.314   1.336   8.157 -0.4609  0.5451 -0.1331
 3781SOL    HW122805   0.363   1.265   8.198  0.3538 -0.2525 -2.4674
 3781SOL    HW222806   0.252   1.292   8.099  0.6457  0.7534 -1.4747
 3782SOL     OW22807   0.302   0.527  11.825  0.0840 -0.1796 -0.0391
 3782SOL    HW122808   0.332   0.469  11.896  0.2908  1.3559  1.1197
 3782SOL    HW222809   0.343   0.491  11.746  1.5990 -0.0944  0.7041
 3783SOL     OW22810   4.192   4.659   2.784  0.1662 -0.1006 -0.0552
 3783SOL    HW122811   4.260   4.640   2.720  2.3493 -0.3258  2.3208
 3783SOL    HW222812   4.139   4.581   2.799  0.9610 -0.8587 -1.1971
 3784SOL     OW22813   0.677   0.762   8.970 -0.3702 -0.4465  0.1105
 3784SOL    HW122814   0.703   0.852   8.991 -1.1924 -0.4944  1.3019
 3784SOL    HW222815   0.759   0.721   8.942  0.4254  0.9084  0.4589
 3785SOL     OW22816   2.324   1.542  12.378 -0.0843 -0.2504  0.0852
 3785SOL    HW122817   2.267   1.571  12.449 -1.0354  0.5925 -1.0203
 3785SOL    HW222818   2.289   1.458  12.348 -0.4060  0.0378 -0.3560
 3786SOL     OW22819   2.296   3.952   6.711  0.0099  0.0496  0.7679
 3786SOL    HW122820   2.279   4.028   6.656  2.4460  1.1604  1.5664
 3786SOL    HW222821   2.272   3.995   6.792  3.5112 -0.6025  2.1373
 3787SOL     OW22822   4.013   4.344   4.024 -1.1295  0.4759 -0.1500
 3787SOL    HW122823   4.055   4.399   3.959  2.0582 -1.3723  0.3642
 3787SOL    HW222824   4.084   4.298   4.068 -2.6211 -1.0407  0.6945
 3788SOL     OW22825   3.575   3.135  17.699  0.4983  0.2448  0.0021
 3788SOL    HW122826   3.496   3.190  17.698  0.9400  0.8718  0.2851
 3788SOL    HW222827   3.537   3.052   0.026 -3.7316  1.6834 -1.3625
 3789SOL     OW22828   0.575   4.131   7.604 -0.4028 -0.5688  0.3766
 3789SOL    HW122829   0.669   4.127   7.616 -0.3448 -2.0480 -0.4706
 3789SOL    HW222830   0.557   4.171   7.689 -0.5890  0.6278 -0.2295
 3790SOL     OW22831   3.771   2.747   2.649 -0.4397  0.0189  0.4865
 3790SOL    HW122832   3.720   2.667   2.641  0.8721 -0.6141 -1.5331
 3790SOL    HW222833   3.796   2.748   2.742  1.2195 -2.1651  0.0533
 3791SOL     OW22834   1.541   2.991   9.600  0.5695  0.0726 -0.0858
 3791SOL    HW122835   1.608   2.956   9.659  0.7721 -1.4730 -1.2312
 3791SOL    HW222836   1.543   3.076   9.644 -0.5463  0.9726 -1.7530
 3792SOL     OW22837   0.106   2.299   5.986  0.0215  0.0747  0.5335
 3792SOL    HW122838   0.043   2.370   5.994 -0.2684 -0.0159 -0.8881
 3792SOL    HW222839   0.130   2.300   5.893  3.1063 -1.2677  1.3199
 3793SOL     OW22840   4.202   4.303  14.752  0.1097 -0.3112  0.3222
 3793SOL    HW122841   4.292   4.271  14.761  0.3097  0.3636  0.6904
 3793SOL    HW222842   4.167   4.237  14.692  1.5131 -0.8928  0.1423
 3794SOL     OW22843   1.296   3.984   0.456  0.4136 -0.2391 -0.9742
 3794SOL    HW122844   1.226   4.003   0.518  1.4305  2.4155 -0.6272
 3794SOL    HW222845   1.277   3.892   0.438  0.0717 -0.2833 -0.3979
 3795SOL     OW22846   0.817   1.370   4.796 -0.0543  0.9097  0.3369
 3795SOL    HW122847   0.767   1.301   4.840  0.6115  0.7647  0.8781
 3795SOL    HW222848   0.808   1.333   4.707  0.0327 -0.2379  0.7982
 3796SOL     OW22849   4.362   2.037   9.540  0.1513  0.1290 -0.0386
 3796SOL    HW122850   4.287   1.991   9.577  0.3178 -0.3337 -0.2841
 3796SOL    HW222851   4.430   2.024   9.607 -0.0399 -1.2240 -0.1131
 3797SOL     OW22852   1.929   0.054   0.851  0.7455  0.0544 -0.2086
 3797SOL    HW122853   1.883   0.005   0.919  1.3986  0.1643  0.3108
 3797SOL    HW222854   1.929   4.720   0.775  1.5612 -3.0040  2.1536
 3798SOL     OW22855   1.179   2.676  13.561 -0.0487  0.3942 -0.0214
 3798SOL    HW122856   1.200   2.770  13.568  3.9838 -0.4725 -0.5893
 3798SOL    HW222857   1.091   2.667  13.599  1.0908 -0.4329  2.3998
 3799SOL     OW22858   0.275   1.145   3.104  0.0883  0.3651 -0.2960
 3799SOL    HW122859   0.242   1.102   3.025 -1.3387 -1.5428  1.3231
 3799SOL    HW222860   0.365   1.168   3.080  0.5430 -0.1056  0.9442
 3800SOL     OW22861   3.811   3.114   1.239 -0.0746  0.2170  0.1566
 3800SOL    HW122862   3.832   3.086   1.329 -0.3662  2.3784  0.9098
 3800SOL    HW222863   3.744   3.178   1.262 -0.1344  0.2654 -0.1605
 3801SOL     OW22864   0.752   2.261   8.523  1.0151 -0.0335 -0.3715
 3801SOL    HW122865   0.754   2.334   8.461  1.2697  0.0822 -0.2276
 3801SOL    HW222866   0.833   2.282   8.570  0.3934 -0.0829  0.7377
 3802SOL     OW22867   0.213   0.359  11.456 -0.0204 -0.0366 -1.3131
 3802SOL    HW122868   0.238   0.280  11.503 -0.9477 -0.0565 -0.8677
 3802SOL    HW222869   0.161   0.410  11.518  1.0245  0.8209 -1.1262
 3803SOL     OW22870   4.287   0.838   8.916 -0.2965  0.1638  0.5750
 3803SOL    HW122871   4.277   0.934   8.914 -0.0603  0.1897  0.6065
 3803SOL    HW222872   4.310   0.837   9.009 -0.7393  0.5917  0.6901
 3804SOL     OW22873   3.312   3.446  14.649 -0.6852 -0.0327 -0.2788
 3804SOL    HW122874   3.345   3.518  14.595  1.5769  0.0671  1.2484
 3804SOL    HW222875   3.220   3.467  14.635 -0.2014  2.0530 -0.4582
 3805SOL     OW22876   2.441   1.537   7.375  0.2556  0.1487 -0.1773
 3805SOL    HW122877   2.348   1.559   7.385  0.7601  2.3231 -0.2496
 3805SOL    HW222878   2.457   1.458   7.426 -0.4050  0.3855  0.3910
 3806SOL     OW22879   0.896   3.409  15.466  0.2892  0.5239 -0.1669
 3806SOL    HW122880   0.895   3.482  15.403 -1.2858  1.3325  0.8185
 3806SOL    HW222881   0.987   3.414  15.496 -0.1319 -1.3910  1.4257
 3807SOL     OW22882   3.449   4.261  15.631 -1.1258  0.9220  0.5437
 3807SOL    HW122883   3.465   4.249  15.724 -0.7221 -2.1038  0.0756
 3807SOL    HW222884   3.419   4.176  15.600 -2.0298  0.7248  1.9577
 3808SOL     OW22885   1.118   4.440   4.608 -0.0460 -0.1195  0.2011
 3808SOL    HW122886   1.054   4.424   4.538  0.8809 -1.0086 -0.4624
 3808SOL    HW222887   1.070   4.503   4.660  2.6523  1.0045  1.3227
 3809SOL     OW22888   2.855   4.170   4.582 -0.2848  0.0100 -0.1419
 3809SOL    HW122889   2.851   4.241   4.518 -0.3060  1.4453  1.4465
 3809SOL    HW222890   2.797   4.103   4.548 -0.3252 -0.7909  1.4985
 3810SOL     OW22891   2.596   0.286   9.033  0.2411  0.0492 -0.0651
 3810SOL    HW122892   2.556   0.348   9.094  0.2361 -1.5469  1.5455
 3810SOL    HW222893   2.529   0.278   8.966  1.1505 -1.1822 -0.8160
 3811SOL     OW22894   3.976   4.290  17.019  0.1516 -0.6368 -0.0824
 3811SOL    HW122895   4.032   4.258  16.949  0.8809 -1.2271  0.7811
 3811SOL    HW222896   4.036   4.284  17.092  0.7552 -0.4622 -0.5652
 3812SOL     OW22897   1.674   3.451   4.372  0.1240 -0.1628  0.3419
 3812SOL    HW122898   1.618   3.398   4.428  4.4780 -1.8081  3.0832
 3812SOL    HW222899   1.649   3.413   4.288  2.7345  1.3968 -1.1628
 3813SOL     OW22900   0.329   1.268  13.826 -0.0353 -0.6580  0.1583
 3813SOL    HW122901   0.334   1.219  13.908  0.7010  0.1182  0.5834
 3813SOL    HW222902   0.381   1.346  13.848  0.2536 -1.3710  2.0026
 3814SOL     OW22903   0.569   1.279   5.017 -0.0852  0.1684 -0.0722
 3814SOL    HW122904   0.519   1.339   4.961 -0.3446  1.1828  1.2474
 3814SOL    HW222905   0.514   1.265   5.094 -1.0906  0.6089 -0.7128
 3815SOL     OW22906   4.097   0.666  12.558 -0.0468  0.2972 -0.0914
 3815SOL    HW122907   4.003   0.683  12.561 -0.3414 -0.7816 -4.0612
 3815SOL    HW222908   4.108   0.665  12.463  1.0821 -0.5735  0.0401
 3816SOL     OW22909   3.049   1.294   5.371 -0.0423  0.4570 -1.0987
 3816SOL    HW122910   3.130   1.248   5.349  0.5514  0.0304  1.8752
 3816SOL    HW222911   2.989   1.269   5.301 -0.8864 -1.0553  0.1724
 3817SOL     OW22912   0.597   1.483   6.471  1.0679 -0.2077  0.7282
 3817SOL    HW122913   0.592   1.392   6.445  0.9357  0.0731 -0.2376
 3817SOL    HW222914   0.519   1.496   6.525 -0.0440  0.9650 -1.1368
 3818SOL     OW22915   2.671   1.840   8.551  0.3322  0.0423  0.1501
 3818SOL    HW122916   2.726   1.775   8.507 -0.8189  0.9754 -2.6374
 3818SOL    HW222917   2.725   1.869   8.624  1.3377  3.1961 -1.8911
 3819SOL     OW22918   2.203   3.709   6.676  0.1699  0.4602 -0.1443
 3819SOL    HW122919   2.221   3.665   6.760  1.5714  0.8712 -0.2384
 3819SOL    HW222920   2.254   3.789   6.680  0.9305  0.0005 -0.8942
 3820SOL     OW22921   3.970   2.780   2.958  0.9840 -0.5787 -0.0071
 3820SOL    HW122922   3.989   2.707   2.899  1.0332 -0.4167 -0.1923
 3820SOL    HW222923   3.879   2.757   2.979 -0.2355  2.9659 -1.4191
 3821SOL     OW22924   0.785   2.829   6.377 -0.0377  0.3066  0.7551
 3821SOL    HW122925   0.738   2.898   6.331 -0.2816 -1.0493 -1.0452
 3821SOL    HW222926   0.853   2.883   6.417  0.5234  1.1359 -1.3437
 3822SOL     OW22927   2.362   2.490  11.307 -0.6427 -0.4666  0.2095
 3822SOL    HW122928   2.383   2.553  11.376 -3.4474 -0.7671  1.3358
 3822SOL    HW222929   2.300   2.536  11.250  0.5298 -0.5810 -1.1551
 3823SOL     OW22930   2.814   3.461   8.798 -0.9843  0.3859 -0.2938
 3823SOL    HW122931   2.746   3.395   8.792  0.4758 -1.0854 -0.6085
 3823SOL    HW222932   2.786   3.514   8.872  0.6233  1.9544 -0.8011
 3824SOL     OW22933   3.296   2.252   8.944 -0.4306  0.1886  0.4397
 3824SOL    HW122934   3.337   2.213   9.022  1.0408  1.9625  0.5598
 3824SOL    HW222935   3.232   2.304   8.992  1.4057  1.6299  1.3352
 3825SOL     OW22936   1.314   0.035   4.338 -0.2292 -0.1707 -0.4172
 3825SOL    HW122937   1.383   4.695   4.329  0.3480  0.5723 -1.4525
 3825SOL    HW222938   1.264   0.028   4.257  0.1503 -0.9275 -0.5828
 3826SOL     OW22939   2.218   4.552   2.447  0.1258 -0.0115 -0.2592
 3826SOL    HW122940   2.241   4.622   2.385 -0.1656  0.8287  0.5721
 3826SOL    HW222941   2.300   4.513   2.475  0.9754  0.9878 -1.3280
 3827SOL     OW22942   3.162   3.213   6.533  0.2086 -0.0569 -0.0307
 3827SOL    HW122943   3.143   3.280   6.467  1.4605 -0.0643 -0.3963
 3827SOL    HW222944   3.150   3.131   6.486  1.2062 -1.1878  1.6569
 3828SOL     OW22945   3.838   1.941   7.481 -0.5477  0.6314  0.4822
 3828SOL    HW122946   3.904   1.975   7.540  0.6036  1.7262 -1.4505
 3828SOL    HW222947   3.890   1.909   7.407  0.8080  2.9648  0.4288
 3829SOL     OW22948   0.750   2.870  16.960  0.1016 -0.0219 -0.0412
 3829SOL    HW122949   0.778   2.961  16.965 -0.4395  0.1476 -0.0664
 3829SOL    HW222950   0.662   2.880  16.922  1.8932  3.1781 -3.2605
 3830SOL     OW22951   4.285   0.559  13.361  0.0502 -0.1993  0.1400
 3830SOL    HW122952   4.328   0.634  13.401  1.2678 -0.4562 -0.6705
 3830SOL    HW222953   4.207   0.599  13.323  0.3176  0.1969  0.0084
 3831SOL     OW22954   0.604   4.034  15.769  0.3355  0.0536  0.0533
 3831SOL    HW122955   0.556   4.058  15.689  0.5172  0.1076 -0.0381
 3831SOL    HW222956   0.640   3.948  15.748  0.3769 -0.6902  3.3079
 3832SOL     OW22957   2.309   0.349   3.510 -0.8167 -0.1589  0.5503
 3832SOL    HW122958   2.268   0.436   3.505 -0.5361  0.1311  3.0346
 3832SOL    HW222959   2.263   0.288   3.454 -2.5363  0.5829  1.1580
 3833SOL     OW22960   1.111   1.435   8.855  0.4324 -0.4213  0.1013
 3833SOL    HW122961   1.066   1.366   8.905 -2.2731  0.4696 -1.0836
 3833SOL    HW222962   1.046   1.505   8.872 -0.2193 -0.9573 -0.1914
 3834SOL     OW22963   1.495   2.710   8.931  0.3739 -0.4096 -0.4750
 3834SOL    HW122964   1.419   2.710   8.872  0.6210 -0.0905 -0.7954
 3834SOL    HW222965   1.516   2.617   8.939  0.8903 -0.0865  1.7492
 3835SOL     OW22966   1.028   0.193   3.506 -0.1526 -0.0685  0.4787
 3835SOL    HW122967   0.997   0.281   3.529 -1.1630 -0.4970  0.7773
 3835SOL    HW222968   0.943   0.154   3.486  0.6514 -1.5582 -0.0239
 3836SOL     OW22969   3.313   2.386   6.900  0.0476  0.5295 -0.4349
 3836SOL    HW122970   3.332   2.337   6.980 -1.1032 -2.1902 -1.8460
 3836SOL    HW222971   3.356   2.333   6.834 -1.7914  0.3931 -1.5134
 3837SOL     OW22972   2.502   0.136  11.119  0.6749 -0.2243 -0.3401
 3837SOL    HW122973   2.414   0.172  11.107 -0.1745 -1.9055  0.7715
 3837SOL    HW222974   2.552   0.181  11.051  0.5097 -0.0977 -0.3783
 3838SOL     OW22975   2.192   3.366   6.707 -0.3014 -0.0235 -0.1168
 3838SOL    HW122976   2.199   3.291   6.766 -1.3319  0.0203  0.0664
 3838SOL    HW222977   2.221   3.439   6.762 -0.2893  0.0557 -0.2291
 3839SOL     OW22978   2.347   0.379   6.669  0.1397  0.9345  0.2157
 3839SOL    HW122979   2.264   0.427   6.671 -0.4766 -0.2178  3.0685
 3839SOL    HW222980   2.408   0.452   6.655 -2.3013  2.6208 -1.6195
 3840SOL     OW22981   0.876   0.344   2.775 -0.1476  0.2754 -0.3218
 3840SOL    HW122982   0.820   0.269   2.794  0.7075 -0.1730  0.4452
 3840SOL    HW222983   0.892   0.386   2.860  0.4118  3.0541 -1.8043
 3841SOL     OW22984   3.451   0.671   9.822 -0.2165 -0.1271  0.1705
 3841SOL    HW122985   3.520   0.676   9.888 -0.8213 -2.6512  0.9932
 3841SOL    HW222986   3.392   0.602   9.852  0.4194 -2.3353 -3.6164
 3842SOL     OW22987   1.979   4.114   2.517 -0.1853  0.0799  0.1244
 3842SOL    HW122988   1.976   4.208   2.529  0.0000 -0.1046  1.5677
 3842SOL    HW222989   1.972   4.117   2.422 -0.2856  1.6057  0.1833
 3843SOL     OW22990   4.239   2.943   4.685  0.1630  0.2239  0.0236
 3843SOL    HW122991   4.322   2.982   4.657  0.0664 -0.6752 -1.5108
 3843SOL    HW222992   4.236   2.944   4.781 -2.0037  2.1250 -0.0627
 3844SOL     OW22993   1.703   1.059   8.947 -0.4906  0.9170  0.1715
 3844SOL    HW122994   1.708   1.115   9.024  2.0307  0.1045  0.5873
 3844SOL    HW222995   1.738   0.974   8.973  0.9897  0.9836 -1.6307
 3845SOL     OW22996   0.128   4.207   8.091 -0.4614  0.5978  0.2469
 3845SOL    HW122997   0.181   4.257   8.029 -1.8567  0.2199 -1.2586
 3845SOL    HW222998   0.175   4.124   8.092 -2.4159 -0.5470 -1.9924
 3846SOL     OW22999   2.710   0.554   2.306  0.3319 -0.1544 -0.5109
 3846SOL    HW123000   2.772   0.625   2.322 -1.7304  1.5827 -0.2016
 3846SOL    HW223001   2.639   0.604   2.266  1.2510  0.5686 -1.2184
 3847SOL     OW23002   4.149   1.409   5.768 -0.0399 -0.5310 -0.5950
 3847SOL    HW123003   4.211   1.447   5.830  0.3030  2.2694 -2.6679
 3847SOL    HW223004   4.125   1.329   5.815  0.9475  0.9001  2.3485
 3848SOL     OW23005   1.576   0.480   4.868 -0.4155  0.0848  0.3679
 3848SOL    HW123006   1.534   0.421   4.930 -0.3907 -1.2508 -0.9066
 3848SOL    HW223007   1.584   0.561   4.919 -0.7061 -0.7495  1.7088
 3849SOL     OW23008   1.664   3.643   5.700  0.1581  1.0461  0.0141
 3849SOL    HW123009   1.585   3.689   5.673  0.5759  1.4709 -0.4827
 3849SOL    HW223010   1.730   3.695   5.654  1.4234  0.2901  0.9581
 3850SOL     OW23011   0.318   0.488  14.715 -0.1903  0.3340  0.2378
 3850SOL    HW123012   0.388   0.518  14.657 -0.6746  0.5017 -0.2544
 3850SOL    HW223013   0.364   0.422  14.767 -1.2117  1.5202  2.6476
 3851SOL     OW23014   0.119   3.843   6.006  0.9032  0.4606 -0.0163
 3851SOL    HW123015   0.041   3.840   6.061  0.2093  2.1363 -0.9136
 3851SOL    HW223016   0.179   3.780   6.045  0.5485  1.8263  2.6969
 3852SOL     OW23017   2.902   4.516   8.197  0.2935 -0.2400  0.1606
 3852SOL    HW123018   2.831   4.500   8.259 -0.8597 -0.2824 -1.1733
 3852SOL    HW223019   2.858   4.576   8.137 -0.0144  2.1174  2.8042
 3853SOL     OW23020   0.646   2.352   3.227  0.4118  0.5414 -0.1602
 3853SOL    HW123021   0.610   2.397   3.303 -0.1089 -3.0397  1.6891
 3853SOL    HW223022   0.729   2.323   3.266 -0.5617  1.1056  2.2858
 3854SOL     OW23023   0.384   1.376   9.087 -0.0384  0.2250 -0.3773
 3854SOL    HW123024   0.417   1.410   9.004 -0.2544  0.7522 -0.2500
 3854SOL    HW223025   0.326   1.305   9.060  1.3224 -1.1176  0.2405
 3855SOL     OW23026   3.187   0.857   7.716  0.3073  0.0830  0.1177
 3855SOL    HW123027   3.196   0.952   7.710  0.8879  0.0108 -0.1076
 3855SOL    HW223028   3.175   0.846   7.810 -1.4287 -0.3269 -0.1496
 3856SOL     OW23029   0.527   4.721   3.844  0.4032 -0.0725  0.0778
 3856SOL    HW123030   0.442   4.714   3.800 -1.0297  1.7222  2.5429
 3856SOL    HW223031   0.545   0.086   3.819  1.7990 -0.2043  0.6260
 3857SOL     OW23032   1.123   4.268  10.897 -0.6199 -0.1673 -0.5013
 3857SOL    HW123033   1.081   4.334  10.842 -1.8201 -0.6368 -0.1439
 3857SOL    HW223034   1.159   4.206  10.833 -1.5784 -0.2908 -0.9041
 3858SOL     OW23035   3.479   3.581   6.024 -0.1357  0.4794 -0.0503
 3858SOL    HW123036   3.571   3.584   5.998  0.1661 -0.8828  0.8657
 3858SOL    HW223037   3.468   3.613   6.113  1.6965  0.6946  0.0955
 3859SOL     OW23038   4.247   1.638   9.724  0.5121 -0.1499 -0.4468
 3859SOL    HW123039   4.188   1.687   9.667  0.2843 -0.1730 -0.2266
 3859SOL    HW223040   4.239   1.556   9.676  0.1879  0.4637 -1.4524
 3860SOL     OW23041   2.751   3.391  17.125  0.1265 -0.2383  0.3745
 3860SOL    HW123042   2.707   3.353  17.201 -1.2750 -0.2956 -0.4722
 3860SOL    HW223043   2.733   3.485  17.126 -2.0800 -0.6557 -1.1994
 3861SOL     OW23044   3.143   0.132   0.605  0.2498  0.4166 -0.2929
 3861SOL    HW123045   3.159   0.224   0.627 -0.9464  0.6244 -0.2855
 3861SOL    HW223046   3.115   0.135   0.514 -0.3733  1.1078 -0.0799
 3862SOL     OW23047   2.380   0.556  10.686 -0.0015 -0.1199  0.0009
 3862SOL    HW123048   2.344   0.603  10.612  1.0030  1.3413  0.4314
 3862SOL    HW223049   2.333   0.595  10.760  0.3303  1.2152 -0.4957
 3863SOL     OW23050   3.121   3.457   2.637 -0.5557 -0.6870 -0.0369
 3863SOL    HW123051   3.076   3.469   2.554  0.9858 -0.6948 -0.8619
 3863SOL    HW223052   3.186   3.392   2.611  1.6804  1.3593  0.5383
 3864SOL     OW23053   2.232   3.389  16.774 -0.4132 -0.3892  0.4143
 3864SOL    HW123054   2.218   3.392  16.679  0.3273  0.2785  0.3201
 3864SOL    HW223055   2.182   3.311  16.794 -0.4329 -0.2768  0.8043
 3865SOL     OW23056   3.754   1.308   0.037 -0.3704  0.2344 -0.0958
 3865SOL    HW123057   3.710   1.323   0.120 -1.3930 -0.6571 -0.4754
 3865SOL    HW223058   3.833   1.263   0.069 -0.4207  1.2225  1.4211
 3866SOL     OW23059   1.659   2.934   9.360 -0.0365 -0.5899  0.5364
 3866SOL    HW123060   1.748   2.965   9.376  0.5180 -1.6480 -0.5020
 3866SOL    HW223061   1.612   2.969   9.436 -1.8135 -0.2002 -0.7533
 3867SOL     OW23062   0.611   1.534   1.946 -0.1365 -0.1067  0.1774
 3867SOL    HW123063   0.593   1.441   1.961  0.3813 -0.2154  0.1286
 3867SOL    HW223064   0.532   1.570   1.905 -0.4692 -0.6221  0.3728
 3868SOL     OW23065   1.460   2.272   4.858 -0.0865  0.3637  0.3942
 3868SOL    HW123066   1.408   2.275   4.778  0.7475  1.9889 -0.0907
 3868SOL    HW223067   1.504   2.191   4.833 -1.0669 -0.1289  0.2997
 3869SOL     OW23068   4.055   1.647  13.437 -0.6744 -0.7478  0.3633
 3869SOL    HW123069   4.084   1.690  13.356 -2.5500 -0.0381  0.0689
 3869SOL    HW223070   4.085   1.557  13.425 -0.2269 -0.1283 -3.2865
 3870SOL     OW23071   3.444   1.599   9.909 -0.0093 -0.6413 -0.3961
 3870SOL    HW123072   3.495   1.624   9.986 -0.7140  0.0540 -0.1589
 3870SOL    HW223073   3.505   1.570   9.841  3.4878  2.2846  1.5332
 3871SOL     OW23074   4.051   2.960   0.076 -0.1827 -0.7520  0.8280
 3871SOL    HW123075   4.087   2.968  17.690  0.8157 -0.4128  1.2673
 3871SOL    HW223076   4.016   2.871   0.076  1.5083 -1.4226 -1.0914
 3872SOL     OW23077   2.938   4.140   3.003  0.1267 -0.4484  0.2587
 3872SOL    HW123078   2.880   4.198   2.954  1.6762 -1.0022 -2.2457
 3872SOL    HW223079   2.914   4.154   3.094 -1.1623 -0.1219 -0.1395
 3873SOL     OW23080   3.961   0.350  11.084  0.0753 -0.2097 -0.6580
 3873SOL    HW123081   4.007   0.283  11.033  2.5735  0.9297  0.1053
 3873SOL    HW223082   3.877   0.364  11.040 -2.2022 -2.8501  2.8595
 3874SOL     OW23083   0.786   3.841   7.205  0.9915 -0.6192  0.1945
 3874SOL    HW123084   0.748   3.797   7.280 -0.2849 -0.7189 -0.5138
 3874SOL    HW223085   0.871   3.882   7.221  0.5081 -0.5117  2.3974
 3875SOL     OW23086   2.922   4.662   7.073  0.5717 -0.1736 -0.4937
 3875SOL    HW123087   2.994   4.606   7.044 -1.2549 -1.4286 -2.6175
 3875SOL    HW223088   2.876   4.667   6.989 -0.0817  0.1910 -0.1127
 3876SOL     OW23089   0.966   0.304   5.088 -0.2551  0.3372 -0.1419
 3876SOL    HW123090   0.971   0.357   5.168  1.7379  1.0461 -0.7437
 3876SOL    HW223091   1.017   0.369   5.038  0.2224 -0.3437 -0.5313
 3877SOL     OW23092   4.073   2.464  15.495 -0.1039 -0.2637  0.1360
 3877SOL    HW123093   3.988   2.481  15.456 -0.5920  1.3084  1.8443
 3877SOL    HW223094   4.109   2.553  15.496  1.4633 -0.8679 -2.9218
 3878SOL     OW23095   4.035   4.111  16.287 -0.5887  0.3146  0.7134
 3878SOL    HW123096   3.993   4.196  16.277  0.1943  0.5738 -0.3276
 3878SOL    HW223097   4.094   4.116  16.212  0.1289  1.7327  1.3641
 3879SOL     OW23098   0.926   3.188  13.742 -0.0892  0.3584  0.3332
 3879SOL    HW123099   0.875   3.205  13.663  0.9304  1.8079 -0.0120
 3879SOL    HW223100   0.934   3.093  13.739 -1.6428  0.1689  1.7402
 3880SOL     OW23101   4.645   2.978  17.246  0.0354  0.4125 -0.3024
 3880SOL    HW123102   4.667   2.898  17.294 -2.2557  1.1580  2.0065
 3880SOL    HW223103   4.721   3.031  17.270 -0.0560  1.4474 -2.3330
 3881SOL     OW23104   2.481   0.726   2.479 -0.0667 -0.0638  0.2811
 3881SOL    HW123105   2.396   0.682   2.483 -0.3929  0.5377 -0.0856
 3881SOL    HW223106   2.495   0.705   2.387  0.1891  0.8803  0.1052
 3882SOL     OW23107   4.520   2.498   5.043  0.2528 -0.0737  0.1078
 3882SOL    HW123108   4.559   2.441   5.110 -0.8602 -0.1188  0.7145
 3882SOL    HW223109   4.461   2.554   5.093  0.0779 -0.3912  0.2599
 3883SOL     OW23110   2.008   1.296  13.148  0.0136  0.2287 -0.1388
 3883SOL    HW123111   2.060   1.255  13.218  2.1388 -1.5392 -2.7274
 3883SOL    HW223112   1.956   1.221  13.119  0.0553  0.2992 -0.3946
 3884SOL     OW23113   4.637   1.593   6.835  0.1405  0.0681 -0.0251
 3884SOL    HW123114   4.603   1.585   6.746  0.8358 -0.2901 -0.2519
 3884SOL    HW223115   4.566   1.646   6.871 -0.5022 -0.8053 -0.0005
 3885SOL     OW23116   3.809   3.669   2.949  0.6811  0.4834  0.4945
 3885SOL    HW123117   3.739   3.723   2.912 -1.2385 -1.5858  1.1048
 3885SOL    HW223118   3.840   3.633   2.866 -0.0763 -0.2396  0.5181
 3886SOL     OW23119   3.754   2.128   3.334  0.1504  0.2832  0.3848
 3886SOL    HW123120   3.835   2.089   3.301 -1.4570 -1.9283 -0.9728
 3886SOL    HW223121   3.771   2.190   3.405  1.7326 -0.6577  0.8214
 3887SOL     OW23122   0.185   3.999  17.120  0.0396  0.3347 -0.3008
 3887SOL    HW123123   0.125   4.044  17.060  1.3535  0.2152 -1.7135
 3887SOL    HW223124   0.124   3.928  17.141 -0.1169  0.5301 -0.0994
 3888SOL     OW23125   2.630   3.508   8.118 -0.6364  0.3599  0.3440
 3888SOL    HW123126   2.566   3.567   8.158 -0.3530  0.1804  1.0571
 3888SOL    HW223127   2.648   3.543   8.031 -0.9677  1.0637  0.5572
 3889SOL     OW23128   4.499   0.076   7.587  0.0805  0.0344  0.0402
 3889SOL    HW123129   4.581   0.117   7.616 -0.4505  1.6207 -0.6803
 3889SOL    HW223130   4.446   0.078   7.667  0.7761  0.9914  0.4736
 3890SOL     OW23131   2.394   3.766   4.575  0.0737 -0.0380 -0.2284
 3890SOL    HW123132   2.456   3.827   4.536 -0.2698 -1.1798 -2.5249
 3890SOL    HW223133   2.400   3.692   4.515 -1.1936 -1.1186  0.9561
 3891SOL     OW23134   0.151   2.460   9.806  0.5703  0.3382  0.3546
 3891SOL    HW123135   0.084   2.510   9.852 -1.0591 -0.5621 -1.0274
 3891SOL    HW223136   0.142   2.498   9.719 -0.8372 -2.0208 -0.5422
 3892SOL     OW23137   3.195   4.531  11.793 -0.3951  0.8554  0.1104
 3892SOL    HW123138   3.285   4.543  11.762  0.1803 -1.4566  0.8872
 3892SOL    HW223139   3.172   4.442  11.765 -0.2298  0.0255  2.6460
 3893SOL     OW23140   4.574   2.215  14.968 -0.1880  0.2905  0.5611
 3893SOL    HW123141   4.540   2.193  15.055 -0.5389 -0.3788  0.2608
 3893SOL    HW223142   4.647   2.154  14.962 -1.4257 -1.1754  0.3221
 3894SOL     OW23143   2.620   4.298   2.668 -0.5580 -0.4862  0.5459
 3894SOL    HW123144   2.610   4.248   2.749  0.5649 -0.1207  0.9152
 3894SOL    HW223145   2.595   4.386   2.699  2.2919  0.6491 -0.3796
 3895SOL     OW23146   3.600   1.220   5.086  0.0178  0.5823  0.1491
 3895SOL    HW123147   3.528   1.276   5.056 -1.5415 -0.8709  1.2063
 3895SOL    HW223148   3.612   1.259   5.172  0.9045  0.7128 -0.0287
 3896SOL     OW23149   4.539   2.643  16.393 -0.1900  0.2660  0.2334
 3896SOL    HW123150   4.592   2.626  16.471 -0.1255  0.5349  0.2468
 3896SOL    HW223151   4.526   2.550  16.372  0.1515 -0.5330  3.5238
 3897SOL     OW23152   2.869   0.196   7.174 -0.8964 -0.3595  0.1963
 3897SOL    HW123153   2.853   0.162   7.262  1.2902 -4.2919 -0.9057
 3897SOL    HW223154   2.890   0.113   7.131  1.8388 -0.2823  1.3581
 3898SOL     OW23155   3.276   3.223   7.293  1.0068  0.2480 -0.4254
 3898SOL    HW123156   3.240   3.304   7.329  2.5095  2.3164 -3.5393
 3898SOL    HW223157   3.228   3.149   7.330  0.1161  1.6011  1.1058
 3899SOL     OW23158   2.236   2.996   5.958 -0.2884 -0.5620 -0.3654
 3899SOL    HW123159   2.293   2.919   5.960  0.4790 -0.0591 -3.8971
 3899SOL    HW223160   2.284   3.051   6.020  3.5716 -1.9099 -2.1578
 3900SOL     OW23161   1.944   3.290   6.383  0.5126 -0.2333 -0.1198
 3900SOL    HW123162   1.913   3.208   6.345 -0.6267 -0.2052  0.7555
 3900SOL    HW223163   2.021   3.309   6.330  1.1165 -0.4843  0.6626
 3901SOL     OW23164   0.824   3.499   3.076  0.4645  0.2085 -0.6505
 3901SOL    HW123165   0.745   3.482   3.024  0.3461 -0.2045 -0.3388
 3901SOL    HW223166   0.884   3.522   3.005 -0.6285  3.2104 -0.6422
 3902SOL     OW23167   2.234   0.470  16.650  0.1534  0.5168  0.0168
 3902SOL    HW123168   2.257   0.387  16.610 -1.0265  0.5731 -0.7884
 3902SOL    HW223169   2.273   0.460  16.737 -0.0672 -1.5107 -0.1204
 3903SOL     OW23170   3.494   2.765   4.064  0.3723 -0.8011  0.4696
 3903SOL    HW123171   3.429   2.834   4.051  1.7122  0.4776  0.6158
 3903SOL    HW223172   3.541   2.801   4.139  2.6376 -0.7954 -0.9541
 3904SOL     OW23173   3.181   1.258   3.987  0.0152 -0.5716 -0.0379
 3904SOL    HW123174   3.251   1.282   3.927 -1.8113  0.2435 -1.8576
 3904SOL    HW223175   3.126   1.334   3.968 -1.5946 -2.0444 -1.3834
 3905SOL     OW23176   0.689   4.677  15.696  0.2810  0.3076  0.2726
 3905SOL    HW123177   0.729   4.623  15.764  1.0603  0.8312  0.2279
 3905SOL    HW223178   0.597   4.652  15.702  0.0570  1.1781  0.5509
 3906SOL     OW23179   4.257   2.228   2.747  0.6713 -0.0030 -0.0798
 3906SOL    HW123180   4.259   2.315   2.708 -0.2934  0.4075  0.7526
 3906SOL    HW223181   4.289   2.189   2.666  1.6661 -2.8028  1.6392
 3907SOL     OW23182   4.161   1.375   4.871  0.2659 -0.2118 -0.0593
 3907SOL    HW123183   4.237   1.404   4.923  0.8215 -1.7941  0.0013
 3907SOL    HW223184   4.172   1.281   4.864  0.7837 -0.1487 -0.1359
 3908SOL     OW23185   3.344   4.631   4.668  0.0069  0.0427 -0.5828
 3908SOL    HW123186   3.363   4.574   4.593  0.3318  0.8698 -1.1404
 3908SOL    HW223187   3.271   4.686   4.639 -0.5995 -0.3017  0.3129
 3909SOL     OW23188   2.529   2.987   5.809  0.2526  0.1909 -0.0824
 3909SOL    HW123189   2.530   2.899   5.845  0.9794 -0.1288 -0.8784
 3909SOL    HW223190   2.616   3.016   5.836  0.3396 -1.0662  0.9614
 3910SOL     OW23191   3.818   3.712   1.997  0.2352  0.0664 -0.0632
 3910SOL    HW123192   3.737   3.748   2.033 -0.7055  1.9015 -3.9904
 3910SOL    HW223193   3.877   3.787   2.008  1.7640 -1.3345  1.2778
 3911SOL     OW23194   4.702   2.792   0.978 -0.2216  0.1359  0.2688
 3911SOL    HW123195   0.060   2.785   1.024 -0.2068  0.7689  0.3322
 3911SOL    HW223196   4.689   2.697   0.982  0.6438 -0.0381 -0.8445
 3912SOL     OW23197   3.381   1.923   8.220  0.2290  0.4147  0.4118
 3912SOL    HW123198   3.443   1.944   8.290  1.5336  0.6559 -0.8421
 3912SOL    HW223199   3.353   2.011   8.196  0.5556  0.2030 -0.7457
 3913SOL     OW23200   1.531   2.192   3.650  0.4574  0.1375  0.4444
 3913SOL    HW123201   1.578   2.274   3.663  0.6625  0.1101 -0.1231
 3913SOL    HW223202   1.453   2.221   3.601 -0.7123 -1.0627  1.5875
 3914SOL     OW23203   2.757   3.685  16.516  0.8289 -0.2392  0.3926
 3914SOL    HW123204   2.758   3.659  16.424  2.7314 -2.0515  0.9379
 3914SOL    HW223205   2.806   3.610  16.551  2.0263  2.0939  3.7167
 3915SOL     OW23206   1.859   1.134  13.649 -0.3057 -0.5543 -0.7162
 3915SOL    HW123207   1.806   1.068  13.604 -2.3961  3.0921 -3.5546
 3915SOL    HW223208   1.824   1.212  13.606 -0.7502 -1.7447 -2.5390
 3916SOL     OW23209   2.747   2.083   4.671 -0.0195  0.5267 -0.3437
 3916SOL    HW123210   2.665   2.084   4.622  0.1092 -1.6340 -0.5927
 3916SOL    HW223211   2.718   2.149   4.734 -2.1688 -1.3848  0.6297
 3917SOL     OW23212   3.754   0.050   6.087  0.0764 -0.6465  0.0336
 3917SOL    HW123213   3.749   0.039   6.182 -3.0031  1.0417  0.0423
 3917SOL    HW223214   3.834   0.102   6.078 -0.2891  0.3782  2.8634
 3918SOL     OW23215   0.365   1.228   2.380  0.0811  0.4923 -0.4482
 3918SOL    HW123216   0.394   1.315   2.408 -0.4824  0.2046  0.9845
 3918SOL    HW223217   0.356   1.237   2.285  0.6853  0.7850 -0.4795
 3919SOL     OW23218   4.705   1.066  12.917  0.4089 -0.2409 -0.0418
 3919SOL    HW123219   0.000   0.980  12.953  1.0210  0.8701  2.3113
 3919SOL    HW223220   0.029   1.119  12.980 -0.3471  1.5547 -0.9697
 3920SOL     OW23221   2.068   4.286   9.773 -0.6416  0.0208  0.3362
 3920SOL    HW123222   2.125   4.300   9.697 -0.9694 -2.4195 -0.3683
 3920SOL    HW223223   2.025   4.209   9.736 -2.4757  2.2704 -2.2599
 3921SOL     OW23224   3.398   0.297   5.699  0.8275 -0.3071  0.1173
 3921SOL    HW123225   3.492   0.297   5.716  1.1451 -1.6461 -1.7023
 3921SOL    HW223226   3.391   0.334   5.611  2.0323  1.4412  0.7450
 3922SOL     OW23227   0.692   0.573   7.885  0.0761  0.3395  0.0268
 3922SOL    HW123228   0.615   0.625   7.860  0.5539  0.0843 -2.0005
 3922SOL    HW223229   0.764   0.635   7.873  0.4782 -0.0276  0.5696
 3923SOL     OW23230   0.702   4.179   1.539 -0.3999  0.2349 -0.0251
 3923SOL    HW123231   0.713   4.205   1.448 -2.1845 -0.8123 -0.5361
 3923SOL    HW223232   0.628   4.118   1.534 -0.1470 -0.1806  1.4084
 3924SOL     OW23233   2.635   3.545   6.432  0.2186  0.2020  0.3405
 3924SOL    HW123234   2.663   3.628   6.472  0.2190 -0.5747  1.9460
 3924SOL    HW223235   2.681   3.484   6.489 -2.8042 -0.5146  1.9840
 3925SOL     OW23236   2.653   0.114   7.706  0.4561 -0.1680  0.3549
 3925SOL    HW123237   2.589   0.132   7.637  1.5598  1.6804 -0.1859
 3925SOL    HW223238   2.598   0.077   7.775  0.1337  2.2017  1.3904
 3926SOL     OW23239   3.819   2.225   5.930  0.3130 -0.0629  0.1957
 3926SOL    HW123240   3.731   2.189   5.924  0.8661 -1.7765  2.3359
 3926SOL    HW223241   3.821   2.262   6.018 -0.5159  2.1044 -0.6885
 3927SOL     OW23242   0.444   4.302   5.316 -0.3948 -0.0153 -0.2428
 3927SOL    HW123243   0.453   4.207   5.325  0.9388  0.0685 -0.6102
 3927SOL    HW223244   0.354   4.323   5.340  0.1458  2.4154 -0.3869
 3928SOL     OW23245   0.839   3.142   8.122  0.1549  0.3370 -0.0242
 3928SOL    HW123246   0.884   3.146   8.037  2.7030 -2.7539  1.1980
 3928SOL    HW223247   0.845   3.050   8.148  0.3056  0.0238 -1.1405
 3929SOL     OW23248   4.432   3.262   2.501 -0.5908 -0.4267  0.4482
 3929SOL    HW123249   4.368   3.293   2.565 -0.9048 -0.3259  0.0893
 3929SOL    HW223250   4.383   3.255   2.419 -0.1118  0.7833  0.0639
 3930SOL     OW23251   0.971   3.277  13.074  0.2147  0.1649 -0.4736
 3930SOL    HW123252   0.883   3.242  13.087  0.3575  0.1735  0.5181
 3930SOL    HW223253   0.995   3.215  13.005  1.3776 -1.6671  1.6031
 3931SOL     OW23254   4.641   3.470   5.188  0.4882 -0.3804 -0.2528
 3931SOL    HW123255   4.619   3.383   5.220  0.2365 -0.8912 -1.8089
 3931SOL    HW223256   0.009   3.458   5.171  0.6256  0.4591 -0.0943
 3932SOL     OW23257   4.581   4.215   6.759  0.1178 -0.0254  0.5260
 3932SOL    HW123258   4.659   4.270   6.760 -0.8508  1.3222  1.2184
 3932SOL    HW223259   4.540   4.271   6.825  1.3189 -0.4647  1.6363
 3933SOL     OW23260   4.263   1.600  12.162  0.4325 -0.0718 -0.4029
 3933SOL    HW123261   4.291   1.561  12.244 -0.9726  1.3676  0.7618
 3933SOL    HW223262   4.315   1.550  12.099  0.7191 -0.5075  0.1857
 3934SOL     OW23263   4.464   2.354   7.845  0.0447 -0.0008 -0.3963
 3934SOL    HW123264   4.479   2.449   7.836 -0.0741  0.2343  1.7680
 3934SOL    HW223265   4.446   2.353   7.939 -0.4173 -0.3065 -0.4900
 3935SOL     OW23266   4.380   2.728  11.507  0.0607  0.0018  0.0895
 3935SOL    HW123267   4.434   2.799  11.473  1.7010  0.5473  3.8517
 3935SOL    HW223268   4.304   2.778  11.535 -0.7301 -1.5979  0.8340
 3936SOL     OW23269   0.555   1.840  15.460 -0.1127 -0.1718  0.0041
 3936SOL    HW123270   0.477   1.793  15.489  0.6264 -0.5442  1.4043
 3936SOL    HW223271   0.518   1.874  15.378 -0.6446  0.4156  0.4920
 3937SOL     OW23272   1.351   1.090   0.313 -0.0599 -0.2453  0.2031
 3937SOL    HW123273   1.350   0.996   0.296 -1.8053  0.3775 -3.2387
 3937SOL    HW223274   1.362   1.120   0.223  0.1848 -0.1115  0.2790
 3938SOL     OW23275   3.512   2.976  14.096 -0.0022 -0.1293  0.1502
 3938SOL    HW123276   3.509   3.024  14.179 -0.6922 -2.7092  1.6011
 3938SOL    HW223277   3.503   2.885  14.122 -1.4506  0.1689  0.6872
 3939SOL     OW23278   1.339   2.122   1.193  0.0422  0.3991 -0.4372
 3939SOL    HW123279   1.401   2.077   1.251 -1.3620 -0.3575  0.4738
 3939SOL    HW223280   1.380   2.207   1.183  0.9771  0.1547  1.3206
 3940SOL     OW23281   3.322   2.966   1.638  0.0662  0.0529  0.0074
 3940SOL    HW123282   3.290   2.912   1.566  2.3601 -1.1712 -0.0765
 3940SOL    HW223283   3.316   2.908   1.714  0.4824  1.2954  0.9958
 3941SOL     OW23284   2.852   4.161   4.993 -0.9111 -0.8089 -0.0083
 3941SOL    HW123285   2.880   4.190   5.079  2.1582  0.2789 -1.3642
 3941SOL    HW223286   2.852   4.066   5.005 -1.8885 -0.8280 -0.1563
 3942SOL     OW23287   3.848   2.629   6.043  0.0050 -0.6075 -0.1019
 3942SOL    HW123288   3.895   2.597   6.119 -0.6887 -1.8444 -0.2024
 3942SOL    HW223289   3.785   2.687   6.087  0.1641 -0.1976 -0.4105
 3943SOL     OW23290   3.358   4.290   1.912  0.0108  0.4647 -0.5248
 3943SOL    HW123291   3.444   4.250   1.898  0.2970  0.6559  0.6606
 3943SOL    HW223292   3.340   4.296   2.006 -2.1773  0.5140 -0.9407
 3944SOL     OW23293   2.566   3.752   2.709 -0.0760 -0.0909 -0.6550
 3944SOL    HW123294   2.504   3.732   2.638 -0.7578  0.5812 -0.2537
 3944SOL    HW223295   2.525   3.698   2.777  0.0610  2.1068  1.1678
 3945SOL     OW23296   2.163   0.174  14.825 -0.1526 -0.2058  0.0145
 3945SOL    HW123297   2.226   0.205  14.760  1.4790 -1.8923  0.7996
 3945SOL    HW223298   2.128   0.109  14.764  1.1504  2.5190 -3.6463
 3946SOL     OW23299   0.237   1.254   8.596  0.0012  0.1290 -0.3720
 3946SOL    HW123300   0.242   1.328   8.535  0.5368  1.3036  1.1173
 3946SOL    HW223301   0.150   1.215   8.587  1.0561 -2.6719  1.5236
 3947SOL     OW23302   2.225   0.830  14.406 -0.6547 -0.0836  0.2081
 3947SOL    HW123303   2.261   0.786  14.330  0.8412  0.1890  0.7628
 3947SOL    HW223304   2.143   0.857  14.364 -0.9173  0.0265  0.7782
 3948SOL     OW23305   4.600   4.720  16.040  0.3399  0.1361  0.9169
 3948SOL    HW123306   4.657   0.066  16.069  0.3224  0.2503  0.6719
 3948SOL    HW223307   4.584   0.028  15.952  0.8030  0.9532  1.1444
 3949SOL     OW23308   3.688   1.970   2.182 -0.2719 -0.0950 -0.1668
 3949SOL    HW123309   3.751   1.899   2.169 -0.6564 -0.7137  1.3534
 3949SOL    HW223310   3.745   2.041   2.154 -1.6596  0.7561 -0.8810
 3950SOL     OW23311   2.317   1.344   5.319 -0.5247 -0.0361  0.2347
 3950SOL    HW123312   2.268   1.335   5.237  1.8122  0.4133 -1.2158
 3950SOL    HW223313   2.377   1.414   5.293 -0.7391  0.5018  1.1690
 3951SOL     OW23314   3.592   0.150  12.886 -0.1524 -0.2905  0.4627
 3951SOL    HW123315   3.631   0.169  12.972 -1.0519  0.2056  0.7601
 3951SOL    HW223316   3.612   0.058  12.873 -0.5519 -0.5179  1.4224
 3952SOL     OW23317   1.263   0.446   5.477 -0.0382  0.7170  0.0615
 3952SOL    HW123318   1.341   0.403   5.442 -0.1589 -0.0979  0.7827
 3952SOL    HW223319   1.222   0.380   5.533 -0.7775 -0.5344 -1.9402
 3953SOL     OW23320   4.543   4.128   3.274  0.4085 -0.3347 -0.4023
 3953SOL    HW123321   4.616   4.103   3.217 -0.1460 -1.0015 -0.8214
 3953SOL    HW223322   4.508   4.043   3.301  0.3369  0.0107  0.6067
 3954SOL     OW23323   3.586   2.535   5.534 -0.2169 -0.2589  0.2809
 3954SOL    HW123324   3.591   2.628   5.557  1.4809 -0.0130 -1.1397
 3954SOL    HW223325   3.594   2.535   5.439  0.6469 -0.0962  0.3524
 3955SOL     OW23326   3.625   0.023   4.606 -0.2562  0.0249  0.0338
 3955SOL    HW123327   3.562   0.056   4.542 -0.9590  2.0699  1.7821
 3955SOL    HW223328   3.564   0.008   4.678  1.1701  1.4258  1.5308
 3956SOL     OW23329   3.932   2.289  15.202 -0.3428  0.0962 -0.2194
 3956SOL    HW123330   3.946   2.214  15.259  1.4669  1.8638  1.6275
 3956SOL    HW223331   3.877   2.243  15.138 -1.7063 -0.0002  1.0156
 3957SOL     OW23332   2.597   1.430  14.604  0.0623 -0.1059  0.1162
 3957SOL    HW123333   2.660   1.430  14.532 -0.6673 -1.8124 -0.5153
 3957SOL    HW223334   2.532   1.490  14.567 -0.1773 -0.3361  0.1696
 3958SOL     OW23335   0.205   1.349   7.639 -0.2040 -0.6951  0.5906
 3958SOL    HW123336   0.224   1.255   7.642  0.8522 -0.4351  1.9717
 3958SOL    HW223337   0.235   1.373   7.551  1.0068 -0.8230  0.9671
 3959SOL     OW23338   2.961   1.292  13.204 -0.4935 -0.3933 -0.5692
 3959SOL    HW123339   3.008   1.209  13.215  0.0686  0.1135  0.8113
 3959SOL    HW223340   2.893   1.292  13.271  0.2507  1.2996  0.1862
 3960SOL     OW23341   0.426   0.371  12.009  0.8560 -0.4504  0.3768
 3960SOL    HW123342   0.508   0.365  11.959  0.2675  1.0791 -0.7788
 3960SOL    HW223343   0.444   0.324  12.090  0.2242 -2.3071 -0.5573
 3961SOL     OW23344   0.506   2.956   4.449  0.0883 -0.1469  0.3476
 3961SOL    HW123345   0.473   3.035   4.407  0.6223 -0.0921  0.0360
 3961SOL    HW223346   0.435   2.892   4.444  0.6696 -0.7566 -0.1085
 3962SOL     OW23347   3.533   4.385   5.172 -0.3065 -0.4790 -0.3420
 3962SOL    HW123348   3.582   4.312   5.135 -0.1072 -1.1327  1.2007
 3962SOL    HW223349   3.525   4.450   5.103  0.2309  0.2919  0.3100
 3963SOL     OW23350   3.191   0.786   3.339 -0.1704  0.4928 -0.0468
 3963SOL    HW123351   3.265   0.845   3.344  0.0246  0.2186  0.2869
 3963SOL    HW223352   3.191   0.741   3.424  1.6163  1.9715  0.7285
 3964SOL     OW23353   1.806   2.797   2.162  0.6488 -0.0734 -0.1853
 3964SOL    HW123354   1.885   2.765   2.206  0.1821  0.2537  0.8874
 3964SOL    HW223355   1.830   2.799   2.070 -0.5322  0.8458 -0.4743
 3965SOL     OW23356   1.725   0.219   6.899 -0.0661 -0.3312 -0.2974
 3965SOL    HW123357   1.654   0.169   6.940 -0.0797  0.0553  0.1512
 3965SOL    HW223358   1.776   0.156   6.848  1.1003 -0.2953  0.8375
 3966SOL     OW23359   1.480   4.022   4.985 -0.5548  0.2219 -1.1401
 3966SOL    HW123360   1.550   4.032   5.050 -0.3443  0.2217 -1.3662
 3966SOL    HW223361   1.539   4.017   4.909 -1.9287  1.9105 -2.3021
 3967SOL     OW23362   0.301   3.584   0.091  0.1620 -0.3666  0.0954
 3967SOL    HW123363   0.222   3.636   0.099  2.2247  2.6889  0.6192
 3967SOL    HW223364   0.286   3.531   0.169 -0.4204  0.3895  0.5011
 3968SOL     OW23365   0.818   2.320   6.672  0.4179  0.6350 -0.2374
 3968SOL    HW123366   0.829   2.365   6.589  0.0590  0.3546 -0.4376
 3968SOL    HW223367   0.756   2.378   6.714 -1.7384 -2.4189  0.8320
 3969SOL     OW23368   3.987   0.253   3.288  0.1690  0.1884  0.0335
 3969SOL    HW123369   4.003   0.326   3.348 -3.1880 -0.7327  2.0516
 3969SOL    HW223370   4.029   0.284   3.208 -0.2181 -0.8809 -0.5761
 3970SOL     OW23371   3.217   0.266   9.367 -0.3079 -0.4724  0.4291
 3970SOL    HW123372   3.168   0.219   9.434  0.2601 -1.9293 -0.1891
 3970SOL    HW223373   3.240   0.189   9.314 -2.8044 -0.3042 -0.8925
 3971SOL     OW23374   4.464   2.082   7.679 -0.3802  0.1164 -0.7770
 3971SOL    HW123375   4.378   2.040   7.671 -0.7925  0.8068  0.0091
 3971SOL    HW223376   4.435   2.150   7.740  1.8475  0.7720 -0.4669
 3972SOL     OW23377   3.593   0.517   0.974 -0.5022  0.1081  0.0184
 3972SOL    HW123378   3.681   0.515   0.938 -0.8045 -0.9251 -0.6584
 3972SOL    HW223379   3.535   0.540   0.901  0.3601  2.4704  0.0903
 3973SOL     OW23380   3.340   2.193   5.992  0.2115  0.2496 -0.4128
 3973SOL    HW123381   3.432   2.178   5.971 -0.0050 -1.8508  0.1600
 3973SOL    HW223382   3.330   2.280   5.953 -0.1837  0.1948 -0.4351
 3974SOL     OW23383   2.436   1.724   7.020  0.3409 -0.1369  0.6463
 3974SOL    HW123384   2.469   1.801   6.973  0.9016 -2.5023 -2.7815
 3974SOL    HW223385   2.462   1.743   7.111  2.2156 -0.8902  0.2633
 3975SOL     OW23386   1.209   2.928  13.571 -0.2593 -0.4319  0.2009
 3975SOL    HW123387   1.277   2.974  13.521  0.1742  1.4992  2.5887
 3975SOL    HW223388   1.125   2.958  13.535  1.0038  0.7222 -1.8372
 3976SOL     OW23389   3.741   1.897  12.244 -0.0982 -0.3209  0.4260
 3976SOL    HW123390   3.760   1.923  12.154  0.8011  0.0791  0.7244
 3976SOL    HW223391   3.820   1.931  12.288  0.5004 -1.2931  0.1105
 3977SOL     OW23392   0.667   3.397   4.025  0.1910 -0.3578 -0.4177
 3977SOL    HW123393   0.648   3.306   4.049  0.8025 -0.4627 -0.3303
 3977SOL    HW223394   0.582   3.440   4.027  0.3902 -0.0315  1.5170
 3978SOL     OW23395   1.070   3.665  14.284 -0.4327 -0.0114  0.2319
 3978SOL    HW123396   1.082   3.701  14.197  0.6701 -3.7561 -1.1631
 3978SOL    HW223397   1.162   3.645  14.299 -0.6011 -0.5650  0.5543
 3979SOL     OW23398   3.267   2.244  11.341  0.3970  0.3391  0.5343
 3979SOL    HW123399   3.247   2.302  11.268 -0.1120 -0.2882  0.1767
 3979SOL    HW223400   3.193   2.183  11.342 -0.2173  1.0776 -1.1954
 3980SOL     OW23401   4.716   1.923   1.766  0.2818 -0.3450 -0.1849
 3980SOL    HW123402   4.622   1.932   1.776  0.4480 -1.4949  2.3830
 3980SOL    HW223403   0.008   1.854   1.830 -1.7923 -1.5612 -0.9606
 3981SOL     OW23404   1.354   1.686   9.437  0.0405  0.6853 -0.1834
 3981SOL    HW123405   1.378   1.630   9.363 -0.3558  1.1304 -0.6458
 3981SOL    HW223406   1.267   1.654   9.459 -0.3178  0.4065 -2.0047
 3982SOL     OW23407   0.839   2.331   7.707  0.2776  0.4367 -0.0603
 3982SOL    HW123408   0.765   2.286   7.746  2.4922 -2.5031  0.7095
 3982SOL    HW223409   0.827   2.425   7.722  1.3159  0.8469 -1.6929
 3983SOL     OW23410   0.936   3.136   4.005 -0.7093 -0.7045  0.6978
 3983SOL    HW123411   0.992   3.065   3.974 -0.5251 -0.0207 -0.5214
 3983SOL    HW223412   0.919   3.195   3.932  2.1004  0.6463  1.1178
 3984SOL     OW23413   2.768   1.136   4.108  0.3972  0.3722 -0.2567
 3984SOL    HW123414   2.853   1.118   4.149  1.1707 -0.4537 -2.1872
 3984SOL    HW223415   2.808   1.157   4.023 -0.4829  0.1285 -0.7312
 3985SOL     OW23416   2.146   2.900   0.150 -0.1075 -0.1893  0.2283
 3985SOL    HW123417   2.214   2.924   0.088 -1.1895 -0.3413 -1.0105
 3985SOL    HW223418   2.194   2.845   0.213 -1.6201 -1.9568 -0.1623
 3986SOL     OW23419   3.438   4.311   1.436 -0.1271 -0.3175 -0.6791
 3986SOL    HW123420   3.494   4.268   1.371 -0.2906  1.3702 -1.9244
 3986SOL    HW223421   3.350   4.281   1.413 -1.2297  1.3835  1.3100
 3987SOL     OW23422   2.557   4.609   7.037  0.1985  0.1377  0.7621
 3987SOL    HW123423   2.467   4.602   7.070 -0.0290  0.3897  0.2010
 3987SOL    HW223424   2.569   4.704   7.039  0.9651 -0.0099  2.9476
 3988SOL     OW23425   4.711   0.381   1.976  0.3167  0.0730 -0.1058
 3988SOL    HW123426   0.051   0.313   1.991 -0.2919 -0.5790 -0.3884
 3988SOL    HW223427   0.040   0.458   1.960  1.4848 -0.5443  0.8393
 3989SOL     OW23428   3.942   4.290   1.190 -0.8463 -0.4790 -0.0704
 3989SOL    HW123429   3.894   4.226   1.137 -0.7593  0.2052 -0.9658
 3989SOL    HW223430   4.023   4.244   1.214 -0.1685  0.8200  0.1000
 3990SOL     OW23431   1.108   2.324  10.431 -0.1546 -0.1163 -0.3021
 3990SOL    HW123432   1.127   2.399  10.486 -1.9942  2.1046 -2.6950
 3990SOL    HW223433   1.186   2.318  10.376  0.1989 -1.1538  0.3010
 3991SOL     OW23434   0.457   0.754   2.225  0.0735  0.2347 -0.3637
 3991SOL    HW123435   0.534   0.810   2.216 -1.4140  2.5190  0.9634
 3991SOL    HW223436   0.383   0.813   2.213  1.3573  1.1937 -3.5905
 3992SOL     OW23437   3.037   0.310   4.271  0.2887 -0.0930 -0.2981
 3992SOL    HW123438   3.003   0.384   4.220 -3.2102 -1.2429  0.3707
 3992SOL    HW223439   2.986   0.320   4.351 -2.4639 -1.2387 -1.9136
 3993SOL     OW23440   4.533   2.469   6.997 -0.0566 -0.2464 -0.0982
 3993SOL    HW123441   4.547   2.427   6.912 -1.1655  1.9521 -1.3801
 3993SOL    HW223442   4.519   2.561   6.974 -0.9833  0.5414  3.6323
 3994SOL     OW23443   2.203   0.837   8.043  0.3539 -0.4196  0.2711
 3994SOL    HW123444   2.231   0.761   8.093  0.8499  0.0669  0.7316
 3994SOL    HW223445   2.290   0.873   8.025 -1.0818  1.8656 -2.0981
 3995SOL     OW23446   2.671   1.566   6.996  0.7118 -0.1277 -0.3402
 3995SOL    HW123447   2.594   1.616   6.968 -0.6956 -2.9213 -1.4956
 3995SOL    HW223448   2.726   1.613   6.934 -0.7753  1.9654 -0.0519
 3996SOL     OW23449   1.718   3.916   6.123 -0.2443  0.8449 -0.7364
 3996SOL    HW123450   1.655   3.849   6.149 -0.9036  2.0226  0.6951
 3996SOL    HW223451   1.771   3.863   6.063  1.9862  0.3927  1.6164
 3997SOL     OW23452   2.696   1.301   5.721 -0.0103  0.3280 -0.0122
 3997SOL    HW123453   2.616   1.310   5.669  0.5190  0.5666 -0.7905
 3997SOL    HW223454   2.670   1.275   5.809  1.0744 -0.7791 -0.0196
 3998SOL     OW23455   2.869   0.178   1.927  0.6549 -0.0639 -0.4716
 3998SOL    HW123456   2.940   0.156   1.866  2.8417 -0.0580  2.0558
 3998SOL    HW223457   2.900   0.139   2.009 -1.7261 -0.2400  0.3364
 3999SOL     OW23458   3.411   0.544   1.685  0.3732  0.2334 -0.0267
 3999SOL    HW123459   3.426   0.452   1.664  1.2791  0.2636  0.5137
 3999SOL    HW223460   3.472   0.566   1.755  0.0490  0.4443  0.1933
 4000SOL     OW23461   3.998   4.275  15.789 -0.2168  0.5378  0.2003
 4000SOL    HW123462   4.033   4.309  15.706 -0.2045  1.4106  0.5701
 4000SOL    HW223463   3.907   4.304  15.788  0.1412  1.6738  2.2343
 4001SOL     OW23464   3.119   4.489   3.334 -0.3703  0.3546  0.1903
 4001SOL    HW123465   3.101   4.540   3.255  0.2177  0.4940  0.1498
 4001SOL    HW223466   3.044   4.513   3.389  0.3699 -2.1818  2.3399
 4002SOL     OW23467   2.369   0.704   4.165  0.2619 -0.0507  0.5359
 4002SOL    HW123468   2.296   0.754   4.127  0.4205 -1.4684 -1.6165
 4002SOL    HW223469   2.438   0.767   4.143  2.2883 -2.4634  0.0723
 4003SOL     OW23470   1.376   4.506   8.542  0.2644  0.0928 -0.2682
 4003SOL    HW123471   1.409   4.590   8.574  1.1798 -1.0598  1.8085
 4003SOL    HW223472   1.343   4.478   8.628 -0.1360 -1.9857 -1.0985
 4004SOL     OW23473   0.560   0.832   7.748  0.0727 -0.4139 -0.2897
 4004SOL    HW123474   0.638   0.795   7.706 -0.1474  0.1009 -1.1529
 4004SOL    HW223475   0.492   0.794   7.693 -1.4987  1.0304  0.6506
 4005SOL     OW23476   3.427   4.025   2.430  0.2699 -0.3373  0.3304
 4005SOL    HW123477   3.380   3.989   2.505 -0.3001 -1.5271 -0.5999
 4005SOL    HW223478   3.388   3.975   2.358 -0.2748 -1.3828  1.3499
 4006SOL     OW23479   3.719   0.970   3.585 -0.2229 -0.0147 -0.4480
 4006SOL    HW123480   3.704   1.028   3.659  0.3729  0.0562 -0.3819
 4006SOL    HW223481   3.679   1.023   3.516 -2.3636 -3.0380 -1.5682
 4007SOL     OW23482   4.543   4.697  13.026  0.2373  0.0163 -0.2771
 4007SOL    HW123483   4.526   0.065  13.041 -1.5662 -0.4358  0.5221
 4007SOL    HW223484   4.452   4.667  13.017  0.4658 -0.4609 -0.9263
 4008SOL     OW23485   4.475   4.358   0.486  0.0478 -0.2537  0.9838
 4008SOL    HW123486   4.535   4.367   0.412 -2.4326 -1.2230 -1.1231
 4008SOL    HW223487   4.468   4.262   0.490  1.0764 -0.3823 -0.3379
 4009SOL     OW23488   4.413   3.488   5.734 -0.1291 -0.4431  0.6695
 4009SOL    HW123489   4.476   3.460   5.801 -0.2981 -0.5955  0.7641
 4009SOL    HW223490   4.369   3.403   5.730  1.0500 -0.9825 -0.9930
 4010SOL     OW23491   0.792   0.320   6.739 -0.0181  0.3328  0.1435
 4010SOL    HW123492   0.726   0.326   6.670  0.1706 -0.1618 -0.0810
 4010SOL    HW223493   0.744   0.307   6.821 -1.3176  1.8682 -0.3722
 4011SOL     OW23494   2.519   2.029   3.497  0.4714 -0.0580  0.1572
 4011SOL    HW123495   2.441   2.001   3.544  0.7088 -1.1999 -0.1124
 4011SOL    HW223496   2.481   2.102   3.449  1.7111 -0.5725 -1.6139
 4012SOL     OW23497   3.001   1.090   4.210 -0.1077 -0.0132  0.0049
 4012SOL    HW123498   3.042   1.169   4.245 -0.8616  1.0168 -1.4570
 4012SOL    HW223499   3.065   1.029   4.247 -1.3197 -2.6003 -2.1274
 4013SOL     OW23500   1.425   1.890   3.449  0.2609 -0.5256  0.0317
 4013SOL    HW123501   1.364   1.921   3.382 -1.9556  0.0826  2.3396
 4013SOL    HW223502   1.402   1.952   3.518 -1.1169 -1.2266  0.2000
 4014SOL     OW23503   0.267   0.701  14.353 -0.1614  0.1557 -0.9011
 4014SOL    HW123504   0.200   0.652  14.402  0.7917  0.3090  0.5551
 4014SOL    HW223505   0.341   0.659  14.396 -0.9611  1.1568  1.4539
 4015SOL     OW23506   0.088   4.665  17.033 -0.1601 -0.4644 -0.5066
 4015SOL    HW123507   0.155   4.662  16.964  2.1439  1.1782  1.6798
 4015SOL    HW223508   0.060   0.030  17.015  1.6278  0.4030  1.0513
 4016SOL     OW23509   3.125   0.019   1.353 -0.3042 -0.4405  0.2654
 4016SOL    HW123510   3.163   4.658   1.367 -3.5357 -1.7879  0.6302
 4016SOL    HW223511   3.068   0.001   1.279 -0.2366 -0.3476  0.1909
 4017SOL     OW23512   2.323   1.441   6.376 -0.3410 -0.1006 -0.0751
 4017SOL    HW123513   2.232   1.415   6.359 -0.5123 -0.2290  1.0154
 4017SOL    HW223514   2.316   1.536   6.387 -1.0995 -0.0768 -0.8017
 4018SOL     OW23515   0.689   0.140   4.446  0.0134 -0.2220  0.5003
 4018SOL    HW123516   0.738   0.184   4.377 -0.9018 -0.8820 -0.5632
 4018SOL    HW223517   0.615   0.198   4.462  1.6238  1.6612  1.1655
 4019SOL     OW23518   3.299   4.501   2.915  0.0231 -0.1213 -0.1655
 4019SOL    HW123519   3.275   4.498   2.822  0.5244  0.4286 -0.3124
 4019SOL    HW223520   3.382   4.455   2.905  0.0424  0.5575 -3.1450
 4020SOL     OW23521   1.652   2.493   7.144  0.3921  0.2706  0.4177
 4020SOL    HW123522   1.660   2.451   7.230  2.6878 -0.4927 -0.1803
 4020SOL    HW223523   1.557   2.507   7.144  0.1578 -1.3126  0.2657
 4021SOL     OW23524   1.290   1.273   3.926 -0.5911  0.3391 -0.3358
 4021SOL    HW123525   1.234   1.336   3.882 -3.1248 -0.5784  1.6001
 4021SOL    HW223526   1.307   1.334   3.998 -0.7531  1.7636 -1.5030
 4022SOL     OW23527   4.309   2.108   3.730 -0.2182 -0.8614  0.2405
 4022SOL    HW123528   4.295   2.048   3.657 -1.7153  0.7071 -0.7390
 4022SOL    HW223529   4.254   2.059   3.791 -0.2899 -1.4663 -0.3073
 4023SOL     OW23530   3.668   4.299   7.075 -0.4380 -0.4563 -0.7404
 4023SOL    HW123531   3.617   4.240   7.019 -0.2985 -1.8569  0.6063
 4023SOL    HW223532   3.731   4.326   7.009  2.1426  0.1167  1.9639
 4024SOL     OW23533   3.484   0.652   5.441  0.1411 -0.0054 -1.0052
 4024SOL    HW123534   3.520   0.684   5.524 -0.2552  0.3071 -0.9560
 4024SOL    HW223535   3.565   0.654   5.390  1.0228 -3.6075  0.2739
 4025SOL     OW23536   0.578   3.472   5.323  0.2802  0.1687 -0.3353
 4025SOL    HW123537   0.562   3.498   5.232  0.0470  2.0810  0.2429
 4025SOL    HW223538   0.555   3.560   5.355  0.5668  0.1855 -0.1816
 4026SOL     OW23539   0.877   1.145   6.289 -0.2416 -0.1753 -0.3700
 4026SOL    HW123540   0.810   1.140   6.221 -0.5040  0.6927 -0.1734
 4026SOL    HW223541   0.957   1.160   6.239 -0.3177  0.5183 -0.2844
 4027SOL     OW23542   4.186   4.287   5.936  0.4489 -0.1088  0.3045
 4027SOL    HW123543   4.279   4.274   5.955 -0.0061  0.4672  2.8935
 4027SOL    HW223544   4.140   4.213   5.974  3.0252 -1.6246  0.4171
 4028SOL     OW23545   0.689   3.490   7.091  0.6012  0.2897 -0.1070
 4028SOL    HW123546   0.606   3.441   7.099  0.5832  0.4977  1.0193
 4028SOL    HW223547   0.664   3.552   7.023  0.3825  0.0042 -0.2901
 4029SOL     OW23548   3.913   3.163   3.082  0.0719  0.4448  0.8698
 4029SOL    HW123549   3.863   3.143   3.003 -0.5505  0.9242  1.1429
 4029SOL    HW223550   3.999   3.123   3.071  1.0234  3.3044 -1.9413
 4030SOL     OW23551   3.924   4.205   0.041 -0.0252  0.0616 -0.0566
 4030SOL    HW123552   3.973   4.204  17.660 -2.3865  0.2997 -1.4618
 4030SOL    HW223553   3.909   4.299   0.046  1.5724  0.3891 -1.2446
 4031SOL     OW23554   0.162   3.168  15.988  0.0822  0.5446 -0.4181
 4031SOL    HW123555   0.165   3.120  16.070 -1.2315  2.1286  0.5700
 4031SOL    HW223556   0.073   3.202  15.993  0.2949  1.3700 -2.0608
 4032SOL     OW23557   3.392   3.405   1.366 -0.3086  0.7606 -0.3153
 4032SOL    HW123558   3.448   3.456   1.307  0.0605 -0.2243 -0.8172
 4032SOL    HW223559   3.330   3.467   1.404  0.7517  0.8973  1.2065
 4033SOL     OW23560   0.369   4.016   5.669  0.1845  0.7204 -0.5813
 4033SOL    HW123561   0.413   4.089   5.627  0.6539  1.4487  1.2154
 4033SOL    HW223562   0.355   4.053   5.756 -1.0151 -0.6337 -0.1877
 4034SOL     OW23563   2.125   2.261  12.836 -0.2693  0.4118 -0.1047
 4034SOL    HW123564   2.046   2.248  12.784  0.3796 -0.9683 -0.7350
 4034SOL    HW223565   2.183   2.204  12.786 -0.6057 -1.8259  2.0627
 4035SOL     OW23566   0.610   1.958   6.931  0.2275  0.4266  0.0224
 4035SOL    HW123567   0.524   1.971   6.970 -0.1134  0.7045 -0.8197
 4035SOL    HW223568   0.621   1.863   6.928  0.5616  0.5462 -2.4859
 4036SOL     OW23569   3.693   4.189   4.535 -0.1991 -0.4786  0.6290
 4036SOL    HW123570   3.708   4.101   4.569 -1.2920 -1.3804 -1.2237
 4036SOL    HW223571   3.599   4.199   4.549 -0.0857 -2.4772  2.9427
 4037SOL     OW23572   1.311   0.604  14.829 -0.0013  0.4753 -0.6119
 4037SOL    HW123573   1.283   0.552  14.904  0.3657  3.0094  1.2630
 4037SOL    HW223574   1.238   0.661  14.805  0.6681  1.5704 -0.0423
 4038SOL     OW23575   0.683   4.093   3.819 -0.1391 -0.2263 -0.1766
 4038SOL    HW123576   0.680   4.149   3.741 -1.1678 -0.2493 -0.1561
 4038SOL    HW223577   0.625   4.023   3.790 -0.2373  1.3051 -3.7137
 4039SOL     OW23578   2.500   2.262   2.131 -0.2380  0.0335  0.4309
 4039SOL    HW123579   2.428   2.321   2.111  1.3983  0.8341 -3.1483
 4039SOL    HW223580   2.473   2.228   2.216  0.8879  2.1897  1.6625
 4040SOL     OW23581   2.930   3.145   1.992 -0.3753 -0.3217 -0.3518
 4040SOL    HW123582   2.842   3.145   2.030 -1.0213  0.2959 -1.8633
 4040SOL    HW223583   2.920   3.089   1.915 -0.4110 -0.7745 -0.0229
 4041SOL     OW23584   4.557   3.957   3.644 -0.7209 -0.3615 -0.1822
 4041SOL    HW123585   4.579   4.049   3.650 -2.8893  0.0990  0.7466
 4041SOL    HW223586   4.467   3.966   3.613 -0.9261 -1.8937 -0.0511
 4042SOL     OW23587   2.447   1.788  13.780  0.1617  0.6188 -0.0142
 4042SOL    HW123588   2.370   1.809  13.727  0.2311 -0.3737 -0.5015
 4042SOL    HW223589   2.500   1.865  13.758  0.5321  0.2488 -0.4302
 4043SOL     OW23590   1.548   4.569   1.192 -0.1560 -0.1321  0.0142
 4043SOL    HW123591   1.503   4.603   1.114 -0.6036 -0.5528  0.0892
 4043SOL    HW223592   1.485   4.513   1.237  0.8475 -1.6708 -0.5026
 4044SOL     OW23593   0.141   0.325  15.396  0.2738 -0.6567  0.3144
 4044SOL    HW123594   0.154   0.363  15.309  0.8858  1.3073  1.2700
 4044SOL    HW223595   0.047   0.346  15.398 -0.1420 -2.5123  0.3341
 4045SOL     OW23596   2.067   3.587  12.906  0.4383 -0.2190 -0.6193
 4045SOL    HW123597   1.987   3.616  12.862 -0.1891  1.0958  1.3853
 4045SOL    HW223598   2.077   3.498  12.872  0.4285 -1.0726  1.6265
 4046SOL     OW23599   2.622   4.719  12.674  0.1270  0.0028  0.8882
 4046SOL    HW123600   2.555   0.005  12.741 -1.1280  3.3886 -0.9182
 4046SOL    HW223601   2.684   4.657  12.711  0.6918  0.6038  0.9482
 4047SOL     OW23602   4.245   0.059   3.020 -0.3340 -0.0481  0.0750
 4047SOL    HW123603   4.321   0.116   3.010  1.5075 -2.6145 -0.3414
 4047SOL    HW223604   4.252   4.725   2.945 -0.4182  1.6911 -1.3309
 4048SOL     OW23605   4.212   3.859   8.726 -0.1953  0.7065  0.7958
 4048SOL    HW123606   4.157   3.885   8.800 -3.3467  0.7599 -1.6145
 4048SOL    HW223607   4.230   3.768   8.748 -0.7825  0.6302  0.9520
 4049SOL     OW23608   0.261   0.884  17.086  0.0841 -0.0561  0.6175
 4049SOL    HW123609   0.169   0.875  17.110 -0.3288 -1.0799 -1.3515
 4049SOL    HW223610   0.280   0.944  17.158 -1.5194  3.0710 -1.5209
 4050SOL     OW23611   0.086   1.199   7.307  0.6949  0.0700 -0.3025
 4050SOL    HW123612   4.716   1.212   7.304  0.2794 -3.0074 -0.4146
 4050SOL    HW223613   0.082   1.151   7.389 -3.5296 -1.2772 -1.3023
 4051SOL     OW23614   4.562   2.743   3.311 -0.7724  0.2177  0.2602
 4051SOL    HW123615   4.484   2.740   3.367 -0.3845  0.8180  0.8352
 4051SOL    HW223616   4.517   2.734   3.227  0.9116  0.9124 -0.7044
 4052SOL     OW23617   3.128   2.675   9.955 -0.1186 -0.1112  0.3244
 4052SOL    HW123618   3.045   2.647   9.993 -0.6349 -0.4286 -1.0334
 4052SOL    HW223619   3.110   2.769   9.950  0.5538  0.0059  0.0896
 4053SOL     OW23620   3.881   1.233   5.978 -0.5879  0.1148 -0.0332
 4053SOL    HW123621   3.976   1.243   5.977 -0.1585 -3.8010  2.0329
 4053SOL    HW223622   3.858   1.221   6.070 -0.5152  2.0670  0.2417
 4054SOL     OW23623   4.188   1.348  17.337  0.4213 -0.4111 -0.1541
 4054SOL    HW123624   4.268   1.320  17.294  1.1159  2.4312 -0.7318
 4054SOL    HW223625   4.186   1.305  17.422 -2.0546 -2.1307 -1.0713
 4055SOL     OW23626   2.729   2.767  12.344  0.2656 -0.0702  0.0487
 4055SOL    HW123627   2.794   2.760  12.414 -1.3868  0.4020  1.6630
 4055SOL    HW223628   2.747   2.857  12.317 -2.5291  0.4702 -0.0362
 4056SOL     OW23629   3.597   1.907   7.588  0.5413  0.6412  0.5427
 4056SOL    HW123630   3.623   1.930   7.677 -2.8580  0.7600  1.5233
 4056SOL    HW223631   3.683   1.918   7.547 -0.4020  0.3709 -1.4873
 4057SOL     OW23632   1.563   0.919   7.355 -0.4742  0.1569  0.6445
 4057SOL    HW123633   1.644   0.927   7.305 -1.7687 -0.6735 -1.6044
 4057SOL    HW223634   1.491   0.950   7.299 -0.7549 -0.0680  0.8791
 4058SOL     OW23635   1.582   0.882  14.532  0.0389 -0.0738 -0.1695
 4058SOL    HW123636   1.627   0.964  14.548  2.5585 -1.1854 -1.5742
 4058SOL    HW223637   1.659   0.827  14.548 -0.1698 -0.2687  0.1851
 4059SOL     OW23638   3.417   3.478   4.114  0.0115 -0.2675 -0.6284
 4059SOL    HW123639   3.489   3.531   4.148  0.5964 -0.4069 -1.6389
 4059SOL    HW223640   3.446   3.387   4.112 -1.8657 -0.8363 -1.6453
 4060SOL     OW23641   1.230   3.432  15.257 -0.4977 -0.1075  0.1185
 4060SOL    HW123642   1.311   3.433  15.308 -1.5140  0.0380  1.7531
 4060SOL    HW223643   1.153   3.440  15.314 -0.2604  0.2751  0.3881
 4061SOL     OW23644   1.806   0.246   7.508 -0.4014 -0.0865 -0.0310
 4061SOL    HW123645   1.819   0.298   7.428  2.3039 -0.4523  0.1809
 4061SOL    HW223646   1.713   0.226   7.504 -0.7606  0.8841  3.1247
 4062SOL     OW23647   2.452   1.787   7.555  0.0605  0.4439 -0.6000
 4062SOL    HW123648   2.495   1.724   7.497 -0.6995  1.8179 -2.6669
 4062SOL    HW223649   2.397   1.728   7.606 -0.3491  0.3761 -1.1304
 4063SOL     OW23650   1.960   3.051   3.113  0.1537 -0.5769  0.0653
 4063SOL    HW123651   1.944   3.119   3.178  0.3449 -0.6126  0.1506
 4063SOL    HW223652   2.049   3.064   3.079 -0.3444  1.2283 -0.5384
 4064SOL     OW23653   4.499   1.957   5.024 -0.1662  0.0591 -0.0149
 4064SOL    HW123654   4.454   1.967   5.108 -5.2772  0.8229 -2.8152
 4064SOL    HW223655   4.432   1.930   4.961  0.0403  1.2352 -0.7389
 4065SOL     OW23656   2.282   2.246   4.834 -0.0121  0.1281  0.3877
 4065SOL    HW123657   2.336   2.306   4.783 -1.2112 -1.6582 -3.0017
 4065SOL    HW223658   2.319   2.163   4.805  1.3629  0.1043  2.2192
 4066SOL     OW23659   2.570   1.563  15.975 -0.0303 -0.0435 -0.1075
 4066SOL    HW123660   2.510   1.623  16.019  0.2406 -0.6295  1.0738
 4066SOL    HW223661   2.595   1.610  15.896 -3.3405 -0.8026 -1.5895
 4067SOL     OW23662   2.946   2.592   6.523  0.3273  0.1210 -0.0876
 4067SOL    HW123663   2.918   2.521   6.464 -1.8421  0.1319  0.9676
 4067SOL    HW223664   2.873   2.605   6.583  0.1750  1.4629 -0.5723
 4068SOL     OW23665   0.516   0.758   5.040 -0.1711  0.6377  0.4004
 4068SOL    HW123666   0.579   0.777   4.971  0.3178 -1.4670  0.2624
 4068SOL    HW223667   0.536   0.824   5.106  0.2771 -0.6132  1.5173
 4069SOL     OW23668   3.402   0.664   7.784 -0.2036  0.1338  0.0709
 4069SOL    HW123669   3.342   0.596   7.815  0.3640 -1.5950 -2.6646
 4069SOL    HW223670   3.339   0.722   7.741  1.0338  1.7533  0.4681
 4070SOL     OW23671   2.708   3.852   4.844  0.1517 -0.0442  0.0200
 4070SOL    HW123672   2.694   3.837   4.938  1.1807 -1.0294  0.0147
 4070SOL    HW223673   2.803   3.855   4.832  0.1756 -1.3600 -0.1371
 4071SOL     OW23674   1.336   2.442   7.859 -0.4163  0.3163  0.2176
 4071SOL    HW123675   1.263   2.471   7.804 -1.0639 -1.9899 -0.1733
 4071SOL    HW223676   1.306   2.472   7.944  1.0144  2.0495  0.1002
 4072SOL     OW23677   3.046   1.172   4.749 -0.2216  0.5124 -0.1595
 4072SOL    HW123678   3.037   1.209   4.662  0.6533 -3.2542 -1.8658
 4072SOL    HW223679   3.019   1.081   4.735 -1.4638  0.5450  2.0296
 4073SOL     OW23680   2.846   4.590   6.807  0.3178  0.0787  0.2680
 4073SOL    HW123681   2.923   4.634   6.771 -0.9020  0.3902 -1.9799
 4073SOL    HW223682   2.869   4.498   6.802  1.0768  0.2464  0.7586
 4074SOL     OW23683   3.215   1.409  14.633  0.0198 -0.2324 -0.1740
 4074SOL    HW123684   3.301   1.450  14.637 -0.1562 -0.0476  1.6561
 4074SOL    HW223685   3.226   1.349  14.707 -1.4640 -1.5311 -0.9993
 4075SOL     OW23686   4.304   3.057   3.035  0.3490  0.1187 -0.2482
 4075SOL    HW123687   4.335   3.057   2.944  3.7740  1.2828  0.8931
 4075SOL    HW223688   4.391   3.057   3.075 -0.3499  0.3058  1.2404
 4076SOL     OW23689   3.352   2.848   6.706 -0.2806  0.6340 -0.3569
 4076SOL    HW123690   3.346   2.863   6.612 -0.0336 -1.0518 -0.6499
 4076SOL    HW223691   3.393   2.762   6.696  1.9498  1.5240  1.2678
 4077SOL     OW23692   0.224   4.148  13.466  0.2976 -0.1085  0.5578
 4077SOL    HW123693   0.190   4.216  13.524 -0.0503  0.8276 -0.7503
 4077SOL    HW223694   0.162   4.085  13.504 -0.8335  0.6015 -0.1036
 4078SOL     OW23695   0.536   3.074   2.452  0.5428  0.5595 -0.0976
 4078SOL    HW123696   0.515   2.986   2.420 -0.5280  0.9002 -0.3048
 4078SOL    HW223697   0.473   3.129   2.406 -1.9454 -1.4725  0.8756
 4079SOL     OW23698   0.582   0.029  13.077  0.4606  0.8584 -0.2788
 4079SOL    HW123699   0.637   4.676  13.072 -1.2363 -0.2974 -1.1130
 4079SOL    HW223700   0.562   0.030  13.170 -0.9174  1.6139 -0.5753
 4080SOL     OW23701   4.203   3.243  16.593  0.4501  0.2071  0.0614
 4080SOL    HW123702   4.181   3.182  16.523  0.4573 -0.8936  1.0131
 4080SOL    HW223703   4.115   3.279  16.606 -0.0417 -0.5294 -1.2725
 4081SOL     OW23704   3.894   0.009  10.844  0.4758 -0.2178  0.4195
 4081SOL    HW123705   3.803   0.017  10.815  0.9160  0.2496 -0.8510
 4081SOL    HW223706   3.874   4.695  10.929 -0.7885  0.5180  0.4698
 4082SOL     OW23707   1.437   4.439  14.039  0.1319  0.2023 -0.6639
 4082SOL    HW123708   1.486   4.475  14.113 -0.1464 -0.5832 -0.1047
 4082SOL    HW223709   1.509   4.388  14.001  0.9419  1.4970 -0.8938
 4083SOL     OW23710   2.055   0.875  14.167  0.1351  0.3104 -0.0789
 4083SOL    HW123711   2.109   0.810  14.121 -0.2905 -0.0317 -0.0964
 4083SOL    HW223712   1.975   0.878  14.114  1.2207  1.1420 -1.6987
 4084SOL     OW23713   4.453   0.260   2.021  0.1217 -0.1511  0.1807
 4084SOL    HW123714   4.370   0.306   2.029  1.3589  1.8732  1.2429
 4084SOL    HW223715   4.516   0.332   2.023 -1.9674  1.6272  1.1412
 4085SOL     OW23716   2.733   1.262   4.682  0.2860 -0.0275 -0.2818
 4085SOL    HW123717   2.769   1.173   4.682 -0.2707 -0.2548  0.0111
 4085SOL    HW223718   2.793   1.303   4.620  1.0117 -0.2794  0.2460
 4086SOL     OW23719   1.302   1.637   3.511 -0.1514 -0.0067 -0.5060
 4086SOL    HW123720   1.306   1.731   3.493  1.8127  0.4758  2.4636
 4086SOL    HW223721   1.320   1.596   3.426  0.3072 -0.7836 -0.0370
 4087SOL     OW23722   4.140   4.133  10.769 -0.4713 -0.4941  0.1173
 4087SOL    HW123723   4.177   4.204  10.821  2.6275 -2.2630  0.3717
 4087SOL    HW223724   4.126   4.082  10.849 -0.9721 -0.0892  0.2859
 4088SOL     OW23725   4.377   1.599   6.920  0.0857 -0.1683  0.5628
 4088SOL    HW123726   4.293   1.636   6.893  0.8093  2.7146  2.2752
 4088SOL    HW223727   4.390   1.650   7.000  0.8220  0.2517  0.1742
 4089SOL     OW23728   3.101   4.115  10.635 -0.4009 -0.3226 -0.1922
 4089SOL    HW123729   3.066   4.193  10.678  1.3985 -1.1172  2.7808
 4089SOL    HW223730   3.193   4.108  10.662 -1.4192 -4.4964  2.2030
 4090SOL     OW23731   1.214   1.147   0.537  0.1328  0.4911 -0.3441
 4090SOL    HW123732   1.275   1.134   0.465 -0.7521  2.6587 -1.5126
 4090SOL    HW223733   1.143   1.185   0.486 -1.4310 -1.2770  0.5038
 4091SOL     OW23734   2.721   2.795   8.590 -0.6535 -0.4230 -0.4708
 4091SOL    HW123735   2.804   2.786   8.636 -1.2712 -1.2896  0.4707
 4091SOL    HW223736   2.749   2.820   8.502 -1.3967 -0.9133 -0.8435
 4092SOL     OW23737   1.455   2.836   5.765 -0.7739  0.3944 -0.6321
 4092SOL    HW123738   1.429   2.761   5.711  0.6274  0.0087 -0.7666
 4092SOL    HW223739   1.522   2.868   5.704 -0.5630  0.0351 -0.5871
 4093SOL     OW23740   3.444   0.085   9.147 -0.3808 -0.2652 -0.4747
 4093SOL    HW123741   3.491   0.147   9.202 -1.8427  0.6255 -0.2269
 4093SOL    HW223742   3.511   0.058   9.085  0.3480 -0.4068  0.3856
 4094SOL     OW23743   2.376   2.692   7.305 -0.2730 -0.2986 -0.8477
 4094SOL    HW123744   2.340   2.626   7.364  1.8524 -1.9458 -1.4277
 4094SOL    HW223745   2.303   2.755   7.313 -0.3313 -0.4724 -0.0597
 4095SOL     OW23746   4.573   3.365   7.228  0.1917 -0.1595 -0.1830
 4095SOL    HW123747   4.592   3.351   7.135 -0.1174 -0.1155 -0.2557
 4095SOL    HW223748   4.532   3.450   7.216 -1.6166 -0.6737  2.2503
 4096SOL     OW23749   3.040   3.295  16.346 -0.0207 -0.5649  0.3688
 4096SOL    HW123750   3.053   3.376  16.296 -0.3815 -0.4946  0.3883
 4096SOL    HW223751   2.961   3.316  16.395  1.1576 -0.3618  2.1659
 4097SOL     OW23752   4.450   1.219  13.749  0.8765 -0.0542 -0.2989
 4097SOL    HW123753   4.487   1.304  13.723 -1.1954  0.4457 -1.6346
 4097SOL    HW223754   4.510   1.183  13.814  0.8691 -0.0311 -0.2793
 4098SOL     OW23755   1.261   1.732   9.100 -0.1837 -0.4368 -0.1826
 4098SOL    HW123756   1.292   1.796   9.165  3.0996  0.3729 -2.5637
 4098SOL    HW223757   1.345   1.724   9.057  1.0542  1.3383  1.8722
 4099SOL     OW23758   3.189   0.769   6.904 -0.1391  0.2759 -0.1271
 4099SOL    HW123759   3.181   0.852   6.950 -0.3425  1.0165 -1.4843
 4099SOL    HW223760   3.112   0.772   6.848  0.3949  1.3533 -0.8083
 4100SOL     OW23761   3.952   3.920   4.462  0.1517 -0.9065 -0.3499
 4100SOL    HW123762   4.043   3.948   4.455  0.1086 -0.6487  0.1110
 4100SOL    HW223763   3.942   3.892   4.553 -0.4444 -0.8901 -0.4089
 4101SOL     OW23764   1.135   2.352   6.997  0.0763  0.4887  0.2430
 4101SOL    HW123765   1.124   2.374   7.089 -1.0249 -1.0004  0.4632
 4101SOL    HW223766   1.219   2.308   7.007 -0.1126  0.6747  2.5875
 4102SOL     OW23767   1.067   0.906   8.332 -0.1992  0.0664 -0.9936
 4102SOL    HW123768   0.995   0.869   8.280 -1.6894 -0.6931  1.6529
 4102SOL    HW223769   1.147   0.901   8.279  0.1481  0.7999 -0.5297
 4103SOL     OW23770   2.445   2.453   4.721 -0.7286 -0.5935 -0.1397
 4103SOL    HW123771   2.405   2.539   4.736 -0.3644 -0.2836 -0.9245
 4103SOL    HW223772   2.520   2.454   4.780 -0.0764  1.8145 -0.9693
 4104SOL     OW23773   1.338   3.731   5.362 -0.7482 -0.3106 -0.1802
 4104SOL    HW123774   1.254   3.698   5.330  0.5146 -1.9042 -1.7892
 4104SOL    HW223775   1.370   3.670   5.428  1.7054 -0.8311 -1.8614
 4105SOL     OW23776   3.465   0.302  13.471  0.4287 -0.1438 -0.7906
 4105SOL    HW123777   3.452   0.371  13.407  1.5434  1.3033  0.5362
 4105SOL    HW223778   3.551   0.279  13.436  0.1045 -0.9641 -1.0538
 4106SOL     OW23779   3.186   2.837   3.619 -0.0690  0.2697 -0.3556
 4106SOL    HW123780   3.134   2.757   3.608 -1.5354  1.3540 -1.1049
 4106SOL    HW223781   3.225   2.833   3.532  0.0949  0.8482 -0.3040
 4107SOL     OW23782   3.209   4.441   0.937  0.1532 -0.0230  0.1009
 4107SOL    HW123783   3.176   4.511   0.881  0.4565 -0.7107 -0.9348
 4107SOL    HW223784   3.141   4.375   0.923  0.3523 -0.1900 -0.0822
 4108SOL     OW23785   0.761   0.922   8.161 -0.3308 -0.1656  0.3516
 4108SOL    HW123786   0.721   0.993   8.111 -1.7702 -2.5436 -1.8377
 4108SOL    HW223787   0.721   0.924   8.248 -0.2338 -0.1693  0.3965
 4109SOL     OW23788   3.947   0.408   4.639  0.3248 -0.2544  0.6152
 4109SOL    HW123789   3.899   0.326   4.649 -0.5646  0.1633 -0.2621
 4109SOL    HW223790   3.914   0.457   4.714  1.2117 -0.3953  1.1020
 4110SOL     OW23791   1.510   0.123  14.930 -0.1210 -0.1489  0.2515
 4110SOL    HW123792   1.495   0.102  14.838  2.2034  0.8488 -0.3596
 4110SOL    HW223793   1.430   0.173  14.948  0.2358  0.7925 -0.7716
 4111SOL     OW23794   0.274   1.124   9.014  0.2435 -0.7566  0.1249
 4111SOL    HW123795   0.197   1.143   9.068 -1.6010 -0.2386 -2.7190
 4111SOL    HW223796   0.326   1.080   9.081 -0.6408 -0.7250  0.8356
 4112SOL     OW23797   1.551   0.118  11.155 -0.0663 -0.0167 -0.5702
 4112SOL    HW123798   1.635   0.097  11.113 -0.6234  0.7412 -2.0572
 4112SOL    HW223799   1.501   0.036  11.160 -1.5885  1.0553  1.4600
 4113SOL     OW23800   4.697   0.867   0.455  0.2118  0.1466  0.2061
 4113SOL    HW123801   4.690   0.841   0.547 -2.8481 -1.5064 -0.4995
 4113SOL    HW223802   4.621   0.830   0.409  0.9915  1.6017 -2.2140
 4114SOL     OW23803   1.828   3.215  16.350  0.1121  0.2005 -0.3277
 4114SOL    HW123804   1.910   3.261  16.330  2.4803 -3.0220  1.9717
 4114SOL    HW223805   1.843   3.129  16.311 -1.8151  0.0520 -0.7354
 4115SOL     OW23806   2.435   3.079   2.432  0.2830  0.1139 -0.2817
 4115SOL    HW123807   2.389   3.026   2.367  0.9784 -1.2195  0.3163
 4115SOL    HW223808   2.498   3.118   2.372  0.1251  1.1131  0.2083
 4116SOL     OW23809   1.040   2.478   4.484 -0.1014  0.7993 -0.1145
 4116SOL    HW123810   0.948   2.451   4.492 -0.1072  0.6581 -0.6706
 4116SOL    HW223811   1.048   2.533   4.562 -1.2487  1.3944 -0.4181
 4117SOL     OW23812   0.577   3.244   8.070 -0.9497  0.1656  0.0872
 4117SOL    HW123813   0.545   3.267   8.157 -0.1671  0.9228  0.1702
 4117SOL    HW223814   0.662   3.202   8.086 -0.6863  1.6491  2.5103
 4118SOL     OW23815   1.209   2.758   9.378  0.2847  0.3641 -0.3296
 4118SOL    HW123816   1.240   2.668   9.372 -2.4747 -0.4856 -2.1076
 4118SOL    HW223817   1.113   2.752   9.371  0.4245 -4.9677  1.9411
 4119SOL     OW23818   0.501   0.239  15.555  0.0890  0.0004  0.5007
 4119SOL    HW123819   0.523   0.269  15.467 -1.5066  2.3779  0.8915
 4119SOL    HW223820   0.455   0.158  15.532  2.2668 -1.6504  1.9794
 4120SOL     OW23821   2.086   0.464   7.172  0.3892 -0.0353 -0.4479
 4120SOL    HW123822   2.098   0.422   7.088  2.2930  0.1297 -0.2505
 4120SOL    HW223823   2.179   0.473   7.192  0.4344 -0.7285 -0.3567
 4121SOL     OW23824   3.187   1.488   4.601  0.3283 -1.2672 -0.2585
 4121SOL    HW123825   3.199   1.560   4.539  2.2117 -1.1489  0.2585
 4121SOL    HW223826   3.103   1.452   4.573 -1.2208  1.7349  0.5426
 4122SOL     OW23827   1.817   4.241   5.895  0.0271 -0.1276  0.4027
 4122SOL    HW123828   1.813   4.230   5.990 -2.3576 -1.1472  0.1922
 4122SOL    HW223829   1.802   4.148   5.881 -1.1898  0.1986 -0.5331
 4123SOL     OW23830   3.876   0.677   8.437  0.4528  0.0427 -0.2443
 4123SOL    HW123831   3.861   0.626   8.517  0.0263 -2.1634 -1.7111
 4123SOL    HW223832   3.792   0.662   8.393 -0.0484  0.7449  0.4803
 4124SOL     OW23833   1.231   1.729  14.593  0.3974 -0.1025  0.3266
 4124SOL    HW123834   1.285   1.742  14.671 -0.1388 -1.6641  0.9485
 4124SOL    HW223835   1.298   1.717  14.526 -0.4105  1.9439 -0.8349
 4125SOL     OW23836   4.165   1.828  12.001  0.4481  0.3069  0.2922
 4125SOL    HW123837   4.213   1.761  12.051 -1.2871  0.9542  2.7996
 4125SOL    HW223838   4.087   1.786  11.965  0.9589 -2.0467  1.9104
 4126SOL     OW23839   2.372   0.929   5.096  0.0167  0.8248 -0.0847
 4126SOL    HW123840   2.282   0.916   5.125  0.4392 -0.1037  0.8043
 4126SOL    HW223841   2.415   0.921   5.181 -0.5779  2.9217  0.4304
 4127SOL     OW23842   1.034   2.347   7.494  0.6372 -0.3581 -0.2334
 4127SOL    HW123843   0.960   2.315   7.546  1.5945 -1.7400  0.2883
 4127SOL    HW223844   1.018   2.441   7.490 -1.6839 -0.6849  1.4442
 4128SOL     OW23845   0.659   1.157  11.611  0.2539 -0.2061 -0.7801
 4128SOL    HW123846   0.693   1.098  11.544  0.9283 -0.0093 -0.6150
 4128SOL    HW223847   0.740   1.174  11.659 -1.5429  1.1498  1.7656
 4129SOL     OW23848   2.020   3.780   7.199  0.4427 -0.2527 -0.7153
 4129SOL    HW123849   2.108   3.782   7.237  1.5762 -5.0614 -3.0825
 4129SOL    HW223850   1.977   3.738   7.273 -0.8508  1.5292 -0.4490
 4130SOL     OW23851   3.716   0.261   4.922 -0.1548  0.3179 -0.0404
 4130SOL    HW123852   3.738   0.237   4.832  1.3616  1.5309  0.0195
 4130SOL    HW223853   3.803   0.277   4.959 -1.4051  1.2750  2.4910
 4131SOL     OW23854   0.185   4.277   2.333  0.3606  0.6280  0.2739
 4131SOL    HW123855   0.231   4.353   2.367 -1.2629  0.8748  1.9634
 4131SOL    HW223856   0.144   4.235   2.409 -0.9200  2.3339  0.5446
 4132SOL     OW23857   2.917   4.570  17.085  0.2904 -0.8514  0.2213
 4132SOL    HW123858   2.901   4.576  17.180 -0.2006 -1.3679  0.1690
 4132SOL    HW223859   2.904   4.476  17.077 -2.4305 -0.5953  1.4531
 4133SOL     OW23860   2.952   1.150   0.954  0.1146  0.0382 -0.2759
 4133SOL    HW123861   2.916   1.061   0.958 -0.5440  0.3175  0.0836
 4133SOL    HW223862   2.882   1.202   0.915 -0.7295 -2.4207 -2.1224
 4134SOL     OW23863   2.119   2.187   0.071 -0.0332 -0.0740  0.1996
 4134SOL    HW123864   2.184   2.182   0.142  0.6520  0.8645 -0.3641
 4134SOL    HW223865   2.077   2.272   0.079 -3.0531 -1.5593  0.3226
 4135SOL     OW23866   0.209   3.665   4.587  0.3219 -0.9051  0.2540
 4135SOL    HW123867   0.192   3.722   4.513 -0.3288 -1.6211 -0.1532
 4135SOL    HW223868   0.126   3.616   4.588  1.9227 -3.5640  1.0789
 4136SOL     OW23869   1.819   3.829   7.983 -0.0791 -0.4270  0.0320
 4136SOL    HW123870   1.798   3.902   7.925  1.3369 -0.9096 -1.0826
 4136SOL    HW223871   1.756   3.828   8.056 -1.7281  1.6066 -1.3769
 4137SOL     OW23872   2.481   3.513  16.216 -0.1850 -0.0591 -0.8075
 4137SOL    HW123873   2.451   3.491  16.304 -2.1394 -0.5198 -1.5889
 4137SOL    HW223874   2.466   3.608  16.212 -1.8067 -0.3080 -0.7372
 4138SOL     OW23875   2.791   3.970  15.439 -0.6240  0.0670  0.7279
 4138SOL    HW123876   2.851   3.895  15.438 -1.5803 -0.6921  0.5413
 4138SOL    HW223877   2.855   4.040  15.431 -0.6188 -0.3176 -2.5578
 4139SOL     OW23878   3.345   2.121   3.801  0.3449 -0.0493  0.3291
 4139SOL    HW123879   3.322   2.204   3.758 -1.0362 -1.2649 -1.2655
 4139SOL    HW223880   3.428   2.100   3.759  0.2829  0.9605 -0.2988
 4140SOL     OW23881   3.388   4.710   1.483  0.4586  0.3510  0.2335
 4140SOL    HW123882   3.364   0.068   1.444  2.1509 -1.0167 -3.7136
 4140SOL    HW223883   3.480   0.006   1.499  0.6281  1.7464 -2.6140
 4141SOL     OW23884   3.463   1.084   0.835 -0.6851  0.3147 -0.0791
 4141SOL    HW123885   3.368   1.077   0.822 -0.7320  1.6828 -0.4586
 4141SOL    HW223886   3.506   1.014   0.786  1.5876  1.2820  0.5515
 4142SOL     OW23887   1.156   0.537   7.896  0.0643  0.0866 -0.7644
 4142SOL    HW123888   1.086   0.598   7.877  1.1380  1.1403 -1.3560
 4142SOL    HW223889   1.207   0.538   7.815  1.4348 -1.3118  0.0853
 4143SOL     OW23890   1.574   3.755  17.606  0.4425 -0.6318  0.2141
 4143SOL    HW123891   1.511   3.754  17.534 -0.2792 -1.9093  0.8685
 4143SOL    HW223892   1.532   3.826  17.656  0.0154 -1.0426  0.4326
 4144SOL     OW23893   4.158   3.712  12.845  0.3128 -0.6706 -0.4375
 4144SOL    HW123894   4.202   3.746  12.768 -0.8317 -0.8817 -1.1802
 4144SOL    HW223895   4.120   3.795  12.874  0.8298  0.5208 -3.1844
 4145SOL     OW23896   1.924   1.668   2.133 -0.3594 -0.0702 -0.0242
 4145SOL    HW123897   1.845   1.650   2.184 -0.0936  1.9719  1.1002
 4145SOL    HW223898   1.913   1.762   2.117  1.2111  0.2056  0.5694
 4146SOL     OW23899   0.545   2.187   7.698  0.2544 -0.6434  0.4204
 4146SOL    HW123900   0.485   2.115   7.720 -0.3342 -0.3923 -0.3803
 4146SOL    HW223901   0.490   2.264   7.685 -0.0739 -1.1004 -0.8398
 4147SOL     OW23902   3.525   0.874  14.881  0.5221 -0.2554 -0.2629
 4147SOL    HW123903   3.614   0.839  14.869  1.4348  1.4658  1.5627
 4147SOL    HW223904   3.508   0.819  14.957  0.4183  0.3016  0.1111
 4148SOL     OW23905   0.651   1.495   7.320 -0.3028  0.4887 -0.2423
 4148SOL    HW123906   0.618   1.464   7.236  0.1327  1.1320 -0.6538
 4148SOL    HW223907   0.694   1.578   7.301 -4.0588  2.3840 -0.4123
 4149SOL     OW23908   4.061   2.487  10.458  0.2658 -0.0687  0.9823
 4149SOL    HW123909   4.085   2.463  10.369 -1.9929  1.1479  0.0531
 4149SOL    HW223910   4.124   2.558  10.472  0.0211  0.5163 -0.8874
 4150SOL     OW23911   2.383   3.587   8.206 -0.7755  0.1912  0.7345
 4150SOL    HW123912   2.290   3.593   8.185 -0.1217  2.2654 -1.4653
 4150SOL    HW223913   2.398   3.678   8.232  0.7811 -0.1337  0.9704
 4151SOL     OW23914   0.583   1.867  17.256 -0.3384 -0.2302  0.4351
 4151SOL    HW123915   0.672   1.860  17.290  0.1428 -0.7994 -0.9398
 4151SOL    HW223916   0.538   1.818  17.325 -1.2296 -0.8491 -0.5874
 4152SOL     OW23917   0.225   0.016  16.789 -1.0475  0.1086  0.0221
 4152SOL    HW123918   0.297   0.079  16.779 -0.8468  0.0232  0.8883
 4152SOL    HW223919   0.146   0.067  16.776 -0.4517  0.8995 -0.5334
 4153SOL     OW23920   3.640   3.429   3.626  0.0143  0.2649  0.6828
 4153SOL    HW123921   3.646   3.466   3.714 -2.5183  1.3735  0.3764
 4153SOL    HW223922   3.549   3.451   3.612 -0.1851 -1.1862 -0.3365
 4154SOL     OW23923   4.724   0.648   1.640 -0.2191 -0.1521 -0.0221
 4154SOL    HW123924   4.709   0.738   1.667 -2.8191 -0.4668 -0.3568
 4154SOL    HW223925   0.080   0.618   1.681 -0.5151 -0.8525  0.0570
 4155SOL     OW23926   2.763   0.881  14.934 -0.1266 -0.3222 -0.0676
 4155SOL    HW123927   2.729   0.971  14.926  0.2975 -0.1962 -0.4404
 4155SOL    HW223928   2.700   0.836  14.878 -2.8651  2.2040  0.9447
 4156SOL     OW23929   2.470   3.910  13.984 -0.3776 -0.6607 -0.3719
 4156SOL    HW123930   2.461   3.993  13.937  0.3992 -0.5243 -0.2807
 4156SOL    HW223931   2.561   3.880  13.975 -0.3660  0.3599 -3.7921
 4157SOL     OW23932   0.116   3.659   7.266  0.2856 -0.0626 -0.2253
 4157SOL    HW123933   0.141   3.749   7.286  0.2639  0.3266 -1.9551
 4157SOL    HW223934   0.051   3.642   7.335  1.8248 -0.2232  1.1710
 4158SOL     OW23935   3.007   0.239  15.499 -0.3236  0.0047  0.4703
 4158SOL    HW123936   2.997   0.269  15.590  2.2068  3.0971 -0.2686
 4158SOL    HW223937   2.944   0.296  15.456  0.7665 -0.2174 -1.3884
 4159SOL     OW23938   4.001   3.574  14.979 -0.2635  0.1478  0.5096
 4159SOL    HW123939   3.971   3.558  15.069 -0.3058 -2.7070 -0.0084
 4159SOL    HW223940   3.921   3.587  14.928 -0.6403 -1.5115  0.6713
 4160SOL     OW23941   2.136   1.648   3.028  0.0951  0.2705  0.3949
 4160SOL    HW123942   2.095   1.729   2.999 -1.1944 -0.9774 -1.2735
 4160SOL    HW223943   2.106   1.589   2.959  3.2015 -0.5889 -0.2551
 4161SOL     OW23944   1.281   2.919   4.722 -0.1382 -0.6653  0.0224
 4161SOL    HW123945   1.295   2.967   4.804 -0.0358 -1.4593  0.4763
 4161SOL    HW223946   1.232   2.987   4.676  1.9641  0.9968  0.2600
 4162SOL     OW23947   1.979   0.046   8.352 -0.0513  0.1769  0.0576
 4162SOL    HW123948   2.005   0.135   8.328  1.7437  0.1567  1.8122
 4162SOL    HW223949   2.025   4.717   8.287 -2.5716 -1.4007 -0.3921
 4163SOL     OW23950   0.409   4.115   2.607  0.1465  0.0877  0.6497
 4163SOL    HW123951   0.316   4.116   2.629  0.0236 -2.2340  0.2398
 4163SOL    HW223952   0.428   4.028   2.572  1.0990  0.3979  0.3958
 4164SOL     OW23953   1.877   0.224   0.123  0.3217 -0.2548  0.0551
 4164SOL    HW123954   1.786   0.253   0.129 -0.4782 -2.3803 -1.9434
 4164SOL    HW223955   1.902   0.269   0.203 -1.0251  1.9261 -0.7629
 4165SOL     OW23956   1.657   0.909   5.479  0.4933  0.3388 -0.1536
 4165SOL    HW123957   1.709   0.829   5.487 -1.1053 -0.9241 -2.5370
 4165SOL    HW223958   1.725   0.977   5.485 -0.4873  1.3846 -1.1046
 4166SOL     OW23959   3.357   1.682   4.325 -0.3580  0.4836  0.5792
 4166SOL    HW123960   3.450   1.683   4.347 -0.4670  1.2366  0.9769
 4166SOL    HW223961   3.360   1.704   4.232  2.2266 -2.7775 -0.1367
 4167SOL     OW23962   1.452   2.695   1.112  0.0826  0.0210 -0.6209
 4167SOL    HW123963   1.462   2.759   1.182 -0.0232  0.9762 -1.4756
 4167SOL    HW223964   1.429   2.748   1.035 -0.3469 -1.7425 -1.7022
 4168SOL     OW23965   2.546   2.207   8.138  0.2276 -1.1227  0.0151
 4168SOL    HW123966   2.452   2.195   8.128  0.2017 -0.0878 -1.0664
 4168SOL    HW223967   2.572   2.206   8.045 -0.1040 -0.3394 -0.0883
 4169SOL     OW23968   2.180   2.144   9.507  0.1570 -0.1402 -0.7247
 4169SOL    HW123969   2.231   2.196   9.569  0.6424  0.9639 -2.0655
 4169SOL    HW223970   2.148   2.073   9.563  0.4815 -0.3880 -0.8537
 4170SOL     OW23971   1.802   1.725   3.555  0.7271 -0.1145  0.4866
 4170SOL    HW123972   1.815   1.727   3.461 -1.2650  0.0019  0.2004
 4170SOL    HW223973   1.713   1.692   3.572  1.1871 -1.0682  1.0202
 4171SOL     OW23974   4.525   0.311   5.298 -0.0529  0.1937 -0.3891
 4171SOL    HW123975   4.613   0.287   5.329  0.8596  3.4978 -0.4177
 4171SOL    HW223976   4.554   0.372   5.230 -1.3057 -1.7476 -2.6826
 4172SOL     OW23977   2.122   3.524   6.163  0.0445  1.0981  0.0582
 4172SOL    HW123978   2.140   3.536   6.256  0.0468 -0.2023  0.2249
 4172SOL    HW223979   2.104   3.615   6.139 -2.4200  1.1423  2.0191
 4173SOL     OW23980   3.138   3.853   0.182  0.6725  0.4987 -0.4409
 4173SOL    HW123981   3.120   3.945   0.200  0.3923  0.5791 -1.1315
 4173SOL    HW223982   3.217   3.836   0.234  1.6506  0.8068 -1.8342
 4174SOL     OW23983   2.972   1.160   6.754 -0.1225  0.0499 -0.3170
 4174SOL    HW123984   3.024   1.114   6.820 -0.3780  0.8073  0.4191
 4174SOL    HW223985   2.917   1.209   6.815 -0.2475 -0.9025  0.3319
 4175SOL     OW23986   4.369   1.482   5.903 -0.8671 -0.0620  0.2428
 4175SOL    HW123987   4.437   1.421   5.931  0.1569  1.1840  0.4700
 4175SOL    HW223988   4.425   1.553   5.872 -1.2185 -0.2118 -0.7315
 4176SOL     OW23989   4.262   1.251  16.386  0.3038  0.1098 -0.0723
 4176SOL    HW123990   4.211   1.270  16.307 -0.2340  1.0023  0.4876
 4176SOL    HW223991   4.347   1.293  16.370 -0.0823  0.6218 -0.7839
 4177SOL     OW23992   2.665   2.984   0.286 -0.4625 -0.1602 -0.9257
 4177SOL    HW123993   2.615   3.040   0.226  1.3338  2.4338  0.0021
 4177SOL    HW223994   2.599   2.950   0.347  0.9406  3.4933  2.5717
 4178SOL     OW23995   1.303   1.382   6.231  0.4044 -0.6704 -0.4748
 4178SOL    HW123996   1.209   1.395   6.238  0.5948  0.4193  0.0327
 4178SOL    HW223997   1.309   1.375   6.136 -1.0765 -2.3782 -0.4376
 4179SOL     OW23998   3.442   4.311   1.032  0.4984 -0.0750 -0.1072
 4179SOL    HW123999   3.378   4.368   0.989 -1.7055  0.0007  3.2267
 4179SOL    HW224000   3.387   4.270   1.099  1.0066 -0.6194 -0.0310
 4180SOL     OW24001   3.628   3.869   8.915 -0.2023  0.4473 -0.3998
 4180SOL    HW124002   3.673   3.874   8.999 -0.9227  0.8938 -0.0440
 4180SOL    HW224003   3.591   3.956   8.923  0.2550  0.6160 -0.1737
 4181SOL     OW24004   4.186   0.815   7.498 -0.3852  0.3520 -0.1323
 4181SOL    HW124005   4.196   0.737   7.552  1.6414  0.2480 -0.6647
 4181SOL    HW224006   4.275   0.829   7.467 -0.1172 -1.1010 -0.0075
 4182SOL     OW24007   4.537   1.646  13.549  0.1817 -0.2221  0.3452
 4182SOL    HW124008   4.446   1.675  13.557 -0.0636 -0.2360 -2.5288
 4182SOL    HW224009   4.564   1.680  13.464  2.6203  1.3863  1.7828
 4183SOL     OW24010   1.483   0.723   6.152  0.1334 -0.0630 -0.7346
 4183SOL    HW124011   1.516   0.794   6.206 -1.9540  0.5543 -0.2454
 4183SOL    HW224012   1.570   0.695   6.123  0.4787 -0.3310  0.5679
 4184SOL     OW24013   4.480   4.150   5.671 -0.4103 -0.3159 -0.2710
 4184SOL    HW124014   4.522   4.113   5.749 -2.0054 -1.6047 -0.0297
 4184SOL    HW224015   4.426   4.213   5.719  1.5906  0.6182  0.7381
 4185SOL     OW24016   4.127   0.055   8.545 -0.2093  0.3232 -0.2707
 4185SOL    HW124017   4.210   0.095   8.571  0.0811  0.0999 -0.8372
 4185SOL    HW224018   4.101   4.725   8.618 -1.4759  1.7041  0.3120
 4186SOL     OW24019   4.157   1.680  14.063 -0.2006 -0.2264  0.3819
 4186SOL    HW124020   4.132   1.611  14.001  1.6405 -1.3016  0.8389
 4186SOL    HW224021   4.251   1.664  14.074  0.0225  2.0412  1.6511
 4187SOL     OW24022   3.419   3.178   8.247  0.1942 -0.0191  0.1062
 4187SOL    HW124023   3.448   3.157   8.336 -0.5521  1.5784  0.7433
 4187SOL    HW224024   3.332   3.199   8.283 -0.1969 -1.5882  0.0655
 4188SOL     OW24025   4.401   3.610  13.799  0.0732  0.3721 -0.0786
 4188SOL    HW124026   4.328   3.606  13.738 -2.1356  0.9610  2.5193
 4188SOL    HW224027   4.412   3.519  13.824  1.0591 -0.2982 -2.9905
 4189SOL     OW24028   0.453   0.968   7.990 -0.4200  0.2817 -0.2684
 4189SOL    HW124029   0.516   1.032   8.023  1.7396 -2.4891  0.9466
 4189SOL    HW224030   0.499   0.933   7.914  2.3594  1.9614  0.6357
 4190SOL     OW24031   2.609   1.227   2.939 -0.3555 -0.5328  0.1199
 4190SOL    HW124032   2.539   1.254   2.998  1.7595  2.4656  1.2449
 4190SOL    HW224033   2.559   1.159   2.894 -3.8177  1.9642  0.2176
 4191SOL     OW24034   0.468   0.365   6.301 -0.9364 -0.1253 -0.1945
 4191SOL    HW124035   0.564   0.358   6.300 -0.8367  1.2688  0.2560
 4191SOL    HW224036   0.430   0.284   6.267  1.0456 -3.0023  4.4588
 4192SOL     OW24037   0.476   1.660   2.517 -0.2824  0.2921  0.3259
 4192SOL    HW124038   0.457   1.748   2.550 -0.8802 -0.2710  1.4687
 4192SOL    HW224039   0.533   1.678   2.442  0.2902 -1.5541  0.3312
 4193SOL     OW24040   0.366   0.262   1.744 -0.0302 -0.1267 -0.5593
 4193SOL    HW124041   0.446   0.303   1.713  0.5168 -1.3527 -0.7844
 4193SOL    HW224042   0.379   0.173   1.711  1.7728 -0.0562 -0.0220
 4194SOL     OW24043   2.598   2.025   7.340 -0.4372  0.4550 -0.3841
 4194SOL    HW124044   2.552   2.017   7.424 -1.0472  1.1856 -0.6459
 4194SOL    HW224045   2.596   1.934   7.312  0.4106  0.1589  0.5148
 4195SOL     OW24046   3.834   3.068  12.065 -0.3015 -0.4935  0.6575
 4195SOL    HW124047   3.830   3.112  12.149 -0.5084  0.8665 -0.0708
 4195SOL    HW224048   3.832   2.975  12.090  0.8677 -1.0009 -1.0866
 4196SOL     OW24049   3.192   0.501   8.170 -0.1727  0.3719 -0.1324
 4196SOL    HW124050   3.229   0.504   8.082  1.0269 -0.2823  0.3400
 4196SOL    HW224051   3.172   0.408   8.177 -1.0946  0.8029  3.1978
 4197SOL     OW24052   0.555   4.309  12.010 -0.5623 -0.1561  0.3076
 4197SOL    HW124053   0.621   4.376  12.025  1.8236 -2.2083 -0.9592
 4197SOL    HW224054   0.604   4.261  11.943 -1.9479 -1.2274  0.0741
 4198SOL     OW24055   3.581   1.703   7.842 -0.3096 -0.3789 -0.3317
 4198SOL    HW124056   3.670   1.727   7.868 -1.3541  1.0700  1.8388
 4198SOL    HW224057   3.535   1.703   7.925 -2.8348  0.1407 -1.7193
 4199SOL     OW24058   4.711   2.577   7.247 -0.2731 -0.0337 -0.2014
 4199SOL    HW124059   4.720   2.666   7.281  0.8813 -0.3604  0.3257
 4199SOL    HW224060   4.660   2.588   7.167 -0.8543 -2.5825 -0.1847
 4200SOL     OW24061   0.911   1.741   5.302 -0.0403  0.4572  0.3620
 4200SOL    HW124062   0.942   1.688   5.376  0.8712 -2.1230 -1.8514
 4200SOL    HW224063   0.867   1.677   5.246  0.4514  1.7029 -1.4344
 4201SOL     OW24064   1.739   3.554   2.484  0.2368 -0.0524  0.1383
 4201SOL    HW124065   1.708   3.622   2.544 -0.8596 -0.5770  0.1632
 4201SOL    HW224066   1.690   3.474   2.504  0.2323  0.1133  0.7725
 4202SOL     OW24067   0.837   1.117  16.149 -0.0335  0.1278  0.0808
 4202SOL    HW124068   0.788   1.038  16.125  0.1122  0.2815 -0.7095
 4202SOL    HW224069   0.815   1.179  16.079  1.9546 -0.5185 -1.1225
 4203SOL     OW24070   3.266   4.021  10.414 -0.2710 -0.2413  0.2847
 4203SOL    HW124071   3.200   4.046  10.479 -0.4248 -0.0539  0.0552
 4203SOL    HW224072   3.271   3.925  10.420  1.1846 -0.1825 -0.1496
 4204SOL     OW24073   2.259   0.833   8.342  0.6643  0.6904  0.4887
 4204SOL    HW124074   2.269   0.816   8.435 -0.4727  1.2394  0.7122
 4204SOL    HW224075   2.223   0.753   8.304  1.4464 -0.8770  3.1112
 4205SOL     OW24076   2.809   4.176   1.874 -0.0560  0.0202 -0.1638
 4205SOL    HW124077   2.841   4.255   1.919 -0.7622  2.0163 -3.2016
 4205SOL    HW224078   2.722   4.197   1.841  0.0743  1.0198  0.1139
 4206SOL     OW24079   0.937   4.299  10.275  0.5317 -0.3159 -0.3542
 4206SOL    HW124080   0.847   4.276  10.254  0.1526  0.4785  0.4010
 4206SOL    HW224081   0.974   4.295  10.187 -0.5323  1.0219 -0.8535
 4207SOL     OW24082   1.667   2.472   3.633  0.6592  0.3629 -0.0470
 4207SOL    HW124083   1.647   2.556   3.592  1.8744  0.3084 -0.7395
 4207SOL    HW224084   1.650   2.485   3.726  0.3014  2.7198 -0.4577
 4208SOL     OW24085   4.235   4.302   3.532  0.2431  0.8455 -0.3491
 4208SOL    HW124086   4.147   4.296   3.568 -0.1263  2.1885 -1.0234
 4208SOL    HW224087   4.268   4.384   3.570 -1.2334  0.4490  1.7674
 4209SOL     OW24088   3.932   2.153   5.281 -0.0582 -0.4180  0.3243
 4209SOL    HW124089   3.863   2.220   5.279  1.0544  0.6874 -0.7166
 4209SOL    HW224090   3.990   2.207   5.228 -0.1367 -0.7410 -0.0924
 4210SOL     OW24091   0.364   3.643   0.636  0.0206 -0.4257  0.1790
 4210SOL    HW124092   0.442   3.687   0.669  1.2468 -2.7039  0.3456
 4210SOL    HW224093   0.398   3.560   0.603 -0.1746 -0.5753  0.3592
 4211SOL     OW24094   1.730   3.266   5.206  0.8888 -0.6284 -0.3227
 4211SOL    HW124095   1.771   3.330   5.263 -1.8318  1.5726 -0.8547
 4211SOL    HW224096   1.661   3.321   5.169  2.3724  0.9692 -0.7240
 4212SOL     OW24097   4.110   4.279   7.819 -0.1603  0.3407  0.1952
 4212SOL    HW124098   4.171   4.234   7.877 -0.0453  1.6090  1.0600
 4212SOL    HW224099   4.055   4.332   7.877  0.5613  1.3520 -0.0547
 4213SOL     OW24100   3.990   3.394   2.101 -0.1360  0.4375 -0.3432
 4213SOL    HW124101   4.043   3.465   2.067 -1.9969  1.0870 -1.8819
 4213SOL    HW224102   3.938   3.431   2.173 -1.3692 -0.0416 -0.9805
 4214SOL     OW24103   1.060   1.714   7.204 -0.0712 -0.4695  0.4070
 4214SOL    HW124104   1.119   1.787   7.184 -1.0807  0.0454 -0.6740
 4214SOL    HW224105   0.975   1.747   7.176  0.4727  0.1613 -0.4995
 4215SOL     OW24106   4.264   1.068   0.618  0.0713 -0.2367 -0.6277
 4215SOL    HW124107   4.232   1.093   0.704 -1.3944 -1.7133 -0.7407
 4215SOL    HW224108   4.221   0.984   0.603  0.8007 -0.6001 -0.6633
 4216SOL     OW24109   1.524   2.350   1.223 -0.2164 -0.0587 -0.2971
 4216SOL    HW124110   1.612   2.366   1.256 -0.6965  0.8942  0.5089
 4216SOL    HW224111   1.475   2.398   1.290  1.6254  2.3079 -0.6427
 4217SOL     OW24112   4.177   2.285   3.381 -0.2907  0.6986  0.2659
 4217SOL    HW124113   4.085   2.298   3.358  0.3176  2.9357 -0.9697
 4217SOL    HW224114   4.194   2.371   3.420  2.2117 -0.0010  0.7559
 4218SOL     OW24115   2.123   2.077   7.547 -0.1038  0.1418 -0.8888
 4218SOL    HW124116   2.036   2.093   7.510 -2.0146 -1.3231  2.8953
 4218SOL    HW224117   2.147   2.167   7.568  1.8529 -0.4746 -0.4576
 4219SOL     OW24118   2.968   0.287   2.530 -0.5978 -0.5328  0.4043
 4219SOL    HW124119   3.010   0.358   2.482  1.0590 -2.3716 -0.8990
 4219SOL    HW224120   3.050   0.260   2.572 -0.1490  0.8245  0.4089
 4220SOL     OW24121   1.480   0.636   1.987 -0.1354  0.2531  0.2395
 4220SOL    HW124122   1.496   0.555   2.036 -5.4209 -0.7574  0.2579
 4220SOL    HW224123   1.518   0.613   1.902  1.8684 -0.6095  1.3680
 4221SOL     OW24124   1.933   1.465  10.493 -0.0417  0.1052  0.3700
 4221SOL    HW124125   1.892   1.382  10.518 -0.2272  0.2216  0.4568
 4221SOL    HW224126   1.864   1.531  10.498  0.8996  1.2338 -1.5454
 4222SOL     OW24127   2.740   0.749   0.783  0.1264 -0.3894 -0.2458
 4222SOL    HW124128   2.645   0.755   0.795  0.3062  1.8979  0.0214
 4222SOL    HW224129   2.731   0.734   0.689 -2.7599 -0.0610 -0.0118
 4223SOL     OW24130   3.046   2.227  15.538 -0.9814 -0.6789  0.2749
 4223SOL    HW124131   2.952   2.234  15.551 -1.2338  1.7540 -2.8125
 4223SOL    HW224132   3.062   2.305  15.485  1.3312 -0.5509  1.1347
 4224SOL     OW24133   4.508   1.352   7.503  0.1327  0.0069  0.8485
 4224SOL    HW124134   4.558   1.272   7.517  2.5894  1.0011 -2.3124
 4224SOL    HW224135   4.490   1.378   7.594 -0.7653  0.6255  0.5015
 4225SOL     OW24136   0.644   2.646   7.023 -0.0958  0.7345 -0.1173
 4225SOL    HW124137   0.590   2.584   7.073 -0.2315  0.9337 -0.0142
 4225SOL    HW224138   0.574   2.703   6.990 -0.5627  2.0232  3.0297
 4226SOL     OW24139   3.038   2.463  15.394  0.8516  0.1678  0.3257
 4226SOL    HW124140   3.035   2.479  15.300 -2.0640  0.7097  0.5217
 4226SOL    HW224141   3.005   2.547  15.424  0.0809  0.1130 -0.3709
 4227SOL     OW24142   4.071   1.770  10.759  0.0259 -0.0945  0.0403
 4227SOL    HW124143   3.992   1.766  10.813  0.8540  0.6396  1.3162
 4227SOL    HW224144   4.037   1.727  10.681 -0.8154  2.5893 -1.0780
 4228SOL     OW24145   1.786   2.505   4.532  0.1442  0.2350 -0.2157
 4228SOL    HW124146   1.696   2.535   4.517  1.3439  2.7437 -2.3078
 4228SOL    HW224147   1.770   2.460   4.615  1.2647 -0.4309 -0.3657
 4229SOL     OW24148   2.576   2.394   2.979 -0.2646 -0.4610 -0.3440
 4229SOL    HW124149   2.590   2.479   2.938  1.9658 -1.1992 -1.1076
 4229SOL    HW224150   2.632   2.341   2.922 -1.9698 -0.6553 -1.8480
 4230SOL     OW24151   4.412   1.392   9.421 -0.6676 -0.3029 -0.2920
 4230SOL    HW124152   4.493   1.356   9.455 -1.0037 -1.4165 -0.6571
 4230SOL    HW224153   4.431   1.473   9.374  2.1630 -1.1576 -0.5730
 4231SOL     OW24154   3.679   2.518   7.114  0.0323  0.6214  0.3113
 4231SOL    HW124155   3.624   2.519   7.193 -0.7737  0.7198 -0.2545
 4231SOL    HW224156   3.742   2.447   7.123  0.0181  0.5464 -0.2085
 4232SOL     OW24157   3.161   3.339   6.271 -0.3921 -0.0803 -0.0782
 4232SOL    HW124158   3.132   3.430   6.278 -0.3866  0.1178 -2.7204
 4232SOL    HW224159   3.256   3.344   6.259 -0.2873  1.8124  1.5690
 4233SOL     OW24160   3.400   3.881   6.046 -0.8467  0.1027  1.0035
 4233SOL    HW124161   3.433   3.921   6.127 -0.5583  3.3393 -0.6993
 4233SOL    HW224162   3.333   3.820   6.077  0.0199 -0.7527  1.2129
 4234SOL     OW24163   1.621   2.291   5.092  0.1900 -0.7567  0.1440
 4234SOL    HW124164   1.572   2.238   5.155 -1.2310  2.1040  1.4515
 4234SOL    HW224165   1.568   2.295   5.013  0.8164  1.9257 -0.1189
 4235SOL     OW24166   0.909   2.212   2.548  0.0978 -0.0143  0.3218
 4235SOL    HW124167   0.874   2.299   2.530 -0.5721  0.0073  1.7079
 4235SOL    HW224168   0.968   2.219   2.623  0.6446  0.1037 -0.1260
 4236SOL     OW24169   0.875   3.169  11.397 -0.4462 -0.3321 -0.2772
 4236SOL    HW124170   0.918   3.173  11.312  1.2887 -0.9306  0.5653
 4236SOL    HW224171   0.831   3.254  11.396  0.9009  0.3793  1.4973
 4237SOL     OW24172   2.037   0.975   9.055  0.4696  0.1031  0.1080
 4237SOL    HW124173   1.978   0.904   9.027 -0.1176 -0.2941  2.3121
 4237SOL    HW224174   2.119   0.949   9.013  0.4026  1.7262 -1.0104
 4238SOL     OW24175   1.831   2.830   6.485 -0.3149 -0.3831 -0.0343
 4238SOL    HW124176   1.738   2.829   6.464 -0.1000 -0.3514 -0.9585
 4238SOL    HW224177   1.834   2.767   6.557  1.5843  0.3193  0.5165
 4239SOL     OW24178   3.578   0.360   2.811  0.5964 -0.0195 -0.0505
 4239SOL    HW124179   3.600   0.306   2.735  1.0440 -0.6327  0.5288
 4239SOL    HW224180   3.484   0.340   2.816  0.1888  1.2052 -2.3143
 4240SOL     OW24181   2.552   3.056   8.594  0.2502  0.3305 -0.3707
 4240SOL    HW124182   2.609   3.065   8.517 -0.1374  0.0190 -0.6909
 4240SOL    HW224183   2.577   2.969   8.626  0.2258 -0.3449 -2.1785
 4241SOL     OW24184   1.201   0.506  11.997 -0.3689 -0.5380  0.3664
 4241SOL    HW124185   1.217   0.453  12.076  1.2820 -1.2751 -0.4478
 4241SOL    HW224186   1.199   0.594  12.034  1.0950 -0.9163  1.3886
 4242SOL     OW24187   3.141   3.251   4.985 -0.0955 -0.1457  0.5500
 4242SOL    HW124188   3.215   3.218   5.037  0.3033 -0.9798 -0.5367
 4242SOL    HW224189   3.184   3.274   4.903  0.9254  1.2427  1.4780
 4243SOL     OW24190   2.349   0.162  13.909  0.4834 -0.3276  0.2855
 4243SOL    HW124191   2.368   0.146  13.817 -2.3546 -0.5572 -0.2524
 4243SOL    HW224192   2.328   0.075  13.943  2.1492 -1.0233 -0.4747
 4244SOL     OW24193   3.225   4.229   3.332  0.0470 -0.1950  0.3833
 4244SOL    HW124194   3.293   4.263   3.273 -0.0583  0.7035  0.7734
 4244SOL    HW224195   3.182   4.312   3.355 -0.9338 -0.2538 -1.2369
 4245SOL     OW24196   2.409   2.656   5.806 -0.0827 -0.2470 -0.0959
 4245SOL    HW124197   2.400   2.716   5.732 -1.3905 -0.8297 -0.4108
 4245SOL    HW224198   2.486   2.689   5.852  0.3605 -3.6935  1.6245
 4246SOL     OW24199   3.677   3.768   1.133 -0.5091 -0.1854 -0.0932
 4246SOL    HW124200   3.661   3.694   1.074 -1.6684 -1.4916  1.8451
 4246SOL    HW224201   3.586   3.795   1.149 -0.2381  1.1436 -0.8255
 4247SOL     OW24202   2.496   4.100  16.835  0.0708  0.2201  0.1571
 4247SOL    HW124203   2.495   4.025  16.894 -0.9135 -0.3395 -0.5534
 4247SOL    HW224204   2.580   4.080  16.794  0.1585 -0.2054  0.5532
 4248SOL     OW24205   0.475   0.016   3.546 -0.5670  0.0806  0.0175
 4248SOL    HW124206   0.438   4.717   3.461  0.6508 -2.0606  0.1087
 4248SOL    HW224207   0.492   4.656   3.587 -2.0827 -0.4090 -0.3605
 4249SOL     OW24208   0.484   3.307   0.155 -0.1717  0.3203  0.0696
 4249SOL    HW124209   0.402   3.322   0.202 -0.8357  1.0792 -1.3234
 4249SOL    HW224210   0.453   3.237   0.099  1.9313 -1.3323  0.9512
 4250SOL     OW24211   0.948   0.698   7.808  0.1986 -0.2257 -0.3334
 4250SOL    HW124212   0.937   0.792   7.821 -1.4658 -0.2959 -1.1595
 4250SOL    HW224213   0.910   0.694   7.720 -1.2406 -1.5428  0.3463
 4251SOL     OW24214   3.121   2.999   2.816 -0.6856  0.0663 -0.3075
 4251SOL    HW124215   3.147   3.000   2.724  0.2193  1.7227 -0.0330
 4251SOL    HW224216   3.089   3.088   2.830  0.4582  0.6084 -1.1147
 4252SOL     OW24217   3.637   0.074   1.549  0.0028 -0.2999 -0.1564
 4252SOL    HW124218   3.665   0.023   1.625 -1.2100  0.9075  1.0983
 4252SOL    HW224219   3.684   0.157   1.557 -0.9529  0.1394  0.8421
 4253SOL     OW24220   1.090   0.588  15.969 -0.7005 -0.4335 -0.9820
 4253SOL    HW124221   1.169   0.541  15.997 -1.6775 -1.7801 -0.4632
 4253SOL    HW224222   1.037   0.508  15.960  0.7973 -1.5085 -0.3304
 4254SOL     OW24223   1.206   1.664   7.432 -0.3323 -0.1423  0.3814
 4254SOL    HW124224   1.175   1.667   7.342 -0.4835 -1.1589  0.3961
 4254SOL    HW224225   1.147   1.726   7.475  0.1756  0.7160 -0.1480
 4255SOL     OW24226   4.542   0.444   4.304  0.0816 -0.6464 -0.0130
 4255SOL    HW124227   4.453   0.445   4.338 -0.2857  2.2912 -1.0825
 4255SOL    HW224228   4.593   0.465   4.383 -3.0251  0.5001  1.6798
 4256SOL     OW24229   0.676   0.983   9.548 -0.3117  0.5846  0.8176
 4256SOL    HW124230   0.691   1.076   9.529  0.8849 -0.0910 -1.6038
 4256SOL    HW224231   0.591   0.986   9.592  0.6432  0.1282  2.6595
 4257SOL     OW24232   4.012   2.950   6.322  0.7199 -0.1864  0.0951
 4257SOL    HW124233   4.062   3.021   6.361 -0.1390  0.5091 -0.0594
 4257SOL    HW224234   4.090   2.913   6.279  0.9924 -2.2346  2.3755
 4258SOL     OW24235   2.656   2.638   6.641 -0.3179 -0.0922 -0.3154
 4258SOL    HW124236   2.637   2.690   6.720  1.3320 -0.3818  0.2765
 4258SOL    HW224237   2.586   2.659   6.579 -0.2948  2.4340  0.5038
 4259SOL     OW24238   3.558   2.917   9.503  0.0457  0.0429 -0.2614
 4259SOL    HW124239   3.638   2.966   9.485 -1.0307  1.8537 -0.0556
 4259SOL    HW224240   3.547   2.871   9.419 -0.8912  0.6123 -0.4509
 4260SOL     OW24241   0.562   2.519   3.437  0.3349  0.0658  0.1205
 4260SOL    HW124242   0.509   2.501   3.514  1.7989 -2.5782  0.4948
 4260SOL    HW224243   0.630   2.572   3.479  0.8853 -1.2053  0.8358
 4261SOL     OW24244   1.606   4.608  12.633 -0.1071 -0.0756 -0.2534
 4261SOL    HW124245   1.682   4.603  12.575 -0.6204 -0.6848 -0.8787
 4261SOL    HW224246   1.637   4.651  12.712 -1.1109  1.1506 -0.5264
 4262SOL     OW24247   0.151   0.152   2.687  0.0261  0.2800  0.0862
 4262SOL    HW124248   0.191   0.158   2.600  1.0550  1.7248  0.6515
 4262SOL    HW224249   0.070   0.101   2.677 -0.0888  0.6986 -1.1506
 4263SOL     OW24250   2.032   2.636   0.400 -0.2196  0.1271 -0.2507
 4263SOL    HW124251   2.097   2.697   0.366  1.1744 -1.1293  0.1627
 4263SOL    HW224252   2.095   2.577   0.440  1.6594  1.8283 -0.6780
 4264SOL     OW24253   0.560   4.647  13.917 -0.3577 -0.0177  0.5523
 4264SOL    HW124254   0.574   0.010  13.882  2.0629 -1.2550 -1.5681
 4264SOL    HW224255   0.557   4.595  13.837 -1.7009 -1.1649  1.3394
 4265SOL     OW24256   0.739   4.264  11.698 -0.3846 -0.3536 -0.1080
 4265SOL    HW124257   0.810   4.324  11.721 -1.5395  0.8438  0.3165
 4265SOL    HW224258   0.753   4.195  11.763  3.6497  0.8667  0.3313
 4266SOL     OW24259   1.998   3.439   7.260 -0.3803  0.0423  0.2158
 4266SOL    HW124260   1.926   3.490   7.225 -0.8074  0.0474  1.1068
 4266SOL    HW224261   1.993   3.448   7.356 -0.9271  0.1744  0.1708
 4267SOL     OW24262   4.499   0.396  11.799  0.7228  0.3088 -0.3185
 4267SOL    HW124263   4.462   0.331  11.858 -1.5172  1.1727 -0.7772
 4267SOL    HW224264   4.580   0.420  11.845  0.6943 -1.3789  0.6241
 4268SOL     OW24265   1.373   4.697  16.389  0.1704  0.1470 -0.2112
 4268SOL    HW124266   1.381   0.063  16.417  0.8944 -0.1704  0.6180
 4268SOL    HW224267   1.354   4.647  16.468  0.8171  0.4905  0.1662
 4269SOL     OW24268   0.081   3.896   4.352 -0.1762  0.8737 -0.3600
 4269SOL    HW124269   0.002   3.910   4.403 -0.8816 -0.5032 -1.0620
 4269SOL    HW224270   0.055   3.809   4.321 -2.7879  0.7047  2.3708
 4270SOL     OW24271   1.158   0.473  11.531 -0.4175  0.7824  0.1472
 4270SOL    HW124272   1.170   0.434  11.618 -2.1085  1.0471  0.4951
 4270SOL    HW224273   1.063   0.466  11.525 -0.2748  0.4897 -1.8802
 4271SOL     OW24274   1.412   0.398   4.675 -0.3856  0.2095 -0.3156
 4271SOL    HW124275   1.442   0.307   4.682 -1.5899 -0.1800 -0.1045
 4271SOL    HW224276   1.456   0.439   4.749  1.1922 -0.4492 -0.8873
 4272SOL     OW24277   1.138   0.747  13.479  0.0292 -0.5670 -0.7101
 4272SOL    HW124278   1.160   0.811  13.412 -0.5341  0.8657  0.4818
 4272SOL    HW224279   1.180   0.775  13.560 -1.5492  1.3851 -0.5707
 4273SOL     OW24280   2.432   1.592   4.357  0.5471 -0.1148  0.3085
 4273SOL    HW124281   2.464   1.515   4.404  1.2436 -0.1975 -0.2922
 4273SOL    HW224282   2.506   1.653   4.363 -0.1813  0.7573  0.4419
 4274SOL     OW24283   1.269   2.460  11.848  0.4916  0.0150  0.2933
 4274SOL    HW124284   1.217   2.380  11.838  1.3610 -0.5052 -0.0780
 4274SOL    HW224285   1.270   2.496  11.759  1.0921  1.4447  0.8751
 4275SOL     OW24286   0.741   3.150   5.900  0.4107 -0.1642 -0.3558
 4275SOL    HW124287   0.806   3.213   5.930  1.5418 -1.2524 -0.5488
 4275SOL    HW224288   0.788   3.085   5.849  1.3602  0.9294 -0.8724
 4276SOL     OW24289   1.196   1.509  17.312  0.0656  0.3961 -0.4804
 4276SOL    HW124290   1.250   1.450  17.365  0.1416  0.5019 -0.4390
 4276SOL    HW224291   1.247   1.514  17.231 -1.4296 -0.3151 -1.4648
 4277SOL     OW24292   4.041   1.831   9.012  0.2508 -0.0688 -0.6056
 4277SOL    HW124293   4.110   1.812   8.949  1.8739 -0.6752  1.3565
 4277SOL    HW224294   4.046   1.744   9.052  0.9072  0.5488  0.6448
 4278SOL     OW24295   0.226   4.412   3.533 -0.0392  0.4708  0.3745
 4278SOL    HW124296   0.180   4.373   3.458  0.9801 -1.3369  0.6843
 4278SOL    HW224297   0.181   4.496   3.531  0.1664  0.6321  2.8228
 4279SOL     OW24298   1.241   4.026  13.415 -0.3939  0.3464 -0.5914
 4279SOL    HW124299   1.268   4.107  13.458 -0.6947  1.3721 -2.3569
 4279SOL    HW224300   1.256   3.966  13.489 -0.2958  1.3355  0.1846
 4280SOL     OW24301   3.176   0.764   7.409 -0.1071  0.1296  0.3955
 4280SOL    HW124302   3.152   0.855   7.391 -2.3251 -0.1815  1.7743
 4280SOL    HW224303   3.149   0.746   7.499  0.9070 -1.1271  0.4626
 4281SOL     OW24304   3.404   0.477   1.203 -0.0424  0.6850  0.6692
 4281SOL    HW124305   3.453   0.471   1.121 -1.4701  0.8104 -0.1873
 4281SOL    HW224306   3.319   0.444   1.176  1.0904 -0.5326 -1.4193
 4282SOL     OW24307   4.223   2.734  10.520 -0.4026 -0.0329 -0.3730
 4282SOL    HW124308   4.187   2.822  10.530  1.7297  0.9932 -1.7624
 4282SOL    HW224309   4.199   2.692  10.603 -0.7735  0.5415 -0.1939
 4283SOL     OW24310   1.679   3.197  14.234 -0.3200 -0.3971  0.2054
 4283SOL    HW124311   1.632   3.147  14.168 -0.7820  2.7617 -1.8998
 4283SOL    HW224312   1.767   3.160  14.231 -0.0295  0.2122  1.2668
 4284SOL     OW24313   3.050   1.813   4.061 -0.0005 -0.3322  0.0491
 4284SOL    HW124314   3.122   1.873   4.041  1.1137 -1.8468 -0.4282
 4284SOL    HW224315   3.101   1.732   4.065 -0.9091 -0.8174  1.8198
 4285SOL     OW24316   1.079   1.185   7.578  0.3849  0.4937  0.2593
 4285SOL    HW124317   1.071   1.232   7.661  1.0822  1.4312 -0.2073
 4285SOL    HW224318   1.143   1.239   7.531  0.8425  0.7933  1.2239
 4286SOL     OW24319   0.845   1.066   5.281 -0.1231 -0.0637 -0.0403
 4286SOL    HW124320   0.824   1.159   5.270 -0.0544 -0.0620 -0.1615
 4286SOL    HW224321   0.916   1.050   5.219  0.2955  1.7673 -0.0256
 4287SOL     OW24322   1.429   3.470  15.578 -0.2992  0.1265 -0.2135
 4287SOL    HW124323   1.491   3.521  15.630  1.4511 -2.6143  0.3629
 4287SOL    HW224324   1.484   3.394  15.562 -1.4069 -0.9273  0.9343
 4288SOL     OW24325   3.974   1.340  11.077 -0.6292  0.7118 -0.0280
 4288SOL    HW124326   4.017   1.420  11.047  0.6684 -0.0413 -0.1719
 4288SOL    HW224327   3.887   1.344  11.036 -0.7939  0.8410  0.3407
 4289SOL     OW24328   4.129   4.334   3.245 -0.2787 -0.1248  0.3196
 4289SOL    HW124329   4.133   4.283   3.326 -1.7604 -0.7255  0.0048
 4289SOL    HW224330   4.052   4.386   3.267 -0.2917 -0.5161  1.1910
 4290SOL     OW24331   2.167   0.616   8.226 -0.0795 -0.1360  0.4972
 4290SOL    HW124332   2.215   0.541   8.259  0.5520  0.8823  1.8799
 4290SOL    HW224333   2.094   0.567   8.188  1.2255 -1.9379  0.3373
 4291SOL     OW24334   1.537   3.506  10.142  0.1916 -0.2891 -0.6348
 4291SOL    HW124335   1.520   3.426  10.192  0.1898 -0.3245 -0.6928
 4291SOL    HW224336   1.481   3.563  10.195 -2.1429 -3.5634  0.4474
 4292SOL     OW24337   4.635   4.543   5.178  0.3241 -0.5266 -0.1389
 4292SOL    HW124338   4.708   4.483   5.163  1.2652  0.0053  2.2815
 4292SOL    HW224339   4.576   4.491   5.234  0.3658 -1.7491 -1.2236
 4293SOL     OW24340   2.669   2.049   2.700 -0.4476  0.3858  0.6541
 4293SOL    HW124341   2.738   1.983   2.708 -0.6196 -0.1687 -2.7583
 4293SOL    HW224342   2.697   2.068   2.611 -3.9405  1.1551 -0.2477
 4294SOL     OW24343   0.333   3.069   4.983 -0.2625 -0.0424  0.3487
 4294SOL    HW124344   0.323   3.107   5.070  0.8705  0.6440  0.1719
 4294SOL    HW224345   0.412   3.119   4.961 -0.3216  0.0084  0.2513
 4295SOL     OW24346   2.307   3.620   1.351  0.1373  0.4149 -0.3705
 4295SOL    HW124347   2.247   3.654   1.418 -1.0423  0.2615 -1.3356
 4295SOL    HW224348   2.242   3.622   1.280  1.1258 -1.7941 -1.3192
 4296SOL     OW24349   0.855   1.454   5.898  0.0634 -0.1858  0.5580
 4296SOL    HW124350   0.773   1.501   5.884  0.5017  0.2006 -0.7403
 4296SOL    HW224351   0.917   1.504   5.845 -0.0668 -1.8257 -1.1364
 4297SOL     OW24352   0.955   1.056   4.039 -0.3253 -0.4995 -0.2697
 4297SOL    HW124353   0.999   1.141   4.038 -2.0844  0.4084 -1.0398
 4297SOL    HW224354   0.976   1.025   3.950  1.1017 -0.3028 -0.0016
 4298SOL     OW24355   4.077   3.462   7.525  0.2586  0.2540 -0.0468
 4298SOL    HW124356   4.053   3.535   7.582  4.4663  0.6727  1.1819
 4298SOL    HW224357   3.997   3.417   7.497  0.3665 -1.2697  2.0587
 4299SOL     OW24358   4.351   4.378   9.731  0.0160 -0.0846  0.3753
 4299SOL    HW124359   4.300   4.404   9.654  0.3277 -0.1331  0.1549
 4299SOL    HW224360   4.346   4.283   9.723  1.9635 -0.2061  0.5953
 4300SOL     OW24361   3.945   2.180   3.125  0.0847 -0.0894  0.1895
 4300SOL    HW124362   3.908   2.233   3.054  0.6986 -2.2127 -1.7244
 4300SOL    HW224363   4.008   2.132   3.071  0.2312  0.9871 -0.6137
 4301SOL     OW24364   1.107   4.135   3.597  0.3525 -0.1613  0.2611
 4301SOL    HW124365   1.193   4.140   3.638 -0.6238 -0.7511  2.3948
 4301SOL    HW224366   1.075   4.052   3.632 -0.8712 -0.0039 -0.4761
 4302SOL     OW24367   1.078   3.693   0.626  1.0785  0.2256 -0.0444
 4302SOL    HW124368   1.168   3.685   0.657 -0.7530 -0.5642  5.1576
 4302SOL    HW224369   1.078   3.605   0.588 -2.5117  0.1914  0.0079
 4303SOL     OW24370   0.922   0.788  16.811  0.2469  0.1229  0.2781
 4303SOL    HW124371   0.865   0.853  16.769 -0.1433 -0.2022  0.3067
 4303SOL    HW224372   1.004   0.831  16.833  0.9634 -0.6412 -0.8809
 4304SOL     OW24373   3.769   0.624   9.665  0.2086  0.3708  0.1378
 4304SOL    HW124374   3.747   0.640   9.756  0.8269  0.0564  0.3366
 4304SOL    HW224375   3.710   0.684   9.618 -0.7308 -0.2041  0.5822
 4305SOL     OW24376   3.049   0.367   3.117  0.1503  0.0273  0.2516
 4305SOL    HW124377   3.120   0.307   3.090  0.4657 -0.3205  1.8379
 4305SOL    HW224378   3.063   0.442   3.060  0.8537  0.6301  1.2160
 4306SOL     OW24379   3.991   0.930   0.332 -0.3517 -0.4045 -0.0905
 4306SOL    HW124380   4.033   0.965   0.253  2.3625 -0.7454  1.1873
 4306SOL    HW224381   3.977   0.841   0.300  0.0505  0.0120 -1.4181
 4307SOL     OW24382   3.853   2.885   5.697  0.9845 -0.0548 -0.4903
 4307SOL    HW124383   3.913   2.839   5.639 -0.0470 -0.3683 -1.3218
 4307SOL    HW224384   3.809   2.943   5.635 -1.5442 -0.9801  0.4146
 4308SOL     OW24385   2.222   3.146  17.127 -0.1651  0.3631  0.0165
 4308SOL    HW124386   2.310   3.150  17.089 -0.9283  1.2235 -1.6805
 4308SOL    HW224387   2.201   3.239  17.117 -0.1084  0.4115  0.3547
 4309SOL     OW24388   2.563   1.636   4.963  0.1208 -0.4104 -0.5033
 4309SOL    HW124389   2.658   1.630   4.967  0.2300  0.8374 -1.3779
 4309SOL    HW224390   2.552   1.552   4.919  1.0345  0.4426 -2.3753
 4310SOL     OW24391   0.446   1.484   5.423  0.2248  0.1143 -0.1968
 4310SOL    HW124392   0.504   1.493   5.499  0.3884  1.1706 -0.4550
 4310SOL    HW224393   0.370   1.537   5.448  0.0309  1.7064 -4.2273
 4311SOL     OW24394   2.010   2.696   2.701  0.4169 -0.4570 -0.4571
 4311SOL    HW124395   1.976   2.710   2.613 -0.2221 -0.9804 -0.3016
 4311SOL    HW224396   1.933   2.657   2.744  0.5931  0.8619  1.0221
 4312SOL     OW24397   2.195   0.278  16.369 -0.0893  0.1815 -0.2489
 4312SOL    HW124398   2.105   0.246  16.367 -0.4071  1.1100 -1.0753
 4312SOL    HW224399   2.233   0.234  16.445  1.6708 -0.0500 -1.2771
 4313SOL     OW24400   2.889   3.259   0.673 -0.0468  0.0756  0.3358
 4313SOL    HW124401   2.953   3.192   0.697  0.4413  0.1986 -0.6271
 4313SOL    HW224402   2.836   3.204   0.614 -1.7282  0.4069  1.5530
 4314SOL     OW24403   0.899   0.395  11.486  0.1708 -0.1231  0.2065
 4314SOL    HW124404   0.818   0.447  11.488 -0.9368 -1.8094 -0.8765
 4314SOL    HW224405   0.896   0.358  11.398  1.7098  2.4823 -0.9771
 4315SOL     OW24406   1.005   3.216   3.532  0.4283  0.5550 -0.4907
 4315SOL    HW124407   1.094   3.217   3.498  0.4808 -0.9802 -0.4174
 4315SOL    HW224408   0.975   3.306   3.521  1.3844  1.1718  1.9147
 4316SOL     OW24409   1.972   1.214   3.178 -0.4725  0.2011 -0.2723
 4316SOL    HW124410   2.005   1.303   3.185 -0.3116  0.1412 -0.2667
 4316SOL    HW224411   1.974   1.206   3.082  1.6687  0.2107 -0.2370
 4317SOL     OW24412   4.645   1.585   5.823  0.5063  0.3553  0.1766
 4317SOL    HW124413   0.003   1.630   5.837  1.4067 -0.6333 -2.0276
 4317SOL    HW224414   4.647   1.525   5.898 -0.4246  0.4994  0.3165
 4318SOL     OW24415   0.485   3.561   6.323  0.4497 -0.4475 -0.4262
 4318SOL    HW124416   0.438   3.597   6.248  1.6072 -0.5817 -1.2165
 4318SOL    HW224417   0.433   3.600   6.393  1.2646 -0.5793  0.2475
 4319SOL     OW24418   0.451   3.295   4.528  0.3865  0.3390 -0.3748
 4319SOL    HW124419   0.487   3.357   4.464  1.0768 -1.2134 -1.4778
 4319SOL    HW224420   0.440   3.221   4.469 -0.3708  0.1552 -0.0030
 4320SOL     OW24421   0.153   0.430  14.920 -0.4454 -0.3948  0.0280
 4320SOL    HW124422   0.108   0.360  14.872 -1.4223 -1.3479  2.3054
 4320SOL    HW224423   0.173   0.494  14.852 -1.5760  0.9023  0.9180
 4321SOL     OW24424   2.229   3.632   3.675 -0.0225 -0.2557 -0.0927
 4321SOL    HW124425   2.320   3.613   3.694  0.2842  3.0159  1.8443
 4321SOL    HW224426   2.232   3.728   3.677  0.9257 -0.3054  0.7439
 4322SOL     OW24427   0.302   4.134   3.662 -0.9390 -0.0122  0.5406
 4322SOL    HW124428   0.301   4.208   3.601  2.9152 -1.6622 -1.5491
 4322SOL    HW224429   0.362   4.161   3.731 -0.6042 -0.8445  0.5824
 4323SOL     OW24430   1.757   2.983   8.316  0.1739 -0.4116 -0.7527
 4323SOL    HW124431   1.803   2.951   8.238 -0.5775 -0.3144 -1.2349
 4323SOL    HW224432   1.780   2.912   8.375  3.1421  1.0738 -0.0928
 4324SOL     OW24433   4.416   0.837  16.262 -0.3503 -0.1597 -0.0963
 4324SOL    HW124434   4.457   0.806  16.343 -0.7516 -0.9590 -0.2049
 4324SOL    HW224435   4.351   0.895  16.304 -0.3500  1.0251 -1.7311
 4325SOL     OW24436   0.646   4.122   6.067 -0.4341 -0.9729  0.3808
 4325SOL    HW124437   0.630   4.176   5.989 -0.8568  0.4777  1.4686
 4325SOL    HW224438   0.716   4.175   6.105 -0.5592 -0.1499 -0.5367
 4326SOL     OW24439   3.605   3.978   4.295  0.5784  0.0772 -0.7566
 4326SOL    HW124440   3.684   4.029   4.314  0.3196 -0.7599  2.6049
 4326SOL    HW224441   3.630   3.924   4.220  1.1752 -0.4119 -0.2116
 4327SOL     OW24442   2.364   3.396   8.408 -0.3033 -0.6356  0.0195
 4327SOL    HW124443   2.428   3.428   8.472  0.3514 -2.6661  0.3813
 4327SOL    HW224444   2.367   3.455   8.333  0.0250 -0.7639 -0.0662
 4328SOL     OW24445   0.542   0.607   5.682 -0.1970 -0.5470  0.3969
 4328SOL    HW124446   0.543   0.531   5.739  1.3797 -1.4945 -0.9085
 4328SOL    HW224447   0.618   0.659   5.708 -0.9323  0.5706  0.3393
 4329SOL     OW24448   2.755   3.255   6.382  1.1276  0.0776 -0.4994
 4329SOL    HW124449   2.762   3.202   6.462 -3.0370 -0.9333 -0.8258
 4329SOL    HW224450   2.843   3.293   6.381  1.3651 -0.5129 -1.9203
 4330SOL     OW24451   4.172   4.253  11.901 -0.2847  0.1735 -0.2060
 4330SOL    HW124452   4.187   4.260  11.996  0.5697 -2.3007 -0.1794
 4330SOL    HW224453   4.235   4.193  11.862  0.3461 -0.0657  1.1625
 4331SOL     OW24454   4.076   1.928   1.000  0.2762 -0.5282 -0.0850
 4331SOL    HW124455   4.163   1.933   0.961 -0.1266  1.0314 -0.8103
 4331SOL    HW224456   4.032   1.883   0.927  1.9732 -1.0484 -0.7941
 4332SOL     OW24457   3.623   0.750   0.224 -0.0475  0.1098  0.2261
 4332SOL    HW124458   3.717   0.764   0.215 -0.4542  1.6646 -1.5996
 4332SOL    HW224459   3.597   0.834   0.186 -0.0521 -0.3830 -0.8431
 4333SOL     OW24460   0.762   3.406   2.443  0.5895  0.6187  0.1063
 4333SOL    HW124461   0.806   3.444   2.367  0.6334 -0.1819 -0.2607
 4333SOL    HW224462   0.672   3.409   2.412 -0.3407 -0.2380  2.7285
 4334SOL     OW24463   3.464   1.416  14.130  0.2227 -0.3517  0.4959
 4334SOL    HW124464   3.500   1.454  14.211  0.1017 -0.8133  0.7676
 4334SOL    HW224465   3.388   1.376  14.172 -0.1049 -0.1739  0.0652
 4335SOL     OW24466   2.637   3.156   2.775 -0.2311  0.2790  0.5431
 4335SOL    HW124467   2.604   3.245   2.763  0.1937  0.1370 -1.5758
 4335SOL    HW224468   2.563   3.099   2.755  0.4812 -0.4018 -0.1597
 4336SOL     OW24469   3.623   0.167   1.217 -0.8964  0.0352  0.4455
 4336SOL    HW124470   3.563   0.200   1.283 -0.0997  0.7520  0.8191
 4336SOL    HW224471   3.619   0.073   1.235 -1.1108 -0.0025  0.2077
 4337SOL     OW24472   3.230   4.309   5.001  0.4316  0.2691 -0.7025
 4337SOL    HW124473   3.309   4.264   5.031  0.1325  1.0479  1.1983
 4337SOL    HW224474   3.206   4.261   4.921  3.8941 -4.0004  0.7988
 4338SOL     OW24475   0.716   2.630   5.052  0.0676  0.0873 -0.7152
 4338SOL    HW124476   0.745   2.581   4.975  0.4708 -1.6170  0.5152
 4338SOL    HW224477   0.639   2.670   5.011  0.5619  1.0750 -0.6677
 4339SOL     OW24478   0.467   3.609   4.686  0.3942  0.0183 -0.1152
 4339SOL    HW124479   0.388   3.606   4.633  0.0363  1.2337  0.3555
 4339SOL    HW224480   0.430   3.640   4.769 -1.6151 -1.1549 -0.5935
 4340SOL     OW24481   4.273   2.322  12.075  0.9963 -0.0470 -0.2280
 4340SOL    HW124482   4.279   2.270  11.995 -1.6264  2.3358 -1.9821
 4340SOL    HW224483   4.363   2.355  12.076  0.8625  0.4062 -2.3738
 4341SOL     OW24484   0.053   0.280  14.568  0.5162 -0.3905  1.1353
 4341SOL    HW124485   4.710   0.307  14.506  0.6031 -1.6718  0.4837
 4341SOL    HW224486   0.135   0.294  14.520  0.1453  0.3251  0.7028
 4342SOL     OW24487   3.999   4.723   0.972 -0.2629 -0.1835  0.0261
 4342SOL    HW124488   3.979   0.042   0.890  1.0113  0.0196 -0.1614
 4342SOL    HW224489   3.935   4.652   0.964  0.5932 -0.6887 -2.2007
 4343SOL     OW24490   0.770   3.356   6.782 -0.4328 -0.8458 -0.4370
 4343SOL    HW124491   0.684   3.316   6.792 -0.1069 -1.7136 -1.0939
 4343SOL    HW224492   0.819   3.310   6.850  0.4778  2.2174  0.9697
 4344SOL     OW24493   3.248   4.520   6.302 -0.2136 -0.3155  0.6071
 4344SOL    HW124494   3.160   4.486   6.317 -0.2405 -0.8523 -0.8259
 4344SOL    HW224495   3.265   4.501   6.210 -0.0547  2.4758  0.0543
 4345SOL     OW24496   2.648   2.505   0.646  0.9236 -0.3750  0.4283
 4345SOL    HW124497   2.671   2.567   0.715  1.4114  0.4260 -0.4444
 4345SOL    HW224498   2.689   2.428   0.685  0.4515 -0.6190  0.4320
 4346SOL     OW24499   1.240   2.465  12.846  0.1364 -0.6677 -0.1968
 4346SOL    HW124500   1.159   2.436  12.803  0.1649 -0.5362 -0.3408
 4346SOL    HW224501   1.216   2.448  12.937  0.4224  0.0961  0.0230
 4347SOL     OW24502   4.208   2.015   7.477  0.5055  0.2271  0.0131
 4347SOL    HW124503   4.222   1.969   7.559 -1.3476  0.6469  0.5667
 4347SOL    HW224504   4.117   2.040   7.492  0.4052 -0.7240  0.9334
 4348SOL     OW24505   4.565   1.060  10.670  0.7988 -0.1904  0.0216
 4348SOL    HW124506   4.550   1.009  10.590 -2.0541  0.1714  0.3136
 4348SOL    HW224507   4.619   1.135  10.645  2.7618 -1.3218  0.8624
 4349SOL     OW24508   2.992   3.983  10.859 -0.5564  0.2139 -0.1253
 4349SOL    HW124509   3.021   4.039  10.787  0.7833 -0.5865 -0.2134
 4349SOL    HW224510   3.011   3.899  10.817 -1.0368  0.2269 -0.3663
 4350SOL     OW24511   0.732   1.592  10.846  0.0584  0.2420 -0.8913
 4350SOL    HW124512   0.813   1.641  10.858  2.2369 -2.6623 -3.8382
 4350SOL    HW224513   0.761   1.517  10.897 -1.4732 -0.2111 -0.6781
 4351SOL     OW24514   0.706   4.447   3.837 -0.2104  0.1529 -0.6268
 4351SOL    HW124515   0.627   4.475   3.883 -1.1931 -1.2330 -1.4754
 4351SOL    HW224516   0.728   4.379   3.901 -0.1573  0.8433  0.0927
 4352SOL     OW24517   2.454   0.720   0.793  0.4917 -0.6809 -0.2124
 4352SOL    HW124518   2.394   0.656   0.755  0.5903 -0.5387 -0.6106
 4352SOL    HW224519   2.416   0.800   0.756  3.0155  0.1833 -0.9586
 4353SOL     OW24520   3.469   3.048   4.482 -0.3469 -0.2512  0.3927
 4353SOL    HW124521   3.562   3.044   4.459 -0.1191  1.9003  0.9049
 4353SOL    HW224522   3.464   2.969   4.536  0.9399 -0.4337  0.2430
 4354SOL     OW24523   2.960   2.267   3.216 -0.2643 -0.0688 -0.1229
 4354SOL    HW124524   3.018   2.194   3.233 -0.9952 -0.2970  1.3562
 4354SOL    HW224525   3.013   2.342   3.246  0.0943 -1.2761  2.2565
 4355SOL     OW24526   2.028   1.424  11.761 -0.0331 -0.3986  0.3195
 4355SOL    HW124527   2.039   1.515  11.790  0.5225  0.0805 -1.3863
 4355SOL    HW224528   1.941   1.432  11.721  0.5776 -3.5086 -1.5739
 4356SOL     OW24529   2.803   1.979   6.907  0.0188 -0.3310 -0.1592
 4356SOL    HW124530   2.801   2.074   6.917  0.7659 -0.4943  1.5925
 4356SOL    HW224531   2.891   1.958   6.939  0.7092  1.5047 -0.9050
 4357SOL     OW24532   1.954   1.629   4.303  0.2824 -0.6884  0.0959
 4357SOL    HW124533   1.974   1.618   4.210 -0.1307  2.1010 -0.3326
 4357SOL    HW224534   1.866   1.663   4.289  0.5591 -0.2264 -0.5130
 4358SOL     OW24535   0.297   0.083   4.309 -0.2937 -0.2200 -0.1795
 4358SOL    HW124536   0.367   0.037   4.262 -0.2784  1.0133 -1.3630
 4358SOL    HW224537   0.230   0.086   4.240 -1.0498 -2.5381  0.4375
 4359SOL     OW24538   2.250   0.936   3.155 -0.3381  0.3688  0.1825
 4359SOL    HW124539   2.221   0.871   3.091  3.2526 -0.0620 -1.0395
 4359SOL    HW224540   2.163   0.967   3.179 -0.5392 -0.5621  0.6861
 4360SOL     OW24541   3.604   0.740   5.677  0.4971 -0.2800  0.0809
 4360SOL    HW124542   3.662   0.810   5.649 -1.4211  1.6055  0.8001
 4360SOL    HW224543   3.672   0.682   5.712 -1.1259 -3.0708 -1.4168
 4361SOL     OW24544   2.909   4.275   2.708 -0.1346 -0.0148  0.3540
 4361SOL    HW124545   2.976   4.208   2.701 -1.3443 -1.3897  1.9451
 4361SOL    HW224546   2.844   4.233   2.652 -0.7199  2.2422 -0.7027
 4362SOL     OW24547   4.092   1.702  17.675  0.1085 -0.2631  0.3518
 4362SOL    HW124548   4.054   1.786   0.002 -0.3079 -0.2690 -0.1837
 4362SOL    HW224549   4.054   1.651   0.045 -0.7133 -3.3240 -2.3163
 4363SOL     OW24550   2.160   0.682   5.584 -0.4773  0.4881  0.1097
 4363SOL    HW124551   2.169   0.664   5.491 -0.6675  0.0671  0.1718
 4363SOL    HW224552   2.112   0.764   5.591 -0.6940  0.2839  1.0012
 4364SOL     OW24553   0.575   2.658   0.678  0.2579  0.3430  0.6878
 4364SOL    HW124554   0.560   2.752   0.666 -1.9485  0.4371  4.0864
 4364SOL    HW224555   0.541   2.621   0.597  0.2617  1.0229  0.3761
 4365SOL     OW24556   4.025   4.576   5.592 -0.3434 -0.0791  0.1804
 4365SOL    HW124557   4.093   4.523   5.635  1.3747  1.9915  0.0455
 4365SOL    HW224558   3.989   4.505   5.540  1.8636  0.4632 -2.0675
 4366SOL     OW24559   2.490   3.565  14.927  0.4681  0.0835  0.7909
 4366SOL    HW124560   2.496   3.522  14.842  0.2200 -0.4697  1.0558
 4366SOL    HW224561   2.471   3.497  14.991  0.6146 -1.2405 -0.5659
 4367SOL     OW24562   1.552   2.714   3.506 -0.1145  0.1042  0.6808
 4367SOL    HW124563   1.549   2.773   3.431  0.1578 -0.7344  0.0095
 4367SOL    HW224564   1.461   2.723   3.532 -0.2184 -2.1756  1.0998
 4368SOL     OW24565   0.105   1.104   1.390  0.2237 -0.2544  0.6837
 4368SOL    HW124566   0.063   1.019   1.396  0.9080 -0.5720  0.9811
 4368SOL    HW224567   0.068   1.130   1.306 -0.4428  0.1631  1.1083
 4369SOL     OW24568   3.273   1.848   3.783  0.1956  0.0447 -0.5294
 4369SOL    HW124569   3.214   1.863   3.709  0.7462  2.7280 -0.4270
 4369SOL    HW224570   3.278   1.941   3.804 -1.5623  0.3859 -1.5919
 4370SOL     OW24571   1.324   2.273  10.261 -0.1621 -0.4213 -0.1070
 4370SOL    HW124572   1.381   2.223  10.202  3.1989  0.8690  2.0921
 4370SOL    HW224573   1.385   2.268  10.334 -1.1821  4.2331  1.0503
 4371SOL     OW24574   3.810   4.278   5.702 -0.5664  0.1658  0.1964
 4371SOL    HW124575   3.737   4.247   5.649  0.0773 -0.2484 -0.4573
 4371SOL    HW224576   3.890   4.281   5.649  0.5199  1.2781  1.8963
 4372SOL     OW24577   3.062   4.640   3.781 -0.7186 -0.6715  0.2670
 4372SOL    HW124578   3.118   4.562   3.775 -2.2242 -1.6670 -1.3494
 4372SOL    HW224579   3.130   4.695   3.817 -1.6262  0.7900 -0.2649
 4373SOL     OW24580   2.016   1.108   5.283  0.0101  0.5279  0.0106
 4373SOL    HW124581   2.043   1.196   5.310  1.8632 -0.2797  0.7662
 4373SOL    HW224582   2.021   1.062   5.367 -1.4481 -1.4839 -1.0080
 4374SOL     OW24583   3.632   3.377   8.449 -0.2813  0.1611  0.4782
 4374SOL    HW124584   3.690   3.410   8.381  0.5757  0.9659  1.6089
 4374SOL    HW224585   3.569   3.448   8.440 -0.1563  0.0173 -1.4190
 4375SOL     OW24586   1.465   4.115   4.468  0.4870  0.1235  0.0153
 4375SOL    HW124587   1.427   4.027   4.462  0.7842  0.2640 -3.7636
 4375SOL    HW224588   1.431   4.144   4.553 -1.2761 -1.2489 -0.2280
 4376SOL     OW24589   4.294   3.374   6.091  0.6736 -0.5225  0.2173
 4376SOL    HW124590   4.354   3.413   6.154  1.5800 -0.7299 -0.5154
 4376SOL    HW224591   4.337   3.299   6.050 -1.9181 -2.3087  0.7574
 4377SOL     OW24592   1.641   1.970   3.758  0.4606  0.4802 -0.5002
 4377SOL    HW124593   1.674   1.909   3.691 -0.7102 -0.3294 -0.3388
 4377SOL    HW224594   1.605   2.037   3.700  1.0323  0.2527 -1.1216
 4378SOL     OW24595   0.297   1.980  14.905  0.3406  0.2375  0.0786
 4378SOL    HW124596   0.293   1.902  14.961  2.0540  0.5381  0.6084
 4378SOL    HW224597   0.352   1.942  14.837 -1.0480 -1.5929 -0.0368
 4379SOL     OW24598   1.869   2.155   0.888 -0.3149 -0.3589 -0.1656
 4379SOL    HW124599   1.801   2.100   0.926 -0.5696  1.5623  2.1654
 4379SOL    HW224600   1.821   2.236   0.870  1.8301  0.8039 -0.6811
 4380SOL     OW24601   2.794   0.620   9.281  0.7038 -0.1633 -0.2886
 4380SOL    HW124602   2.843   0.693   9.319  0.7636 -0.0302 -0.6206
 4380SOL    HW224603   2.819   0.540   9.327  0.3002 -0.6436 -0.8959
 4381SOL     OW24604   4.439   1.342   6.880  0.3012 -0.3135  0.0879
 4381SOL    HW124605   4.446   1.340   6.785 -0.3020 -1.0032  0.0571
 4381SOL    HW224606   4.440   1.436   6.895 -0.2805 -0.5712  1.7372
 4382SOL     OW24607   2.837   4.622   5.360 -0.5411  0.5219  0.5979
 4382SOL    HW124608   2.754   4.620   5.311  0.7991 -1.1274 -1.6375
 4382SOL    HW224609   2.886   4.687   5.309  1.5539 -1.8254 -0.4160
 4383SOL     OW24610   0.517   3.036   6.463  0.3027 -0.1136  0.2573
 4383SOL    HW124611   0.514   3.132   6.455  1.7750  0.0187  1.2764
 4383SOL    HW224612   0.590   3.021   6.402 -0.6051  0.2794 -0.9373
 4384SOL     OW24613   0.714   4.039   5.485 -0.2589  0.2002  0.0851
 4384SOL    HW124614   0.755   4.041   5.398  0.0405 -2.2973  0.1609
 4384SOL    HW224615   0.735   4.120   5.531  0.7601  1.2606 -2.2475
 4385SOL     OW24616   1.353   1.944   6.468 -0.1914  0.5359  0.5183
 4385SOL    HW124617   1.417   1.986   6.410 -0.0930  0.5818  0.6612
 4385SOL    HW224618   1.411   1.931   6.543  3.2829 -0.1041 -2.2681
 4386SOL     OW24619   3.133   3.646  11.039 -0.1735  0.4352 -0.0082
 4386SOL    HW124620   3.192   3.721  11.043  2.0974 -1.1859 -3.1464
 4386SOL    HW224621   3.067   3.667  11.105  0.4458  0.0329  0.7481
 4387SOL     OW24622   3.668   0.326  15.749 -0.1706  0.3905  0.2990
 4387SOL    HW124623   3.750   0.349  15.705 -0.3152 -2.7761 -1.6022
 4387SOL    HW224624   3.710   0.282  15.822 -1.6433 -0.1821  0.8092
 4388SOL     OW24625   0.551   4.412   4.379  0.1182 -0.5788  0.2926
 4388SOL    HW124626   0.626   4.378   4.428  0.7536  2.2863  1.3125
 4388SOL    HW224627   0.544   4.490   4.434  0.1187 -0.9957  0.8875
 4389SOL     OW24628   0.864   1.837   2.138  0.3458  0.3899 -0.2258
 4389SOL    HW124629   0.863   1.786   2.057 -0.3991 -1.9417  1.2522
 4389SOL    HW224630   0.790   1.897   2.132  1.2067  1.2324 -2.5237
 4390SOL     OW24631   1.018   0.992   3.787  0.1296  0.2667  0.2670
 4390SOL    HW124632   0.963   0.934   3.734 -0.0811  2.2903 -1.7012
 4390SOL    HW224633   1.079   1.035   3.728 -0.7918  2.1954  0.7041
 4391SOL     OW24634   4.087   2.658   8.571  0.0592  0.0814  0.4755
 4391SOL    HW124635   4.043   2.705   8.642  0.4396 -1.5923  1.8322
 4391SOL    HW224636   4.070   2.565   8.582  3.5569 -0.8692 -2.1302
 4392SOL     OW24637   0.098   2.841   2.984 -0.8131 -1.0343  0.3289
 4392SOL    HW124638   0.021   2.879   2.940 -1.5652 -2.4460  0.4314
 4392SOL    HW224639   0.063   2.822   3.071  0.1328 -0.6355  0.7903
 4393SOL     OW24640   2.282   1.218   3.334 -0.1655 -0.3563  0.4225
 4393SOL    HW124641   2.254   1.127   3.334 -0.0420 -0.3947  0.3804
 4393SOL    HW224642   2.226   1.258   3.401  0.8067  1.0953  0.3790
 4394SOL     OW24643   4.577   2.092   2.778  0.0724  0.1225 -0.0260
 4394SOL    HW124644   4.569   2.087   2.873  0.2239  1.2829  0.0461
 4394SOL    HW224645   4.655   2.042   2.755  0.5085  0.9663 -0.3815
 4395SOL     OW24646   1.856   3.258   8.770 -0.1614 -0.4773  0.7511
 4395SOL    HW124647   1.952   3.258   8.766 -0.2313 -0.2583 -0.8832
 4395SOL    HW224648   1.832   3.213   8.689 -0.1598 -2.0804  1.6355
 4396SOL     OW24649   0.145   2.815   8.778  0.0096 -0.6767 -0.1376
 4396SOL    HW124650   0.074   2.752   8.785  0.1368 -0.6635  1.2192
 4396SOL    HW224651   0.186   2.788   8.696  0.2172  1.5120 -0.7578
 4397SOL     OW24652   0.162   1.871   6.742 -0.4079  0.2633 -0.5925
 4397SOL    HW124653   0.140   1.780   6.763 -2.1085  0.6629 -0.5949
 4397SOL    HW224654   0.238   1.867   6.685  0.3829 -0.2998  0.5021
 4398SOL     OW24655   0.826   2.416   8.289 -0.4034 -0.0132  0.4974
 4398SOL    HW124656   0.878   2.439   8.213 -0.1484 -0.6935  0.4678
 4398SOL    HW224657   0.737   2.421   8.252  0.9275 -0.9224 -2.8466
 4399SOL     OW24658   3.340   0.493   6.720 -0.1500  0.1712  0.0531
 4399SOL    HW124659   3.385   0.446   6.650  0.5464  0.6529  0.1794
 4399SOL    HW224660   3.281   0.548   6.668  0.0273  0.1841 -0.1366
 4400SOL     OW24661   0.688   4.523   8.511 -0.5611 -0.3157  0.1563
 4400SOL    HW124662   0.625   4.585   8.548  1.1557  1.2214  0.5351
 4400SOL    HW224663   0.742   4.515   8.590  1.9459 -1.8041 -1.7306
 4401SOL     OW24664   0.616   0.587   2.053 -0.3585  0.0912 -0.3715
 4401SOL    HW124665   0.530   0.627   2.068 -0.0116  1.0420 -0.9212
 4401SOL    HW224666   0.637   0.644   1.979 -2.3468  3.0996  1.3660
 4402SOL     OW24667   0.736   3.938   9.050  0.4313  0.1525  0.3978
 4402SOL    HW124668   0.732   3.976   9.138  0.6355 -4.6332  2.4613
 4402SOL    HW224669   0.676   3.864   9.059  1.8081 -0.9561  0.5901
 4403SOL     OW24670   3.980   1.198   7.957  0.0409 -0.6016 -0.3011
 4403SOL    HW124671   3.999   1.292   7.965 -0.0176 -0.6276  0.1369
 4403SOL    HW224672   4.062   1.162   7.922  0.4014 -0.8404  0.7968
 4404SOL     OW24673   4.330   3.033  10.210  0.2572  0.0202 -0.1700
 4404SOL    HW124674   4.303   3.071  10.294 -1.2351 -1.6725  0.1175
 4404SOL    HW224675   4.263   2.966  10.192  0.4830  0.3347 -2.2107
 4405SOL     OW24676   0.059   2.458  14.387 -0.4679  0.4404  0.0231
 4405SOL    HW124677   0.058   2.377  14.439  1.5440  0.6764  0.4274
 4405SOL    HW224678   0.130   2.440  14.325  0.2358  1.2548  0.5951
 4406SOL     OW24679   2.205   0.149  12.812 -0.2781  0.4956 -0.8140
 4406SOL    HW124680   2.151   0.173  12.737 -0.0197  0.8417 -0.8919
 4406SOL    HW224681   2.142   0.102  12.866 -0.4506  1.2178 -0.3773
 4407SOL     OW24682   3.580   3.473   5.042 -0.3146 -0.2729 -0.4621
 4407SOL    HW124683   3.616   3.394   5.081  0.0453 -0.4892 -1.2313
 4407SOL    HW224684   3.538   3.445   4.960 -0.3768 -1.3311 -0.0632
 4408SOL     OW24685   4.314   1.769   5.787 -0.3125  0.2232  0.1563
 4408SOL    HW124686   4.326   1.793   5.879 -4.0386  2.2644  0.1368
 4408SOL    HW224687   4.231   1.805   5.754 -1.7335 -3.9981 -0.8359
 4409SOL     OW24688   0.108   3.425   6.406 -0.1384  0.0802  0.7109
 4409SOL    HW124689   0.128   3.405   6.315 -0.3498  1.6472  0.3370
 4409SOL    HW224690   0.019   3.457   6.392 -0.4267  0.8977  4.4661
 4410SOL     OW24691   3.804   1.849   7.865  0.0628 -0.4945  0.6628
 4410SOL    HW124692   3.747   1.914   7.907  0.2084 -0.2745  0.5248
 4410SOL    HW224693   3.867   1.841   7.936 -0.6020 -0.2092  1.2754
 4411SOL     OW24694   0.899   1.457   7.968 -0.3127  0.1853  0.6337
 4411SOL    HW124695   0.870   1.546   7.944 -1.1372 -0.3479 -0.3416
 4411SOL    HW224696   0.827   1.430   8.026 -1.1706  1.0271 -0.0243
 4412SOL     OW24697   2.006   3.747   5.544 -0.0641  0.6101 -0.6563
 4412SOL    HW124698   2.000   3.678   5.610 -2.2875 -0.7076 -2.2447
 4412SOL    HW224699   2.036   3.705   5.463  0.3508  0.8066 -0.6027
 4413SOL     OW24700   4.105   1.086  11.333  0.0159 -0.0463  0.3132
 4413SOL    HW124701   4.187   1.110  11.375  0.9095  0.0051 -1.4749
 4413SOL    HW224702   4.078   1.003  11.373 -0.1084 -0.7701 -1.2829
 4414SOL     OW24703   0.129   1.043   4.635 -0.7721 -0.4714 -0.7525
 4414SOL    HW124704   0.051   1.000   4.669 -0.2831 -0.0549  0.9010
 4414SOL    HW224705   0.111   1.135   4.655  1.5128 -0.0594 -0.6595
 4415SOL     OW24706   0.237   2.671   7.778  0.3431 -0.4795 -0.1232
 4415SOL    HW124707   0.192   2.685   7.695 -1.0919  0.0995  0.7463
 4415SOL    HW224708   0.183   2.726   7.834  0.4844  0.4355 -0.8933
 4416SOL     OW24709   4.651   2.821   9.094 -0.2760  0.1275 -0.5721
 4416SOL    HW124710   4.688   2.887   9.152  0.8320  0.5355 -1.7467
 4416SOL    HW224711   0.007   2.772   9.088  2.3049  4.5868 -2.0533
 4417SOL     OW24712   4.058   4.439   2.826  0.0920 -0.1506  0.2897
 4417SOL    HW124713   3.980   4.385   2.823  0.3733 -0.3967 -2.1811
 4417SOL    HW224714   4.103   4.390   2.895  3.2579  0.0746 -1.5881
 4418SOL     OW24715   2.521   3.924   6.394  0.5026 -0.3740  0.0244
 4418SOL    HW124716   2.535   3.877   6.476  0.8760  0.0981  0.2346
 4418SOL    HW224717   2.437   3.886   6.371 -0.8691  2.7120 -0.0392
 4419SOL     OW24718   2.689   0.529   3.947 -0.3734 -0.3625  0.2514
 4419SOL    HW124719   2.703   0.534   3.852 -2.2338  1.6757  0.0975
 4419SOL    HW224720   2.642   0.445   3.951 -2.1906  0.6496  0.0536
 4420SOL     OW24721   0.877   1.168   3.089 -0.2964 -0.1404 -0.0732
 4420SOL    HW124722   0.865   1.086   3.137 -1.7712 -0.2712 -0.6608
 4420SOL    HW224723   0.935   1.145   3.017  1.3391 -0.8134  1.4391
 4421SOL     OW24724   1.498   2.635   2.862 -0.5452 -0.1580 -0.0339
 4421SOL    HW124725   1.492   2.541   2.842 -0.9607 -0.4425  1.4761
 4421SOL    HW224726   1.514   2.683   2.780  2.7211 -3.1620 -1.1587
 4422SOL     OW24727   0.136   4.685   3.507  0.1191 -0.4960 -0.5864
 4422SOL    HW124728   0.041   4.679   3.499  0.0849 -0.0745 -0.5208
 4422SOL    HW224729   0.169   4.673   3.418  1.3103  0.0184 -0.2195
 4423SOL     OW24730   3.610   2.256   8.734 -0.1455 -0.0105 -0.2682
 4423SOL    HW124731   3.655   2.252   8.650 -0.2783  0.7592 -0.3790
 4423SOL    HW224732   3.643   2.186   8.790 -1.3211 -1.7128 -1.6800
 4424SOL     OW24733   1.266   0.281  11.370  0.1304  0.7193 -0.0327
 4424SOL    HW124734   1.234   0.325  11.292 -1.5223 -2.1103 -0.9572
 4424SOL    HW224735   1.214   0.321  11.439 -0.5809  0.2173 -0.2809
 4425SOL     OW24736   1.431   3.934   8.408  0.2698  0.8531  0.1267
 4425SOL    HW124737   1.390   4.010   8.367 -1.4538 -1.1625 -1.8562
 4425SOL    HW224738   1.520   3.932   8.371 -1.1309 -0.8477 -3.1727
 4426SOL     OW24739   0.582   1.697   3.454  0.0055 -0.2043 -0.3061
 4426SOL    HW124740   0.623   1.729   3.374 -0.7611 -1.0625 -1.0538
 4426SOL    HW224741   0.498   1.663   3.423 -0.0519 -2.3201  2.1024
 4427SOL     OW24742   1.633   4.183   9.281 -0.2285  1.0651  1.0386
 4427SOL    HW124743   1.656   4.143   9.364  1.1642 -1.7382 -0.7040
 4427SOL    HW224744   1.694   4.134   9.226  0.0183  0.7804  1.5754
 4428SOL     OW24745   1.644   2.570  16.724 -0.9116  0.5502 -0.2651
 4428SOL    HW124746   1.701   2.516  16.778  1.1456  3.1276  0.1213
 4428SOL    HW224747   1.680   2.547  16.638  0.0391 -0.4226  0.4033
 4429SOL     OW24748   2.725   4.515  13.306 -0.3127  0.0426 -0.5965
 4429SOL    HW124749   2.801   4.520  13.249  1.6696 -0.5236  2.0058
 4429SOL    HW224750   2.760   4.468  13.381 -1.5778 -1.8714 -1.1997
 4430SOL     OW24751   0.277   1.140  16.751  0.5179 -0.6518  0.0066
 4430SOL    HW124752   0.275   1.155  16.846  1.0112 -0.9905  0.0699
 4430SOL    HW224753   0.363   1.100  16.739  0.7881 -0.2421  0.5699
 4431SOL     OW24754   1.923   2.589  17.538  0.2125  0.1092  0.2821
 4431SOL    HW124755   1.958   2.637  17.613  0.7215 -2.4829  1.7054
 4431SOL    HW224756   1.953   2.643  17.465  0.4290 -1.3673 -0.7135
 4432SOL     OW24757   3.783   3.420   2.304  0.2484  0.1259 -0.6415
 4432SOL    HW124758   3.762   3.470   2.383 -1.8517  0.5971 -1.5002
 4432SOL    HW224759   3.701   3.371   2.301 -0.9688  1.9901  1.8014
 4433SOL     OW24760   1.472   4.706   7.320  0.1140 -0.1744  0.2529
 4433SOL    HW124761   1.501   0.036   7.393 -0.2561  1.6893 -0.9945
 4433SOL    HW224762   1.382   4.673   7.319  0.1173 -0.1802 -0.0296
 4434SOL     OW24763   0.609   3.795  14.445  0.2392  0.4720  0.0879
 4434SOL    HW124764   0.649   3.729  14.502  0.5624  0.9902  0.4606
 4434SOL    HW224765   0.682   3.855  14.429 -1.3000  2.6437  1.3995
 4435SOL     OW24766   0.498   2.786  16.472  0.0910  0.3772 -0.0932
 4435SOL    HW124767   0.452   2.705  16.451 -0.5699  0.7406 -0.0373
 4435SOL    HW224768   0.582   2.753  16.504  0.7667  2.0691 -0.1331
 4436SOL     OW24769   1.508   4.552  17.118 -0.8532 -0.2588 -0.4789
 4436SOL    HW124770   1.468   4.474  17.078  1.0780 -0.7438 -1.4479
 4436SOL    HW224771   1.601   4.540  17.097 -0.5638 -2.0108  1.8638
 4437SOL     OW24772   3.832   2.179   0.864 -0.0610  0.2604  0.5395
 4437SOL    HW124773   3.827   2.144   0.953  2.0194  1.0077  0.9648
 4437SOL    HW224774   3.899   2.246   0.876 -0.2259  0.1322  2.2135
 4438SOL     OW24775   4.069   0.951   6.962 -0.1839  0.2228  0.4373
 4438SOL    HW124776   4.099   0.860   6.972 -1.5438 -0.5117 -2.3728
 4438SOL    HW224777   4.039   0.963   7.053 -1.6209 -1.6367  0.2138
 4439SOL     OW24778   2.778   2.876   3.159  0.1049  0.1977  0.1901
 4439SOL    HW124779   2.863   2.915   3.177 -0.3581 -0.6592  4.1754
 4439SOL    HW224780   2.801   2.783   3.153 -0.0438  0.0742  1.5882
 4440SOL     OW24781   2.601   0.871  16.177 -0.0796 -0.0442  0.2760
 4440SOL    HW124782   2.574   0.961  16.158  0.4572  0.2778  1.0709
 4440SOL    HW224783   2.522   0.826  16.207 -1.8837  2.8323 -0.1152
 4441SOL     OW24784   3.505   3.530   4.392 -0.2707  0.5080 -0.0607
 4441SOL    HW124785   3.423   3.572   4.368 -2.2991 -2.9534  0.7471
 4441SOL    HW224786   3.567   3.573   4.333 -1.7876  1.1984 -1.1584
 4442SOL     OW24787   3.542   3.956   1.491 -0.3662  0.2245 -0.0827
 4442SOL    HW124788   3.562   4.016   1.420 -1.2594 -0.4498 -0.9112
 4442SOL    HW224789   3.586   3.877   1.460 -1.7740 -0.2101 -1.0049
 4443SOL     OW24790   2.351   0.143   8.552 -0.1470  0.2857  0.1835
 4443SOL    HW124791   2.350   0.048   8.544  1.9293  0.5196 -3.2818
 4443SOL    HW224792   2.373   0.164   8.642 -0.1679 -0.7742  0.4366
 4444SOL     OW24793   3.067   1.517  10.812 -0.8684 -0.7501 -0.4033
 4444SOL    HW124794   3.132   1.450  10.790 -0.5356 -1.4969  2.7960
 4444SOL    HW224795   2.985   1.468  10.819 -1.7393  0.5542 -1.6256
 4445SOL     OW24796   1.992   3.493   2.499 -0.0331 -0.6402  0.4397
 4445SOL    HW124797   1.909   3.524   2.465  0.1396  2.4807  2.9021
 4445SOL    HW224798   2.040   3.492   2.416  0.4176 -1.0169  0.7030
 4446SOL     OW24799   2.228   1.377   1.050 -0.4701  0.0041  0.1675
 4446SOL    HW124800   2.222   1.392   0.956  0.1021  1.1375  0.3218
 4446SOL    HW224801   2.317   1.341   1.047 -0.9189 -1.1264  0.3958
 4447SOL     OW24802   2.143   1.908   3.834  0.1460  0.6288  0.0919
 4447SOL    HW124803   2.077   1.842   3.813  1.1560 -0.6764  1.0928
 4447SOL    HW224804   2.095   1.988   3.856  0.2053  0.7511 -0.2210
 4448SOL     OW24805   1.310   3.479   7.285  0.0863 -0.0245 -0.5246
 4448SOL    HW124806   1.342   3.392   7.264 -3.0139 -1.2669 -0.1924
 4448SOL    HW224807   1.389   3.528   7.307 -0.8387  0.7668  1.0216
 4449SOL     OW24808   3.819   3.225   3.620 -0.0785 -0.7278  0.0816
 4449SOL    HW124809   3.878   3.287   3.576 -1.1582  1.0832  1.2077
 4449SOL    HW224810   3.745   3.281   3.639  0.0916 -1.1542  1.9557
 4450SOL     OW24811   1.715   3.268   2.863  0.0113 -0.0227  0.5117
 4450SOL    HW124812   1.642   3.264   2.925  0.7291 -0.9766  1.2960
 4450SOL    HW224813   1.709   3.363   2.849 -0.6573 -0.1305  0.0641
 4451SOL     OW24814   2.039   0.424   1.190  0.3397 -0.3897 -0.2933
 4451SOL    HW124815   1.989   0.368   1.249  0.4276 -0.3594 -0.1903
 4451SOL    HW224816   2.052   0.368   1.114 -2.7806  0.2708 -1.2986
 4452SOL     OW24817   2.695   1.341  11.561  0.3527 -0.3653  0.0004
 4452SOL    HW124818   2.682   1.247  11.549  0.9902 -0.5431  0.6494
 4452SOL    HW224819   2.756   1.328  11.634  0.6480 -1.0595 -0.3671
 4453SOL     OW24820   4.251   0.452   8.662 -0.2862 -0.1009  0.3343
 4453SOL    HW124821   4.162   0.427   8.687 -1.0336  1.6915 -0.5038
 4453SOL    HW224822   4.254   0.541   8.696 -1.4196  0.2160 -0.3799
 4454SOL     OW24823   2.289   1.365   5.896  0.3089  0.1103 -0.1671
 4454SOL    HW124824   2.349   1.364   5.970 -0.3906 -0.5399  0.3987
 4454SOL    HW224825   2.277   1.458   5.877 -0.0758  0.3261  1.1242
 4455SOL     OW24826   2.832   1.433   3.979 -0.3430 -0.1207 -0.1874
 4455SOL    HW124827   2.928   1.438   3.983 -0.0395 -3.9355 -3.0516
 4455SOL    HW224828   2.808   1.408   3.890 -0.8890 -4.0731  1.0753
 4456SOL     OW24829   2.359   0.992   5.614 -0.5982  0.3664  0.0204
 4456SOL    HW124830   2.417   0.927   5.653 -1.3923 -0.7356 -0.6284
 4456SOL    HW224831   2.418   1.050   5.566 -2.3815  1.3566 -0.9872
 4457SOL     OW24832   2.475   3.682   8.978  0.3715  0.3974  0.3318
 4457SOL    HW124833   2.545   3.619   8.996  0.7643  0.1270 -2.2376
 4457SOL    HW224834   2.444   3.672   8.888 -0.5699  1.4026  0.5371
 4458SOL     OW24835   0.469   2.210   0.168  0.2367  0.4644  0.2800
 4458SOL    HW124836   0.494   2.214   0.260 -0.5127  0.4140  0.4855
 4458SOL    HW224837   0.557   2.196   0.133  0.2816 -0.0392  0.6028
 4459SOL     OW24838   1.771   3.887   5.544 -0.3589  0.0231 -0.2269
 4459SOL    HW124839   1.858   3.858   5.518  0.1341  1.4023 -0.1518
 4459SOL    HW224840   1.716   3.867   5.469 -0.1583  0.5626 -0.5214
 4460SOL     OW24841   2.292   0.890  13.432 -0.5363  0.1806 -0.2340
 4460SOL    HW124842   2.366   0.948  13.449 -0.8061  0.6521 -0.6466
 4460SOL    HW224843   2.240   0.939  13.496  1.1505  2.4236 -0.5917
 4461SOL     OW24844   0.239   4.620   0.117 -0.0222  0.1878 -0.2561
 4461SOL    HW124845   0.316   4.564   0.126 -0.3971 -0.4145 -0.8863
 4461SOL    HW224846   0.179   4.547   0.129 -0.0509  0.2375 -0.1031
 4462SOL     OW24847   4.426   2.445   8.114  0.0685 -0.9708  0.0900
 4462SOL    HW124848   4.492   2.413   8.175 -0.9277 -0.7209  1.2784
 4462SOL    HW224849   4.458   2.531   8.085 -0.5274 -0.7104  0.2047
 4463SOL     OW24850   2.313   0.185   6.927  0.3786  0.0453 -0.1168
 4463SOL    HW124851   2.305   0.123   6.854  2.3613 -0.9530  0.5235
 4463SOL    HW224852   2.240   0.247   6.919 -0.5679 -1.2050 -1.0555
 4464SOL     OW24853   0.461   0.770   0.529  0.4856  0.4522  0.2432
 4464SOL    HW124854   0.437   0.808   0.613 -0.0874 -0.0936  0.3228
 4464SOL    HW224855   0.377   0.732   0.505 -0.1462  1.5109  0.7353
 4465SOL     OW24856   4.510   0.621   4.695 -0.5339  0.4538  0.1596
 4465SOL    HW124857   4.485   0.596   4.784 -0.8911  0.7288  0.1330
 4465SOL    HW224858   4.424   0.631   4.655 -1.0559  0.1355  1.2123
 4466SOL     OW24859   3.604   2.618   3.873  0.5884 -0.0909 -0.3956
 4466SOL    HW124860   3.623   2.540   3.926 -3.0537 -0.9791 -0.3794
 4466SOL    HW224861   3.566   2.683   3.932  1.2990  0.2654 -0.3365
 4467SOL     OW24862   1.920   2.821   7.791 -0.1359 -0.2950 -0.4426
 4467SOL    HW124863   1.879   2.771   7.861 -1.8669 -0.9899 -1.9595
 4467SOL    HW224864   2.005   2.777   7.784  0.0333 -0.0339 -0.0662
 4468SOL     OW24865   3.524   3.600   1.909 -0.2349 -0.1443 -0.3882
 4468SOL    HW124866   3.541   3.650   1.830  0.7038  3.9328  2.3705
 4468SOL    HW224867   3.569   3.653   1.975 -0.2931  1.3772 -1.5758
 4469SOL     OW24868   1.808   2.907   2.802  0.0398 -0.2376  0.1786
 4469SOL    HW124869   1.760   2.956   2.869 -0.0819 -2.3803  1.6607
 4469SOL    HW224870   1.788   2.819   2.833 -0.0907 -0.3661 -0.2749
 4470SOL     OW24871   3.695   1.806   9.325 -0.1196 -0.3370  0.7273
 4470SOL    HW124872   3.754   1.779   9.395  0.8679 -1.9042 -0.7098
 4470SOL    HW224873   3.645   1.725   9.313  0.2294 -0.4244 -0.1654
 4471SOL     OW24874   4.211   4.348   8.481 -0.6886  0.6012 -0.4113
 4471SOL    HW124875   4.246   4.347   8.391  0.3209  0.5711 -0.0223
 4471SOL    HW224876   4.279   4.401   8.523 -1.0769  0.5435  0.2751
 4472SOL     OW24877   1.655   1.893  13.712 -0.5566 -0.4065 -0.0056
 4472SOL    HW124878   1.748   1.893  13.732 -0.3484  1.7585 -0.9332
 4472SOL    HW224879   1.646   1.808  13.669  0.8944 -0.7193  0.3050
 4473SOL     OW24880   0.056   1.764   2.000  0.0144  0.2172 -0.4923
 4473SOL    HW124881   0.129   1.826   2.000  0.9561 -0.8882 -0.0249
 4473SOL    HW224882   0.014   1.772   2.086 -1.1344  3.4099 -1.3510
 4474SOL     OW24883   1.684   0.587  10.057  0.2928  0.0490 -0.1090
 4474SOL    HW124884   1.668   0.497  10.083 -1.4833 -0.5904 -3.3814
 4474SOL    HW224885   1.602   0.602  10.009 -0.5125 -3.1297  0.2776
 4475SOL     OW24886   1.432   4.474  16.251  0.7719 -0.1197 -0.8073
 4475SOL    HW124887   1.522   4.502  16.263  1.0709 -1.3446 -0.1894
 4475SOL    HW224888   1.394   4.553  16.289  0.1384 -1.2536  0.8986
 4476SOL     OW24889   0.832   2.685   8.334  0.0597  0.0765  0.0653
 4476SOL    HW124890   0.863   2.692   8.244  0.1135  1.7757  0.2129
 4476SOL    HW224891   0.821   2.591   8.327 -0.9003  0.1179  0.9649
 4477SOL     OW24892   2.721   0.331   2.149 -0.4715  0.3374 -0.2061
 4477SOL    HW124893   2.780   0.258   2.167 -1.2706 -0.5988 -1.3394
 4477SOL    HW224894   2.733   0.384   2.227 -2.5412 -0.7666  0.8655
 4478SOL     OW24895   3.938   0.828   4.385 -0.4341  0.4729 -0.0311
 4478SOL    HW124896   3.887   0.862   4.458 -0.3030  1.5331 -0.4271
 4478SOL    HW224897   4.029   0.811   4.407 -0.7579  0.8570  1.5787
 4479SOL     OW24898   1.007   1.102   9.504 -0.2575 -0.2638 -0.0982
 4479SOL    HW124899   0.917   1.121   9.477 -0.6908 -0.9097  0.8761
 4479SOL    HW224900   1.056   1.135   9.429 -0.3683  1.5693  0.6444
 4480SOL     OW24901   2.741   2.461   5.043  0.0888 -0.5895  0.1529
 4480SOL    HW124902   2.672   2.483   5.105 -2.1507 -0.6234 -2.3026
 4480SOL    HW224903   2.764   2.550   5.016  0.6801 -0.5739  0.7212
 4481SOL     OW24904   0.292   1.499  14.200 -0.4597  0.4563 -0.4106
 4481SOL    HW124905   0.363   1.506  14.264  0.3141 -0.4810 -1.1618
 4481SOL    HW224906   0.240   1.560  14.252  1.2197 -0.1634  2.0354
 4482SOL     OW24907   3.329   1.416   5.755 -0.2245 -0.4502  0.0574
 4482SOL    HW124908   3.358   1.492   5.705 -1.3136 -0.1452 -0.1254
 4482SOL    HW224909   3.363   1.342   5.705  1.3752  0.5633 -0.3537
 4483SOL     OW24910   2.731   1.101   3.767  0.1231 -0.3137 -0.3456
 4483SOL    HW124911   2.642   1.072   3.785  0.0618  1.1712  1.8324
 4483SOL    HW224912   2.731   1.197   3.768 -2.1126 -0.3451  2.8124
 4484SOL     OW24913   1.475   2.149   5.804 -0.0064  0.4533  0.1503
 4484SOL    HW124914   1.445   2.231   5.765 -1.5503 -0.8327 -1.3703
 4484SOL    HW224915   1.560   2.180   5.836  1.4818 -1.0265 -2.3728
 4485SOL     OW24916   0.387   1.931  12.446 -0.0899  0.5311 -0.1577
 4485SOL    HW124917   0.473   1.961  12.475 -0.4223  1.0927  0.2337
 4485SOL    HW224918   0.332   2.009  12.450  0.0390  0.5294  1.3317
 4486SOL     OW24919   0.893   0.993   0.458  0.1908  0.5803 -0.3985
 4486SOL    HW124920   0.937   0.920   0.416 -1.7187 -0.3256 -0.8223
 4486SOL    HW224921   0.937   1.070   0.423  0.4942  0.9983  0.8918
 4487SOL     OW24922   4.468   0.932   7.926 -0.4711 -0.0246 -0.1168
 4487SOL    HW124923   4.454   0.957   8.018  1.3144  2.5295 -0.5482
 4487SOL    HW224924   4.392   0.877   7.908 -1.8182  1.1907  1.7911
 4488SOL     OW24925   0.943   0.091   7.811 -0.4082 -0.7435  0.0170
 4488SOL    HW124926   0.916   0.176   7.846 -1.7864 -1.2388  0.1186
 4488SOL    HW224927   0.890   0.034   7.867 -0.7890  0.7688  1.2031
 4489SOL     OW24928   1.927   3.803  14.204  0.5906 -0.2490 -1.1188
 4489SOL    HW124929   1.841   3.784  14.166 -0.5605  0.3953  1.1933
 4489SOL    HW224930   1.978   3.750  14.143  2.1016  1.0376 -0.9629
 4490SOL     OW24931   0.687   2.225   4.902 -0.1830 -0.0562 -0.8464
 4490SOL    HW124932   0.684   2.319   4.888 -2.4934 -0.0309 -0.2180
 4490SOL    HW224933   0.596   2.201   4.921  0.2043  0.1471  1.2602
 4491SOL     OW24934   3.129   1.589   5.353 -0.4131  0.3626 -0.2926
 4491SOL    HW124935   3.049   1.590   5.300  0.9922 -1.1712 -2.4652
 4491SOL    HW224936   3.122   1.500   5.386  0.8806  0.4379  0.1675
 4492SOL     OW24937   3.597   0.250  17.565 -0.4144 -0.2357  0.5308
 4492SOL    HW124938   3.523   0.310  17.558 -0.0918 -0.0609 -1.5263
 4492SOL    HW224939   3.630   0.260  17.654  1.3637 -0.6849 -0.0644
 4493SOL     OW24940   2.576   4.710   3.035 -0.1556  0.1031  0.1098
 4493SOL    HW124941   2.650   4.720   3.095  0.0246  1.0593 -0.2854
 4493SOL    HW224942   2.577   0.070   2.992 -0.3587  0.6706  1.2332
 4494SOL     OW24943   2.802   4.493  14.799  0.6723  0.7397  0.3938
 4494SOL    HW124944   2.714   4.499  14.762  1.6783  1.8270 -1.7925
 4494SOL    HW224945   2.823   4.586  14.793 -1.0097  1.1798  1.3217
 4495SOL     OW24946   4.458   0.409  17.505 -0.1802 -0.5597 -0.2466
 4495SOL    HW124947   4.394   0.374  17.568 -1.5381  3.1659  0.4559
 4495SOL    HW224948   4.481   0.491  17.549  0.8137 -0.5597 -0.7670
 4496SOL     OW24949   2.979   4.672  16.827  0.2338  0.3079  0.0403
 4496SOL    HW124950   2.918   4.658  16.900 -0.7979 -0.2510 -0.9146
 4496SOL    HW224951   3.015   4.585  16.812 -2.9904 -1.0404 -0.0446
 4497SOL     OW24952   3.616   3.571  10.502 -0.4274  0.2116 -0.3738
 4497SOL    HW124953   3.673   3.648  10.499 -2.3533  1.5928 -1.6945
 4497SOL    HW224954   3.657   3.530  10.577 -1.0884  1.6972  0.8024
 4498SOL     OW24955   0.025   4.072   4.659 -0.5974  0.2787 -0.1113
 4498SOL    HW124956   4.685   4.011   4.695 -2.5736  1.5336 -1.5545
 4498SOL    HW224957   4.704   4.129   4.597 -0.8683 -0.4989 -0.6254
 4499SOL     OW24958   2.398   3.412   3.820 -0.1713 -0.1621  0.0332
 4499SOL    HW124959   2.442   3.496   3.805  2.5933 -1.3685  1.4211
 4499SOL    HW224960   2.330   3.442   3.880 -1.7263 -3.2911 -0.1624
 4500SOL     OW24961   2.923   0.243  12.722 -0.1242  0.1652 -0.9564
 4500SOL    HW124962   3.008   0.213  12.690 -0.8719  0.9639 -3.6728
 4500SOL    HW224963   2.869   0.225  12.645 -1.2612  0.1681 -0.1708
 4501SOL     OW24964   1.219   4.655   7.302  0.8674 -0.3045  0.1234
 4501SOL    HW124965   1.249   4.666   7.212  1.1276 -0.6029  0.1713
 4501SOL    HW224966   1.223   4.559   7.300  1.8627 -0.2365 -2.0916
 4502SOL     OW24967   0.918   4.011  15.017 -0.4180 -0.5879  0.0496
 4502SOL    HW124968   0.846   3.962  15.057 -0.6253 -0.1012  0.2792
 4502SOL    HW224969   0.910   3.992  14.923 -0.8243 -0.1318 -0.0089
 4503SOL     OW24970   4.434   3.880   3.311  0.3782 -0.6995 -0.2600
 4503SOL    HW124971   4.388   3.926   3.381  2.3126  0.9951 -0.1037
 4503SOL    HW224972   4.373   3.818   3.270 -1.6564  0.0641  1.6480
 4504SOL     OW24973   1.558   3.421   3.645 -0.1937  0.2895 -0.6028
 4504SOL    HW124974   1.622   3.416   3.717 -2.1906  0.5657  1.1843
 4504SOL    HW224975   1.618   3.445   3.575 -0.6099  0.2556 -0.9676
 4505SOL     OW24976   2.214   2.248  11.694  0.2165  0.7672 -0.2911
 4505SOL    HW124977   2.124   2.280  11.694 -0.1734 -0.3143  0.9055
 4505SOL    HW224978   2.256   2.324  11.734  1.2394 -0.3051  0.6893
 4506SOL     OW24979   1.308   3.684   2.415  0.1558 -0.1603  0.0748
 4506SOL    HW124980   1.379   3.710   2.356  0.3130 -1.5392 -0.3456
 4506SOL    HW224981   1.259   3.766   2.406  1.8378  1.0355  1.9118
 4507SOL     OW24982   1.028   4.591   7.045 -0.1104  0.3417 -0.5222
 4507SOL    HW124983   1.040   4.497   7.058 -2.1132  0.1883  0.2941
 4507SOL    HW224984   1.044   4.595   6.951  0.1753 -0.9471 -0.5287
 4508SOL     OW24985   3.745   2.520  13.768 -0.4433 -0.0219 -0.1144
 4508SOL    HW124986   3.708   2.443  13.725 -1.1828 -0.1356  0.7423
 4508SOL    HW224987   3.687   2.587  13.732 -1.6496 -2.0452 -1.9607
 4509SOL     OW24988   2.137   2.078   4.536 -0.0008  0.3049 -0.2234
 4509SOL    HW124989   2.224   2.066   4.575  1.2374  1.6858 -2.5808
 4509SOL    HW224990   2.106   1.988   4.530  0.7647 -0.0897  1.5826
 4510SOL     OW24991   2.080   4.415   0.757  0.1269 -0.3129 -0.2821
 4510SOL    HW124992   2.018   4.480   0.725  0.7444  1.0629  1.3189
 4510SOL    HW224993   2.061   4.335   0.708  1.2658  1.0921 -2.9880
 4511SOL     OW24994   3.801   2.724  10.935 -0.0717  0.1135 -0.3699
 4511SOL    HW124995   3.784   2.663  10.863 -2.4945  0.6202 -0.2389
 4511SOL    HW224996   3.710   2.751  10.951  0.4719  1.4138  0.5176
 4512SOL     OW24997   2.472   2.625   4.457  0.2827  0.0642  0.6393
 4512SOL    HW124998   2.401   2.620   4.522  0.3165  0.3604  0.6965
 4512SOL    HW224999   2.422   2.609   4.377  2.5359 -1.9603 -0.3761
 4513SOL     OW25000   3.112   0.569   4.377 -0.2149  0.1689  0.6200
 4513SOL    HW125001   3.152   0.500   4.431 -0.8944  0.4913  1.5355
 4513SOL    HW225002   3.114   0.515   4.298  3.9001 -1.6205  1.9406
 4514SOL     OW25003   0.715   0.479  17.538  0.3644 -0.0632 -0.3455
 4514SOL    HW125004   0.678   0.430  17.612  2.3354 -0.3047  0.4607
 4514SOL    HW225005   0.737   0.556  17.591  0.9350 -0.6919  0.3189
 4515SOL     OW25006   4.663   3.411   4.040 -0.3811 -0.1644 -0.1346
 4515SOL    HW125007   0.006   3.352   4.072  1.1096  0.0352 -2.9352
 4515SOL    HW225008   4.709   3.494   4.055 -0.8250 -0.2011  1.3738
 4516SOL     OW25009   1.986   3.976   1.364  0.3048 -0.3214  0.3260
 4516SOL    HW125010   2.061   4.035   1.372  0.4028 -0.3205 -0.5558
 4516SOL    HW225011   1.983   3.950   1.272  0.2313 -1.3884  0.6323
 4517SOL     OW25012   2.327   3.764   2.240 -0.4626  0.0711 -0.2265
 4517SOL    HW125013   2.331   3.844   2.292  2.6403  1.1169 -2.0356
 4517SOL    HW225014   2.238   3.757   2.206 -0.4109  2.6177 -0.8678
 4518SOL     OW25015   2.989   0.026   7.400  0.0951 -0.2985 -0.1181
 4518SOL    HW125016   3.061   0.043   7.339 -0.5762  1.0703 -0.5298
 4518SOL    HW225017   2.981   4.656   7.392  1.5214 -0.3924 -0.3702
 4519SOL     OW25018   4.352   2.670   5.182  0.0388 -0.7524 -0.0601
 4519SOL    HW125019   4.343   2.765   5.187  0.4817 -0.7528  0.6435
 4519SOL    HW225020   4.325   2.653   5.272  0.1204  2.8392  0.6589
 4520SOL     OW25021   4.316   0.251   1.023  1.1701  0.3209  0.3996
 4520SOL    HW125022   4.355   0.203   1.096 -1.6689 -1.5831  0.7007
 4520SOL    HW225023   4.397   0.289   0.991  0.8957  0.3338 -0.2821
 4521SOL     OW25024   2.015   1.703   7.705  0.3746  0.2521  0.0336
 4521SOL    HW125025   1.990   1.611   7.715  1.7412 -0.2662 -1.3427
 4521SOL    HW225026   1.968   1.722   7.624 -2.0155 -1.4125  1.0313
 4522SOL     OW25027   2.174   0.640   8.751  0.1066 -0.3004  0.3455
 4522SOL    HW125028   2.085   0.607   8.740 -0.0847  0.2788  0.1404
 4522SOL    HW225029   2.195   0.615   8.841  0.7325 -1.2669 -0.0710
 4523SOL     OW25030   3.299   4.156   1.187  0.0210 -0.4859  0.1601
 4523SOL    HW125031   3.241   4.222   1.225 -0.7606 -1.6342  0.9568
 4523SOL    HW225032   3.278   4.078   1.239 -0.7329  1.1848  2.3612
 4524SOL     OW25033   4.080   4.619   7.062  0.3133  0.0389 -0.2578
 4524SOL    HW125034   4.021   4.692   7.078  0.2126 -0.8162  3.3736
 4524SOL    HW225035   4.085   4.617   6.967  2.0075  0.0363 -0.1661
 4525SOL     OW25036   3.831   4.200   4.831  0.4687  0.3419 -0.0195
 4525SOL    HW125037   3.866   4.240   4.751 -0.0665  1.0664  0.1101
 4525SOL    HW225038   3.809   4.114   4.793 -0.7895  1.0070 -0.7913
 4526SOL     OW25039   0.598   2.023  14.293  0.0461  0.4075 -0.0268
 4526SOL    HW125040   0.678   1.977  14.265 -1.1868 -2.3015  0.9302
 4526SOL    HW225041   0.534   1.960  14.326  1.1946 -0.4488  0.5546
 4527SOL     OW25042   1.351   2.239   3.108  0.1630  0.3751  0.5305
 4527SOL    HW125043   1.444   2.224   3.091  0.2349  0.9760  0.4011
 4527SOL    HW225044   1.349   2.333   3.124 -0.8579  0.2680  1.0604
 4528SOL     OW25045   2.446   1.179   7.408  0.0248  0.0391  0.3295
 4528SOL    HW125046   2.531   1.222   7.408  0.6885 -1.2750  0.8874
 4528SOL    HW225047   2.471   1.103   7.356  1.6832  0.0485  1.1200
 4529SOL     OW25048   4.251   2.200   0.329  0.2795 -0.7672 -0.1978
 4529SOL    HW125049   4.316   2.204   0.399  1.6591 -0.2031 -1.4890
 4529SOL    HW225050   4.295   2.257   0.265  1.2699 -1.0682  0.2096
 4530SOL     OW25051   1.700   3.724   2.709  0.1958  0.3361  0.4446
 4530SOL    HW125052   1.774   3.775   2.742  0.2883 -1.1809  2.6229
 4530SOL    HW225053   1.679   3.674   2.788 -1.4331  1.3695  0.6613
 4531SOL     OW25054   0.012   2.203   4.930  0.6961  0.3317  0.0713
 4531SOL    HW125055   4.693   2.200   5.015 -1.2655  1.2710 -0.9195
 4531SOL    HW225056   0.081   2.267   4.946  1.0685  0.6406 -2.7897
 4532SOL     OW25057   1.709   4.592  11.788 -0.2022 -0.3287  0.1902
 4532SOL    HW125058   1.771   4.527  11.821 -1.2055 -0.5027  1.7511
 4532SOL    HW225059   1.745   4.605  11.701 -0.2604  1.6236  0.4706
 4533SOL     OW25060   0.035   3.583   8.365 -0.2275 -0.0331  0.1473
 4533SOL    HW125061   4.682   3.638   8.370  1.3552  2.2789 -0.4377
 4533SOL    HW225062   0.099   3.639   8.410 -1.0916  2.2539 -1.4807
 4534SOL     OW25063   1.448   0.376   3.219  0.4322 -0.1093 -0.0415
 4534SOL    HW125064   1.413   0.375   3.130 -2.3830 -1.9145  1.1092
 4534SOL    HW225065   1.465   0.470   3.231  0.8742 -0.6271  3.3837
 4535SOL     OW25066   0.828   0.429   9.024  0.1103 -0.7814 -0.0831
 4535SOL    HW125067   0.737   0.448   9.002  0.2112 -0.9886 -0.6694
 4535SOL    HW225068   0.824   0.440   9.119  1.2368 -3.1166  0.2469
 4536SOL     OW25069   1.546   3.849   1.069 -0.5851 -0.0450  0.1696
 4536SOL    HW125070   1.523   3.762   1.037  1.8038 -1.6840  2.8730
 4536SOL    HW225071   1.463   3.868   1.113 -0.4768  0.7821  0.0200
 4537SOL     OW25072   0.965   1.454   7.172 -0.4959 -0.1607  0.3059
 4537SOL    HW125073   1.003   1.485   7.090 -2.0690  0.0113 -0.3586
 4537SOL    HW225074   0.971   1.535   7.223 -0.4763 -0.8590  1.4144
 4538SOL     OW25075   3.534   3.683   3.346 -0.3486 -0.7979 -0.0832
 4538SOL    HW125076   3.483   3.668   3.425  2.3188 -2.0306  1.4108
 4538SOL    HW225077   3.543   3.778   3.343  0.9422 -0.9168 -0.3517
 4539SOL     OW25078   3.752   2.655   9.533 -0.6378  0.3502  0.2462
 4539SOL    HW125079   3.665   2.646   9.572 -0.7896  0.7114 -0.0158
 4539SOL    HW225080   3.797   2.581   9.575 -0.1734 -0.0965 -1.0296
 4540SOL     OW25081   1.094   1.398   4.865 -0.1353 -0.0863 -0.4741
 4540SOL    HW125082   1.103   1.488   4.897 -2.6373  0.5505 -1.5580
 4540SOL    HW225083   1.001   1.396   4.841 -0.2273  2.2990 -0.3865
 4541SOL     OW25084   3.510   2.612   6.626  0.0240 -0.1533 -0.0342
 4541SOL    HW125085   3.536   2.596   6.535 -0.8609 -1.5707 -0.0394
 4541SOL    HW225086   3.593   2.636   6.667 -0.4107  0.1220  0.6877
 4542SOL     OW25087   4.003   3.903   7.510 -0.1571 -0.1683 -0.3820
 4542SOL    HW125088   3.995   3.998   7.500 -2.1280 -0.4637 -1.6204
 4542SOL    HW225089   3.944   3.890   7.584  0.6149 -3.6441 -0.3894
 4543SOL     OW25090   4.448   2.010  14.459 -0.3265 -0.0874 -0.5952
 4543SOL    HW125091   4.491   1.961  14.530 -0.7614 -0.9817 -0.9477
 4543SOL    HW225092   4.473   2.099  14.485  0.7581  0.1001 -2.3197
 4544SOL     OW25093   2.166   0.232   5.297  0.2657 -0.7433 -0.2546
 4544SOL    HW125094   2.234   0.294   5.323 -0.5413 -0.5168  1.3071
 4544SOL    HW225095   2.192   0.204   5.209 -0.5726  0.9745 -1.0380
 4545SOL     OW25096   0.269   0.046  16.443 -0.6572 -0.4946 -0.2980
 4545SOL    HW125097   0.328   4.722  16.500  1.5478  2.0639 -0.3594
 4545SOL    HW225098   0.283   4.725  16.360  2.4223  0.3633 -0.2602
 4546SOL     OW25099   3.598   1.980   4.683  0.5143  0.4725 -0.8372
 4546SOL    HW125100   3.639   1.895   4.692  0.2831  0.0418 -3.8623
 4546SOL    HW225101   3.590   2.016   4.771  2.0891 -1.8455  0.2481
 4547SOL     OW25102   4.085   2.996   7.934  0.1055 -0.0124 -0.5846
 4547SOL    HW125103   4.033   3.076   7.938 -1.9350 -1.4487  1.5211
 4547SOL    HW225104   4.051   2.944   7.862  0.2847 -1.6230  0.4985
 4548SOL     OW25105   4.272   3.335   2.743 -0.3034  0.2618 -0.2509
 4548SOL    HW125106   4.197   3.294   2.787 -0.4158  0.5257 -0.1919
 4548SOL    HW225107   4.343   3.329   2.807 -2.9479  0.5701  2.7559
 4549SOL     OW25108   3.888   2.813   3.962  0.1879 -0.1854  0.0401
 4549SOL    HW125109   3.881   2.736   3.905  1.2017 -0.6202  0.4928
 4549SOL    HW225110   3.810   2.861   3.936  1.0782  1.3207  0.1440
 4550SOL     OW25111   0.909   2.621  10.550  0.4397 -0.0712 -0.2820
 4550SOL    HW125112   0.956   2.703  10.533  0.1973  0.1865  0.2833
 4550SOL    HW225113   0.878   2.599  10.462  0.2424  1.8144 -0.7003
 4551SOL     OW25114   2.086   3.333   5.963  0.0471 -0.9644 -0.5395
 4551SOL    HW125115   2.172   3.291   5.971  0.3025 -0.3739 -0.2689
 4551SOL    HW225116   2.091   3.396   6.034  2.0419 -2.0417  0.2986
 4552SOL     OW25117   1.556   1.021  12.491 -0.1389 -0.0581  0.0456
 4552SOL    HW125118   1.588   0.934  12.514  0.7243  0.0051 -0.8908
 4552SOL    HW225119   1.469   1.012  12.529  0.4328 -0.3641  1.2616
 4553SOL     OW25120   4.514   2.402   2.383  0.1375 -0.2410  0.1397
 4553SOL    HW125121   4.562   2.482   2.361 -1.5345  0.7003 -0.0930
 4553SOL    HW225122   4.453   2.396   2.309 -0.5097 -2.6377  0.8926
 4554SOL     OW25123   4.517   2.025  13.981 -0.4053 -0.5537  0.1414
 4554SOL    HW125124   4.549   2.018  14.070 -0.7767 -0.5926  0.2728
 4554SOL    HW225125   4.600   2.042  13.937 -0.1178  0.3123  1.0303
 4555SOL     OW25126   2.471   1.277   1.004  0.1031 -0.3547  0.2454
 4555SOL    HW125127   2.426   1.206   0.957 -1.4688  2.0727 -1.9302
 4555SOL    HW225128   2.541   1.240   1.057  1.4784 -1.0985 -2.0626
 4556SOL     OW25129   1.750   4.632   1.030 -0.0970  0.2849  0.1242
 4556SOL    HW125130   1.717   4.713   0.992 -2.2222  0.2403  1.8724
 4556SOL    HW225131   1.683   4.610   1.094  0.9723 -1.5703  0.6138
 4557SOL     OW25132   4.322   4.646   5.850  0.7425  0.0394  0.2291
 4557SOL    HW125133   4.413   4.625   5.829  0.7820  0.3972  0.0359
 4557SOL    HW225134   4.350   4.714   5.912  0.0326  0.3601  0.1995
 4558SOL     OW25135   0.874   2.922  13.598 -0.2004 -0.6297 -0.2317
 4558SOL    HW125136   0.791   2.887  13.566 -1.8476  0.6806  2.6437
 4558SOL    HW225137   0.900   2.980  13.526  1.9551  0.1586  1.1747
 4559SOL     OW25138   1.694   4.570   8.616  0.2294 -0.0080  0.4373
 4559SOL    HW125139   1.662   4.531   8.698 -0.7418  0.3149  0.2107
 4559SOL    HW225140   1.775   4.605   8.654 -1.1358  0.4961  2.8709
 4560SOL     OW25141   1.404   1.298   9.106  1.3160  0.2133  0.2436
 4560SOL    HW125142   1.346   1.229   9.073  0.1144  1.6902 -0.7277
 4560SOL    HW225143   1.465   1.237   9.147  0.5136 -0.9150 -0.2491
 4561SOL     OW25144   1.378   0.529   2.743  0.0857  0.0847 -0.1527
 4561SOL    HW125145   1.380   0.493   2.832 -2.1976  0.6933  0.1469
 4561SOL    HW225146   1.315   0.472   2.700 -0.7750  0.1317  1.0495
 4562SOL     OW25147   3.183   2.415   7.193  0.0427 -0.5679 -0.4416
 4562SOL    HW125148   3.192   2.423   7.098 -1.0257 -0.8676 -0.5746
 4562SOL    HW225149   3.272   2.384   7.208 -0.0846 -1.5509 -1.7137
 4563SOL     OW25150   3.609   1.592   2.379 -0.2269 -0.3160  0.0568
 4563SOL    HW125151   3.691   1.578   2.332 -0.4233 -2.9721  0.5201
 4563SOL    HW225152   3.547   1.544   2.324  1.9602  0.4680 -3.0602
 4564SOL     OW25153   3.185   2.102   2.599  0.2317 -0.8260 -0.4984
 4564SOL    HW125154   3.253   2.081   2.662  0.2882  1.0751  0.0689
 4564SOL    HW225155   3.167   2.194   2.616  2.4979 -0.4841  0.0525
 4565SOL     OW25156   1.907   0.567   8.110 -0.4100  0.3587 -0.3853
 4565SOL    HW125157   1.955   0.573   8.028  1.1507 -0.6878  0.4507
 4565SOL    HW225158   1.855   0.646   8.098 -1.7303 -0.5404 -0.5618
 4566SOL     OW25159   1.788   3.028   6.312  0.1309  1.1569  0.5003
 4566SOL    HW125160   1.857   3.026   6.246 -0.5683 -1.0702 -0.1712
 4566SOL    HW225161   1.800   2.946   6.359  0.8674 -1.3717 -4.0990
 4567SOL     OW25162   1.215   1.380   5.454 -0.3805  0.2738  0.1114
 4567SOL    HW125163   1.276   1.422   5.394 -2.6152 -1.1994 -3.1766
 4567SOL    HW225164   1.213   1.288   5.426  0.9563 -0.0182  0.9414
 4568SOL     OW25165   4.364   1.505   9.028  0.2145 -0.1041 -0.4274
 4568SOL    HW125166   4.414   1.499   9.109 -1.8181  0.0377  0.8496
 4568SOL    HW225167   4.315   1.584   9.052 -0.1533 -0.2692 -0.6306
 4569SOL     OW25168   4.573   2.568   3.650  1.0317  0.1751  0.0335
 4569SOL    HW125169   4.618   2.647   3.620  0.2040  0.7346  0.2474
 4569SOL    HW225170   4.565   2.521   3.566  1.9376  1.0598 -0.5487
 4570SOL     OW25171   1.186   0.399  11.141  0.3649  0.8053 -0.5966
 4570SOL    HW125172   1.188   0.393  11.046  0.1443  2.3171 -0.7070
 4570SOL    HW225173   1.139   0.481  11.159  0.1344  0.0185  2.3690
 4571SOL     OW25174   2.273   2.259   6.987  0.6253  0.0352 -0.1951
 4571SOL    HW125175   2.315   2.209   7.057  2.0581 -1.2243 -1.9528
 4571SOL    HW225176   2.309   2.216   6.909  1.0463 -0.0116  0.0233
 4572SOL     OW25177   4.318   4.276   1.853 -0.5564 -0.3013 -0.0523
 4572SOL    HW125178   4.384   4.224   1.899 -0.2685 -0.1892 -0.3380
 4572SOL    HW225179   4.374   4.349   1.825  0.1819 -0.8163  0.0652
 4573SOL     OW25180   4.205   2.687  15.486  0.3947 -0.3253  0.3156
 4573SOL    HW125181   4.256   2.633  15.547  2.5347  1.0562 -0.2539
 4573SOL    HW225182   4.258   2.767  15.481  0.2176 -0.1798  0.7137
 4574SOL     OW25183   4.088   0.178  10.918 -0.2427  0.0164  0.4869
 4574SOL    HW125184   4.037   0.111  10.873 -2.3950  1.1828  1.1656
 4574SOL    HW225185   4.146   0.209  10.848  0.3141 -1.8547  0.1154
 4575SOL     OW25186   1.297   4.331   6.000 -0.5440  0.1278  0.1406
 4575SOL    HW125187   1.227   4.308   5.940 -1.9446  1.7746  1.1221
 4575SOL    HW225188   1.331   4.242   6.013 -0.8310 -0.1535 -1.1253
 4576SOL     OW25189   3.454   3.053   3.812 -0.1605  0.0462 -0.1162
 4576SOL    HW125190   3.522   2.988   3.792  1.0751  1.0685  0.7723
 4576SOL    HW225191   3.439   3.097   3.729  0.6046 -3.6802 -2.2238
 4577SOL     OW25192   0.643   2.449   9.808 -0.4222 -0.7511  0.0647
 4577SOL    HW125193   0.557   2.479   9.837  0.7592  1.2817  1.4771
 4577SOL    HW225194   0.658   2.472   9.716  0.4756  0.3108  0.4765
 4578SOL     OW25195   2.115   1.143  14.132 -0.5949  0.2092  0.2586
 4578SOL    HW125196   2.114   1.138  14.036  0.3406  0.3317  0.2380
 4578SOL    HW225197   2.077   1.058  14.154 -0.6500  0.0970 -0.2558
 4579SOL     OW25198   4.529   4.166   1.998 -0.0726  0.4732  0.1811
 4579SOL    HW125199   4.551   4.078   2.027 -1.4378 -0.7113 -2.3315
 4579SOL    HW225200   4.617   4.201   1.980  0.4952 -0.2217  1.6588
 4580SOL     OW25201   2.714   2.134   3.241  0.3074 -0.2148  0.2680
 4580SOL    HW125202   2.805   2.144   3.213  0.2577  0.6069  0.3760
 4580SOL    HW225203   2.693   2.049   3.203  0.4086  0.7574 -1.9613
 4581SOL     OW25204   2.327   3.599   4.987  0.2639 -0.1607  0.3838
 4581SOL    HW125205   2.406   3.559   4.952  0.5830  1.1893 -0.4247
 4581SOL    HW225206   2.333   3.592   5.083 -0.3571  1.9589  0.5828
 4582SOL     OW25207   1.079   0.989   8.686  0.1200 -0.0767 -0.2143
 4582SOL    HW125208   1.121   0.983   8.772 -2.0870  2.7684  1.0527
 4582SOL    HW225209   1.113   0.906   8.653  0.2056 -0.1408  0.0372
 4583SOL     OW25210   2.894   3.596   4.897  0.4050 -0.2692  0.0715
 4583SOL    HW125211   2.968   3.575   4.953  0.7198  0.4685 -0.0639
 4583SOL    HW225212   2.826   3.533   4.923 -0.0849  0.4309  0.4990
 4584SOL     OW25213   3.128   3.777  13.942  0.4058 -0.8574 -0.2041
 4584SOL    HW125214   3.103   3.867  13.923  1.2125 -0.6671 -0.3490
 4584SOL    HW225215   3.154   3.756  13.852  1.4843 -1.7804  0.3266
 4585SOL     OW25216   3.442   0.579   5.858 -0.2683 -0.0336 -0.2368
 4585SOL    HW125217   3.439   0.491   5.820  2.1665 -0.2084 -0.0341
 4585SOL    HW225218   3.429   0.630   5.777  0.4522  2.7601  1.3988
 4586SOL     OW25219   1.445   3.322  16.287 -0.0783  0.5053 -0.7582
 4586SOL    HW125220   1.524   3.371  16.308  0.3993 -0.1512 -1.0036
 4586SOL    HW225221   1.470   3.286  16.202  0.4539 -0.2237 -0.2986
 4587SOL     OW25222   1.087   3.017  17.216  0.5873 -0.3736 -0.1106
 4587SOL    HW125223   1.125   3.084  17.160  1.3561 -0.5941  0.1523
 4587SOL    HW225224   1.097   2.934  17.169  1.2854 -0.4540  0.1870
 4588SOL     OW25225   2.251   0.604   6.027 -0.0357 -0.2152  0.1370
 4588SOL    HW125226   2.220   0.695   6.023 -1.0091 -0.6517 -2.4549
 4588SOL    HW225227   2.282   0.604   5.936  0.6205  1.4954  0.3601
 4589SOL     OW25228   1.845   4.531   0.772  0.5857  0.2224  0.8811
 4589SOL    HW125229   1.797   4.534   0.855 -2.1639 -1.4478 -0.6262
 4589SOL    HW225230   1.778   4.505   0.708  2.3221  0.0001 -0.8484
 4590SOL     OW25231   0.145   4.446  11.573 -0.1739  0.3370 -0.2728
 4590SOL    HW125232   0.165   4.407  11.487  2.3685  0.6950  0.1544
 4590SOL    HW225233   0.178   4.380  11.634 -1.5470  0.4893  0.6235
 4591SOL     OW25234   2.247   2.053   6.565 -0.3544 -0.5879 -0.7958
 4591SOL    HW125235   2.203   1.984   6.614  2.9478 -1.0713  1.4989
 4591SOL    HW225236   2.297   2.085   6.641 -1.0042 -1.1419 -0.1394
 4592SOL     OW25237   2.124   1.033  16.004 -0.6512 -0.9064 -0.1161
 4592SOL    HW125238   2.047   0.987  16.038  0.0609 -2.3154 -0.4337
 4592SOL    HW225239   2.190   0.971  15.971  1.7587  1.5574  0.0815
 4593SOL     OW25240   3.910   1.860   6.075 -0.1955  0.0605  0.5511
 4593SOL    HW125241   3.870   1.861   5.988  2.1345  2.5997 -0.5083
 4593SOL    HW225242   3.974   1.931   6.071 -0.4994  0.3252  0.2809
 4594SOL     OW25243   0.941   4.269   5.588 -0.0980  0.7839  0.2989
 4594SOL    HW125244   1.007   4.201   5.599  1.7720  2.2879 -1.5605
 4594SOL    HW225245   0.918   4.256   5.496 -1.6275  0.0299  0.7885
 4595SOL     OW25246   0.536   0.013  13.597 -0.5130 -0.4639  0.4845
 4595SOL    HW125247   0.606   0.046  13.654 -0.3423  1.2966 -0.7560
 4595SOL    HW225248   0.465   0.063  13.637 -0.2485  0.1734  0.1720
 4596SOL     OW25249   2.918   1.433   9.786  0.2706 -0.0036 -0.3075
 4596SOL    HW125250   2.939   1.522   9.758 -3.6774  0.5835 -1.4786
 4596SOL    HW225251   2.933   1.434   9.880 -2.1894 -2.7052  0.1247
 4597SOL     OW25252   3.008   2.333   7.725 -0.3093  0.6051  0.7723
 4597SOL    HW125253   2.977   2.312   7.813 -0.5435 -0.5953  0.4105
 4597SOL    HW225254   3.076   2.267   7.709 -0.1293  1.6330 -2.6867
 4598SOL     OW25255   0.775   1.938   4.971 -0.4493  0.2201  0.0527
 4598SOL    HW125256   0.797   1.845   4.976  0.3928  0.5589  2.5013
 4598SOL    HW225257   0.788   1.954   4.878  2.5929  0.2768  0.4808
 4599SOL     OW25258   3.836   2.458   5.439  0.2912 -0.0502 -0.8447
 4599SOL    HW125259   3.834   2.429   5.530 -1.6038  0.5994 -0.6774
 4599SOL    HW225260   3.776   2.406   5.386 -0.5351 -0.4968  0.5403
 4600SOL     OW25261   1.326   4.392   7.628 -0.4459  0.0986 -0.3606
 4600SOL    HW125262   1.333   4.483   7.654 -1.3990 -0.1701  0.8112
 4600SOL    HW225263   1.265   4.364   7.696  0.0603  1.0979  0.5115
 4601SOL     OW25264   2.381   1.413   6.951 -0.3874  0.2626  0.4159
 4601SOL    HW125265   2.419   1.331   6.982  0.1242  0.4341  0.2540
 4601SOL    HW225266   2.354   1.458   7.031 -1.3797  0.0495  0.1991
 4602SOL     OW25267   4.285   2.517   5.682 -0.1997 -0.3738 -0.0969
 4602SOL    HW125268   4.224   2.504   5.755 -1.3428  0.8616 -0.8403
 4602SOL    HW225269   4.367   2.502   5.729 -0.1195 -0.3887 -0.2418
 4603SOL     OW25270   3.452   0.191   6.868  0.6486  0.2616 -0.4860
 4603SOL    HW125271   3.531   0.180   6.815  0.9720  0.4060 -0.0369
 4603SOL    HW225272   3.456   0.284   6.888  0.5533  0.2988 -0.6422
 4604SOL     OW25273   0.605   1.374  14.704  0.3201  0.4858  0.0595
 4604SOL    HW125274   0.685   1.323  14.717  0.3278 -0.5021 -3.7644
 4604SOL    HW225275   0.552   1.342  14.777  1.1769  1.0146  0.9184
 4605SOL     OW25276   3.478   3.904   4.518  0.0790 -0.2453  0.0398
 4605SOL    HW125277   3.510   3.921   4.430 -0.4554  1.1456  0.1103
 4605SOL    HW225278   3.454   3.990   4.552  0.4846 -0.3882  0.6934
 4606SOL     OW25279   2.751   0.511   4.441 -0.0304 -0.1912  0.7730
 4606SOL    HW125280   2.662   0.536   4.465  0.3750  1.2861  0.7339
 4606SOL    HW225281   2.757   0.540   4.350  0.9063 -1.6873  0.3500
 4607SOL     OW25282   1.674   3.999   6.403  0.2884  0.5939  0.6353
 4607SOL    HW125283   1.750   3.962   6.447  1.6142  1.9007 -0.5501
 4607SOL    HW225284   1.700   3.973   6.314 -2.2247 -0.0768  0.0744
 4608SOL     OW25285   3.031   1.149  11.576 -0.0832  0.0965  0.3745
 4608SOL    HW125286   3.020   1.211  11.504  0.2543  0.4570  0.6308
 4608SOL    HW225287   2.960   1.184  11.631 -0.6343 -1.8931  0.9204
 4609SOL     OW25288   1.297   0.511  13.524 -0.0701 -0.2030 -0.0903
 4609SOL    HW125289   1.241   0.438  13.548 -0.2013  0.3072  1.1570
 4609SOL    HW225290   1.245   0.591  13.523 -0.6868 -0.5966  3.0391
 4610SOL     OW25291   2.079   3.896   6.953 -0.3981  0.4021  0.3949
 4610SOL    HW125292   2.167   3.858   6.957 -0.8006 -0.8519 -2.8274
 4610SOL    HW225293   2.043   3.855   7.031  2.0249 -1.7537  0.3863
 4611SOL     OW25294   1.164   1.095  14.619 -0.1583 -0.0082 -0.1526
 4611SOL    HW125295   1.211   1.044  14.553  0.6137  1.4151 -0.7057
 4611SOL    HW225296   1.233   1.085  14.685 -1.1762  3.5883  1.4921
 4612SOL     OW25297   2.313   0.328   1.077  0.6048 -0.0812 -0.2076
 4612SOL    HW125298   2.313   0.376   1.160  1.0660 -0.4487  0.0068
 4612SOL    HW225299   2.393   0.276   1.081  0.0664 -0.9523 -0.9394
 4613SOL     OW25300   3.072   1.240   8.409  0.3477  0.0623  0.1743
 4613SOL    HW125301   3.115   1.283   8.483 -1.5877  1.4095  0.5198
 4613SOL    HW225302   3.148   1.196   8.371 -1.3451 -2.1020 -0.7012
 4614SOL     OW25303   0.546   2.535  17.700  0.2191 -0.8818 -0.5484
 4614SOL    HW125304   0.471   2.593   0.010  0.3229 -0.5726 -1.4059
 4614SOL    HW225305   0.562   2.566  17.611 -1.8445  1.0789 -0.2290
 4615SOL     OW25306   3.577   1.667   6.173 -0.1716  0.3463  0.4785
 4615SOL    HW125307   3.500   1.711   6.139 -1.0931 -3.2164 -2.0797
 4615SOL    HW225308   3.638   1.659   6.101  0.1261 -0.7118  0.8408
 4616SOL     OW25309   2.283   4.327   3.784  0.6537 -0.2846 -0.0559
 4616SOL    HW125310   2.241   4.406   3.819  2.3570  2.0573 -3.2971
 4616SOL    HW225311   2.235   4.252   3.820  2.2457 -0.2912  2.0587
 4617SOL     OW25312   0.439   2.671   9.566  0.3529 -0.0334  0.4180
 4617SOL    HW125313   0.511   2.714   9.612  2.0780 -1.8813 -0.5851
 4617SOL    HW225314   0.474   2.583   9.559  1.3582  0.4091 -0.1422
 4618SOL     OW25315   0.257   3.219   8.507  0.2251 -0.6958 -0.2021
 4618SOL    HW125316   0.351   3.203   8.517  0.0344  1.3527  4.8135
 4618SOL    HW225317   0.232   3.179   8.590  0.7495  0.9527  0.7434
 4619SOL     OW25318   1.551   0.753  14.827  0.2219 -0.3753  0.4231
 4619SOL    HW125319   1.469   0.704  14.825  0.9586 -1.6361  1.0244
 4619SOL    HW225320   1.591   0.721  14.747 -3.5637  0.0701 -1.6666
 4620SOL     OW25321   4.485   3.754  11.809 -0.4268 -0.1557 -0.2205
 4620SOL    HW125322   4.547   3.717  11.872  2.4811  0.5999 -2.6344
 4620SOL    HW225323   4.486   3.686  11.743  2.0405 -0.3502  0.0105
 4621SOL     OW25324   3.817   4.649   5.803 -0.3326 -0.8199  0.0495
 4621SOL    HW125325   3.879   4.636   5.876 -0.3711 -1.7969 -0.0818
 4621SOL    HW225326   3.860   4.593   5.739 -3.0546 -2.7352 -0.1028
 4622SOL     OW25327   1.943   0.074   9.548 -0.8380  0.7339 -0.3294
 4622SOL    HW125328   1.990   0.057   9.467 -0.1071 -2.1388  0.6865
 4622SOL    HW225329   1.852   0.056   9.524 -1.1406  1.9495 -0.1267
 4623SOL     OW25330   3.644   0.007  17.454 -0.0062 -0.0951 -0.0647
 4623SOL    HW125331   3.596   4.677  17.515 -1.4718  1.5093  0.2330
 4623SOL    HW225332   3.631   0.097  17.486  1.6111  1.0472 -2.5775
 4624SOL     OW25333   3.726   2.900  15.716  0.2022  0.2564 -0.2132
 4624SOL    HW125334   3.656   2.957  15.683 -1.8599 -2.7035 -0.9330
 4624SOL    HW225335   3.771   2.886  15.633  2.3285  0.1111  0.9680
 4625SOL     OW25336   4.482   3.179   1.028  0.3540 -0.3261 -0.0540
 4625SOL    HW125337   4.405   3.186   0.971 -1.2055 -0.4541  2.0387
 4625SOL    HW225338   4.509   3.271   1.036  4.8130 -1.7490  0.6890
 4626SOL     OW25339   2.459   2.686  16.584  0.4392  0.1393  0.2549
 4626SOL    HW125340   2.410   2.623  16.638 -0.2261 -0.5949 -1.1992
 4626SOL    HW225341   2.510   2.737  16.647 -0.2754 -0.0058  0.9559
 4627SOL     OW25342   3.442   0.501   0.126  0.3783 -0.1716 -0.7315
 4627SOL    HW125343   3.405   0.445   0.058 -1.9311 -0.9895  1.2194
 4627SOL    HW225344   3.495   0.435   0.170 -0.7506  0.0180  0.9228
 4628SOL     OW25345   0.725   1.989  15.160 -0.1560 -0.6246 -0.2814
 4628SOL    HW125346   0.707   2.069  15.211 -3.3977 -1.1040 -0.6734
 4628SOL    HW225347   0.668   2.003  15.085 -0.0885  0.2084 -0.1819
 4629SOL     OW25348   0.948   2.132   9.261 -0.0796  0.6101 -0.2809
 4629SOL    HW125349   0.999   2.079   9.323 -1.8939 -1.0377 -0.2006
 4629SOL    HW225350   1.011   2.147   9.190 -0.3709  1.6568 -0.3099
 4630SOL     OW25351   1.459   0.674   9.948 -0.3538 -0.0512  0.3307
 4630SOL    HW125352   1.389   0.611   9.928  0.0353 -0.8733  1.5717
 4630SOL    HW225353   1.403   0.749   9.970 -1.2263 -0.5690 -0.1004
 4631SOL     OW25354   2.327   4.190  15.910 -0.2384 -0.3443  0.2710
 4631SOL    HW125355   2.394   4.249  15.944 -0.0401 -1.3769  1.6631
 4631SOL    HW225356   2.335   4.205  15.816 -1.4256 -1.7415 -0.0554
 4632SOL     OW25357   4.464   4.448   4.441  0.4606 -0.2408 -1.0769
 4632SOL    HW125358   4.458   4.476   4.350  1.5893 -1.8676 -1.6551
 4632SOL    HW225359   4.444   4.533   4.481  0.7007 -0.4595 -0.4901
 4633SOL     OW25360   4.557   0.624   0.181  0.0876  0.2907  0.4659
 4633SOL    HW125361   4.523   0.583   0.101  1.8402  1.6793 -0.9839
 4633SOL    HW225362   4.472   0.642   0.221  0.9455  1.4592  1.7731
 4634SOL     OW25363   3.875   0.539   7.962  0.3827 -0.1070  0.5638
 4634SOL    HW125364   3.821   0.478   8.013  1.3952 -1.2361  0.2898
 4634SOL    HW225365   3.839   0.627   7.969 -0.9895 -0.6793  0.6781
 4635SOL     OW25366   0.742   1.101  15.199  0.2709  0.3246  0.5635
 4635SOL    HW125367   0.830   1.113  15.163 -0.3734  2.5750 -0.2982
 4635SOL    HW225368   0.744   1.165  15.270  0.2631  2.4536 -1.3385
 4636SOL     OW25369   1.024   4.015   9.097  0.0523  0.4030  0.4537
 4636SOL    HW125370   0.992   3.955   9.165 -1.2449 -0.2559 -0.7378
 4636SOL    HW225371   0.950   4.007   9.037 -1.1234  2.2247  1.6291
 4637SOL     OW25372   1.059   1.548   4.646 -0.0396 -0.3039  0.4371
 4637SOL    HW125373   1.106   1.486   4.702  2.1206  0.5665 -0.4077
 4637SOL    HW225374   1.122   1.569   4.577 -1.4974 -0.0979 -0.8305
 4638SOL     OW25375   3.835   3.314  17.450 -0.3658  0.4678  0.1526
 4638SOL    HW125376   3.892   3.308  17.373 -0.4624  0.0957  0.1128
 4638SOL    HW225377   3.896   3.359  17.509  0.5700  0.9194 -1.1669
 4639SOL     OW25378   1.133   2.454   5.863  0.0119 -0.4240  0.2324
 4639SOL    HW125379   1.089   2.370   5.878 -0.3195 -0.2333  0.3321
 4639SOL    HW225380   1.094   2.490   5.783  0.9425 -0.4466 -0.2346
 4640SOL     OW25381   0.092   4.200  10.142  0.0038 -0.1216 -0.1954
 4640SOL    HW125382   0.147   4.239  10.210 -3.2524  0.1155  2.2600
 4640SOL    HW225383   0.068   4.119  10.186 -0.3729 -1.1655 -2.3420
 4641SOL     OW25384   1.571   0.439   8.694  0.0290  0.3190 -0.0820
 4641SOL    HW125385   1.644   0.416   8.752 -0.0342 -2.4577 -1.0630
 4641SOL    HW225386   1.618   0.510   8.651  0.1610  0.7410  0.7519
 4642SOL     OW25387   3.860   4.129   2.118 -0.2573  0.6966 -0.2953
 4642SOL    HW125388   3.924   4.185   2.161 -1.4559  0.7522  1.3871
 4642SOL    HW225389   3.815   4.093   2.194 -2.5504  1.3253 -1.3567
 4643SOL     OW25390   1.156   4.433   0.763 -0.0333  0.3131  0.1611
 4643SOL    HW125391   1.244   4.466   0.778  0.1029  0.7238 -1.5715
 4643SOL    HW225392   1.119   4.511   0.720  0.3529  0.2726 -0.2379
 4644SOL     OW25393   1.458   3.265  10.228  0.6917  0.6354 -0.1950
 4644SOL    HW125394   1.470   3.212  10.149  0.4867  1.5606 -0.8543
 4644SOL    HW225395   1.385   3.217  10.268  0.5756  1.3787  0.4771
 4645SOL     OW25396   3.662   2.207   4.573 -0.0458  0.2319 -0.3746
 4645SOL    HW125397   3.738   2.205   4.514 -0.5445  1.1247 -1.0463
 4645SOL    HW225398   3.652   2.115   4.598  1.4867  0.0907 -0.2927
 4646SOL     OW25399   1.333   4.013   2.057  0.2611  0.1343  0.0833
 4646SOL    HW125400   1.272   3.945   2.029  0.5623  0.0648 -0.4170
 4646SOL    HW225401   1.411   3.992   2.005  0.1156 -1.0420  0.3482
 4647SOL     OW25402   1.725   4.593   2.885  0.4776  1.0697  0.4879
 4647SOL    HW125403   1.780   4.533   2.834 -0.0107 -1.4774  2.9677
 4647SOL    HW225404   1.640   4.585   2.843  0.1934  1.1068  1.0638
 4648SOL     OW25405   3.859   0.291   4.272  0.3858  0.0910 -0.0550
 4648SOL    HW125406   3.849   0.245   4.189 -0.4703  1.7729 -0.8736
 4648SOL    HW225407   3.895   0.215   4.317  1.1295 -0.3931 -1.4681
 4649SOL     OW25408   0.110   0.788  15.519  0.2357  0.0151 -0.5531
 4649SOL    HW125409   0.073   0.877  15.519 -2.3794 -1.0794  0.9694
 4649SOL    HW225410   0.051   0.757  15.587 -0.7306  1.1474 -0.8803
 4650SOL     OW25411   2.552   2.294  10.663  0.3616 -0.3920  0.3539
 4650SOL    HW125412   2.530   2.220  10.720  0.4326  0.8314  1.9830
 4650SOL    HW225413   2.561   2.354  10.738  1.1507  0.4366 -0.4020
 4651SOL     OW25414   1.470   1.267   5.615  0.4693 -0.0825  0.5172
 4651SOL    HW125415   1.538   1.285   5.679  0.6006  1.7628 -0.1494
 4651SOL    HW225416   1.473   1.349   5.566 -0.0475 -0.1779  0.3300
 4652SOL     OW25417   1.438   1.497   4.709 -0.6120 -0.1358 -0.0057
 4652SOL    HW125418   1.457   1.404   4.698 -1.0457  0.1138 -2.8158
 4652SOL    HW225419   1.515   1.540   4.746 -1.3439  1.2385 -0.0937
 4653SOL     OW25420   4.702   2.028  17.615  0.1055  0.2887  0.1272
 4653SOL    HW125421   4.681   1.956  17.556  1.7284  0.0747 -0.1891
 4653SOL    HW225422   0.035   1.988  17.679 -1.2836 -4.6457 -1.7009
 4654SOL     OW25423   1.866   1.674   6.303 -0.0058  0.6238 -0.2141
 4654SOL    HW125424   1.907   1.711   6.381 -0.3927  0.9450 -0.1615
 4654SOL    HW225425   1.846   1.756   6.257 -0.6488 -0.1543 -1.3007
 4655SOL     OW25426   1.250   2.640   4.378 -0.2497 -0.5010  0.0111
 4655SOL    HW125427   1.182   2.579   4.405  0.3472 -0.9523  0.4722
 4655SOL    HW225428   1.197   2.680   4.309  0.9593 -1.3268 -1.3900
 4656SOL     OW25429   0.330   4.217   0.150 -0.2744  0.1746  0.0913
 4656SOL    HW125430   0.258   4.182   0.098 -0.6727  1.3747 -0.1750
 4656SOL    HW225431   0.310   4.186   0.238 -1.9611  0.1374 -0.3061
 4657SOL     OW25432   3.096   0.461   2.847  0.0716  0.1196  0.0758
 4657SOL    HW125433   3.000   0.471   2.845  0.0465 -0.3750 -1.4208
 4657SOL    HW225434   3.128   0.536   2.796  2.1848 -2.3882 -2.3271
 4658SOL     OW25435   1.601   3.158  12.361  0.4977 -0.0665 -0.0522
 4658SOL    HW125436   1.522   3.200  12.395  0.4255  0.5378 -0.9565
 4658SOL    HW225437   1.651   3.142  12.441 -0.6311 -0.6731  0.5292
 4659SOL     OW25438   0.250   3.212   2.723  0.3576  0.0354 -0.5152
 4659SOL    HW125439   0.154   3.216   2.731  0.5246  1.8598  0.7691
 4659SOL    HW225440   0.273   3.151   2.793  0.9643  2.7132  1.6329
 4660SOL     OW25441   2.049   3.785   6.120  0.0914  0.1144 -0.1537
 4660SOL    HW125442   2.038   3.879   6.136  1.1347  0.2882 -0.4857
 4660SOL    HW225443   2.040   3.775   6.026 -1.6120 -1.6475  0.1831
 4661SOL     OW25444   4.193   1.078   1.203  0.0266  0.1067 -0.1565
 4661SOL    HW125445   4.282   1.068   1.169 -0.1803 -0.2735 -0.5807
 4661SOL    HW225446   4.189   1.015   1.276  0.7392  1.3630  0.9636
 4662SOL     OW25447   1.310   0.399  16.567 -0.0512 -0.7966 -0.8765
 4662SOL    HW125448   1.250   0.467  16.537  2.1870  1.9445  0.9455
 4662SOL    HW225449   1.314   0.332  16.498  0.4266  1.1447 -2.7084
 4663SOL     OW25450   0.390   3.943  16.918  0.2136 -0.2634  0.0000
 4663SOL    HW125451   0.465   3.895  16.953  0.8460  0.9473  0.3123
 4663SOL    HW225452   0.348   3.986  16.993  1.3791 -0.9496  1.0423
 4664SOL     OW25453   4.514   0.174   3.017  0.1765  0.0632 -0.2121
 4664SOL    HW125454   4.500   0.268   3.021  0.8802  0.2256 -1.3399
 4664SOL    HW225455   4.507   0.158   2.922  1.7845 -0.9458 -0.1667
 4665SOL     OW25456   4.182   3.203  12.806 -0.0853 -0.3457  0.6232
 4665SOL    HW125457   4.162   3.225  12.897 -1.9439 -1.7963  0.5816
 4665SOL    HW225458   4.198   3.109  12.812 -1.5645 -0.4022  3.5305
 4666SOL     OW25459   2.243   0.187   7.381 -0.1873 -0.4135  0.2512
 4666SOL    HW125460   2.223   0.142   7.463 -0.5443  0.5065  0.6641
 4666SOL    HW225461   2.231   0.275   7.414  1.1366 -0.5166  1.0079
 4667SOL     OW25462   3.699   1.928  12.529 -0.2911  0.1991  0.2980
 4667SOL    HW125463   3.692   1.893  12.440 -0.4512 -0.3890  0.5403
 4667SOL    HW225464   3.779   1.884  12.558 -0.5254 -1.1321 -1.0279
 4668SOL     OW25465   0.238   1.314   1.431  0.7415 -0.1777 -0.2585
 4668SOL    HW125466   0.180   1.357   1.494  1.5811 -4.0562  3.1505
 4668SOL    HW225467   0.205   1.225   1.436  0.5307 -0.2145 -2.2867
 4669SOL     OW25468   3.818   4.049   5.938  0.0960 -0.0204 -0.1977
 4669SOL    HW125469   3.782   3.967   5.905 -2.3265  1.4419 -1.2278
 4669SOL    HW225470   3.860   4.079   5.857 -0.1284  1.8331  0.3592
 4670SOL     OW25471   0.259   3.657   5.493  0.0874 -0.4249 -0.0989
 4670SOL    HW125472   0.233   3.565   5.486  1.0210 -0.5922 -1.3761
 4670SOL    HW225473   0.235   3.684   5.582  1.4606  0.7309 -0.0745
 4671SOL     OW25474   4.400   1.881  12.341  0.0174  0.0006  0.3992
 4671SOL    HW125475   4.395   1.937  12.263 -1.4144 -1.5270 -0.6209
 4671SOL    HW225476   4.335   1.925  12.397 -0.6089 -1.9139  1.1731
 4672SOL     OW25477   3.348   2.258   8.695  0.1531  0.7880  0.1982
 4672SOL    HW125478   3.317   2.262   8.785  1.4697 -0.1047  0.6890
 4672SOL    HW225479   3.441   2.276   8.708  0.9400  0.5550 -4.9370
 4673SOL     OW25480   2.724   3.399   5.000 -0.1406 -0.4200  0.0529
 4673SOL    HW125481   2.664   3.340   4.954  0.2775 -1.8501  1.3132
 4673SOL    HW225482   2.666   3.418   5.074  1.0362  2.1146  0.3141
 4674SOL     OW25483   3.727   0.463  11.409 -0.3647 -0.0949  0.2813
 4674SOL    HW125484   3.785   0.518  11.356 -3.1661  2.8823  0.3534
 4674SOL    HW225485   3.645   0.471  11.361 -0.1663 -2.7422 -0.5418
 4675SOL     OW25486   3.681   4.217   3.716  0.7463 -0.0908 -0.2020
 4675SOL    HW125487   3.656   4.285   3.778  2.5574  0.4221 -0.0189
 4675SOL    HW225488   3.677   4.269   3.635  0.4104  1.1204  0.5991
 4676SOL     OW25489   0.251   3.372   3.675 -0.0490 -0.6904  0.4628
 4676SOL    HW125490   0.265   3.352   3.583 -1.6231 -1.1704  0.3299
 4676SOL    HW225491   0.200   3.452   3.669  0.0830 -0.6143  0.3566
 4677SOL     OW25492   2.899   2.672   4.531  0.3160  0.1785  0.5041
 4677SOL    HW125493   2.959   2.597   4.528  1.9092  1.4740  0.2439
 4677SOL    HW225494   2.956   2.747   4.549  1.8891 -0.4360 -1.8090
 4678SOL     OW25495   3.170   3.545  16.208 -0.5022  0.1287 -0.0451
 4678SOL    HW125496   3.243   3.486  16.187  1.0949  0.9898  2.9665
 4678SOL    HW225497   3.189   3.566  16.300 -4.0940  0.2156  0.6823
 4679SOL     OW25498   2.944   4.036   0.471 -0.1764 -0.1725  0.0787
 4679SOL    HW125499   2.855   4.044   0.435  0.1800  2.3174 -0.2582
 4679SOL    HW225500   2.965   3.958   0.420  1.5993 -0.7002  1.6087
 4680SOL     OW25501   0.647   1.834  11.180 -0.5382 -0.3583 -0.1703
 4680SOL    HW125502   0.578   1.773  11.156  1.6172 -1.8293 -2.6091
 4680SOL    HW225503   0.716   1.793  11.129  0.3375  2.0324 -0.9223
 4681SOL     OW25504   4.154   1.514   8.704  0.0503 -0.1666  0.1175
 4681SOL    HW125505   4.191   1.587   8.755  1.8220 -0.2726 -1.0341
 4681SOL    HW225506   4.233   1.505   8.651 -0.4689 -2.2332 -0.3187
 4682SOL     OW25507   3.835   3.167   6.697  0.1912 -0.6086  0.2648
 4682SOL    HW125508   3.791   3.134   6.620 -1.8376  1.3413  0.5843
 4682SOL    HW225509   3.864   3.252   6.663  2.5068 -0.5501  2.3635
 4683SOL     OW25510   3.202   1.738   2.325 -0.1388 -0.2185  0.1698
 4683SOL    HW125511   3.294   1.762   2.315 -0.3435  0.8751  0.9708
 4683SOL    HW225512   3.190   1.666   2.263 -1.4444  1.5447 -1.6337
 4684SOL     OW25513   2.395   4.535   5.489  0.4309  0.0318  0.1679
 4684SOL    HW125514   2.349   4.518   5.571  0.0620  0.4356  0.0454
 4684SOL    HW225515   2.435   4.620   5.505  1.8733 -0.7474  0.7016
 4685SOL     OW25516   2.231   4.263  15.597 -0.2783 -0.1382 -0.5321
 4685SOL    HW125517   2.271   4.179  15.617 -0.3601 -0.5865 -2.2330
 4685SOL    HW225518   2.308   4.308  15.561 -0.2038 -1.7962 -2.4544
 4686SOL     OW25519   1.645   3.209  12.105  0.1641 -0.4437  0.3484
 4686SOL    HW125520   1.602   3.184  12.187  0.0499 -1.3708  0.0105
 4686SOL    HW225521   1.662   3.120  12.075  2.4920  0.1844 -0.1855
 4687SOL     OW25522   1.945   0.414   4.194 -0.6718  0.4393 -0.2594
 4687SOL    HW125523   1.949   0.474   4.268  1.2679 -0.7844  0.6217
 4687SOL    HW225524   2.039   0.397   4.185 -0.9064 -0.0543 -1.8196
 4688SOL     OW25525   1.628   3.260   7.468  0.0072  0.1841  0.4437
 4688SOL    HW125526   1.630   3.304   7.383  2.1761  1.0318  0.9225
 4688SOL    HW225527   1.718   3.268   7.499  0.9605 -1.0151 -2.0168
 4689SOL     OW25528   0.634   3.695   9.336  0.3625 -0.1932 -0.2324
 4689SOL    HW125529   0.581   3.737   9.403  1.4087 -1.1429  1.1737
 4689SOL    HW225530   0.572   3.685   9.263 -1.4912  1.2231  1.1540
 4690SOL     OW25531   1.909   4.475   4.925  0.2342 -0.4184 -0.5161
 4690SOL    HW125532   1.949   4.388   4.927 -0.1614 -0.6094 -0.7465
 4690SOL    HW225533   1.839   4.454   4.986 -0.2576  1.6387 -0.3550
 4691SOL     OW25534   4.221   3.582   1.402  0.8509 -0.4715 -0.2218
 4691SOL    HW125535   4.201   3.661   1.351  0.4584  0.1821  0.9432
 4691SOL    HW225536   4.253   3.627   1.481  1.1878  1.0828 -1.2476
 4692SOL     OW25537   4.641   0.887   4.706 -0.5086 -0.5165 -0.3626
 4692SOL    HW125538   4.647   0.792   4.719 -0.0119 -0.2248  1.5599
 4692SOL    HW225539   4.611   0.915   4.792 -1.5603  2.0905 -1.5754
 4693SOL     OW25540   1.847   4.697   5.522 -0.2824 -0.3292  0.8635
 4693SOL    HW125541   1.836   4.610   5.484 -1.1390  1.2072 -2.3634
 4693SOL    HW225542   1.937   4.719   5.497 -0.6091  0.9169  0.7917
 4694SOL     OW25543   2.539   2.201   0.704  0.1667  0.0599  0.3143
 4694SOL    HW125544   2.488   2.243   0.772  0.7084  3.8742 -1.6216
 4694SOL    HW225545   2.628   2.227   0.730  0.1884 -1.8337  2.1356
 4695SOL     OW25546   3.357   0.722   1.494  0.0389 -0.1649  0.1243
 4695SOL    HW125547   3.348   0.658   1.564 -0.6514  0.5335  0.6669
 4695SOL    HW225548   3.365   0.800   1.549  0.5452 -1.4082  1.7812
 4696SOL     OW25549   3.103   0.833   4.331  0.3320  0.0249  0.1215
 4696SOL    HW125550   3.195   0.854   4.314  1.0583 -2.1005  1.4454
 4696SOL    HW225551   3.102   0.743   4.361 -3.0096  0.7293  2.0590
 4697SOL     OW25552   4.454   2.139   4.263 -0.6025  0.2171 -0.4241
 4697SOL    HW125553   4.471   2.206   4.196 -1.7253 -1.0098 -1.9296
 4697SOL    HW225554   4.442   2.201   4.335 -0.6826  0.8960 -1.0221
 4698SOL     OW25555   2.188   3.676   4.746 -0.2540 -0.3983 -0.6111
 4698SOL    HW125556   2.258   3.727   4.707 -0.1340  0.1505  0.3550
 4698SOL    HW225557   2.230   3.642   4.825  0.0713 -1.3425 -1.1851
 4699SOL     OW25558   1.958   3.377   4.587 -0.0953 -0.3410  0.3437
 4699SOL    HW125559   1.894   3.373   4.517 -0.3625  1.1188  0.5145
 4699SOL    HW225560   2.008   3.301   4.558  1.2010  0.3438  0.7717
 4700SOL     OW25561   3.437   1.757   4.765 -0.3067 -0.3165  0.0252
 4700SOL    HW125562   3.371   1.722   4.706 -1.8961  1.7914  0.5673
 4700SOL    HW225563   3.383   1.768   4.843  0.1441  1.0876  0.1520
 4701SOL     OW25564   0.119   4.231   2.069 -0.4364 -0.6800  0.3851
 4701SOL    HW125565   0.149   4.237   2.159 -0.9416  2.2022  0.3533
 4701SOL    HW225566   0.177   4.297   2.029 -1.9813  0.3672 -0.1188
 4702SOL     OW25567   2.205   2.534   8.408  0.3403 -0.2400  0.5884
 4702SOL    HW125568   2.295   2.538   8.376  0.6137 -0.3703  1.3366
 4702SOL    HW225569   2.215   2.540   8.503 -1.1079 -1.7756  0.8378
 4703SOL     OW25570   0.813   0.702   3.348  0.1983  0.0824 -0.8340
 4703SOL    HW125571   0.869   0.634   3.385  0.6191  1.8480  1.7098
 4703SOL    HW225572   0.747   0.643   3.313  0.9887 -1.8848  1.0292
 4704SOL     OW25573   3.327   4.320   8.749 -0.6058 -0.3218  0.1834
 4704SOL    HW125574   3.242   4.302   8.790 -0.4121  0.1622  0.7907
 4704SOL    HW225575   3.342   4.238   8.702  4.4309  1.0059 -0.4371
 4705SOL     OW25576   3.213   4.536   7.398 -0.3281 -0.1250 -0.4796
 4705SOL    HW125577   3.258   4.456   7.428 -0.4888  0.6349  1.8083
 4705SOL    HW225578   3.232   4.537   7.305 -2.2087 -0.0724 -0.8620
 4706SOL     OW25579   0.399   2.505   4.642  0.3177 -0.4623  0.3804
 4706SOL    HW125580   0.372   2.415   4.623 -1.4147  0.2444 -0.4602
 4706SOL    HW225581   0.328   2.555   4.681  0.5986  0.0124  0.2830
 4707SOL     OW25582   2.958   2.953   9.579  0.2443  0.4756 -0.0552
 4707SOL    HW125583   2.878   3.005   9.574  0.4427  0.6743 -1.1553
 4707SOL    HW225584   3.023   3.022   9.567  0.1496  0.6845  0.6391
 4708SOL     OW25585   1.725   2.000  12.209 -0.1496  0.4582  0.3532
 4708SOL    HW125586   1.816   1.969  12.214 -0.7503 -0.7739  3.1791
 4708SOL    HW225587   1.696   1.993  12.300 -1.7992 -1.8757 -0.3564
 4709SOL     OW25588   0.543   1.630  12.968 -0.0103  0.1326 -0.0865
 4709SOL    HW125589   0.548   1.595  12.879 -0.1934  0.3606 -0.1876
 4709SOL    HW225590   0.539   1.550  13.020 -0.2496 -0.7187 -1.4221
 4710SOL     OW25591   1.164   1.065   2.614  0.3133 -0.0331  0.3017
 4710SOL    HW125592   1.085   1.043   2.564  0.0295  1.0787  0.2536
 4710SOL    HW225593   1.127   1.147   2.647  1.8112  0.5468  0.5064
 4711SOL     OW25594   0.276   0.764   6.944 -0.6161 -0.1502  0.2645
 4711SOL    HW125595   0.285   0.699   7.014  2.3124 -1.7539 -1.6221
 4711SOL    HW225596   0.367   0.789   6.926 -0.5643  1.6860  3.1392
 4712SOL     OW25597   3.681   0.187  13.128  0.1069  0.4796  0.4778
 4712SOL    HW125598   3.752   0.230  13.176  2.1826 -1.6231 -0.6934
 4712SOL    HW225599   3.637   0.133  13.194 -1.2846  0.9970 -0.0301
 4713SOL     OW25600   3.806   1.853  17.384  0.0503 -0.1243 -0.0828
 4713SOL    HW125601   3.894   1.858  17.421 -0.0518 -1.3687  0.3230
 4713SOL    HW225602   3.805   1.776  17.327 -1.6065  1.0222 -1.5904
 4714SOL     OW25603   1.228   3.848  13.219 -0.2047  0.1886 -0.1920
 4714SOL    HW125604   1.140   3.830  13.251 -0.3209  1.1387  0.0177
 4714SOL    HW225605   1.253   3.921  13.275 -0.3903  1.4756 -1.7898
 4715SOL     OW25606   3.088   2.222   1.068 -0.4516 -0.1292 -0.2688
 4715SOL    HW125607   3.067   2.138   1.109  0.1017 -1.4365 -2.7013
 4715SOL    HW225608   3.064   2.284   1.137  0.1686 -1.2050  0.9089
 4716SOL     OW25609   3.973   1.381  17.186 -0.4354  0.2755  0.0686
 4716SOL    HW125610   4.052   1.378  17.240 -1.1149 -1.0252  0.9963
 4716SOL    HW225611   3.955   1.287  17.181  1.4985 -0.3021  4.3389
 4717SOL     OW25612   2.462   2.816   3.207 -0.0425  0.2847 -0.0538
 4717SOL    HW125613   2.452   2.773   3.122 -3.8211  0.0473  0.5397
 4717SOL    HW225614   2.488   2.748   3.270 -2.2411 -0.8893 -0.4089
 4718SOL     OW25615   2.780   1.953  13.234 -0.0597 -0.4526 -0.1191
 4718SOL    HW125616   2.755   1.907  13.154 -0.6594  2.0389 -1.3844
 4718SOL    HW225617   2.796   1.881  13.295  1.1324 -0.6168 -0.6187
 4719SOL     OW25618   3.222   2.470   0.749 -0.2848 -0.1395  0.2204
 4719SOL    HW125619   3.244   2.522   0.827  0.6126  0.0004 -0.1300
 4719SOL    HW225620   3.310   2.467   0.711 -1.4050 -2.1742 -2.2013
 4720SOL     OW25621   4.549   3.234   4.313 -0.2577 -0.1891 -0.2721
 4720SOL    HW125622   4.644   3.240   4.325 -0.4764  2.3216  0.1437
 4720SOL    HW225623   4.545   3.161   4.251 -0.9152 -1.9532  1.8436
 4721SOL     OW25624   4.712   1.337   6.738 -0.0953 -0.4497 -0.5723
 4721SOL    HW125625   4.621   1.307   6.733 -0.3205 -0.0923  1.5068
 4721SOL    HW225626   4.695   1.422   6.778 -0.2146 -1.1244  0.7883
 4722SOL     OW25627   0.381   3.967  14.718 -0.5494 -0.8381  0.5047
 4722SOL    HW125628   0.331   4.004  14.791  2.0836 -0.4788  2.1179
 4722SOL    HW225629   0.310   3.942  14.659 -0.8796 -0.7165  0.8452
 4723SOL     OW25630   0.897   0.962   8.968  0.4638 -0.5537  0.2377
 4723SOL    HW125631   0.939   0.881   8.940  0.6757 -1.1012  2.1463
 4723SOL    HW225632   0.883   0.932   9.058 -0.7604 -0.1072  0.2053
 4724SOL     OW25633   4.288   1.952  13.334 -0.3818  0.2641  0.8623
 4724SOL    HW125634   4.233   1.887  13.290  1.6825 -0.8603 -0.0415
 4724SOL    HW225635   4.225   1.985  13.398 -0.4883 -0.9440  1.3799
 4725SOL     OW25636   4.221   4.373  15.043 -0.2643  0.8900  0.1146
 4725SOL    HW125637   4.197   4.284  15.069 -1.2971  1.0730 -0.1827
 4725SOL    HW225638   4.213   4.377  14.948  3.1390 -0.3967 -0.2104
 4726SOL     OW25639   1.735   0.244   2.741 -0.1880 -0.2037 -0.2652
 4726SOL    HW125640   1.699   0.162   2.708 -0.6667 -0.1864  0.2311
 4726SOL    HW225641   1.716   0.309   2.673  3.0707  0.2769 -0.7212
 4727SOL     OW25642   2.502   1.478   4.636  0.6074 -0.2504 -0.4163
 4727SOL    HW125643   2.497   1.437   4.722 -1.3198  0.7721 -0.0174
 4727SOL    HW225644   2.501   1.401   4.580 -2.3763 -0.0164 -0.7144
 4728SOL     OW25645   1.352   2.083  12.854 -0.3316 -0.0438 -0.5817
 4728SOL    HW125646   1.409   2.110  12.926  1.0649 -2.2074 -0.8871
 4728SOL    HW225647   1.304   2.017  12.904  1.9223 -0.7681  0.6249
 4729SOL     OW25648   2.834   2.706   4.996 -0.3335 -0.3575 -0.1509
 4729SOL    HW125649   2.917   2.662   4.980  0.6688  2.3519 -2.4105
 4729SOL    HW225650   2.852   2.781   4.939  0.2302 -1.3811 -1.3317
 4730SOL     OW25651   1.127   0.110   2.586 -0.2135  0.3897 -0.2195
 4730SOL    HW125652   1.067   0.130   2.514  0.0101 -1.9441 -1.0721
 4730SOL    HW225653   1.075   0.052   2.641  1.3403 -1.3101 -0.5097
 4731SOL     OW25654   1.911   0.859  12.711 -1.0764  0.3492 -0.4388
 4731SOL    HW125655   1.835   0.801  12.706 -0.8568  0.2925 -2.8465
 4731SOL    HW225656   1.946   0.869  12.623 -1.3906  1.5778 -0.4246
 4732SOL     OW25657   1.260   1.324  14.881 -0.7730  0.3203 -0.3473
 4732SOL    HW125658   1.267   1.298  14.789  1.7404 -0.5045  0.0642
 4732SOL    HW225659   1.265   1.244  14.934 -1.2323  0.2846 -0.3642
 4733SOL     OW25660   2.455   2.532   3.615 -0.3285  0.1256  0.2515
 4733SOL    HW125661   2.376   2.491   3.651  0.2492 -1.8318 -0.7035
 4733SOL    HW225662   2.520   2.466   3.638  1.5515  2.1380  0.6528
 4734SOL     OW25663   1.204   4.448   5.498 -0.4682 -0.1051  0.2113
 4734SOL    HW125664   1.141   4.394   5.450  0.4571 -2.8545  2.1255
 4734SOL    HW225665   1.143   4.505   5.546  1.1448 -0.9395  3.2101
 4735SOL     OW25666   0.823   1.871   5.603 -0.3039 -0.2604  0.0950
 4735SOL    HW125667   0.743   1.912   5.635  0.4823  0.3368  1.2874
 4735SOL    HW225668   0.877   1.884   5.681 -0.7738  2.7369 -0.0673
 4736SOL     OW25669   4.045   0.056   1.857  0.7030  0.2681  0.1214
 4736SOL    HW125670   4.084   0.094   1.779 -0.8668 -0.1091 -0.8313
 4736SOL    HW225671   4.115   0.011   1.905 -0.6367 -0.2078  1.6505
 4737SOL     OW25672   1.923   4.654  10.602  0.2116  0.0295 -0.1966
 4737SOL    HW125673   1.983   4.581  10.587 -2.2748 -1.9090 -0.9339
 4737SOL    HW225674   1.977   0.006  10.584  0.9063 -0.2520  0.6859
 4738SOL     OW25675   0.762   0.812   7.557  0.3508  0.2624 -0.1201
 4738SOL    HW125676   0.840   0.866   7.542  0.3392  0.0157 -1.0499
 4738SOL    HW225677   0.799   0.729   7.530  2.7876  1.2565  0.1386
 4739SOL     OW25678   2.595   4.062   3.387 -0.1476 -0.1488 -0.0561
 4739SOL    HW125679   2.579   3.977   3.428  1.4202 -0.6778 -0.5275
 4739SOL    HW225680   2.528   4.121   3.420  0.3096  0.2144  0.2263
 4740SOL     OW25681   2.765   4.174   3.901  0.0713  0.1484 -0.0785
 4740SOL    HW125682   2.709   4.239   3.944  0.1452 -0.8519  1.5490
 4740SOL    HW225683   2.711   4.147   3.827  0.0709 -0.0795  0.0068
 4741SOL     OW25684   2.703   1.165   1.137 -0.2721  0.2008 -0.5463
 4741SOL    HW125685   2.720   1.072   1.152  0.9068  0.2754 -1.4385
 4741SOL    HW225686   2.777   1.209   1.179 -0.2756  0.8181 -1.1761
 4742SOL     OW25687   1.370   0.067   8.338  0.0265  0.1818  0.4451
 4742SOL    HW125688   1.328   0.091   8.255 -1.4139  1.7803  1.6438
 4742SOL    HW225689   1.437   0.003   8.313  1.2500  1.6823 -0.1507
 4743SOL     OW25690   3.271   2.461   5.350 -0.3262 -0.0590 -0.1613
 4743SOL    HW125691   3.275   2.375   5.307 -0.9077  0.0633 -0.4656
 4743SOL    HW225692   3.261   2.448   5.444 -0.1324  1.5584  0.0747
 4744SOL     OW25693   4.530   0.946  13.974  0.5571 -0.0325 -0.5226
 4744SOL    HW125694   4.513   0.938  13.880  1.4526  1.1657 -0.7901
 4744SOL    HW225695   4.577   1.029  13.970 -2.2519  1.5917  0.0123
 4745SOL     OW25696   2.798   3.451   6.614 -0.0445 -0.1529  0.0650
 4745SOL    HW125697   2.795   3.415   6.703  3.4844 -0.1593  0.1994
 4745SOL    HW225698   2.894   3.449   6.609 -0.0919 -2.9332  0.2361
 4746SOL     OW25699   1.986   3.934  13.234 -0.4283 -0.4069 -0.2249
 4746SOL    HW125700   1.997   3.888  13.317 -0.1798 -0.2746 -0.1824
 4746SOL    HW225701   1.901   3.903  13.203 -1.3473  1.1266  0.7761
 4747SOL     OW25702   3.290   3.514   0.644 -0.1291  0.0826  0.2477
 4747SOL    HW125703   3.255   3.594   0.605  0.0009  0.5373  1.0653
 4747SOL    HW225704   3.346   3.482   0.573 -0.7357  0.3795 -0.3605
 4748SOL     OW25705   0.186   0.989   8.258  0.2438 -0.3990 -0.5680
 4748SOL    HW125706   0.125   1.058   8.232  0.2444 -0.8992 -1.8667
 4748SOL    HW225707   0.268   1.039   8.249 -0.4221  0.9686  0.8013
 4749SOL     OW25708   3.691   3.763  12.599 -0.0820 -0.1083  0.3356
 4749SOL    HW125709   3.726   3.674  12.593 -1.8279 -0.6265 -1.9165
 4749SOL    HW225710   3.739   3.797  12.675  0.2554  0.0300  0.0650
 4750SOL     OW25711   2.007   0.578   9.365  0.1258 -0.3723 -0.1837
 4750SOL    HW125712   1.995   0.521   9.440 -1.1365  1.5989  1.1171
 4750SOL    HW225713   1.920   0.615   9.351 -0.3927 -1.9602 -1.1986
 4751SOL     OW25714   1.825   0.815   9.013  0.0654  0.3971  0.2091
 4751SOL    HW125715   1.790   0.771   9.092  0.6639  0.5568  0.5608
 4751SOL    HW225716   1.803   0.739   8.959 -0.1131  1.2885 -0.9661
 4752SOL     OW25717   4.168   3.317  11.339 -0.1116 -0.1918  0.2262
 4752SOL    HW125718   4.229   3.312  11.265 -0.5192  2.3619 -0.2832
 4752SOL    HW225719   4.121   3.235  11.329 -0.1597 -0.2843  1.2469
 4753SOL     OW25720   2.681   4.148   7.035 -0.1954  0.1716  0.0690
 4753SOL    HW125721   2.738   4.225   7.040 -0.8023  0.4691  2.4780
 4753SOL    HW225722   2.592   4.180   7.051 -0.1819  0.1451  0.1968
 4754SOL     OW25723   0.991   0.113   4.498  0.1978 -0.2099  0.1266
 4754SOL    HW125724   0.963   0.066   4.419 -0.4452  0.0355  0.2148
 4754SOL    HW225725   0.958   0.060   4.570 -0.1990 -1.3198 -0.8551
 4755SOL     OW25726   2.583   2.339   7.292  0.0789 -0.4135  0.2905
 4755SOL    HW125727   2.518   2.286   7.246 -0.5215  2.1308 -1.8045
 4755SOL    HW225728   2.573   2.416   7.236  0.8497  0.0546  0.7999
 4756SOL     OW25729   2.701   2.164   2.455  0.2355  0.2855 -0.0816
 4756SOL    HW125730   2.719   2.095   2.391  0.9397 -0.5958  1.0710
 4756SOL    HW225731   2.728   2.238   2.401  1.5747 -0.0066  0.1962
 4757SOL     OW25732   1.903   0.784  11.203 -0.1472 -0.3861  0.2607
 4757SOL    HW125733   1.834   0.736  11.157  0.5040  0.2839 -1.4089
 4757SOL    HW225734   1.967   0.715  11.220  1.5859  0.7309 -1.6670
 4758SOL     OW25735   1.909   0.853   8.273 -0.4226 -0.4017 -0.0221
 4758SOL    HW125736   1.963   0.801   8.334  1.9156  0.6919 -1.1663
 4758SOL    HW225737   1.958   0.932   8.250 -1.7003 -0.3573 -2.4627
 4759SOL     OW25738   4.169   2.099   7.897  0.2934 -0.4163 -0.3775
 4759SOL    HW125739   4.186   2.020   7.949 -1.8129 -0.4448  0.2828
 4759SOL    HW225740   4.168   2.169   7.963 -0.7507 -2.5410  1.8430
 4760SOL     OW25741   0.676   2.321  13.637  0.1208  0.2475 -0.0512
 4760SOL    HW125742   0.686   2.362  13.551 -1.1158 -0.4425 -0.5221
 4760SOL    HW225743   0.621   2.244  13.618 -1.2319  1.0806  0.4860
 4761SOL     OW25744   0.819   3.052  10.352  0.2282 -0.0772 -0.1937
 4761SOL    HW125745   0.761   3.054  10.275  2.0936  0.6235 -1.5849
 4761SOL    HW225746   0.810   3.146  10.368 -0.4547 -0.4335  1.4423
 4762SOL     OW25747   2.904   0.500   3.330 -0.0546  0.3276  0.4250
 4762SOL    HW125748   2.856   0.560   3.273 -2.0307  0.9610  2.7852
 4762SOL    HW225749   2.943   0.446   3.261 -1.9007 -0.9531  0.3630
 4763SOL     OW25750   2.517   2.368   0.114  1.2707 -0.0268 -0.2080
 4763SOL    HW125751   2.427   2.384   0.085  0.5842 -2.6228  0.5625
 4763SOL    HW225752   2.545   2.286   0.075 -2.0770 -0.7098 -1.1755
 4764SOL     OW25753   1.861   2.651  13.493 -0.1207 -0.0858  0.8140
 4764SOL    HW125754   1.768   2.626  13.492  0.0090 -0.5702  0.9088
 4764SOL    HW225755   1.861   2.741  13.461  0.0386 -0.2462  0.3655
 4765SOL     OW25756   3.090   0.100   9.537  0.1826 -0.3446 -1.0448
 4765SOL    HW125757   3.086   0.127   9.629 -0.4645 -0.0088 -1.1759
 4765SOL    HW225758   3.033   0.024   9.537 -2.3859  1.5855  1.3015
 4766SOL     OW25759   0.254   1.124   4.022  0.1572 -0.2857 -0.0992
 4766SOL    HW125760   0.327   1.081   3.979  1.6502  1.1132  1.0266
 4766SOL    HW225761   0.205   1.161   3.948  1.9565  1.8384 -0.2416
 4767SOL     OW25762   4.567   1.797   5.674  0.2222 -0.1627 -0.3822
 4767SOL    HW125763   4.477   1.784   5.704  0.3030 -0.2637 -0.1769
 4767SOL    HW225764   4.598   1.719   5.721 -1.5830 -0.5753  0.1041
 4768SOL     OW25765   2.402   4.117   8.211  0.2159 -0.3883 -0.2694
 4768SOL    HW125766   2.419   4.189   8.272 -0.3124 -1.2299  0.8725
 4768SOL    HW225767   2.493   4.098   8.193  0.1830  0.6060 -1.4310
 4769SOL     OW25768   4.618   0.682   1.982  0.0933 -0.7651 -0.1757
 4769SOL    HW125769   4.653   0.713   2.065  0.4671 -0.6337 -0.3810
 4769SOL    HW225770   4.640   0.754   1.922  0.0321  0.9089  1.8111
 4770SOL     OW25771   0.555   2.510  12.894  0.3661  0.3293  0.3784
 4770SOL    HW125772   0.496   2.566  12.946 -0.4232 -0.4568  0.3295
 4770SOL    HW225773   0.519   2.512  12.805  4.2175 -0.9847 -1.1712
 4771SOL     OW25774   1.083   0.151   7.168 -0.0834 -0.4312  0.8655
 4771SOL    HW125775   1.040   0.104   7.097 -0.6907  2.0781 -0.4243
 4771SOL    HW225776   1.175   0.124   7.158 -0.3608 -1.6106  1.5621
 4772SOL     OW25777   4.091   2.274  11.533 -0.0195 -0.1664  0.2098
 4772SOL    HW125778   4.129   2.317  11.456  0.2415  0.8275  0.8947
 4772SOL    HW225779   4.043   2.347  11.572  1.6256 -0.0105  1.9582
 4773SOL     OW25780   4.554   0.989   3.835 -0.6216  0.3818  0.1826
 4773SOL    HW125781   4.620   0.955   3.895 -2.8323 -3.5235  0.3736
 4773SOL    HW225782   4.566   0.931   3.761 -4.2222  1.0943 -0.9652
 4774SOL     OW25783   4.510   1.508   2.790  0.1446 -0.4405  0.6433
 4774SOL    HW125784   4.540   1.598   2.778  1.2894 -1.2875 -2.8868
 4774SOL    HW225785   4.418   1.525   2.808 -0.2991 -0.6475 -1.5024
 4775SOL     OW25786   4.101   1.983   4.447 -0.1880 -0.0650 -0.1420
 4775SOL    HW125787   4.146   2.015   4.369 -0.5936  0.3762 -0.1984
 4775SOL    HW225788   4.134   1.893   4.443  0.4297  0.1996 -0.9153
 4776SOL     OW25789   2.847   0.276  15.103  0.5204 -0.0290  0.4460
 4776SOL    HW125790   2.942   0.268  15.097  0.5269 -0.4881  1.1354
 4776SOL    HW225791   2.832   0.184  15.124  0.9177 -0.1975  0.0041
 4777SOL     OW25792   3.675   0.153  13.402 -0.8500  0.2979 -0.1394
 4777SOL    HW125793   3.664   0.154  13.497 -1.0124  0.5422 -0.1596
 4777SOL    HW225794   3.739   0.085  13.380 -0.0536  0.9356  0.2214
 4778SOL     OW25795   2.373   3.184  16.521  0.3064 -0.3057  0.0923
 4778SOL    HW125796   2.286   3.202  16.556  0.9141  0.3760  1.2673
 4778SOL    HW225797   2.354   3.091  16.527 -0.4304 -0.2037 -0.7379
 4779SOL     OW25798   3.714   2.822  10.479  0.4325  0.2523 -0.0969
 4779SOL    HW125799   3.620   2.820  10.494  0.3251  1.6667 -0.6062
 4779SOL    HW225800   3.744   2.868  10.558 -0.7168  0.1151  0.4099
 4780SOL     OW25801   1.566   1.467   5.812  0.1088  0.9428 -0.2401
 4780SOL    HW125802   1.623   1.539   5.786  2.4375 -0.7798  0.0484
 4780SOL    HW225803   1.487   1.507   5.850 -0.3702 -1.4154  1.2410
 4781SOL     OW25804   0.763   0.967   1.323  0.6515  0.2051  0.0460
 4781SOL    HW125805   0.746   0.910   1.398  0.4868 -0.9465 -0.8680
 4781SOL    HW225806   0.677   1.009   1.318  0.2526 -0.5049  1.0929
 4782SOL     OW25807   1.724   4.706   4.472  0.0581  0.6057  0.9292
 4782SOL    HW125808   1.770   0.063   4.454  2.1237 -1.0599 -1.2746
 4782SOL    HW225809   1.782   4.659   4.532  2.5068 -0.0479 -1.9531
 4783SOL     OW25810   3.975   2.032   6.764 -0.6255  0.3156 -0.4413
 4783SOL    HW125811   4.006   2.036   6.855  0.0124 -0.8861 -0.6049
 4783SOL    HW225812   3.956   2.124   6.746  3.1440  1.2051 -0.0549
 4784SOL     OW25813   3.555   4.024  10.321 -0.1092  0.3800  0.0400
 4784SOL    HW125814   3.550   3.930  10.303 -3.3537  0.7233 -0.7967
 4784SOL    HW225815   3.593   4.053  10.238  2.3506 -0.7209  0.8028
 4785SOL     OW25816   2.702   3.909   2.067 -0.1697 -0.0282 -0.4242
 4785SOL    HW125817   2.784   3.877   2.028 -1.5730 -1.9623 -1.7669
 4785SOL    HW225818   2.718   4.003   2.054  1.6346 -0.4624 -1.4357
 4786SOL     OW25819   3.213   3.134   9.634 -0.0338 -0.0274 -0.9064
 4786SOL    HW125820   3.308   3.119   9.636 -0.2247 -1.1380  0.2753
 4786SOL    HW225821   3.210   3.185   9.554 -0.2794 -1.2483 -1.6820
 4787SOL     OW25822   3.617   3.744   0.463  0.3582 -0.7513 -0.6083
 4787SOL    HW125823   3.629   3.698   0.380  1.8521  1.3042 -1.5196
 4787SOL    HW225824   3.597   3.830   0.427  0.6830 -0.8813 -1.1020
 4788SOL     OW25825   0.321   0.578   7.155 -0.0015  0.0796 -0.1858
 4788SOL    HW125826   0.408   0.543   7.176 -0.6073  0.0859  2.2852
 4788SOL    HW225827   0.286   0.590   7.243  0.6055  2.7965 -0.3021
 4789SOL     OW25828   1.310   0.821   9.276 -0.4219 -0.0351 -0.4381
 4789SOL    HW125829   1.343   0.737   9.306 -1.5611 -0.4557 -0.3477
 4789SOL    HW225830   1.287   0.811   9.184  0.8751 -0.5646 -0.6959
 4790SOL     OW25831   2.242   3.020   2.974  0.9184 -0.4703  0.4709
 4790SOL    HW125832   2.208   3.012   2.885 -1.6271 -0.0750  1.4028
 4790SOL    HW225833   2.224   2.935   3.014 -1.3452 -0.9560 -1.6154
 4791SOL     OW25834   3.611   4.048   8.452  0.5047  0.8917  0.5465
 4791SOL    HW125835   3.687   4.072   8.504  1.2093  0.1439 -0.1289
 4791SOL    HW225836   3.590   4.133   8.412 -1.8428  0.0610 -0.0132
 4792SOL     OW25837   3.535   1.159   5.425  0.2566  0.0952 -0.2202
 4792SOL    HW125838   3.529   1.191   5.515 -2.1240 -2.0309  0.3576
 4792SOL    HW225839   3.605   1.215   5.390  0.5231 -0.0011  0.1518
 4793SOL     OW25840   2.153   1.039   9.497  0.4087 -0.2144  0.4442
 4793SOL    HW125841   2.153   0.944   9.481 -0.1584 -0.0147 -0.6937
 4793SOL    HW225842   2.244   1.060   9.518  0.4405  0.0287  0.0404
 4794SOL     OW25843   1.215   2.715   8.859  0.1648 -0.0622  0.4933
 4794SOL    HW125844   1.205   2.787   8.797  0.2786  0.0914  0.6528
 4794SOL    HW225845   1.187   2.756   8.941  0.2193 -0.5122  0.7396
 4795SOL     OW25846   3.088   0.403  12.923  0.2169 -0.0373  0.4350
 4795SOL    HW125847   3.155   0.375  12.985  0.1154 -3.6825 -1.1397
 4795SOL    HW225848   3.116   0.490  12.896  1.7652 -0.5466  0.4051
 4796SOL     OW25849   4.638   0.710   6.556 -0.1604 -0.0704  0.0921
 4796SOL    HW125850   4.557   0.749   6.589 -0.8622 -2.9240  1.8211
 4796SOL    HW225851   4.675   0.699   6.644 -2.5125 -2.4052  0.7774
 4797SOL     OW25852   4.576   2.843   4.823  0.2258  0.2105 -0.2243
 4797SOL    HW125853   4.512   2.778   4.793  1.2128 -0.5451 -0.7063
 4797SOL    HW225854   4.602   2.885   4.741 -0.5680  0.5808 -0.2879
 4798SOL     OW25855   4.213   3.701   5.429 -0.0641 -0.5552  0.6448
 4798SOL    HW125856   4.301   3.668   5.450  0.7406 -0.4201 -2.4479
 4798SOL    HW225857   4.176   3.685   5.515 -0.2201  0.6413  0.7916
 4799SOL     OW25858   3.363   4.381   9.138 -0.9412  0.5634  0.1458
 4799SOL    HW125859   3.434   4.361   9.198  0.4791  1.9578 -1.0874
 4799SOL    HW225860   3.291   4.392   9.200  0.6310  1.7405  1.7532
 4800SOL     OW25861   0.814   1.240  14.847 -0.2857 -0.3943  0.5068
 4800SOL    HW125862   0.866   1.200  14.917 -0.1409 -1.4196 -0.1810
 4800SOL    HW225863   0.863   1.318  14.821 -0.8680  0.5985  2.4014
 4801SOL     OW25864   3.041   2.482   8.838 -0.3510 -0.4279 -0.4675
 4801SOL    HW125865   3.016   2.453   8.926  1.0601  1.1562  0.4650
 4801SOL    HW225866   2.969   2.445   8.788  2.2907 -1.4258 -3.5528
 4802SOL     OW25867   0.663   0.470  10.901 -0.4122  0.5664 -0.2864
 4802SOL    HW125868   0.637   0.540  10.841 -0.5344 -0.3280 -1.2677
 4802SOL    HW225869   0.757   0.484  10.909  0.0309 -2.0407 -0.9897
 4803SOL     OW25870   0.049   0.311   9.066  0.1673 -0.9292 -0.6447
 4803SOL    HW125871   0.135   0.340   9.095 -0.1457 -0.1997 -0.4513
 4803SOL    HW225872   0.017   0.292   9.154 -0.9275 -0.3594 -0.9080
 4804SOL     OW25873   3.466   0.396   8.925 -0.6345 -0.4661 -0.0486
 4804SOL    HW125874   3.440   0.445   8.846 -3.4350  0.8413  1.6838
 4804SOL    HW225875   3.386   0.406   8.977 -0.4528  2.8704 -0.3933
 4805SOL     OW25876   2.542   3.946  15.542  0.2931  0.3102 -0.0382
 4805SOL    HW125877   2.632   3.947  15.509  0.1305  0.5596 -0.4754
 4805SOL    HW225878   2.511   4.035  15.524  1.0130  1.1304  2.8455
 4806SOL     OW25879   3.445   3.180   4.057 -0.2868  0.1184 -0.2753
 4806SOL    HW125880   3.538   3.172   4.078  0.0668  0.1636 -1.7816
 4806SOL    HW225881   3.435   3.143   3.969 -0.7010  1.6300 -0.8665
 4807SOL     OW25882   2.224   3.658  13.134  0.4676 -0.3471 -0.1032
 4807SOL    HW125883   2.156   3.633  13.071  0.4852  0.7387 -0.5471
 4807SOL    HW225884   2.256   3.737  13.090 -1.6257 -0.2064 -1.3863
 4808SOL     OW25885   4.079   0.964  16.200  0.9658 -0.2279  0.3141
 4808SOL    HW125886   4.130   0.967  16.280  0.0985  1.1043  0.8004
 4808SOL    HW225887   3.996   1.005  16.221  0.8038  0.9701 -2.6376
 4809SOL     OW25888   1.153   0.886  16.972 -0.9910 -0.5027 -0.0125
 4809SOL    HW125889   1.123   0.973  16.998 -0.0656 -0.1981  0.0480
 4809SOL    HW225890   1.247   0.898  16.987 -1.3105  1.9630 -0.0028
 4810SOL     OW25891   1.205   2.149   7.966 -0.7071 -1.1792  0.3334
 4810SOL    HW125892   1.162   2.127   7.883 -0.0706  0.6907 -0.5125
 4810SOL    HW225893   1.253   2.066   7.966 -0.5825 -1.1211 -1.6065
 4811SOL     OW25894   3.415   0.998   3.454 -0.5910 -0.0719 -0.2260
 4811SOL    HW125895   3.370   1.082   3.449 -1.4677 -0.7011 -2.7097
 4811SOL    HW225896   3.489   1.003   3.393 -1.3815  1.5600 -1.0591
 4812SOL     OW25897   3.834   0.359   1.128  0.0031 -0.1727 -0.5389
 4812SOL    HW125898   3.900   0.291   1.139 -2.4197 -2.5192 -0.5741
 4812SOL    HW225899   3.753   0.309   1.124 -1.4565  2.2859 -1.8204
 4813SOL     OW25900   3.128   2.882   7.984  0.0530  0.3235  0.3932
 4813SOL    HW125901   3.195   2.947   8.006  0.3012  0.1247  0.2296
 4813SOL    HW225902   3.179   2.802   7.972 -1.8096 -0.5318 -2.0285
 4814SOL     OW25903   1.037   3.632   7.937  0.2031  0.0004 -0.2594
 4814SOL    HW125904   0.973   3.567   7.965 -1.7203  0.8328 -2.7281
 4814SOL    HW225905   0.981   3.708   7.950 -0.9905 -0.8955 -0.1473
 4815SOL     OW25906   1.998   4.563   6.387 -0.3983 -0.2818 -0.5742
 4815SOL    HW125907   2.047   4.624   6.441 -0.5814  0.0066 -0.7347
 4815SOL    HW225908   1.989   4.626   6.315 -0.7003 -0.0300 -0.3138
 4816SOL     OW25909   4.026   2.077   2.179  0.0497 -0.3791  0.5525
 4816SOL    HW125910   3.959   2.097   2.113 -0.8832 -2.4645  0.8649
 4816SOL    HW225911   4.103   2.057   2.126  1.6416  1.3591  2.2178
 4817SOL     OW25912   2.503   2.547   1.467  0.1923  0.4492  0.4764
 4817SOL    HW125913   2.462   2.476   1.517  0.7149 -0.1711  0.0333
 4817SOL    HW225914   2.594   2.516   1.458 -0.4672 -1.5440  0.5857
 4818SOL     OW25915   2.945   4.637   3.479 -0.2656 -0.2128  0.4585
 4818SOL    HW125916   2.867   4.644   3.535  0.4860  1.5877  1.2857
 4818SOL    HW225917   3.003   4.708   3.507  3.7771 -2.2032 -2.8657
 4819SOL     OW25918   4.133   4.599   7.696  0.2314  0.3893 -0.2141
 4819SOL    HW125919   4.205   4.608   7.759  0.5818  0.2024 -0.5892
 4819SOL    HW225920   4.176   4.636   7.619  0.6778  0.6697  0.1641
 4820SOL     OW25921   0.465   4.654  16.576 -0.3266  0.2935 -0.2113
 4820SOL    HW125922   0.511   4.697  16.647  1.8040  1.9553 -2.5981
 4820SOL    HW225923   0.526   4.581  16.563 -0.0206  0.6091 -0.5378
 4821SOL     OW25924   2.645   2.083   8.401 -0.5291  0.1019 -0.5587
 4821SOL    HW125925   2.629   2.005   8.455  3.7500 -0.4681 -0.0825
 4821SOL    HW225926   2.591   2.071   8.323 -3.1603 -2.6547  1.6718
 4822SOL     OW25927   0.471   0.016   1.639  0.3216  0.1128  0.3559
 4822SOL    HW125928   0.485   4.671   1.702 -2.1266 -0.1326  0.6542
 4822SOL    HW225929   0.559   0.044   1.616 -0.4702  0.3442 -2.3758
 4823SOL     OW25930   3.068   1.535  16.804 -0.4177 -0.0860  0.0961
 4823SOL    HW125931   3.049   1.589  16.881 -1.5255  1.9744 -1.6185
 4823SOL    HW225932   3.028   1.582  16.731  0.2861  0.0588 -0.1935
 4824SOL     OW25933   1.120   1.422  15.891  0.0899 -0.1464  0.0560
 4824SOL    HW125934   1.113   1.353  15.825 -0.7761  1.4584 -1.5151
 4824SOL    HW225935   1.063   1.488  15.852 -0.3663  0.8533  2.4050
 4825SOL     OW25936   0.180   4.330   1.106 -0.2006  0.0669 -0.0005
 4825SOL    HW125937   0.131   4.295   1.032  0.0813 -2.5489  1.0185
 4825SOL    HW225938   0.271   4.307   1.086 -1.0006 -0.6435 -2.7110
 4826SOL     OW25939   3.320   3.181   1.803 -0.3361 -0.3642  0.4869
 4826SOL    HW125940   3.282   3.127   1.733  0.2165  1.3397 -1.1212
 4826SOL    HW225941   3.365   3.114   1.855  1.4081  0.0231 -0.5255
 4827SOL     OW25942   2.400   1.805   2.254  0.2017 -0.4177  0.2731
 4827SOL    HW125943   2.466   1.867   2.225 -1.3194 -0.5912 -3.4908
 4827SOL    HW225944   2.336   1.802   2.183 -2.5200 -1.1430  2.7238
 4828SOL     OW25945   2.509   4.637   6.454  0.2008  0.0162 -0.7458
 4828SOL    HW125946   2.526   0.001   6.423  0.1092  0.2433 -0.1441
 4828SOL    HW225947   2.535   4.647   6.545 -2.4404  0.8892 -0.0897
 4829SOL     OW25948   3.116   0.234  13.282 -0.3155  0.0409 -0.6036
 4829SOL    HW125949   3.175   0.289  13.230  0.3508 -0.7638 -0.7054
 4829SOL    HW225950   3.148   0.146  13.264  1.6848  1.3746 -3.6467
 4830SOL     OW25951   3.510   3.369   2.353 -0.5043  0.2539 -0.2410
 4830SOL    HW125952   3.417   3.368   2.330 -0.4575  0.1418 -0.4293
 4830SOL    HW225953   3.502   3.364   2.448  5.4172  0.1776  0.3062
 4831SOL     OW25954   2.362   0.210   2.513 -0.2494 -0.0106  0.3161
 4831SOL    HW125955   2.356   0.167   2.598 -1.9799 -1.0460 -0.3242
 4831SOL    HW225956   2.406   0.290   2.540  0.1421  0.8015 -2.7229
 4832SOL     OW25957   2.434   3.164   5.603  0.0057  0.4922  0.2684
 4832SOL    HW125958   2.345   3.145   5.635 -0.2415  0.4603 -0.4488
 4832SOL    HW225959   2.472   3.112   5.674 -0.2271 -1.8777 -1.3172
 4833SOL     OW25960   0.738   1.100   2.339 -0.4446 -0.2618  0.0394
 4833SOL    HW125961   0.743   1.191   2.370  0.4174 -0.7052  1.2012
 4833SOL    HW225962   0.659   1.077   2.389 -2.4917  2.3012 -1.9979
 4834SOL     OW25963   3.539   2.749   2.115 -0.4150  0.0415  0.4564
 4834SOL    HW125964   3.603   2.807   2.156 -0.7820  0.3624  0.5760
 4834SOL    HW225965   3.525   2.687   2.186  0.7910 -0.4611  0.2529
 4835SOL     OW25966   0.189   2.163   0.752 -0.5191 -0.2277 -0.1827
 4835SOL    HW125967   0.198   2.258   0.745  0.2615 -0.2715  0.2207
 4835SOL    HW225968   0.181   2.164   0.847 -1.4512 -0.5616 -0.2559
 4836SOL     OW25969   0.027   0.799   0.063 -0.6118  0.5009  0.3410
 4836SOL    HW125970   4.708   0.720   0.096 -1.6458  0.8671 -0.1652
 4836SOL    HW225971   4.699   0.819  17.688 -0.5190 -1.0353 -0.1386
 4837SOL     OW25972   4.339   1.689  17.594  0.3688 -0.7862 -0.0015
 4837SOL    HW125973   4.331   1.671  17.501 -1.4485  1.4039 -0.2669
 4837SOL    HW225974   4.247   1.686  17.620  0.0347  0.5279 -1.0709
 4838SOL     OW25975   2.797   4.481   1.974 -0.2338 -0.5946 -0.7742
 4838SOL    HW125976   2.858   4.516   2.038 -1.9136  0.5868  0.1686
 4838SOL    HW225977   2.724   4.543   1.980  1.1991  0.7964  1.9710
 4839SOL     OW25978   2.579   3.214   9.383 -0.0255  0.8482  0.1051
 4839SOL    HW125979   2.565   3.120   9.377 -1.1783  0.9984  0.3581
 4839SOL    HW225980   2.600   3.214   9.477  1.5070 -0.1859 -0.2281
 4840SOL     OW25981   2.488   4.562   2.502 -0.4539  1.0373 -0.1771
 4840SOL    HW125982   2.501   4.532   2.592 -2.2260 -0.0841 -0.3075
 4840SOL    HW225983   2.541   4.642   2.497 -0.8912  1.3791  0.4934
 4841SOL     OW25984   2.814   0.256   1.319  0.3663 -0.2432 -0.0911
 4841SOL    HW125985   2.787   0.255   1.411 -0.4633  2.6885 -0.3040
 4841SOL    HW225986   2.847   0.167   1.305  1.9455  0.1968  0.7669
 4842SOL     OW25987   2.525   2.957   9.420  0.3610  0.1834 -0.4310
 4842SOL    HW125988   2.562   2.877   9.458  1.0270  1.2560  1.1680
 4842SOL    HW225989   2.447   2.911   9.389 -0.5657  2.2306 -1.0654
 4843SOL     OW25990   1.484   0.531   0.368  0.3659  0.2181 -1.2173
 4843SOL    HW125991   1.406   0.573   0.404 -1.1458 -3.1721 -0.5565
 4843SOL    HW225992   1.462   0.439   0.383  0.1647  0.3610 -0.6345
 4844SOL     OW25993   4.377   2.451   2.631  0.3443 -0.1863  0.3863
 4844SOL    HW125994   4.439   2.410   2.691 -1.2542 -1.4550  1.1841
 4844SOL    HW225995   4.430   2.449   2.552  0.5237  2.9405  0.4330
 4845SOL     OW25996   3.135   2.843  13.950 -0.3226 -0.5638 -0.5002
 4845SOL    HW125997   3.214   2.897  13.951  0.5050 -1.7507 -1.5021
 4845SOL    HW225998   3.137   2.830  13.855  1.3726  2.3061 -0.8463
 4846SOL     OW25999   1.445   0.674   1.507  0.0479 -0.3549  0.3653
 4846SOL    HW126000   1.451   0.579   1.494 -2.4371 -0.3317 -1.0259
 4846SOL    HW226001   1.372   0.687   1.446 -1.3397 -2.1094  1.6175
 4847SOL     OW26002   1.910   3.575   4.222  0.3012 -0.5025  0.3939
 4847SOL    HW126003   1.943   3.561   4.133 -0.6029 -2.0947  0.3106
 4847SOL    HW226004   1.819   3.545   4.218  0.2136 -0.0030 -1.2542
 4848SOL     OW26005   1.340   0.497   3.564 -0.2036  0.2577  0.3295
 4848SOL    HW126006   1.375   0.569   3.511 -1.0807  0.7377  0.3996
 4848SOL    HW226007   1.387   0.518   3.645 -0.0832  1.8797 -0.1550
 4849SOL     OW26008   1.801   0.313   3.285 -0.6452 -0.0453  0.5905
 4849SOL    HW126009   1.716   0.349   3.310 -0.7237  0.2386 -0.0774
 4849SOL    HW226010   1.784   0.278   3.197  1.8671 -0.2092  0.1914
 4850SOL     OW26011   3.957   1.410   9.679 -0.0824  0.0057  0.3861
 4850SOL    HW126012   3.956   1.328   9.728 -0.8551  0.1756  0.6410
 4850SOL    HW226013   3.997   1.465   9.747 -0.5881  0.6502  0.1635
 4851SOL     OW26014   1.372   4.181   9.331  0.5352 -0.0116  0.1944
 4851SOL    HW126015   1.464   4.196   9.312  0.9560 -0.8572  1.5198
 4851SOL    HW226016   1.375   4.134   9.415 -1.4533  0.5835  0.6105
 4852SOL     OW26017   1.959   2.510  10.990  0.5808  0.1680 -0.1390
 4852SOL    HW126018   1.940   2.424  10.954  1.3313  0.4526 -1.2296
 4852SOL    HW226019   2.043   2.495  11.034  0.3308 -1.1792 -0.1303
 4853SOL     OW26020   3.710   2.244  15.014 -0.3005  0.1707  0.2222
 4853SOL    HW126021   3.684   2.211  14.928  1.3562 -1.2294  0.2584
 4853SOL    HW226022   3.724   2.160  15.057 -0.8759  0.9964  2.0560
 4854SOL     OW26023   3.507   2.779  12.360  0.3658 -0.1551  0.0509
 4854SOL    HW126024   3.594   2.813  12.343  0.2678  0.9545  1.7530
 4854SOL    HW226025   3.469   2.793  12.273 -0.4467  0.6574  0.5230
 4855SOL     OW26026   3.691   2.303   5.247  0.0266 -0.1162 -0.3050
 4855SOL    HW126027   3.608   2.256   5.244 -0.1462  0.1388  0.6680
 4855SOL    HW226028   3.684   2.317   5.152 -0.0072  1.1149 -0.1277
 4856SOL     OW26029   3.466   3.385   8.069 -0.4140 -0.5723 -0.0020
 4856SOL    HW126030   3.456   3.298   8.107  1.0059 -0.8718 -0.3080
 4856SOL    HW226031   3.391   3.440   8.092  0.5677  0.7158  0.1811
 4857SOL     OW26032   2.079   0.115   8.655  0.6104 -0.1043  0.5447
 4857SOL    HW126033   2.122   0.066   8.584  0.7077  1.8117 -0.7387
 4857SOL    HW226034   1.985   0.109   8.643  0.7647  0.6143 -1.1488
 4858SOL     OW26035   1.497   2.284  14.635  0.0617 -0.1392  0.2609
 4858SOL    HW126036   1.480   2.197  14.600  0.1831 -0.2600  0.5054
 4858SOL    HW226037   1.404   2.296  14.655 -0.6245 -0.1168 -2.8520
 4859SOL     OW26038   2.824   0.087   8.331  0.0457  0.3510  0.5978
 4859SOL    HW126039   2.830   0.076   8.425 -2.0966  0.2974  0.7167
 4859SOL    HW226040   2.731   0.069   8.316  0.2688  2.0080 -2.9045
 4860SOL     OW26041   2.574   0.953   6.317  0.3747  0.2638 -0.0352
 4860SOL    HW126042   2.551   1.026   6.374  0.0973 -0.4297  0.7385
 4860SOL    HW226043   2.666   0.971   6.298  0.1567  0.3266 -1.0673
 4861SOL     OW26044   3.016   2.607   0.598  0.1466 -0.7523  0.1661
 4861SOL    HW126045   2.986   2.689   0.636  0.8872 -0.8301  0.9240
 4861SOL    HW226046   3.068   2.558   0.662 -1.3453 -1.9678  0.4548
 4862SOL     OW26047   3.601   0.524  10.087  0.5801 -0.5745  0.0862
 4862SOL    HW126048   3.644   0.601  10.051 -0.2627  0.2486  0.8665
 4862SOL    HW226049   3.628   0.458  10.023 -2.4619 -1.0398 -0.6940
 4863SOL     OW26050   4.203   3.488   3.337 -0.2776  0.7228 -0.0217
 4863SOL    HW126051   4.227   3.446   3.255  0.7737  0.8107  0.2352
 4863SOL    HW226052   4.265   3.561   3.331  1.2390 -0.6440 -0.9674
 4864SOL     OW26053   4.258   2.924  13.586  0.2017  0.2773  0.1268
 4864SOL    HW126054   4.196   2.971  13.641  1.1483  1.2050  0.4145
 4864SOL    HW226055   4.343   2.959  13.615 -0.6643  1.1891  1.5432
 4865SOL     OW26056   3.575   3.332   2.024  0.4912  0.4054 -0.1790
 4865SOL    HW126057   3.543   3.368   2.107  0.8337  0.9014 -0.2700
 4865SOL    HW226058   3.566   3.405   1.964  1.2535  1.7316  1.3256
 4866SOL     OW26059   2.395   4.611   0.129  0.0542 -0.0285  0.0624
 4866SOL    HW126060   2.450   4.687   0.151  1.7675 -1.6167  1.2890
 4866SOL    HW226061   2.402   4.601   0.034 -1.2290 -1.9044  0.1722
 4867SOL     OW26062   3.952   2.695   2.136  0.0372  0.4694  0.1291
 4867SOL    HW126063   4.022   2.716   2.074  0.8248  1.1614  1.2361
 4867SOL    HW226064   3.980   2.754   2.207  2.3846 -1.8382  1.1134
 4868SOL     OW26065   4.361   0.742   6.389  0.0264  0.4726 -0.0048
 4868SOL    HW126066   4.362   0.652   6.423  1.4218  2.1527  4.3904
 4868SOL    HW226067   4.381   0.796   6.466 -1.4314  0.6032  0.2747
 4869SOL     OW26068   3.533   0.668   3.752  0.1129  0.4522  0.5473
 4869SOL    HW126069   3.591   0.591   3.756 -2.9146 -1.8255  0.5653
 4869SOL    HW226070   3.593   0.732   3.789  0.0851  0.7629  0.0596
 4870SOL     OW26071   3.412   2.522   9.069  0.0542  0.1481  0.3095
 4870SOL    HW126072   3.391   2.525   8.976  1.8683  1.7004 -0.0639
 4870SOL    HW226073   3.362   2.595   9.107  1.2056  1.8119 -1.3570
 4871SOL     OW26074   4.110   0.210  13.393  0.1521  0.9614  0.0086
 4871SOL    HW126075   4.150   0.251  13.469  0.7433 -0.6649  0.5818
 4871SOL    HW226076   4.078   0.131  13.435  2.5257  0.1910  0.3601
 4872SOL     OW26077   3.680   1.725   4.615  0.0391  0.3784 -0.3840
 4872SOL    HW126078   3.599   1.739   4.664 -1.5360 -0.2406 -2.8035
 4872SOL    HW226079   3.639   1.693   4.535 -0.2224 -0.9872  0.2984
 4873SOL     OW26080   0.856   3.302   8.477  0.0396  0.6146  0.5347
 4873SOL    HW126081   0.806   3.379   8.502 -0.5065  0.5929 -0.4752
 4873SOL    HW226082   0.906   3.329   8.400  0.0888 -1.8916 -0.3104
 4874SOL     OW26083   1.229   1.031   3.622 -0.4166 -0.0712  0.0058
 4874SOL    HW126084   1.178   1.076   3.555 -0.2217  1.2737  0.7589
 4874SOL    HW226085   1.318   1.035   3.587  0.1977 -2.4384  1.3555
 4875SOL     OW26086   2.154   2.679   3.687 -0.2158 -0.1534 -0.3547
 4875SOL    HW126087   2.249   2.692   3.690 -0.0901 -1.0448 -0.2964
 4875SOL    HW226088   2.113   2.765   3.692 -0.5879 -0.3196 -0.4885
 4876SOL     OW26089   3.741   0.635   5.368  0.0866  0.0067  0.0557
 4876SOL    HW126090   3.774   0.611   5.455 -2.8745 -1.9795  0.6044
 4876SOL    HW226091   3.751   0.731   5.371 -4.3118  0.3881  3.0012
 4877SOL     OW26092   0.074   0.583  14.509 -0.4861 -0.1485 -0.2207
 4877SOL    HW126093   0.037   0.632  14.583  1.8758 -0.0414  0.8875
 4877SOL    HW226094   0.128   0.522  14.560  0.6045 -0.3092 -1.5691
 4878SOL     OW26095   3.453   1.563   3.693  0.0140 -0.1299  0.1083
 4878SOL    HW126096   3.532   1.557   3.639 -0.6895  1.1522 -1.0640
 4878SOL    HW226097   3.462   1.653   3.724 -2.4699  0.3309 -0.5424
 4879SOL     OW26098   1.071   0.494   3.518  0.2118  0.0377  0.1830
 4879SOL    HW126099   1.164   0.474   3.530  0.4092  0.7708 -0.1129
 4879SOL    HW226100   1.080   0.588   3.536  1.6273  0.2313 -1.5362
 4880SOL     OW26101   2.748   4.168  12.384  0.2688  0.9032  0.1448
 4880SOL    HW126102   2.739   4.191  12.476 -0.3114 -0.6889  0.4921
 4880SOL    HW226103   2.659   4.135  12.373  0.5169  0.1602  0.3608
 4881SOL     OW26104   1.930   0.816   7.960  0.0080 -0.0816  0.5992
 4881SOL    HW126105   1.972   0.760   7.895 -1.3005  0.9920 -1.1712
 4881SOL    HW226106   2.005   0.850   8.009  1.5877 -2.7398  0.0203
 4882SOL     OW26107   2.977   2.799   8.989 -0.4620  0.2506 -0.6636
 4882SOL    HW126108   2.954   2.888   9.017  0.3984  0.5890 -1.0458
 4882SOL    HW226109   2.894   2.752   8.980  0.0940 -0.7522 -0.5487
 4883SOL     OW26110   3.391   0.562   3.205 -0.4369 -0.0553  0.5035
 4883SOL    HW126111   3.443   0.548   3.126  0.9387  2.2981  1.0034
 4883SOL    HW226112   3.375   0.477   3.246  0.3572 -0.3832  0.1229
 4884SOL     OW26113   3.621   3.117  11.507  0.2631  0.0846  0.3020
 4884SOL    HW126114   3.698   3.149  11.554  1.7563 -2.4122 -0.4694
 4884SOL    HW226115   3.604   3.044  11.566 -3.2583  0.1468 -0.5822
 4885SOL     OW26116   2.467   0.819   7.548  0.0663  0.4935  0.1216
 4885SOL    HW126117   2.382   0.839   7.509  1.7428  0.5908 -3.5231
 4885SOL    HW226118   2.457   0.848   7.638 -0.5036 -0.1275  0.2574
 4886SOL     OW26119   2.647   1.976   9.343  0.2124 -0.2887 -0.0019
 4886SOL    HW126120   2.651   2.067   9.369 -0.1767  0.3543 -2.1688
 4886SOL    HW226121   2.726   1.954   9.292  2.2194  1.3830  2.4313
 4887SOL     OW26122   1.425   2.494   5.317 -0.5144 -0.0628 -0.0451
 4887SOL    HW126123   1.408   2.407   5.281  2.4712 -0.2045 -1.1773
 4887SOL    HW226124   1.347   2.545   5.297 -0.3931 -0.8918 -2.6475
 4888SOL     OW26125   2.433   1.546   4.072  0.1988  0.1426  0.3316
 4888SOL    HW126126   2.372   1.610   4.036  1.0980  0.9336  0.1837
 4888SOL    HW226127   2.425   1.558   4.167 -2.8125  0.1956  0.0559
 4889SOL     OW26128   3.057   0.749   1.439 -0.4555  0.5202 -0.0380
 4889SOL    HW126129   3.021   0.825   1.392 -0.0009  1.6544  1.4356
 4889SOL    HW226130   3.144   0.732   1.404 -1.4166 -3.5396 -0.4624
 4890SOL     OW26131   4.302   1.895   3.187  0.2604 -0.3565  0.5151
 4890SOL    HW126132   4.385   1.934   3.214 -0.5173  1.9334 -0.4507
 4890SOL    HW226133   4.240   1.914   3.257 -0.1591  1.7484 -0.4240
 4891SOL     OW26134   4.575   3.067   3.126  0.1300  0.3957 -0.1846
 4891SOL    HW126135   4.591   3.045   3.218 -0.7678  0.0286 -0.1174
 4891SOL    HW226136   4.659   3.107   3.105 -0.0683  0.5261 -0.7316
 4892SOL     OW26137   4.145   2.904   3.152  0.0586 -0.3021 -0.3685
 4892SOL    HW126138   4.090   2.879   3.078  1.6098 -0.8643 -1.3063
 4892SOL    HW226139   4.203   2.969   3.113  0.1739  1.1934  2.2301
 4893SOL     OW26140   0.016   4.229   0.366  0.0247  0.6817  0.7148
 4893SOL    HW126141   0.101   4.208   0.405  0.3157  1.9959  0.7827
 4893SOL    HW226142   4.684   4.159   0.398  0.7633 -0.1045  0.3029
 4894SOL     OW26143   2.759   3.615  16.247  0.1347 -0.3484 -0.1506
 4894SOL    HW126144   2.776   3.532  16.203 -0.8886  0.2314 -1.6175
 4894SOL    HW226145   2.706   3.660  16.181  0.5465  0.6038  0.1559
 4895SOL     OW26146   2.061   1.125  13.850  0.6231 -0.3543  0.6456
 4895SOL    HW126147   2.049   1.030  13.859 -0.5821 -0.2018  0.6094
 4895SOL    HW226148   1.980   1.158  13.812  0.4474 -0.5624  0.8348
 4896SOL     OW26149   0.995   3.540  12.953  0.3534 -0.4728  0.4555
 4896SOL    HW126150   0.971   3.454  12.988  0.4571 -1.4446 -1.8204
 4896SOL    HW226151   0.912   3.588  12.954 -0.3565 -1.6719 -1.2607
 4897SOL     OW26152   2.665   3.865   5.151 -0.0330  0.2756 -0.5935
 4897SOL    HW126153   2.728   3.887   5.218 -2.1127 -1.8550  2.0851
 4897SOL    HW226154   2.621   3.792   5.195 -0.0870  1.2802  0.9990
 4898SOL     OW26155   4.505   1.048  11.874 -0.0654 -0.0564 -0.2380
 4898SOL    HW126156   4.501   1.035  11.969 -0.5349  0.6380 -0.1643
 4898SOL    HW226157   4.566   0.980  11.846 -1.4656 -0.5927 -1.9681
 4899SOL     OW26158   1.524   3.156   3.352  0.0782 -0.2993  0.0515
 4899SOL    HW126159   1.551   3.234   3.303  2.1545 -0.6897  0.5528
 4899SOL    HW226160   1.592   3.155   3.419  1.8983  1.1322 -1.7581
 4900SOL     OW26161   2.494   2.405   0.444  0.3200 -0.0082  0.0902
 4900SOL    HW126162   2.542   2.327   0.415  0.0401 -0.7433  1.5950
 4900SOL    HW226163   2.557   2.437   0.509  0.4928  2.2763 -1.2379
 4901SOL     OW26164   2.781   2.453  12.917 -0.1095 -0.5649  0.4783
 4901SOL    HW126165   2.855   2.443  12.976 -0.6896 -3.0804  0.7874
 4901SOL    HW226166   2.727   2.490  12.987  0.0284  1.1519 -0.3276
 4902SOL     OW26167   3.712   0.461  16.703 -0.4977 -0.1961  0.4572
 4902SOL    HW126168   3.653   0.472  16.777 -3.7172  2.6046 -2.5374
 4902SOL    HW226169   3.653   0.421  16.640 -1.3097  0.4773  0.7998
 4903SOL     OW26170   1.360   0.434   6.296  0.5272  0.1808  0.3048
 4903SOL    HW126171   1.383   0.382   6.219 -0.1245  1.1542 -0.5474
 4903SOL    HW226172   1.446   0.475   6.299  0.4520  0.2347  1.8044
 4904SOL     OW26173   1.911   3.050   1.161  0.4337 -0.3581 -0.4084
 4904SOL    HW126174   1.821   3.078   1.148 -0.0276 -1.3300  0.7377
 4904SOL    HW226175   1.886   2.961   1.186 -1.4901  0.5323  0.7691
 4905SOL     OW26176   3.576   1.166   5.936 -0.3884 -0.2127  0.0519
 4905SOL    HW126177   3.660   1.172   5.982 -1.4989  0.6504  1.9968
 4905SOL    HW226178   3.544   1.095   5.991 -0.8911 -0.4554 -0.5542
 4906SOL     OW26179   2.058   3.901   5.862  0.4308  0.1611  0.5134
 4906SOL    HW126180   2.036   3.919   5.771 -0.5248 -0.5330  0.6045
 4906SOL    HW226181   2.064   3.989   5.900  0.0438  0.6511 -0.5839
 4907SOL     OW26182   2.209   0.229   2.002  0.4819 -0.8010  0.1961
 4907SOL    HW126183   2.192   0.232   1.908  1.3133  2.4398  0.1716
 4907SOL    HW226184   2.277   0.162   1.995 -1.0151 -2.1128 -1.7759
 4908SOL     OW26185   1.584   1.708   5.452 -0.2101 -0.6973 -0.3691
 4908SOL    HW126186   1.539   1.660   5.383 -0.5535 -1.0032  0.0674
 4908SOL    HW226187   1.523   1.767   5.495  0.2365 -1.0512  0.7579
 4909SOL     OW26188   0.283   3.477   8.909 -0.6669  0.0462 -0.2868
 4909SOL    HW126189   0.210   3.422   8.936 -0.2562 -0.2631  0.1934
 4909SOL    HW226190   0.355   3.422   8.941 -0.3201  0.7706  0.1945
 4910SOL     OW26191   1.394   4.100   2.500  0.0023  0.0630 -0.3940
 4910SOL    HW126192   1.484   4.130   2.509 -0.1046  0.2938 -0.0684
 4910SOL    HW226193   1.371   4.140   2.416  1.7828 -1.8354 -1.7770
 4911SOL     OW26194   0.995   3.756  16.039 -0.4618 -0.4745 -0.2810
 4911SOL    HW126195   0.919   3.808  16.066  0.7806 -0.0708  2.3771
 4911SOL    HW226196   1.040   3.814  15.978 -1.2014  0.8278  0.4209
 4912SOL     OW26197   1.051   4.021   8.228 -0.8329 -0.7625  0.0951
 4912SOL    HW126198   1.117   3.952   8.219 -2.3010 -2.2837  1.1451
 4912SOL    HW226199   0.984   3.971   8.275 -0.6505  0.4843  1.6578
 4913SOL     OW26200   0.089   4.398   0.166 -0.4095 -0.1577  0.1020
 4913SOL    HW126201   0.043   4.351   0.236 -0.9105 -0.5906 -0.5086
 4913SOL    HW226202   0.109   4.325   0.108 -1.0747  1.4969 -2.2024
 4914SOL     OW26203   4.541   3.295   8.621  0.2809  0.0142 -0.7057
 4914SOL    HW126204   4.600   3.262   8.553  1.6118  1.5184 -0.2812
 4914SOL    HW226205   4.532   3.385   8.592 -0.6866  0.3784  0.7206
 4915SOL     OW26206   2.422   2.472   2.531 -0.5017  0.1418 -0.0695
 4915SOL    HW126207   2.445   2.385   2.562  0.3067  1.2930  2.5481
 4915SOL    HW226208   2.389   2.508   2.613  2.0180  0.7911  0.6679
 4916SOL     OW26209   0.934   4.254   1.690  0.1616 -0.0613 -0.3713
 4916SOL    HW126210   0.857   4.236   1.636 -0.0304 -2.5295  0.7543
 4916SOL    HW226211   0.929   4.350   1.687 -2.1136 -0.0967  2.5570
 4917SOL     OW26212   0.325   2.480   6.085  0.9199 -0.8554  0.4109
 4917SOL    HW126213   0.259   2.427   6.041  2.6679 -0.5992 -2.5505
 4917SOL    HW226214   0.304   2.564   6.042 -1.0618 -1.1132  0.8966
 4918SOL     OW26215   1.863   1.971  12.493  0.4989  0.1592  0.6133
 4918SOL    HW126216   1.819   1.887  12.506 -0.7026  0.1136 -3.4208
 4918SOL    HW226217   1.926   1.945  12.425 -0.3799  0.7086 -0.4186
 4919SOL     OW26218   1.041   3.558   4.931  0.1209  0.2179 -0.1781
 4919SOL    HW126219   1.081   3.645   4.928 -0.4769  0.5322  0.8386
 4919SOL    HW226220   0.952   3.584   4.956 -0.3754  0.1909 -1.8508
 4920SOL     OW26221   0.903   1.943   2.622  0.1593 -0.4192 -0.6090
 4920SOL    HW126222   0.816   1.908   2.642 -0.6009  2.3333  0.8575
 4920SOL    HW226223   0.878   2.033   2.598  1.9813 -0.1803 -1.5766
 4921SOL     OW26224   1.820   3.955   8.874 -0.5013 -0.2278  0.0257
 4921SOL    HW126225   1.819   4.023   8.942 -0.7470  0.2635 -0.4672
 4921SOL    HW226226   1.845   3.873   8.917 -1.0777 -0.8293 -0.7851
 4922SOL     OW26227   1.349   2.342   3.804 -0.4765  0.5359 -0.1588
 4922SOL    HW126228   1.407   2.265   3.800 -1.4141 -0.1479 -0.7010
 4922SOL    HW226229   1.401   2.408   3.849 -0.3605 -0.9755  1.9170
 4923SOL     OW26230   3.824   2.763  15.473 -0.2008  0.0779 -0.4958
 4923SOL    HW126231   3.739   2.782  15.432  0.2165  1.6145 -0.6802
 4923SOL    HW226232   3.857   2.709  15.401  0.1085  0.3807 -0.5836
 4924SOL     OW26233   0.610   4.386   0.821  0.0693  0.2512 -0.2990
 4924SOL    HW126234   0.630   4.426   0.736 -0.5465  0.1744 -0.4767
 4924SOL    HW226235   0.666   4.309   0.813 -0.5586 -0.0344 -1.9755
 4925SOL     OW26236   3.763   1.029   8.752 -0.1227  0.1370 -0.0638
 4925SOL    HW126237   3.735   0.957   8.809 -0.7512 -0.1714 -0.7570
 4925SOL    HW226238   3.686   1.086   8.758 -0.8189 -0.7446 -0.4994
 4926SOL     OW26239   2.734   3.842   3.555 -0.0922  0.4642 -0.2662
 4926SOL    HW126240   2.764   3.751   3.555 -2.7880 -0.4151 -1.1385
 4926SOL    HW226241   2.748   3.864   3.463  1.9841  2.0934  0.4234
 4927SOL     OW26242   4.420   2.618  15.668 -0.4930  0.4022 -0.0871
 4927SOL    HW126243   4.435   2.712  15.658  2.4232 -0.0630  0.1931
 4927SOL    HW226244   4.508   2.591  15.694 -1.3436 -0.2296  2.1832
 4928SOL     OW26245   4.198   1.550   7.605 -0.9935  0.3896 -0.1351
 4928SOL    HW126246   4.132   1.619   7.603 -1.2815  0.1060 -0.3526
 4928SOL    HW226247   4.281   1.598   7.607 -1.1385  0.6710 -0.8275
 4929SOL     OW26248   2.625   4.712   6.695 -0.1752 -0.3246 -0.3137
 4929SOL    HW126249   2.704   4.667   6.726  1.1072 -0.3049 -3.5639
 4929SOL    HW226250   2.665   0.058   6.645  0.2543 -2.3835 -2.9455
 4930SOL     OW26251   2.165   2.808   4.381 -0.1110 -0.1141 -0.0252
 4930SOL    HW126252   2.143   2.831   4.471  0.4116  0.3844 -0.0228
 4930SOL    HW226253   2.119   2.724   4.371 -0.4857  0.0063  0.6719
 4931SOL     OW26254   4.240   3.700  12.574 -0.3451 -0.1302 -0.0628
 4931SOL    HW126255   4.274   3.631  12.517 -0.9822  0.1971 -0.8299
 4931SOL    HW226256   4.189   3.738  12.502  0.2034  0.4765 -0.1330
 4932SOL     OW26257   0.971   2.568   2.741  0.4209  0.4766  0.3468
 4932SOL    HW126258   0.955   2.558   2.834 -1.7375 -0.6362 -0.1542
 4932SOL    HW226259   1.064   2.547   2.744  0.3376 -0.0154 -0.4551
 4933SOL     OW26260   2.005   0.392   8.714  0.2125  0.0104 -0.0672
 4933SOL    HW126261   2.046   0.305   8.717  3.1505  1.5137  2.2864
 4933SOL    HW226262   1.960   0.380   8.630  1.4179 -2.4482 -0.3733
 4934SOL     OW26263   3.798   3.398   3.158 -0.0431  0.0742 -0.0349
 4934SOL    HW126264   3.856   3.323   3.173 -0.7327 -0.7330 -1.3277
 4934SOL    HW226265   3.804   3.409   3.063  1.3822 -2.0623 -0.1944
 4935SOL     OW26266   3.657   2.955   8.271 -0.3303  0.0164 -0.5398
 4935SOL    HW126267   3.638   2.862   8.281  0.3860  0.1987  2.6598
 4935SOL    HW226268   3.635   2.994   8.355 -1.0488  1.3186 -1.3398
 4936SOL     OW26269   3.505   3.636  13.316 -0.1163 -0.0547 -0.5521
 4936SOL    HW126270   3.417   3.597  13.314 -0.7311  1.1315  2.8923
 4936SOL    HW226271   3.547   3.574  13.375  0.2756  1.6512  0.9578
 4937SOL     OW26272   1.329   4.006   7.842 -0.2052  0.3637 -0.1519
 4937SOL    HW126273   1.362   4.039   7.925  0.5254 -2.0735  0.5221
 4937SOL    HW226274   1.385   4.059   7.786 -0.5733 -2.4011 -3.1522
 4938SOL     OW26275   1.822   4.595  11.260 -0.7055 -0.2926 -0.4304
 4938SOL    HW126276   1.801   4.508  11.226  3.5120 -1.3679 -0.2879
 4938SOL    HW226277   1.815   4.645  11.178  0.5760  1.4709  0.5500
 4939SOL     OW26278   4.550   4.200  10.062 -0.3370 -0.3931 -0.3555
 4939SOL    HW126279   4.644   4.211  10.055 -0.6194  1.9248 -0.6892
 4939SOL    HW226280   4.544   4.166  10.151  0.3995 -1.3466 -0.6803
 4940SOL     OW26281   4.133   1.739  13.202  0.8210  0.0296 -0.6421
 4940SOL    HW126282   4.069   1.727  13.133  1.2752  4.0197 -1.7499
 4940SOL    HW226283   4.211   1.691  13.173  1.9846  0.5962  1.4744
 4941SOL     OW26284   2.192   4.035  10.805 -0.4769 -0.2408 -0.6016
 4941SOL    HW126285   2.233   3.978  10.739 -0.5403  0.0097 -0.8577
 4941SOL    HW226286   2.258   4.104  10.812 -0.5745 -0.3031  0.9784
 4942SOL     OW26287   0.092   1.420   4.646  0.0556 -0.0007  0.5513
 4942SOL    HW126288   0.081   1.515   4.649 -0.5493 -0.0734  0.6839
 4942SOL    HW226289   0.079   1.417   4.551 -2.3757 -1.9794  0.9420
 4943SOL     OW26290   3.822   4.131   4.047  0.0834 -0.6049 -0.0565
 4943SOL    HW126291   3.836   4.139   4.142 -0.8687  0.0671  0.0280
 4943SOL    HW226292   3.892   4.191   4.021 -0.0390  0.8582  2.9907
 4944SOL     OW26293   3.358   0.898   4.318  0.5076  0.0245  0.2941
 4944SOL    HW126294   3.381   0.987   4.294 -0.5342  0.4031  0.7057
 4944SOL    HW226295   3.441   0.866   4.352  0.0016 -0.5776  0.9609
 4945SOL     OW26296   4.267   4.151  15.896 -0.3455  0.1504  0.2364
 4945SOL    HW126297   4.260   4.126  15.988 -0.3931 -0.2456  0.1273
 4945SOL    HW226298   4.176   4.151  15.866 -0.2181 -1.4231 -0.1331
 4946SOL     OW26299   3.266   1.313   8.582  0.2573  0.2881  0.1222
 4946SOL    HW126300   3.271   1.235   8.637  2.1969  1.1252  1.1416
 4946SOL    HW226301   3.321   1.372   8.632  0.2439  1.2645 -1.0153
 4947SOL     OW26302   0.996   1.165  15.067  0.6960  0.4368  0.7779
 4947SOL    HW126303   1.088   1.181  15.049  0.7984 -0.3100  0.6230
 4947SOL    HW226304   0.976   1.250  15.106 -0.9086  0.4019  0.0441
 4948SOL     OW26305   4.486   3.643   5.534  0.1788 -0.4797  0.1858
 4948SOL    HW126306   4.448   3.572   5.585 -4.0340  0.6041 -1.4958
 4948SOL    HW226307   4.542   3.676   5.604 -0.0400 -1.8807  1.0109
 4949SOL     OW26308   1.769   1.053   6.655  0.0633 -0.2152 -0.5378
 4949SOL    HW126309   1.721   1.021   6.578  2.7050 -2.3547 -1.3021
 4949SOL    HW226310   1.755   0.974   6.707 -1.2121  0.9286  0.8530
 4950SOL     OW26311   1.148   3.584   5.231  0.4966 -0.0863  0.2718
 4950SOL    HW126312   1.066   3.567   5.278  0.5692  0.0039  0.4309
 4950SOL    HW226313   1.122   3.555   5.144  0.3869  0.0798  0.2493
 4951SOL     OW26314   3.665   1.256   7.035  0.3815  0.4190 -0.6696
 4951SOL    HW126315   3.717   1.303   7.101 -1.9957 -0.5305  1.8879
 4951SOL    HW226316   3.699   1.301   6.958 -1.0589  1.3126 -0.7773
 4952SOL     OW26317   3.762   3.526   5.358 -0.2920  0.4053  0.2281
 4952SOL    HW126318   3.824   3.458   5.386 -2.2796  0.2260  4.1334
 4952SOL    HW226319   3.796   3.549   5.271 -3.6548 -1.8767 -1.7242
 4953SOL     OW26320   0.310   2.098   2.896 -0.3832 -0.8207  0.4591
 4953SOL    HW126321   0.288   2.142   2.814  0.4599 -1.1145  0.0685
 4953SOL    HW226322   0.406   2.102   2.890 -0.5593  0.9122 -1.1996
 4954SOL     OW26323   3.802   0.554  11.683  0.1899  0.3848  0.5008
 4954SOL    HW126324   3.761   0.536  11.598 -0.5515 -1.2807  1.2192
 4954SOL    HW226325   3.886   0.590  11.655 -0.4416  2.9638  1.9431
 4955SOL     OW26326   2.415   2.179   6.774  0.0304 -0.4874  0.2077
 4955SOL    HW126327   2.510   2.193   6.768  0.0430 -1.3258 -1.5994
 4955SOL    HW226328   2.377   2.262   6.744  0.5842  0.9551  3.5774
 4956SOL     OW26329   2.559   4.573   2.076  0.3507 -0.2383 -0.3051
 4956SOL    HW126330   2.615   4.571   2.153  1.5779 -1.6711 -1.2403
 4956SOL    HW226331   2.485   4.521   2.108 -0.2506 -0.8216 -2.6453
 4957SOL     OW26332   3.663   2.981   3.057 -0.4223 -0.4161  0.2594
 4957SOL    HW126333   3.587   3.038   3.069 -0.3943 -0.6072  1.3339
 4957SOL    HW226334   3.702   2.974   3.144 -2.9736 -0.1628  1.4174
 4958SOL     OW26335   3.746   4.611   5.032 -0.1466 -0.7252 -0.5881
 4958SOL    HW126336   3.666   4.664   5.034 -0.1067 -0.8265  2.8655
 4958SOL    HW226337   3.807   4.662   4.978 -1.4722 -0.9062 -2.2887
 4959SOL     OW26338   4.176   1.986   6.480  0.2415 -0.1781 -0.4047
 4959SOL    HW126339   4.126   2.011   6.557  0.4780 -0.7896 -0.0509
 4959SOL    HW226340   4.235   1.919   6.514 -0.7820 -1.6043 -1.4152
 4960SOL     OW26341   2.239   1.736   6.445  0.6456  0.0098  0.4156
 4960SOL    HW126342   2.186   1.759   6.368  1.4885  0.7342  0.0543
 4960SOL    HW226343   2.200   1.803   6.501  1.3218  0.6410  0.1259
 4961SOL     OW26344   0.763   4.701   6.938  0.1824  0.2981 -0.0529
 4961SOL    HW126345   0.702   4.679   7.008  0.4521  1.0158  0.4065
 4961SOL    HW226346   0.846   4.688   6.985 -0.7967 -2.0655  1.0130
 4962SOL     OW26347   1.686   0.734  10.310  0.1621 -0.0041  0.4637
 4962SOL    HW126348   1.611   0.702  10.361 -0.1493  0.0642  0.0487
 4962SOL    HW226349   1.683   0.689  10.226 -1.1596 -1.8053  1.4538
 4963SOL     OW26350   4.323   0.223  17.350 -0.4399 -0.2217  0.1027
 4963SOL    HW126351   4.234   0.252  17.368 -0.3391  0.4016 -0.4018
 4963SOL    HW226352   4.361   0.214  17.438 -0.1766  0.5613  0.0750
 4964SOL     OW26353   4.548   0.374   7.385 -0.0590  0.4241 -0.1313
 4964SOL    HW126354   4.482   0.364   7.316 -1.5492 -0.3142  1.3854
 4964SOL    HW226355   4.558   0.469   7.390  0.4036  0.4262 -1.1824
 4965SOL     OW26356   4.569   1.912   3.271 -0.0433  0.0209  0.1802
 4965SOL    HW126357   4.614   1.865   3.201 -1.0928 -1.1887  0.3238
 4965SOL    HW226358   4.593   1.855   3.344  0.9367 -0.1417 -0.2758
 4966SOL     OW26359   0.997   2.805   7.664  0.2385 -0.0686  0.1288
 4966SOL    HW126360   0.966   2.802   7.754  0.0831 -0.4686  0.0625
 4966SOL    HW226361   1.019   2.897   7.647 -3.7663  0.7603 -0.6324
 4967SOL     OW26362   0.103   3.632   4.002  0.2971  0.3019 -0.2210
 4967SOL    HW126363   0.187   3.671   3.980  1.3600 -1.8401  0.0583
 4967SOL    HW226364   0.052   3.713   3.996 -1.5635 -0.6638  2.4065
 4968SOL     OW26365   3.461   1.029  16.464 -0.0136  0.1800  0.4516
 4968SOL    HW126366   3.448   1.088  16.538 -0.4851  1.3642 -0.5917
 4968SOL    HW226367   3.466   0.944  16.509 -2.6070  0.2829  0.9234
 4969SOL     OW26368   0.478   4.550   5.596 -0.1395 -0.0732  0.0772
 4969SOL    HW126369   0.456   4.641   5.614  1.1304 -0.1255  1.9026
 4969SOL    HW226370   0.531   4.524   5.672  0.0033 -1.5747 -0.5262
 4970SOL     OW26371   2.380   2.270   1.482 -0.0985  0.4115 -0.1847
 4970SOL    HW126372   2.298   2.311   1.510 -0.5313  0.3469 -1.3265
 4970SOL    HW226373   2.415   2.225   1.558 -0.6836 -0.2989 -0.3307
 4971SOL     OW26374   1.552   1.354   0.017 -0.4774  0.3397 -0.4724
 4971SOL    HW126375   1.602   1.349   0.098 -0.4069  1.6022 -0.4285
 4971SOL    HW226376   1.619   1.373  17.652  0.3454 -1.4532 -0.1441
 4972SOL     OW26377   2.672   4.039   3.131  0.1227  0.1509 -0.4128
 4972SOL    HW126378   2.657   4.065   3.221  1.3379  0.0196 -0.1759
 4972SOL    HW226379   2.594   3.983   3.127 -0.9855  1.7316 -0.7258
 4973SOL     OW26380   3.490   3.952   1.794  0.0881 -0.4827 -0.5132
 4973SOL    HW126381   3.464   3.967   1.703  0.3752 -1.2390 -0.7214
 4973SOL    HW226382   3.566   3.896   1.776  0.4978  0.0950 -0.6011
 4974SOL     OW26383   1.965   1.076   4.119  0.1794 -0.1425  0.1164
 4974SOL    HW126384   2.033   1.143   4.114 -1.4565  1.5681  0.7648
 4974SOL    HW226385   2.018   0.997   4.122  0.9902  0.3682 -1.1942
 4975SOL     OW26386   3.473   3.674   4.630 -0.4606 -0.3134  0.4844
 4975SOL    HW126387   3.469   3.612   4.558  2.0099  0.0873  0.0023
 4975SOL    HW226388   3.472   3.760   4.588 -2.6934 -0.1686  0.8776
 4976SOL     OW26389   0.171   3.745   0.480  0.8716  0.4502  0.6938
 4976SOL    HW126390   0.125   3.662   0.493  1.5752 -0.3179 -1.6943
 4976SOL    HW226391   0.251   3.729   0.531  1.6394  1.4529 -0.1746
 4977SOL     OW26392   1.015   4.021   3.165  0.2436 -0.4431 -0.1324
 4977SOL    HW126393   1.065   3.939   3.167 -0.3341 -0.7744  0.8533
 4977SOL    HW226394   1.021   4.028   3.070  2.7928 -0.4815  0.0080
 4978SOL     OW26395   2.629   2.908  17.667 -0.1962 -0.1055  0.0649
 4978SOL    HW126396   2.722   2.921  17.652  0.1616  0.6341  3.0295
 4978SOL    HW226397   2.623   2.814  17.682 -1.3262  0.3867  2.6489
 4979SOL     OW26398   3.705   1.403   4.145  0.5722 -0.0507  0.3611
 4979SOL    HW126399   3.767   1.433   4.079  1.1320 -1.7742  0.1102
 4979SOL    HW226400   3.757   1.334   4.185  0.7608  0.6113  1.2584
 4980SOL     OW26401   4.568   0.229  13.487 -0.8630 -0.6661 -0.2166
 4980SOL    HW126402   4.560   0.146  13.440  0.7095 -0.7193 -0.3982
 4980SOL    HW226403   4.513   0.289  13.437  0.7047  0.8098 -0.1870
 4981SOL     OW26404   2.453   2.408   5.665 -0.1054 -0.3242 -0.4014
 4981SOL    HW126405   2.548   2.418   5.662 -0.0972 -0.2935 -0.0897
 4981SOL    HW226406   2.424   2.482   5.718  0.4146 -0.4514  0.0604
 4982SOL     OW26407   2.284   2.542   0.040 -1.0669  0.4880  0.4017
 4982SOL    HW126408   2.236   2.610  17.695  1.2534  1.0161 -1.1932
 4982SOL    HW226409   2.220   2.522   0.109 -1.9422 -1.4205 -0.9393
 4983SOL     OW26410   0.306   1.702  15.031  0.0807  0.5623 -0.3506
 4983SOL    HW126411   0.272   1.680  15.117 -0.1172 -3.0246 -1.3285
 4983SOL    HW226412   0.272   1.626  14.984  2.9992 -0.6471 -0.5092
 4984SOL     OW26413   3.209   3.589   1.462  0.1786  0.5616 -0.7132
 4984SOL    HW126414   3.121   3.610   1.492  0.3034  0.5660 -0.3526
 4984SOL    HW226415   3.230   3.644   1.386 -0.3068  0.6936 -0.7550
 4985SOL     OW26416   0.826   0.879  12.896  0.7755  0.2498 -0.0606
 4985SOL    HW126417   0.808   0.815  12.965 -1.1613  0.4255 -0.3840
 4985SOL    HW226418   0.878   0.943  12.944 -1.7992  0.8722  1.9283
 4986SOL     OW26419   3.370   4.623   1.889  0.7223 -0.2867  0.0931
 4986SOL    HW126420   3.443   4.677   1.858 -0.4448  0.0903 -1.9801
 4986SOL    HW226421   3.347   4.582   1.806 -1.4319  1.8865 -0.3966
 4987SOL     OW26422   1.867   0.245   2.325  0.5511  0.1316  0.1988
 4987SOL    HW126423   1.950   0.216   2.361  0.9379 -0.6473 -1.3561
 4987SOL    HW226424   1.800   0.189   2.365 -0.0808  0.2287 -0.7174
 4988SOL     OW26425   4.462   0.265   3.986 -0.4972  0.0577  0.6392
 4988SOL    HW126426   4.503   0.330   3.929 -0.9719 -0.3104 -0.1279
 4988SOL    HW226427   4.479   0.184   3.937  2.2930  1.2908 -0.4665
 4989SOL     OW26428   4.614   2.969   6.168 -0.0792  0.2999  0.1437
 4989SOL    HW126429   4.583   2.927   6.248  0.5791  0.8877  0.7062
 4989SOL    HW226430   4.687   2.910   6.148 -0.5158 -0.4740  0.8421
 4990SOL     OW26431   1.028   0.058   8.214  0.1799 -0.2705  0.5104
 4990SOL    HW126432   1.047   0.133   8.270  0.7343 -1.1440  1.4845
 4990SOL    HW226433   0.937   0.038   8.238  0.5536 -1.8719  0.6268
 4991SOL     OW26434   2.159   3.648  13.410 -0.5046 -0.1878  0.0438
 4991SOL    HW126435   2.188   3.694  13.332  0.1912  1.2783  1.1665
 4991SOL    HW226436   2.191   3.560  13.392 -0.9094 -0.4217  0.4586
 4992SOL     OW26437   4.213   4.080   3.979  0.2445  0.1439  0.0324
 4992SOL    HW126438   4.145   4.071   3.913 -1.9278  2.9982  1.8806
 4992SOL    HW226439   4.167   4.025   4.042  0.9288  0.1414  0.5346
 4993SOL     OW26440   0.470   3.939   8.665 -0.0347 -0.2779  0.5321
 4993SOL    HW126441   0.440   4.027   8.688  1.1981  0.7641 -1.8718
 4993SOL    HW226442   0.400   3.889   8.706  0.0376  2.4320  4.0403
 4994SOL     OW26443   3.207   0.298   8.683  0.1230  0.8189  0.0962
 4994SOL    HW126444   3.242   0.376   8.726  0.5210 -0.1638  1.5267
 4994SOL    HW226445   3.150   0.336   8.616  0.2306  0.8143  0.0020
 4995SOL     OW26446   1.946   1.922   7.219  0.1559  0.2237  0.3004
 4995SOL    HW126447   1.996   1.865   7.162 -1.1679 -0.2805 -0.3455
 4995SOL    HW226448   1.992   2.006   7.210 -0.9355  0.7972  0.0631
 4996SOL     OW26449   2.390   3.812   7.573  0.2738 -0.1780 -0.3852
 4996SOL    HW126450   2.358   3.724   7.595  1.4912 -0.2831  0.9984
 4996SOL    HW226451   2.414   3.851   7.657  1.9609 -0.4621 -0.7257
 4997SOL     OW26452   0.485   1.389  12.828  0.2062 -0.0920 -0.5610
 4997SOL    HW126453   0.522   1.406  12.741  1.2989  2.5091  0.4137
 4997SOL    HW226454   0.392   1.403  12.815 -0.1121 -1.3487  0.4410
 4998SOL     OW26455   2.297   0.940   3.941  0.3049 -0.0532  0.9327
 4998SOL    HW126456   2.371   0.999   3.928  0.3005 -0.0956  0.7063
 4998SOL    HW226457   2.230   0.982   3.886  0.0089  0.0971  1.4116
 4999SOL     OW26458   4.131   2.432   2.588  0.2475 -0.3363 -0.0235
 4999SOL    HW126459   4.224   2.452   2.587  0.1393  0.2135  1.2421
 4999SOL    HW226460   4.127   2.362   2.523 -2.6836 -0.9007  0.7471
 5000SOL     OW26461   2.848   1.911   5.106 -0.5628 -0.5167  0.2403
 5000SOL    HW126462   2.884   1.961   5.033  0.8376  0.2965  1.5031
 5000SOL    HW226463   2.768   1.963   5.115  1.2830  2.6146 -1.5664
 5001SOL     OW26464   0.680   0.811  14.819  0.5096  0.2360  0.2802
 5001SOL    HW126465   0.738   0.883  14.792  0.7038  0.8443  2.3344
 5001SOL    HW226466   0.749   0.747  14.836  1.0598  0.7624  0.0311
 5002SOL     OW26467   0.845   1.844  15.363 -0.3604 -0.0148  0.3279
 5002SOL    HW126468   0.861   1.754  15.333  0.2834  0.1254  0.2428
 5002SOL    HW226469   0.807   1.888  15.287  0.2204 -1.2259 -0.6646
 5003SOL     OW26470   4.650   3.911  11.219  0.2107  0.0898  0.0395
 5003SOL    HW126471   4.584   3.842  11.211 -0.9983  1.1846  0.7241
 5003SOL    HW226472   4.713   3.897  11.148  0.6031  3.5328 -0.2726
 5004SOL     OW26473   4.265   3.622   6.027 -0.2543 -0.4623  0.6001
 5004SOL    HW126474   4.196   3.630   5.961 -0.3320  0.0601  0.7511
 5004SOL    HW226475   4.274   3.531   6.054 -1.7048 -1.0581 -0.8870
 5005SOL     OW26476   0.651   1.486  14.043  0.8026  0.7269  1.0278
 5005SOL    HW126477   0.626   1.402  14.081 -0.6988 -0.7745 -3.1766
 5005SOL    HW226478   0.637   1.449  13.955 -1.4086  1.4735  1.0744
 5006SOL     OW26479   0.790   3.379   2.718  0.5262  0.0109  0.5096
 5006SOL    HW126480   0.715   3.319   2.711  1.1697 -0.4114 -2.8081
 5006SOL    HW226481   0.794   3.396   2.624 -0.6071  2.1398  0.8313
 5007SOL     OW26482   4.451   1.659   2.077 -0.0793  0.3454 -0.3147
 5007SOL    HW126483   4.448   1.689   1.987  0.1267 -0.6578 -0.6555
 5007SOL    HW226484   4.357   1.644   2.086  0.0232 -0.1792 -0.1457
 5008SOL     OW26485   1.151   0.625  16.878 -0.6036  0.1057 -0.1607
 5008SOL    HW126486   1.141   0.708  16.924  2.1119 -0.3052  1.1787
 5008SOL    HW226487   1.070   0.622  16.827 -0.1047 -0.2714 -0.9258
 5009SOL     OW26488   1.332   1.187  13.311 -0.2682  0.1315  0.1506
 5009SOL    HW126489   1.354   1.193  13.404 -0.2485 -2.4139  0.2998
 5009SOL    HW226490   1.251   1.138  13.323  0.0863 -0.4438  0.1855
 5010SOL     OW26491   3.451   0.543   6.148 -0.2081 -0.1411 -0.2191
 5010SOL    HW126492   3.512   0.482   6.191 -1.2258  0.4559  2.0891
 5010SOL    HW226493   3.449   0.536   6.053 -1.5516 -2.4295 -0.0045
 5011SOL     OW26494   3.712   2.842   1.415  0.0204  0.2077 -0.2022
 5011SOL    HW126495   3.704   2.839   1.320 -0.8051  0.7707 -0.1519
 5011SOL    HW226496   3.803   2.872   1.427  0.2682 -0.7970  0.4521
 5012SOL     OW26497   1.523   1.954   2.480  0.1271 -0.1424 -0.0758
 5012SOL    HW126498   1.496   1.902   2.555  1.3976 -0.3474  0.2342
 5012SOL    HW226499   1.436   1.964   2.442 -1.1121 -1.6884  2.3910
 5013SOL     OW26500   1.175   1.274   4.321  0.5966  0.5306  0.7180
 5013SOL    HW126501   1.127   1.255   4.402 -0.8088 -0.2668 -0.2923
 5013SOL    HW226502   1.265   1.257   4.347  0.3900 -0.1059  1.0216
 5014SOL     OW26503   1.934   2.553   8.590  0.1752 -0.0931 -0.4844
 5014SOL    HW126504   2.018   2.558   8.637  0.0536 -1.4848 -0.1196
 5014SOL    HW226505   1.893   2.485   8.643  0.8075 -1.0940 -1.2752
 5015SOL     OW26506   2.720   2.192  12.182 -0.3795 -0.0910  0.5883
 5015SOL    HW126507   2.644   2.250  12.188  0.1874  0.4731  2.2879
 5015SOL    HW226508   2.758   2.197  12.270  1.2830 -0.5018 -0.1055
 5016SOL     OW26509   3.424   1.454   1.116  1.0517  0.4645  0.3561
 5016SOL    HW126510   3.392   1.527   1.064 -2.0497 -1.1538  0.0259
 5016SOL    HW226511   3.474   1.402   1.053  0.7833 -0.1853  0.6786
 5017SOL     OW26512   0.146   3.176  13.339  0.3135  0.1776 -0.1730
 5017SOL    HW126513   0.118   3.237  13.408  0.4626 -1.2131  1.1191
 5017SOL    HW226514   0.067   3.128  13.314 -0.8597  2.8412 -1.6683
 5018SOL     OW26515   4.283   2.513   4.469 -0.8410 -0.5824  0.0969
 5018SOL    HW126516   4.203   2.481   4.426 -1.2927 -1.5777  1.6784
 5018SOL    HW226517   4.275   2.602   4.435 -0.1649 -0.9111 -0.9087
 5019SOL     OW26518   3.258   1.115   9.154  0.1096  0.7410 -0.2803
 5019SOL    HW126519   3.296   1.065   9.082  1.0674 -0.1112  0.8131
 5019SOL    HW226520   3.178   1.072   9.185  0.3387  0.3165 -0.2942
 5020SOL     OW26521   4.171   3.337   8.257 -0.5274 -0.6504 -0.0029
 5020SOL    HW126522   4.139   3.420   8.225  1.2537  0.2188  0.4399
 5020SOL    HW226523   4.261   3.345   8.226 -1.3601  0.6018 -2.0257
 5021SOL     OW26524   4.465   1.416   9.846 -0.7970  0.2364  0.1556
 5021SOL    HW126525   4.418   1.388   9.767  2.0151 -2.0720 -0.7110
 5021SOL    HW226526   4.553   1.418   9.807 -0.8531  0.1401  0.0246
 5022SOL     OW26527   3.900   1.013   0.720 -0.1248 -0.1669  0.0678
 5022SOL    HW126528   3.902   1.037   0.628  0.0186  1.3634  0.4672
 5022SOL    HW226529   3.846   1.085   0.753  1.0046  1.4837 -1.7482
 5023SOL     OW26530   0.023   4.511   2.778  0.0023  1.1435 -0.4359
 5023SOL    HW126531   4.717   4.579   2.718 -1.0328  2.5160  1.6481
 5023SOL    HW226532   4.673   4.497   2.836  1.1286  0.3028  0.8211
 5024SOL     OW26533   1.550   1.187   4.611 -0.2818  0.1954  0.0382
 5024SOL    HW126534   1.462   1.156   4.589 -0.1521 -0.0792 -0.1003
 5024SOL    HW226535   1.598   1.106   4.628  0.3421  0.5013 -0.2761
 5025SOL     OW26536   1.128   4.172   7.498 -0.3668  0.1399  0.1805
 5025SOL    HW126537   1.099   4.261   7.477 -2.0178 -0.2659  0.6754
 5025SOL    HW226538   1.105   4.161   7.591  0.1077  3.0163  0.6474
 5026SOL     OW26539   4.705   3.666   7.907 -0.1512 -0.2506 -0.1663
 5026SOL    HW126540   0.012   3.610   7.977  0.4608  0.9178  0.4967
 5026SOL    HW226541   0.026   3.633   7.831  1.7554  0.0229  0.8843
 5027SOL     OW26542   2.642   2.927   1.251  0.6726  0.4792 -0.0638
 5027SOL    HW126543   2.709   2.868   1.216  1.2814  1.6431 -0.8805
 5027SOL    HW226544   2.594   2.870   1.311  2.0443  0.8871  1.4233
 5028SOL     OW26545   2.840   0.242   7.491  0.6074 -0.4877 -0.1066
 5028SOL    HW126546   2.766   0.203   7.538 -0.1484  0.3947 -0.5525
 5028SOL    HW226547   2.889   0.161   7.476  0.9866 -0.8945  3.1367
 5029SOL     OW26548   0.095   4.116   0.051  0.2975 -0.3503  0.3184
 5029SOL    HW126549   0.026   4.132  17.689  2.6316  2.0188 -1.5651
 5029SOL    HW226550   0.078   4.024   0.071  0.5723 -0.4208  0.2305
 5030SOL     OW26551   2.919   2.065   6.479  0.0851  0.1760  0.0424
 5030SOL    HW126552   2.987   2.028   6.536 -0.8976 -1.5965  0.0799
 5030SOL    HW226553   2.835   2.047   6.522 -1.2603  1.2459 -2.1187
 5031SOL     OW26554   4.237   4.050  11.559 -0.4255 -0.2900 -0.5547
 5031SOL    HW126555   4.307   4.040  11.623 -0.6623 -0.8654 -0.3833
 5031SOL    HW226556   4.193   3.966  11.571  1.6295 -1.1443  0.9239
 5032SOL     OW26557   2.621   0.232   8.702  0.6001  0.8021  0.7310
 5032SOL    HW126558   2.682   0.215   8.774  0.7670  0.6553  0.5541
 5032SOL    HW226559   2.542   0.260   8.748 -0.6150  2.1318 -2.1132
 5033SOL     OW26560   1.803   0.121   6.471 -0.1157 -0.2731 -0.2680
 5033SOL    HW126561   1.854   0.130   6.391 -1.3197 -1.5877 -1.1852
 5033SOL    HW226562   1.745   0.048   6.451  0.7931 -0.5500 -1.8761
 5034SOL     OW26563   2.571   3.605   1.779 -0.4947 -0.3603 -0.5665
 5034SOL    HW126564   2.510   3.660   1.829  0.8047  1.9760 -1.5240
 5034SOL    HW226565   2.524   3.588   1.698 -0.5105 -1.8003 -0.2543
 5035SOL     OW26566   3.819   0.120   3.051 -0.3636 -0.3006  0.0464
 5035SOL    HW126567   3.892   0.136   2.991 -0.2258 -0.7197  0.1022
 5035SOL    HW226568   3.873   0.073   3.115  0.5808 -0.0441 -0.5508
 5036SOL     OW26569   4.464   3.363   0.740 -0.3903 -0.6213 -0.5576
 5036SOL    HW126570   4.467   3.267   0.734 -0.6043 -0.4941 -2.7306
 5036SOL    HW226571   4.503   3.397   0.659 -1.6229  2.0701 -0.0063
 5037SOL     OW26572   1.413   3.570  16.122 -0.1841 -0.0991 -0.5596
 5037SOL    HW126573   1.377   3.658  16.122 -0.2051 -0.0912  2.8080
 5037SOL    HW226574   1.369   3.521  16.192  0.0149 -0.5877 -0.7762
 5038SOL     OW26575   1.822   0.461   3.545 -0.0745 -0.9628 -0.3426
 5038SOL    HW126576   1.786   0.543   3.510 -0.2597 -0.8330  0.1615
 5038SOL    HW226577   1.859   0.424   3.464  0.1324  1.2531 -1.2750
 5039SOL     OW26578   3.810   1.399   1.432 -0.4109  0.1339 -0.1442
 5039SOL    HW126579   3.896   1.357   1.433 -0.3989  0.1558 -0.2060
 5039SOL    HW226580   3.770   1.334   1.374 -1.2429 -1.5555  2.3455
 5040SOL     OW26581   4.481   2.549   3.886 -0.0876  0.2951  0.2181
 5040SOL    HW126582   4.402   2.603   3.884  0.0692  0.4878 -1.2507
 5040SOL    HW226583   4.521   2.571   3.802 -1.3295 -0.5599 -0.6050
 5041SOL     OW26584   2.897   0.133   5.178 -0.0668  0.2007  0.7357
 5041SOL    HW126585   2.877   0.092   5.093  0.7109 -1.4119  1.3351
 5041SOL    HW226586   2.992   0.125   5.176 -0.1878 -1.3200  0.1228
 5042SOL     OW26587   1.615   3.937   6.741  0.1716  0.6569  0.7574
 5042SOL    HW126588   1.710   3.941   6.729  0.1198  0.3022  0.2127
 5042SOL    HW226589   1.600   4.031   6.748  1.7697  0.9563  0.1435
 5043SOL     OW26590   3.010   2.667  11.763  0.0085  0.1686 -1.0889
 5043SOL    HW126591   3.041   2.584  11.726  0.5622 -0.0699 -0.0785
 5043SOL    HW226592   2.919   2.660  11.733  0.5987 -2.1241 -2.3620
 5044SOL     OW26593   1.677   4.237   2.508  0.2696 -0.0118  0.2982
 5044SOL    HW126594   1.712   4.258   2.421 -0.8598  2.4359  0.4420
 5044SOL    HW226595   1.693   4.143   2.511  0.9229  0.1502  2.2991
 5045SOL     OW26596   0.165   3.996   3.345 -0.2924 -0.0396 -0.2976
 5045SOL    HW126597   0.123   3.918   3.381  2.5901 -2.3039 -1.7638
 5045SOL    HW226598   0.125   4.074   3.383 -1.3648 -0.3917 -0.7220
 5046SOL     OW26599   0.359   4.360   3.830 -0.4336  0.2411  0.4272
 5046SOL    HW126600   0.371   4.302   3.905 -1.5455  0.3464  0.6856
 5046SOL    HW226601   0.264   4.371   3.831 -0.4566 -0.2735  2.8977
 5047SOL     OW26602   3.165   3.715   4.590  0.0973 -0.0141  0.0319
 5047SOL    HW126603   3.204   3.706   4.677  0.2199 -0.6515 -0.0931
 5047SOL    HW226604   3.121   3.799   4.604  0.1231  0.4040 -2.3734
 5048SOL     OW26605   1.077   2.448   2.362 -0.0807 -0.3598 -0.2644
 5048SOL    HW126606   1.143   2.489   2.417  1.2269 -0.6118 -1.6452
 5048SOL    HW226607   1.005   2.444   2.424 -0.4420  2.4536 -0.5311
 5049SOL     OW26608   0.883   1.754   6.098 -0.3707  0.1062  0.3751
 5049SOL    HW126609   0.971   1.720   6.117  0.0276  0.9280 -0.0017
 5049SOL    HW226610   0.836   1.690   6.151 -2.1856 -0.8296 -2.3767
 5050SOL     OW26611   0.604   0.610   4.489 -0.2206 -0.4249  0.3631
 5050SOL    HW126612   0.580   0.701   4.473  2.1957  0.1378 -0.0713
 5050SOL    HW226613   0.699   0.607   4.483 -0.3428 -0.8283 -1.4472
 5051SOL     OW26614   0.958   1.721   3.953  0.1688 -0.0368  0.2213
 5051SOL    HW126615   0.960   1.668   3.873 -0.5249 -0.8886  0.7660
 5051SOL    HW226616   0.977   1.805   3.912  0.7002  0.2349  1.0360
 5052SOL     OW26617   3.114   1.004  11.794 -0.1993  0.1106  0.5291
 5052SOL    HW126618   3.021   0.979  11.793  0.4650 -2.3688 -0.9587
 5052SOL    HW226619   3.123   1.048  11.709  1.9158 -0.7198  0.3286
 5053SOL     OW26620   4.213   2.227  11.840  0.6989 -0.1823 -0.0550
 5053SOL    HW126621   4.159   2.306  11.844 -0.1387 -0.7946  0.7200
 5053SOL    HW226622   4.143   2.164  11.821  0.1441  0.6659 -0.8786
 5054SOL     OW26623   4.176   2.291   8.088 -0.0691  0.0435  0.0535
 5054SOL    HW126624   4.261   2.335   8.095  0.6751 -1.4349  0.4400
 5054SOL    HW226625   4.188   2.242   8.170  2.3309  0.7817  0.1531
 5055SOL     OW26626   0.669   1.843   3.926 -0.2777  0.1645 -0.4706
 5055SOL    HW126627   0.741   1.795   3.885 -1.6447 -0.4955 -2.1272
 5055SOL    HW226628   0.618   1.774   3.969  2.2428 -0.8028  0.9736
 5056SOL     OW26629   1.633   4.362   1.715 -0.3091  0.6228 -0.4080
 5056SOL    HW126630   1.583   4.424   1.662 -3.1391 -1.3708 -0.0629
 5056SOL    HW226631   1.560   4.314   1.755  0.2765 -0.3586 -0.5207
 5057SOL     OW26632   3.074   4.070   1.787  0.5001  0.4303  0.0021
 5057SOL    HW126633   3.111   4.158   1.786 -0.8957  1.0272 -0.0545
 5057SOL    HW226634   3.006   4.084   1.854 -0.4224 -2.0888 -0.4227
 5058SOL     OW26635   1.467   4.407   5.695 -0.4329  0.1298  0.0723
 5058SOL    HW126636   1.441   4.319   5.723 -1.1430  0.3151  0.0027
 5058SOL    HW226637   1.389   4.455   5.721 -1.6433 -0.7136 -1.9435
 5059SOL     OW26638   3.628   3.603   6.863  0.0929  0.2446  0.0045
 5059SOL    HW126639   3.623   3.542   6.937  1.7649  1.2218  0.9171
 5059SOL    HW226640   3.596   3.684   6.902 -3.4858 -1.5270  0.8432
 5060SOL     OW26641   1.255   4.625   3.193 -0.1004  0.1213  0.5075
 5060SOL    HW126642   1.320   4.624   3.124 -0.6714 -1.9124  0.0116
 5060SOL    HW226643   1.271   4.708   3.238 -2.3278  0.7336  0.1672
 5061SOL     OW26644   2.428   0.133  16.863 -0.4127 -0.0689  0.3485
 5061SOL    HW126645   2.438   0.063  16.927 -0.0227 -0.4852 -0.1645
 5061SOL    HW226646   2.516   0.170  16.867 -1.1713  1.7426  0.4879
 5062SOL     OW26647   4.437   1.416  12.628 -0.0151 -0.2808  0.1217
 5062SOL    HW126648   4.420   1.359  12.703 -0.4204 -2.0758 -1.3565
 5062SOL    HW226649   4.527   1.386  12.618 -0.1584 -0.0880 -1.7373
 5063SOL     OW26650   2.697   1.684   9.533 -0.2703 -0.3168  0.1778
 5063SOL    HW126651   2.709   1.639   9.449  1.1142  0.4695 -0.0442
 5063SOL    HW226652   2.622   1.736   9.503 -0.6931 -0.1766  1.4785
 5064SOL     OW26653   2.437   1.289   8.121  0.1355 -0.2092 -0.1768
 5064SOL    HW126654   2.457   1.214   8.177  0.4296 -0.1305 -0.1780
 5064SOL    HW226655   2.416   1.352   8.190 -2.8371 -1.9521  0.5167
 5065SOL     OW26656   1.688   0.011   9.512 -0.5730  0.1239  0.0399
 5065SOL    HW126657   1.674   4.650   9.472  0.4566 -0.0929  0.1468
 5065SOL    HW226658   1.669   4.701   9.599 -1.5657  0.6478  0.0446
 5066SOL     OW26659   0.984   2.042   0.768 -0.1113  0.8027 -0.6072
 5066SOL    HW126660   1.050   1.975   0.756  0.2370  0.6994  1.9355
 5066SOL    HW226661   0.910   1.997   0.808 -0.1884  0.8373 -0.7075
 5067SOL     OW26662   2.934   0.788   2.663 -0.5990  0.0961 -0.2358
 5067SOL    HW126663   3.028   0.772   2.654 -0.6538 -0.3123 -0.1056
 5067SOL    HW226664   2.924   0.744   2.747  2.0085  0.1799  0.1025
 5068SOL     OW26665   4.222   4.420   5.712 -0.6403 -0.3203  0.0040
 5068SOL    HW126666   4.290   4.484   5.734 -0.2536  0.1592 -2.6336
 5068SOL    HW226667   4.209   4.376   5.796  0.3717  0.9030  0.8008
 5069SOL     OW26668   2.041   3.559   9.162  0.4756  0.0997 -0.0380
 5069SOL    HW126669   2.128   3.580   9.196 -0.6036  3.2870  0.7032
 5069SOL    HW226670   2.055   3.468   9.189  1.9211  0.4651  0.4753
 5070SOL     OW26671   2.528   1.142  16.181 -0.7680 -0.3771 -0.1338
 5070SOL    HW126672   2.508   1.190  16.262  2.1911 -0.1223  0.4518
 5070SOL    HW226673   2.500   1.200  16.111  1.4181 -0.2828 -0.9227
 5071SOL     OW26674   2.959   4.524  16.154  0.4107  0.0120 -0.2566
 5071SOL    HW126675   3.029   4.547  16.093  0.4824 -0.1603 -0.2396
 5071SOL    HW226676   2.975   4.429  16.151  0.9188  0.1232 -1.2702
 5072SOL     OW26677   2.176   4.172   7.664 -0.1238 -0.3780 -0.8182
 5072SOL    HW126678   2.127   4.096   7.695 -0.8585  0.5177  0.2225
 5072SOL    HW226679   2.256   4.130   7.632  2.0214  1.4820  2.0115
 5073SOL     OW26680   1.472   0.527  15.151  0.4128 -0.2089  1.0246
 5073SOL    HW126681   1.386   0.513  15.111  1.4546 -0.6866 -1.0350
 5073SOL    HW226682   1.463   0.489  15.239 -1.0243  1.6506  1.6565
 5074SOL     OW26683   0.321   2.653   3.837 -0.2333 -0.3601 -0.0411
 5074SOL    HW126684   0.296   2.603   3.915 -1.7827 -0.0707 -0.3683
 5074SOL    HW226685   0.396   2.710   3.859 -0.6786 -0.6179  2.1165
 5075SOL     OW26686   0.322   2.410   7.680  0.0238 -0.0688 -0.1910
 5075SOL    HW126687   0.240   2.363   7.666  1.5494 -3.2950  1.6185
 5075SOL    HW226688   0.298   2.497   7.710 -2.4784 -1.0592  0.6537
 5076SOL     OW26689   4.706   3.989   7.866  0.0407  0.2865 -0.7809
 5076SOL    HW126690   4.658   4.055   7.817 -0.4296  0.2499 -0.3756
 5076SOL    HW226691   0.040   3.963   7.796 -0.0045 -1.6545 -0.0912
 5077SOL     OW26692   2.440   2.208   2.627  0.2821 -0.2473 -0.4762
 5077SOL    HW126693   2.523   2.169   2.597  1.3562  0.9492  0.9631
 5077SOL    HW226694   2.412   2.138   2.686 -1.6456  0.3397 -0.6977
 5078SOL     OW26695   3.417   1.412   4.229 -0.1697  0.2297  0.0070
 5078SOL    HW126696   3.393   1.482   4.290 -0.9173 -2.1374  2.3954
 5078SOL    HW226697   3.512   1.421   4.216  0.2866 -0.7150  2.6131
 5079SOL     OW26698   0.595   2.379   6.284 -0.6418  0.0116  0.0555
 5079SOL    HW126699   0.523   2.441   6.282 -1.1750 -0.6821 -2.5128
 5079SOL    HW226700   0.566   2.320   6.214  1.2123 -1.2765  0.3633
 5080SOL     OW26701   3.153   1.791   9.632  0.6956 -0.2086 -0.0758
 5080SOL    HW126702   3.159   1.821   9.722  0.8258 -1.6376  0.4023
 5080SOL    HW226703   3.081   1.727   9.634  0.4713 -0.0322 -2.1218
 5081SOL     OW26704   1.191   2.271   2.185  0.3034  0.7890 -0.2374
 5081SOL    HW126705   1.163   2.341   2.243  0.6631  1.6384 -1.0994
 5081SOL    HW226706   1.141   2.292   2.106 -1.0182  1.8324  0.8852
 5082SOL     OW26707   2.408   0.833   1.043  0.4200 -1.0979 -0.3329
 5082SOL    HW126708   2.435   0.779   0.968  2.1025  1.1381 -1.3225
 5082SOL    HW226709   2.355   0.766   1.086  0.1806 -0.5467  0.2331
 5083SOL     OW26710   1.159   2.001   1.418  0.0268  0.6168 -0.8380
 5083SOL    HW126711   1.153   2.084   1.466 -0.1200 -0.4838  1.0107
 5083SOL    HW226712   1.222   2.022   1.348 -2.0000  1.7555 -2.3255
 5084SOL     OW26713   1.475   2.434   2.169 -0.2343  0.1913  0.7303
 5084SOL    HW126714   1.542   2.483   2.122  0.3613 -1.4840 -0.1690
 5084SOL    HW226715   1.428   2.502   2.218  2.0260  1.8681  0.5526
 5085SOL     OW26716   0.330   0.344   5.292  0.2992  0.4763  0.4254
 5085SOL    HW126717   0.393   0.411   5.316 -0.8095  1.7850 -0.3475
 5085SOL    HW226718   0.310   0.355   5.199  0.3035 -0.2459  0.3328
 5086SOL     OW26719   3.629   2.017   7.989  0.0722  0.8700 -0.0634
 5086SOL    HW126720   3.626   2.060   8.075 -0.6095 -0.6285  0.6535
 5086SOL    HW226721   3.538   2.003   7.965 -0.5088  2.3352  1.2154
 5087SOL     OW26722   3.379   4.438   7.806  0.3392  0.5958  0.3248
 5087SOL    HW126723   3.366   4.533   7.801 -1.5260  0.3340  0.3526
 5087SOL    HW226724   3.452   4.428   7.744  0.7149 -1.8722  1.1590
 5088SOL     OW26725   2.004   0.166   1.332 -0.2137 -0.4492 -0.1637
 5088SOL    HW126726   1.918   0.152   1.292 -0.8072  0.5959  0.7444
 5088SOL    HW226727   2.006   0.090   1.390 -1.6647  0.1355  0.6548
 5089SOL     OW26728   3.859   3.185   7.197 -0.2434  0.4416 -0.6934
 5089SOL    HW126729   3.896   3.264   7.237  1.2931 -0.4398 -0.3754
 5089SOL    HW226730   3.937   3.157   7.148  0.1966  0.0568  0.2279
 5090SOL     OW26731   1.683   2.478  14.640 -0.3720  0.0127  0.5320
 5090SOL    HW126732   1.684   2.512  14.551 -1.8858 -1.3103  0.0069
 5090SOL    HW226733   1.622   2.405  14.629 -0.1835 -0.8182  5.0625
 5091SOL     OW26734   2.375   2.718   4.738 -0.5342 -0.1433 -0.5437
 5091SOL    HW126735   2.313   2.792   4.733 -0.0179  0.3208 -0.1074
 5091SOL    HW226736   2.405   2.718   4.829 -2.0602 -0.5600 -0.0362
 5092SOL     OW26737   0.046   0.057   6.807  0.4944 -0.1429  0.1994
 5092SOL    HW126738   0.032   0.023   6.896  0.0117 -1.1390 -0.2684
 5092SOL    HW226739   4.703   0.124   6.817 -0.1409 -0.7312 -0.2730
 5093SOL     OW26740   4.174   0.858   5.285  0.3594 -0.4905  0.2299
 5093SOL    HW126741   4.222   0.818   5.357 -0.2375 -0.8251  0.4375
 5093SOL    HW226742   4.202   0.949   5.299 -1.4716  0.2067 -0.5988
 5094SOL     OW26743   0.906   2.909   6.110  0.0552 -0.5483 -0.0643
 5094SOL    HW126744   0.968   2.980   6.128  0.9996 -1.4826  0.3571
 5094SOL    HW226745   0.936   2.828   6.150  1.4027 -0.4861 -0.9338
 5095SOL     OW26746   3.693   0.725   9.934  0.6272  0.4362  0.1010
 5095SOL    HW126747   3.705   0.791   9.866 -0.2432 -0.3427 -0.8137
 5095SOL    HW226748   3.746   0.752  10.009  0.9580 -1.4606  0.5566
 5096SOL     OW26749   4.123   3.591   2.533 -0.2899  0.1284 -0.1563
 5096SOL    HW126750   4.078   3.528   2.591  0.0743  0.1005  0.0968
 5096SOL    HW226751   4.050   3.649   2.510 -0.1625  1.1100  1.9563
 5097SOL     OW26752   3.881   1.390   2.649  0.4219 -0.0027 -0.1579
 5097SOL    HW126753   3.954   1.344   2.608  0.4525 -0.8750  0.8782
 5097SOL    HW226754   3.906   1.481   2.639 -2.2987  0.6274 -1.4593
 5098SOL     OW26755   0.477   2.820   6.902  0.4456  0.0482  0.5743
 5098SOL    HW126756   0.518   2.852   6.822 -0.2287 -0.1763  0.1402
 5098SOL    HW226757   0.433   2.900   6.928  0.4043  0.0238  0.5796
 5099SOL     OW26758   1.432   0.020   6.443  0.1424  0.2704  0.0858
 5099SOL    HW126759   1.423   0.081   6.517 -0.9187  0.6931 -0.3859
 5099SOL    HW226760   1.370   0.065   6.386 -0.5644 -1.6524 -0.6501
 5100SOL     OW26761   0.240   1.271   1.994  0.9070 -0.0260  0.0428
 5100SOL    HW126762   0.280   1.327   2.060 -2.4443 -0.8134  2.7457
 5100SOL    HW226763   0.150   1.276   2.026  0.5068  0.1896 -1.1147
 5101SOL     OW26764   3.109   1.048   2.435 -0.3223 -0.3324  0.3673
 5101SOL    HW126765   3.036   1.022   2.380 -0.3205 -0.5877  0.4848
 5101SOL    HW226766   3.165   0.976   2.407 -0.7919 -0.5432 -0.0227
 5102SOL     OW26767   1.018   2.904   3.711 -0.5939 -0.1832  0.6053
 5102SOL    HW126768   1.024   2.836   3.778 -0.9270 -0.5791  0.2304
 5102SOL    HW226769   0.924   2.898   3.694 -0.5990 -1.3765  1.1059
 5103SOL     OW26770   0.711   2.317   3.637 -0.3263  0.1932 -0.0743
 5103SOL    HW126771   0.763   2.397   3.636  0.7907 -0.5611 -1.4041
 5103SOL    HW226772   0.629   2.351   3.673 -0.0980  0.0358  0.5911
 5104SOL     OW26773   2.605   2.040   5.034 -0.1267 -0.7129  0.6072
 5104SOL    HW126774   2.588   2.087   5.116 -0.3746  0.2761 -0.0141
 5104SOL    HW226775   2.530   1.980   5.037 -0.7899  0.1209  0.8165
 5105SOL     OW26776   1.862   3.850   9.318 -0.1942 -0.0906 -0.7362
 5105SOL    HW126777   1.785   3.800   9.347 -0.8398  0.4294 -1.5480
 5105SOL    HW226778   1.908   3.789   9.260  2.0199  2.5058 -1.7002
 5106SOL     OW26779   3.585   4.648  13.776 -0.7451 -0.3725  0.0006
 5106SOL    HW126780   3.489   4.651  13.781 -0.7549 -1.1200  0.2656
 5106SOL    HW226781   3.600   0.004  13.727 -0.5868 -0.1501  0.4207
 5107SOL     OW26782   2.286   2.548  11.648  0.2431  0.2309  0.3840
 5107SOL    HW126783   2.346   2.604  11.599  0.7552  0.4166  1.2338
 5107SOL    HW226784   2.288   2.603  11.726  0.5969  0.3312  0.3024
 5108SOL     OW26785   1.124   4.558   7.895 -0.5388 -0.0494  0.1783
 5108SOL    HW126786   1.206   4.512   7.881 -2.1464 -3.1285  0.9879
 5108SOL    HW226787   1.117   4.550   7.990 -0.4970  1.2897  0.3039
 5109SOL     OW26788   3.750   4.420  17.067  0.0398  0.4260 -0.1182
 5109SOL    HW126789   3.687   4.386  17.004  0.5123 -1.7804  0.6252
 5109SOL    HW226790   3.827   4.368  17.049 -0.6910 -1.8022  3.1083
 5110SOL     OW26791   4.674   1.700  12.958 -0.5899 -0.4572 -0.3908
 5110SOL    HW126792   4.593   1.751  12.957 -1.6209 -2.0281  1.5991
 5110SOL    HW226793   4.711   1.729  12.875  3.6298 -2.9249  0.6331
 5111SOL     OW26794   1.813   3.632  17.124  0.4837 -0.1106 -0.7721
 5111SOL    HW126795   1.805   3.714  17.075  1.1297  0.7957  0.6231
 5111SOL    HW226796   1.900   3.606  17.094  0.3226 -1.1699 -0.3227
 5112SOL     OW26797   4.425   1.814   7.115  0.0810  0.2238 -0.4703
 5112SOL    HW126798   4.498   1.852   7.164 -1.9745  2.8438  0.5727
 5112SOL    HW226799   4.403   1.880   7.048  0.2980  0.3308 -0.4353
 5113SOL     OW26800   1.919   3.846  12.553  0.0595  0.3401  0.1907
 5113SOL    HW126801   1.908   3.791  12.631  1.5012  0.3856  0.4144
 5113SOL    HW226802   1.937   3.936  12.581  1.1295  0.4660 -0.9137
 5114SOL     OW26803   0.673   1.962  12.632 -0.1600  0.4981  0.1292
 5114SOL    HW126804   0.734   1.903  12.677 -0.3560 -2.2250 -3.1850
 5114SOL    HW226805   0.617   1.975  12.708 -1.1085 -0.9940 -0.3286
 5115SOL     OW26806   2.224   0.915   7.488  0.6597 -0.3101  0.1160
 5115SOL    HW126807   2.262   0.933   7.402 -2.1030  3.4125 -0.3128
 5115SOL    HW226808   2.147   0.971   7.489 -0.1842 -1.5267  4.4499
 5116SOL     OW26809   2.153   0.381   6.180  0.4212 -0.1809 -0.0171
 5116SOL    HW126810   2.141   0.311   6.116  0.0807 -0.1924  0.0579
 5116SOL    HW226811   2.171   0.454   6.120 -0.0160 -0.3714 -0.3850
 5117SOL     OW26812   2.805   1.236   8.960 -0.1065  0.3180  0.6177
 5117SOL    HW126813   2.752   1.192   9.026  0.4975 -2.4121 -0.7313
 5117SOL    HW226814   2.752   1.204   8.887 -0.2598  0.9788  0.4366
 5118SOL     OW26815   0.677   4.230   8.691 -0.0822 -0.6347  0.2212
 5118SOL    HW126816   0.632   4.221   8.607  2.1049  1.8437 -1.2068
 5118SOL    HW226817   0.637   4.304   8.736 -0.5773 -0.3963 -0.6125
 5119SOL     OW26818   2.416   2.610   8.976 -0.0207 -0.0292  0.4798
 5119SOL    HW126819   2.330   2.647   8.956 -0.1799  0.1368  1.4504
 5119SOL    HW226820   2.463   2.634   8.897 -0.4583  0.8699  0.5011
 5120SOL     OW26821   3.640   1.580   7.611 -0.3501 -0.5385 -0.0595
 5120SOL    HW126822   3.647   1.497   7.659  1.1675 -0.3428  0.0532
 5120SOL    HW226823   3.625   1.641   7.683  0.2663 -0.1871 -0.2368
 5121SOL     OW26824   1.701   2.533   6.287 -0.3161 -0.2367  0.0750
 5121SOL    HW126825   1.699   2.492   6.200  2.6639 -3.0665  1.3537
 5121SOL    HW226826   1.787   2.513   6.324 -0.3603  0.6446  0.6453
 5122SOL     OW26827   2.164   0.084  10.625 -0.1239  0.8225  0.7295
 5122SOL    HW126828   2.246   0.045  10.593 -0.3959  0.9041 -0.0656
 5122SOL    HW226829   2.178   0.178  10.619  1.0959  0.7646  2.7112
 5123SOL     OW26830   1.965   1.272   0.911  0.0130 -0.1465 -0.3566
 5123SOL    HW126831   1.883   1.229   0.889 -1.0315  0.8626  1.5577
 5123SOL    HW226832   1.935   1.361   0.894  0.1449  0.2006  1.1675
 5124SOL     OW26833   4.702   3.244   5.809  0.2590  0.0592 -0.3959
 5124SOL    HW126834   4.630   3.249   5.872 -0.7529 -0.7690 -1.4859
 5124SOL    HW226835   4.723   3.336   5.797  0.6493  0.4028  2.8551
 5125SOL     OW26836   0.273   1.456   8.398 -0.3125 -0.0161  0.0683
 5125SOL    HW126837   0.253   1.550   8.399  1.5152  0.3748 -0.0778
 5125SOL    HW226838   0.280   1.438   8.304 -0.8630  2.1611 -0.3853
 5126SOL     OW26839   4.412   0.232   6.131 -0.0532  0.3617 -0.2357
 5126SOL    HW126840   4.417   0.188   6.046  0.0764 -2.9058  1.4703
 5126SOL    HW226841   4.470   0.307   6.123 -0.2640  0.5590  0.1171
 5127SOL     OW26842   2.815   3.828   6.730 -0.0821 -0.1996 -0.5437
 5127SOL    HW126843   2.737   3.862   6.774  0.0368 -1.5181  0.6574
 5127SOL    HW226844   2.855   3.784   6.804  0.0109  0.4580 -0.1989
 5128SOL     OW26845   4.459   1.111   0.417  0.5800  0.1450 -0.4897
 5128SOL    HW126846   4.541   1.145   0.453  1.2429 -1.8339 -0.0925
 5128SOL    HW226847   4.405   1.095   0.494  0.3406 -0.2101 -0.7289
 5129SOL     OW26848   4.661   0.864  12.697  0.0161 -0.5781  0.3929
 5129SOL    HW126849   4.600   0.923  12.653  0.9712 -0.9349 -1.4061
 5129SOL    HW226850   4.673   0.906  12.783  0.0928  0.3653 -0.0813
 5130SOL     OW26851   0.802   1.133   6.821  0.1801  0.5086 -0.0962
 5130SOL    HW126852   0.708   1.114   6.815  0.1213  1.0583 -1.0102
 5130SOL    HW226853   0.820   1.174   6.737  2.4808 -0.1860  0.0491
 5131SOL     OW26854   2.409   3.184  13.271  0.5453  0.3252  0.5052
 5131SOL    HW126855   2.442   3.122  13.336 -0.2937 -1.7865 -1.1142
 5131SOL    HW226856   2.339   3.132  13.232 -0.4969  3.0530 -1.2561
 5132SOL     OW26857   4.648   0.598  13.309 -0.0084  0.5840  0.0553
 5132SOL    HW126858   4.644   0.694  13.312 -1.9254  0.4913  0.5030
 5132SOL    HW226859   0.006   0.572  13.349  0.1282  1.3963  0.2990
 5133SOL     OW26860   0.141   4.219   5.350  0.2522 -0.3417  1.2681
 5133SOL    HW126861   0.055   4.182   5.331  0.3391 -0.3389  0.8596
 5133SOL    HW226862   0.119   4.270   5.428 -1.9731  1.1331 -0.3275
 5134SOL     OW26863   3.951   2.499   6.259 -0.1912  1.1126 -0.0525
 5134SOL    HW126864   4.043   2.483   6.239 -0.3733  0.0326 -0.0352
 5134SOL    HW226865   3.946   2.478   6.352 -0.3404 -0.2712 -0.3790
 5135SOL     OW26866   1.642   3.151   8.929  0.4169 -0.1210  0.4083
 5135SOL    HW126867   1.726   3.155   8.884  0.1619  1.2088  0.0501
 5135SOL    HW226868   1.627   3.236   8.970  0.6392 -0.4318  1.1255
 5136SOL     OW26869   4.108   3.169   4.357 -0.0350  0.2181  0.0416
 5136SOL    HW126870   4.152   3.122   4.428 -0.5128 -1.0558 -0.5223
 5136SOL    HW226871   4.117   3.260   4.386 -0.0706 -0.2256  1.4712
 5137SOL     OW26872   2.853   3.768   7.499 -0.0427  0.5000 -0.1573
 5137SOL    HW126873   2.858   3.863   7.511 -0.3231  0.5814 -0.6974
 5137SOL    HW226874   2.897   3.764   7.413  1.5383 -2.6189  0.8127
 5138SOL     OW26875   2.685   1.378   4.224  0.5836 -0.8674  0.8423
 5138SOL    HW126876   2.693   1.438   4.149 -0.0802 -1.5214  0.2471
 5138SOL    HW226877   2.701   1.293   4.184  0.8812 -1.8298  3.0399
 5139SOL     OW26878   4.672   2.138   5.388 -0.2935 -0.0680 -0.4867
 5139SOL    HW126879   4.700   2.052   5.357  2.4295  0.3720  0.8349
 5139SOL    HW226880   4.660   2.122   5.482 -2.2470  0.2407 -0.6790
 5140SOL     OW26881   2.860   3.933   3.991 -0.1774  0.5490  0.4309
 5140SOL    HW126882   2.813   4.017   3.994 -0.0806  0.6558 -0.7870
 5140SOL    HW226883   2.939   3.966   3.947  1.4151 -3.1479  0.5508
 5141SOL     OW26884   1.818   1.941   7.940  0.2007 -0.0968 -0.3803
 5141SOL    HW126885   1.901   1.946   7.893  0.9235  1.2087  1.0434
 5141SOL    HW226886   1.771   2.019   7.911 -0.6646 -0.1031  1.0142
 5142SOL     OW26887   3.778   2.611   5.782  0.3165  0.5239  0.1274
 5142SOL    HW126888   3.818   2.627   5.867  1.9474 -0.4692 -0.4629
 5142SOL    HW226889   3.775   2.698   5.743 -2.0757  0.8397  0.9641
 5143SOL     OW26890   0.791   0.452   4.271  0.3505 -0.2156  0.2945
 5143SOL    HW126891   0.697   0.434   4.271  0.3860 -0.4135  2.5932
 5143SOL    HW226892   0.811   0.412   4.186 -1.3670  0.1306 -0.2686
 5144SOL     OW26893   3.856   4.567   3.284  0.5108 -0.3439 -0.4386
 5144SOL    HW126894   3.821   4.604   3.365  0.3779 -0.8959 -0.2407
 5144SOL    HW226895   3.916   4.636   3.254  0.3682 -0.2514 -0.5136
 5145SOL     OW26896   2.412   4.020   1.715 -0.1950  0.2987 -0.2978
 5145SOL    HW126897   2.441   3.986   1.800  0.7260  3.1364  0.5200
 5145SOL    HW226898   2.319   3.997   1.721  0.2728 -1.6972 -0.8922
 5146SOL     OW26899   3.181   0.665   2.294  0.4868 -0.5745 -0.4834
 5146SOL    HW126900   3.090   0.682   2.270  0.6378  0.3786 -0.4192
 5146SOL    HW226901   3.212   0.632   2.210  3.1763  0.5600  0.0531
 5147SOL     OW26902   3.442   1.129   4.205 -0.1081 -0.0268 -0.4105
 5147SOL    HW126903   3.440   1.225   4.208 -2.4284 -0.1283  2.0644
 5147SOL    HW226904   3.432   1.114   4.111  3.1415 -1.0290 -0.5776
 5148SOL     OW26905   4.194   0.442  17.659 -0.1232  0.4504 -0.0976
 5148SOL    HW126906   4.211   0.367   0.014  1.3272  0.4095 -0.5828
 5148SOL    HW226907   4.143   0.408  17.585 -0.8950 -0.3168  0.7757
 5149SOL     OW26908   2.896   2.453   2.553 -0.7862  0.4059 -0.4353
 5149SOL    HW126909   2.937   2.539   2.547 -0.3003  0.2674  1.0302
 5149SOL    HW226910   2.852   2.443   2.468  0.8456  0.9145 -1.3423
 5150SOL     OW26911   3.397   2.117   7.434  0.1729 -0.4285 -0.0437
 5150SOL    HW126912   3.457   2.056   7.477  0.9411  2.1130  2.4399
 5150SOL    HW226913   3.365   2.170   7.507  0.5566 -1.1820  0.6639
 5151SOL     OW26914   3.902   2.911   0.886  0.0418  0.0064 -0.5860
 5151SOL    HW126915   3.820   2.876   0.921 -0.2893  0.5295 -0.8396
 5151SOL    HW226916   3.899   3.001   0.917 -2.2284  0.1306 -1.1626
 5152SOL     OW26917   0.248   3.331   3.066  0.1997  0.2094  0.1183
 5152SOL    HW126918   0.323   3.274   3.053  0.4810  0.5487  0.2573
 5152SOL    HW226919   0.288   3.399   3.120  0.5215  1.1912 -1.3379
 5153SOL     OW26920   4.147   1.214   5.954 -0.5663 -0.2771  0.5590
 5153SOL    HW126921   4.208   1.150   5.918 -0.3537 -1.3501  2.7944
 5153SOL    HW226922   4.194   1.241   6.033  0.5878  0.1975 -0.2956
 5154SOL     OW26923   3.203   3.363  11.715  0.4861  0.0512  0.2193
 5154SOL    HW126924   3.194   3.316  11.632  0.5844  0.7761 -0.2037
 5154SOL    HW226925   3.295   3.389  11.707  1.0184 -1.7785  0.5753
 5155SOL     OW26926   3.731   4.559   2.154  0.5581 -0.5666  0.4012
 5155SOL    HW126927   3.816   4.526   2.183  0.6095  0.4084  1.3307
 5155SOL    HW226928   3.754   4.650   2.132  0.2981 -0.7237 -0.5001
 5156SOL     OW26929   0.409   2.630   6.703 -0.5263  0.5414 -0.1066
 5156SOL    HW126930   0.395   2.658   6.793 -1.6100 -0.6669  0.0899
 5156SOL    HW226931   0.377   2.707   6.654 -1.4179 -0.7053 -1.5020
 5157SOL     OW26932   0.335   0.089   3.080  0.1173  0.3155  0.2613
 5157SOL    HW126933   0.430   0.092   3.091 -0.1063 -1.2118  2.4671
 5157SOL    HW226934   0.326   0.102   2.985 -0.6291 -0.5169  0.2196
 5158SOL     OW26935   3.058   3.821   1.595  0.1300 -0.5579  0.2334
 5158SOL    HW126936   3.063   3.906   1.639 -2.6364  1.2267 -2.8821
 5158SOL    HW226937   2.964   3.818   1.577  0.9912 -1.1184 -4.0814
 5159SOL     OW26938   1.270   1.564   6.582 -0.0912  0.3063  0.0889
 5159SOL    HW126939   1.249   1.579   6.674 -1.3759 -1.8073  0.1530
 5159SOL    HW226940   1.346   1.611   6.549  1.2432 -3.5570 -2.3598
 5160SOL     OW26941   2.585   2.808   3.633  0.1121  0.5632 -0.0273
 5160SOL    HW126942   2.560   2.716   3.623 -0.1018  0.4976  1.1103
 5160SOL    HW226943   2.572   2.842   3.545  1.6501  0.1512 -0.4032
 5161SOL     OW26944   2.290   1.345  11.361  0.9190 -0.2373 -0.3028
 5161SOL    HW126945   2.372   1.372  11.319 -0.0204  4.0873  0.6855
 5161SOL    HW226946   2.327   1.262  11.391 -0.5911 -1.2663 -1.2577
 5162SOL     OW26947   2.344   2.096   5.587 -0.2904 -0.4880  0.0705
 5162SOL    HW126948   2.365   2.152   5.512  0.2619 -0.7226  0.0522
 5162SOL    HW226949   2.291   2.154   5.642 -1.2407  0.1591 -1.4972
 5163SOL     OW26950   0.498   3.576   8.109  0.2832  0.5629 -0.2778
 5163SOL    HW126951   0.419   3.625   8.133 -0.0475 -1.3634  2.5331
 5163SOL    HW226952   0.494   3.496   8.161  1.1867  0.5305 -0.2624
 5164SOL     OW26953   0.534   0.752   0.067  0.1034 -0.3944  0.1053
 5164SOL    HW126954   0.626   0.728   0.066  0.2833  0.2475  1.0118
 5164SOL    HW226955   0.531   0.787   0.156  0.1434  1.7599 -0.7399
 5165SOL     OW26956   3.644   3.108  17.421  0.3817  0.3492 -0.3125
 5165SOL    HW126957   3.718   3.167  17.413  1.6131 -1.1919 -0.1996
 5165SOL    HW226958   3.637   3.128  17.514 -0.3618 -0.6671 -0.1464
 5166SOL     OW26959   0.427   0.297   2.112  0.3349 -0.4082  0.2671
 5166SOL    HW126960   0.391   0.382   2.087  0.5253 -0.4322 -0.0819
 5166SOL    HW226961   0.376   0.234   2.062  2.8552 -0.3989 -2.2747
 5167SOL     OW26962   0.707   0.130  13.820  0.0535  0.0356  0.1713
 5167SOL    HW126963   0.660   0.193  13.875  1.4909 -0.0805  1.5409
 5167SOL    HW226964   0.781   0.174  13.780  0.0006  0.1163  0.1622
 5168SOL     OW26965   2.078   3.500  16.372  0.0499 -0.4609 -0.0766
 5168SOL    HW126966   2.027   3.545  16.439  0.1717  1.3870 -1.2402
 5168SOL    HW226967   2.064   3.554  16.294  0.9553 -0.2304 -0.0766
 5169SOL     OW26968   3.838   3.736  10.920  0.2455 -0.6364 -0.3745
 5169SOL    HW126969   3.849   3.784  11.002  0.7486  1.9427 -1.9450
 5169SOL    HW226970   3.754   3.767  10.887 -0.3650 -2.0850 -0.1818
 5170SOL     OW26971   0.244   3.313   5.908  0.5374  0.0270 -0.3689
 5170SOL    HW126972   0.159   3.289   5.870 -0.2197  0.1097  1.3027
 5170SOL    HW226973   0.298   3.239   5.880  1.0456 -0.0260  0.7886
 5171SOL     OW26974   1.466   3.136   7.103  0.6527 -0.0789  0.4401
 5171SOL    HW126975   1.462   3.221   7.059 -0.0633 -0.2378  0.2014
 5171SOL    HW226976   1.390   3.093   7.062  0.3991  0.1420  0.6815
 5172SOL     OW26977   0.041   3.457   2.785  0.1550 -0.3715  0.5467
 5172SOL    HW126978   0.021   3.368   2.755  0.0195 -0.7990  1.9293
 5172SOL    HW226979   4.678   3.493   2.797  1.3735  3.0590 -0.7948
 5173SOL     OW26980   1.829   1.561   0.259  0.7585  0.0577 -0.4455
 5173SOL    HW126981   1.834   1.646   0.304  0.6047  1.6171 -3.3762
 5173SOL    HW226982   1.798   1.596   0.175  3.4358 -1.3721 -2.0418
 5174SOL     OW26983   3.385   3.131   6.111 -0.6678 -0.2061 -0.7972
 5174SOL    HW126984   3.323   3.069   6.149  0.6359 -0.8874  0.2286
 5174SOL    HW226985   3.467   3.082   6.102 -0.4163  0.5782 -2.7665
 5175SOL     OW26986   3.561   4.638   0.888  0.5808  0.2922 -0.5993
 5175SOL    HW126987   3.572   0.001   0.853  2.4636  0.1834 -0.2776
 5175SOL    HW226988   3.629   4.633   0.956 -0.6853  1.1053  0.7370
 5176SOL     OW26989   3.625   2.306  12.256 -0.1380  0.1514  0.3049
 5176SOL    HW126990   3.671   2.255  12.323 -1.5484 -2.3294 -0.6170
 5176SOL    HW226991   3.661   2.276  12.173 -0.2537 -1.8620  0.9899
 5177SOL     OW26992   3.987   3.813   4.715  0.4507  0.2969  0.5265
 5177SOL    HW126993   4.036   3.731   4.708  0.7561  0.2252  3.3029
 5177SOL    HW226994   4.019   3.856   4.795  1.0807 -1.0767  1.0035
 5178SOL     OW26995   0.620   1.174   9.148 -0.1364  0.1042  0.0576
 5178SOL    HW126996   0.633   1.260   9.107 -1.6168 -1.5539 -3.9806
 5178SOL    HW226997   0.634   1.116   9.073 -0.8127 -0.5190  0.4146
 5179SOL     OW26998   0.699   3.266  16.658  0.2418 -0.6673 -0.6406
 5179SOL    HW126999   0.674   3.174  16.653  1.6970 -1.2077  1.9547
 5179SOL    HW227000   0.698   3.282  16.564 -2.9344 -1.9711 -0.8325
 5180SOL     OW27001   3.181   1.600   8.313 -0.3803  0.0218  0.6772
 5180SOL    HW127002   3.243   1.531   8.289  1.2595  1.3149  1.1947
 5180SOL    HW227003   3.227   1.639   8.388 -0.1905  0.3411  0.4008
 5181SOL     OW27004   0.330   0.679   7.646 -0.2963 -0.1331  0.2593
 5181SOL    HW127005   0.321   0.597   7.598 -0.2632  0.1384 -0.2126
 5181SOL    HW227006   0.242   0.716   7.637  0.1463  0.2810 -2.4351
 5182SOL     OW27007   1.872   4.031   3.915 -0.5350  0.4300  0.0464
 5182SOL    HW127008   1.907   3.959   3.862  0.5628  1.4560 -0.6085
 5182SOL    HW227009   1.808   3.986   3.970  1.7376 -0.3254  2.1004
 5183SOL     OW27010   2.687   2.284   9.111  0.8263  0.2010 -0.0680
 5183SOL    HW127011   2.776   2.265   9.082  0.6887 -3.1950  1.7291
 5183SOL    HW227012   2.688   2.378   9.093 -0.0656 -0.2125 -2.2057
 5184SOL     OW27013   0.948   1.077  16.944  0.4795 -0.9735 -0.2529
 5184SOL    HW127014   0.893   1.065  16.866  0.6221  0.6254 -0.5986
 5184SOL    HW227015   0.918   1.011  17.007  0.8402 -2.1768 -1.3486
 5185SOL     OW27016   1.303   2.272  13.203 -0.3852  0.3303  0.3436
 5185SOL    HW127017   1.217   2.293  13.167 -0.6893  0.4963  1.1542
 5185SOL    HW227018   1.284   2.284  13.296 -0.0286 -2.8744  0.8235
 5186SOL     OW27019   3.028   1.603   3.654  0.1763 -0.5535 -0.0969
 5186SOL    HW127020   2.933   1.609   3.661  0.1692  1.7843 -2.2880
 5186SOL    HW227021   3.056   1.694   3.646 -1.3619 -0.2498 -1.8728
 5187SOL     OW27022   3.540   1.186   1.911  0.2165 -0.2922  0.1140
 5187SOL    HW127023   3.487   1.123   1.960 -0.8967  2.7127  2.7914
 5187SOL    HW227024   3.467   1.238   1.876 -0.0600 -0.6690  0.1339
 5188SOL     OW27025   3.242   3.234   5.279  0.4390  0.1363  0.3184
 5188SOL    HW127026   3.290   3.316   5.273  0.2641  0.1871 -0.3050
 5188SOL    HW227027   3.150   3.258   5.282  0.3128 -0.3153 -0.0783
 5189SOL     OW27028   3.806   2.013  15.107  0.0695  0.1084 -0.1997
 5189SOL    HW127029   3.757   1.932  15.090 -0.8283  1.0677 -2.2225
 5189SOL    HW227030   3.888   1.977  15.140 -0.5870 -2.6106 -1.5252
 5190SOL     OW27031   0.897   2.540   0.938  0.5622 -0.1707  0.3076
 5190SOL    HW127032   0.917   2.537   1.032 -1.1997 -0.1620  0.6871
 5190SOL    HW227033   0.985   2.568   0.913 -0.1504  1.4675 -0.3043
 5191SOL     OW27034   2.985   3.115  12.200  0.0660  0.1449  0.0972
 5191SOL    HW127035   2.902   3.141  12.239 -0.1970 -0.3079 -0.1502
 5191SOL    HW227036   3.036   3.193  12.181  0.1964  0.1015  0.2669
 5192SOL     OW27037   2.340   4.412   2.152 -0.2266  0.2245  0.2641
 5192SOL    HW127038   2.292   4.337   2.116  0.2806 -0.3267  0.7423
 5192SOL    HW227039   2.285   4.485   2.122 -0.2157  0.1225 -0.0052
 5193SOL     OW27040   2.249   2.380   6.097  0.1803 -0.0874 -0.3521
 5193SOL    HW127041   2.191   2.392   6.172  1.8005  0.5328  0.8052
 5193SOL    HW227042   2.182   2.385   6.029 -1.8016 -1.1490  1.5123
 5194SOL     OW27043   4.321   2.224   3.014  0.2845  0.1202  0.1167
 5194SOL    HW127044   4.405   2.178   3.019 -0.0905 -0.6016 -0.2017
 5194SOL    HW227045   4.316   2.237   2.920  0.5064  4.5562  0.7047
 5195SOL     OW27046   1.899   4.080   3.555  0.5011 -0.2233  0.1876
 5195SOL    HW127047   1.951   4.158   3.575 -1.0924  0.2995  2.2511
 5195SOL    HW227048   1.965   4.036   3.500 -0.8500 -0.4777 -1.2092
 5196SOL     OW27049   1.442   2.994   8.826 -0.0917 -0.5011  0.2602
 5196SOL    HW127050   1.493   3.072   8.846  1.0757 -1.3969  0.7797
 5196SOL    HW227051   1.499   2.919   8.842  0.3870  0.4267  2.9184
 5197SOL     OW27052   1.437   4.602  13.655  0.5442  0.1325 -0.1567
 5197SOL    HW127053   1.493   4.626  13.582  0.3346  1.1964  0.0400
 5197SOL    HW227054   1.449   4.507  13.654 -0.6683 -0.0172 -1.2748
 5198SOL     OW27055   1.999   2.160   5.891  0.6924 -0.5002 -0.0039
 5198SOL    HW127056   2.092   2.169   5.867  0.0044 -0.3123 -2.5501
 5198SOL    HW227057   1.983   2.076   5.847  0.4900 -0.5966  0.2523
 5199SOL     OW27058   3.854   2.357   2.945  0.1067 -0.6447  0.0920
 5199SOL    HW127059   3.896   2.425   2.894  1.5605 -1.5746  0.0471
 5199SOL    HW227060   3.841   2.288   2.880 -1.7417  0.0738 -0.3178
 5200SOL     OW27061   2.556   3.437  10.240  0.1327 -0.3671 -0.0434
 5200SOL    HW127062   2.496   3.406  10.308  0.4158 -0.3562  0.2142
 5200SOL    HW227063   2.547   3.532  10.251  0.6563  0.0184 -2.8183
 5201SOL     OW27064   4.507   3.108   5.498 -0.3947 -0.2402  0.3129
 5201SOL    HW127065   4.515   3.140   5.588  0.6049  1.3449 -0.3375
 5201SOL    HW227066   4.428   3.160   5.483 -0.1970 -0.5343 -1.6999
 5202SOL     OW27067   0.572   0.598   3.244  0.6381  0.0103  0.1857
 5202SOL    HW127068   0.531   0.586   3.158  0.8295  0.7958 -0.0224
 5202SOL    HW227069   0.498   0.596   3.304  1.5245  0.9206  1.3173
 5203SOL     OW27070   0.916   3.659   5.804 -0.0525  0.3237  0.5227
 5203SOL    HW127071   0.839   3.601   5.799  0.0035  0.1781  1.4145
 5203SOL    HW227072   0.967   3.598   5.858  2.0403 -1.8338 -3.8867
 5204SOL     OW27073   2.289   0.066   3.675 -0.0444  0.2444 -0.2064
 5204SOL    HW127074   2.263   0.015   3.752  0.7938  1.5938  0.9845
 5204SOL    HW227075   2.243   0.150   3.676 -0.5148 -0.0011 -0.9676
 5205SOL     OW27076   1.143   4.324   4.941  0.2489 -1.1589 -0.1755
 5205SOL    HW127077   1.055   4.330   4.977  0.5896 -2.2605  0.8570
 5205SOL    HW227078   1.129   4.260   4.871 -0.1082 -1.8317  0.5114
 5206SOL     OW27079   2.643   0.680   2.708 -0.0138  0.3876  0.0724
 5206SOL    HW127080   2.586   0.707   2.637 -0.0330 -0.6849 -0.3271
 5206SOL    HW227081   2.719   0.736   2.693  1.0998 -1.1258 -0.0198
 5207SOL     OW27082   4.121   1.915   5.051  0.2170 -0.2811 -0.1616
 5207SOL    HW127083   4.155   1.883   5.134  0.2239 -0.8787 -0.3955
 5207SOL    HW227084   4.028   1.896   5.061  0.2310 -2.1038 -3.4913
 5208SOL     OW27085   3.552   2.453   0.085 -0.1481 -0.3815 -0.2352
 5208SOL    HW127086   3.489   2.520   0.059 -0.9400 -0.1894  2.2146
 5208SOL    HW227087   3.635   2.499   0.095 -1.3773  1.6895  0.4535
 5209SOL     OW27088   4.019   1.960   7.044  0.0408 -0.4232 -0.3963
 5209SOL    HW127089   3.925   1.974   7.056 -0.0866  0.4533 -2.4198
 5209SOL    HW227090   4.039   1.910   7.123  0.5013 -1.3789 -1.1209
 5210SOL     OW27091   4.265   4.302   7.606 -0.2720  0.0899  0.3797
 5210SOL    HW127092   4.256   4.375   7.668  0.3076  0.3859  0.1135
 5210SOL    HW227093   4.280   4.226   7.663 -0.9587 -0.3215  0.0124
 5211SOL     OW27094   1.277   3.872   4.671  0.0573 -0.1677 -0.0449
 5211SOL    HW127095   1.355   3.829   4.705 -0.2108 -0.6034  0.0173
 5211SOL    HW227096   1.289   3.864   4.577  0.8929 -1.6635  0.1940
 5212SOL     OW27097   2.974   0.140   1.579 -0.4883 -0.0316  0.0110
 5212SOL    HW127098   2.880   0.131   1.568 -0.4380 -2.0681  1.0740
 5212SOL    HW227099   3.004   0.152   1.489 -1.9641 -0.6225 -0.5573
 5213SOL     OW27100   3.267   3.278   2.510 -0.2537  0.7421  0.2705
 5213SOL    HW127101   3.353   3.285   2.553 -0.0989  2.9159 -0.3558
 5213SOL    HW227102   3.240   3.187   2.521  1.1595  0.3349  0.4586
 5214SOL     OW27103   4.530   4.013  17.276  0.7860 -0.6347  0.1289
 5214SOL    HW127104   4.609   4.041  17.324  0.3967  0.7088 -0.0276
 5214SOL    HW227105   4.563   3.928  17.246  1.5362 -0.7723  1.3124
 5215SOL     OW27106   1.621   2.202   6.477  0.0705 -0.3366  0.2683
 5215SOL    HW127107   1.701   2.196   6.423  0.6277 -1.4439  1.2247
 5215SOL    HW227108   1.548   2.170   6.425  0.3501 -1.4395  0.5619
 5216SOL     OW27109   1.730   4.257  16.782 -0.1703 -0.1960  0.1911
 5216SOL    HW127110   1.665   4.305  16.834  0.2674  1.3608 -0.6756
 5216SOL    HW227111   1.782   4.220  16.854 -3.1822 -1.0845  1.9099
 5217SOL     OW27112   3.268   2.235  16.510 -0.0031  0.8108 -0.3590
 5217SOL    HW127113   3.174   2.254  16.505 -0.3248 -0.4489  0.9291
 5217SOL    HW227114   3.279   2.239  16.605 -1.6974  0.9634 -0.1805
 5218SOL     OW27115   0.214   0.449   3.150  0.2639  0.3753 -0.0770
 5218SOL    HW127116   0.229   0.392   3.075  0.5867 -0.4616  0.6186
 5218SOL    HW227117   0.162   0.524   3.123  1.1982  1.7145  1.8840
 5219SOL     OW27118   0.482   3.258  16.162 -0.0741  0.2561  0.7136
 5219SOL    HW127119   0.428   3.329  16.126  1.8488  1.4377  0.1380
 5219SOL    HW227120   0.542   3.243  16.088  0.1064 -0.4610  1.0053
 5220SOL     OW27121   2.528   2.787   6.409  0.3303 -0.6646 -0.7002
 5220SOL    HW127122   2.528   2.869   6.458 -1.3610 -1.1693  0.1559
 5220SOL    HW227123   2.445   2.786   6.361 -1.4975 -0.9330  2.4139
 5221SOL     OW27124   3.887   0.884  17.578 -0.4424 -0.1855 -0.2421
 5221SOL    HW127125   3.866   0.791  17.572  0.1655 -0.3897  0.6368
 5221SOL    HW227126   3.806   0.920  17.543  0.3445 -0.2577 -2.1184
 5222SOL     OW27127   4.656   1.356   0.900  0.7188  0.0978 -0.6204
 5222SOL    HW127128   4.663   1.269   0.861 -2.1627 -1.4206  2.2684
 5222SOL    HW227129   4.591   1.401   0.846 -0.1508  3.1551  2.9956
 5223SOL     OW27130   2.875   0.566   1.963 -0.3593 -0.1713 -0.1589
 5223SOL    HW127131   2.816   0.641   1.957 -2.0773 -1.4417  0.8780
 5223SOL    HW227132   2.815   0.505   2.006 -2.0499  1.4416 -0.2345
 5224SOL     OW27133   2.265   2.542   8.680  0.0089 -0.5073 -0.5066
 5224SOL    HW127134   2.224   2.459   8.704  0.1001  0.3468  2.6377
 5224SOL    HW227135   2.355   2.533   8.713 -0.4225 -0.6737  0.6345
 5225SOL     OW27136   2.899   2.839   0.670  0.3822 -0.3133  0.2570
 5225SOL    HW127137   2.897   2.923   0.716  1.2272  0.1914 -0.6159
 5225SOL    HW227138   2.811   2.827   0.635  1.6195 -0.9029 -2.7194
 5226SOL     OW27139   0.417   4.293   0.991 -0.3449 -0.5334  0.6027
 5226SOL    HW127140   0.407   4.203   0.958 -0.1622  0.0382 -0.9800
 5226SOL    HW227141   0.494   4.311   0.937 -0.1659 -0.0977  1.0075
 5227SOL     OW27142   1.575   2.614   0.869  0.2374  0.5963 -0.1073
 5227SOL    HW127143   1.576   2.709   0.866 -1.1947  0.6143 -0.0976
 5227SOL    HW227144   1.575   2.597   0.963  1.7341  2.7769  0.2801
 5228SOL     OW27145   1.728   3.883   1.425  0.2751  0.2837 -0.6894
 5228SOL    HW127146   1.819   3.910   1.430  0.8551 -1.7666 -0.4272
 5228SOL    HW227147   1.675   3.957   1.394  0.8429  0.5677 -0.9763
 5229SOL     OW27148   4.511   1.657   6.233 -0.2497 -0.0013 -0.4092
 5229SOL    HW127149   4.453   1.719   6.190 -1.4939  0.8888  2.5349
 5229SOL    HW227150   4.564   1.716   6.287 -2.1951  1.5907 -0.2167
 5230SOL     OW27151   1.582   1.264   6.698  0.1355  0.2497 -0.1822
 5230SOL    HW127152   1.637   1.204   6.648 -1.2181 -0.4166 -0.8627
 5230SOL    HW227153   1.526   1.299   6.629 -0.4238  2.4767  1.4135
 5231SOL     OW27154   4.685   3.437  11.592 -0.1372  0.1415 -0.3329
 5231SOL    HW127155   4.696   3.344  11.577 -0.6854  0.2676 -1.4566
 5231SOL    HW227156   4.591   3.448  11.604 -0.4179  0.7059 -3.0884
 5232SOL     OW27157   0.741   0.356   6.329  0.7469 -0.5436 -0.0335
 5232SOL    HW127158   0.813   0.397   6.377  0.6043  0.3985 -0.6232
 5232SOL    HW227159   0.729   0.409   6.250  0.5154  0.6447  0.8113
 5233SOL     OW27160   3.676   4.415   7.317  0.8653 -0.5358  0.3404
 5233SOL    HW127161   3.665   4.365   7.236 -0.6219 -0.1445  0.2933
 5233SOL    HW227162   3.644   4.499   7.283  0.6715 -1.4320 -1.7150
 5234SOL     OW27163   1.815   1.145   5.102  0.6303  0.4130 -0.1913
 5234SOL    HW127164   1.849   1.229   5.071  1.5639 -0.2440 -0.9751
 5234SOL    HW227165   1.865   1.125   5.181 -1.2120 -0.7557  0.6603
 5235SOL     OW27166   0.943   2.484  13.967  0.0348 -0.1312  0.1396
 5235SOL    HW127167   1.028   2.448  13.991 -0.0101 -0.0395  0.4349
 5235SOL    HW227168   0.955   2.513  13.876 -1.2724  1.6788  0.5375
 5236SOL     OW27169   2.960   0.925   5.822 -0.0355  0.1888 -0.3610
 5236SOL    HW127170   3.044   0.897   5.859 -0.7263 -0.5523  0.6746
 5236SOL    HW227171   2.937   0.978   5.899  0.0151  1.6757 -1.3648
 5237SOL     OW27172   4.581   0.558   2.257  0.5797  0.2750  0.3243
 5237SOL    HW127173   4.574   0.586   2.166  0.8124  0.6591  0.4226
 5237SOL    HW227174   4.517   0.610   2.304  0.5662 -0.2268  0.8685
 5238SOL     OW27175   2.598   1.735  11.664  0.1067  0.0100 -0.1590
 5238SOL    HW127176   2.515   1.760  11.624  0.4350 -0.0617 -0.8829
 5238SOL    HW227177   2.582   1.652  11.710  0.5443 -0.0273 -0.0713
 5239SOL     OW27178   2.320   3.942  16.461  0.0241 -0.7512  0.3387
 5239SOL    HW127179   2.294   3.962  16.551  0.8604 -1.0834  0.6475
 5239SOL    HW227180   2.368   4.024  16.450  0.0109 -0.8359 -0.3360
 5240SOL     OW27181   2.954   0.509   4.103 -0.2689 -0.1904 -0.1343
 5240SOL    HW127182   2.881   0.494   4.042 -0.1687 -2.6173  0.3503
 5240SOL    HW227183   2.991   0.595   4.084  0.4521 -0.2014  1.2455
 5241SOL     OW27184   1.182   1.555   1.249  0.6982  0.1714 -0.2728
 5241SOL    HW127185   1.187   1.616   1.175  1.1343  1.3765  0.7455
 5241SOL    HW227186   1.119   1.490   1.218 -0.0624  0.7176  0.1409
 5242SOL     OW27187   0.255   0.606  10.508  0.2802 -0.3009 -0.4221
 5242SOL    HW127188   0.297   0.682  10.547 -0.1831 -0.5977  0.6642
 5242SOL    HW227189   0.303   0.538  10.555 -0.2302 -0.3011  0.1059
 5243SOL     OW27190   0.990   0.809   7.054  0.3635 -0.0267  0.4293
 5243SOL    HW127191   1.047   0.738   7.082 -0.1999  0.3302  2.4891
 5243SOL    HW227192   0.957   0.832   7.140 -1.5085  0.0311 -0.2968
 5244SOL     OW27193   0.386   4.442   4.698 -0.8555  0.2216  0.5867
 5244SOL    HW127194   0.322   4.395   4.644 -1.0431  1.5210 -0.3284
 5244SOL    HW227195   0.417   4.515   4.645  1.6180 -1.3119 -0.0451
 5245SOL     OW27196   1.551   0.691  13.519  0.3906  0.1502  0.6845
 5245SOL    HW127197   1.605   0.682  13.440  1.5865  1.3184  1.3663
 5245SOL    HW227198   1.466   0.652  13.499  0.9921 -0.8607  0.0821
 5246SOL     OW27199   3.567   3.118   8.493 -0.5045  0.1062  0.0882
 5246SOL    HW127200   3.590   3.209   8.476  0.6059 -0.5771 -2.1159
 5246SOL    HW227201   3.575   3.125   8.588  1.7995 -3.3812  0.1438
 5247SOL     OW27202   4.338   0.541   4.934  0.2301  0.0442  0.8381
 5247SOL    HW127203   4.350   0.449   4.959  1.3104 -0.2681 -0.8275
 5247SOL    HW227204   4.263   0.565   4.989 -0.4093 -0.0962  0.0361
 5248SOL     OW27205   2.781   0.089   8.893 -0.2370  0.1253  0.2591
 5248SOL    HW127206   2.733   0.122   8.969 -2.8502 -3.0597  0.0318
 5248SOL    HW227207   2.859   0.054   8.935  0.9123  2.1824 -0.1354
 5249SOL     OW27208   1.824   2.050   4.921  0.2622 -0.1081 -0.6368
 5249SOL    HW127209   1.848   2.066   5.013  1.0644 -1.4260 -0.6153
 5249SOL    HW227210   1.898   2.086   4.872  0.4565  2.7087  1.7008
 5250SOL     OW27211   0.562   0.491   7.157 -0.2191  0.5903  0.0933
 5250SOL    HW127212   0.644   0.458   7.192 -0.4483 -1.4369 -1.2653
 5250SOL    HW227213   0.599   0.540   7.084 -1.0320  1.9410  0.5861
 5251SOL     OW27214   4.264   1.925  12.765  0.0914  0.2189  0.1554
 5251SOL    HW127215   4.258   1.970  12.680  0.9422 -0.4310 -0.2494
 5251SOL    HW227216   4.193   1.969  12.813 -0.4336  0.8719 -1.2037
 5252SOL     OW27217   0.570   2.669  17.439  0.1650  0.3423  0.1464
 5252SOL    HW127218   0.618   2.736  17.392  0.9929 -0.7764 -0.5898
 5252SOL    HW227219   0.477   2.688  17.422 -0.2102  0.2336  2.0798
 5253SOL     OW27220   1.457   1.225   7.489 -0.2421  0.0468 -0.2948
 5253SOL    HW127221   1.393   1.293   7.466 -0.4498 -0.2132 -0.4887
 5253SOL    HW227222   1.427   1.157   7.429  1.0693  0.3961 -1.3528
 5254SOL     OW27223   2.167   2.259  11.351  0.3899 -0.6134  0.2373
 5254SOL    HW127224   2.130   2.341  11.385  2.8307  0.8701 -0.7295
 5254SOL    HW227225   2.201   2.229  11.436 -0.4826  2.6461  1.7584
 5255SOL     OW27226   0.756   1.574   3.225  0.2888 -0.6884  0.3492
 5255SOL    HW127227   0.753   1.555   3.319  1.6774  0.8629  0.7065
 5255SOL    HW227228   0.700   1.504   3.191 -2.4817  2.7404 -2.0320
 5256SOL     OW27229   3.459   0.109   3.863  0.0483 -0.1764  0.7310
 5256SOL    HW127230   3.489   0.046   3.929  1.2647 -0.5926 -0.2403
 5256SOL    HW227231   3.518   0.182   3.883 -0.4929  1.2542 -2.9546
 5257SOL     OW27232   0.875   0.651  14.786  0.1381 -0.1895 -0.4088
 5257SOL    HW127233   0.917   0.651  14.700 -1.4130 -1.9821 -1.1461
 5257SOL    HW227234   0.941   0.705  14.829 -1.6920  0.3717  1.7107
 5258SOL     OW27235   1.247   1.818   5.319  0.3722 -0.0087 -0.1506
 5258SOL    HW127236   1.187   1.816   5.244  0.7413  0.5597 -0.4601
 5258SOL    HW227237   1.256   1.912   5.336 -0.3282  0.3087 -1.5291
 5259SOL     OW27238   0.353   0.220   5.648 -0.0080 -0.3732 -0.3211
 5259SOL    HW127239   0.262   0.190   5.645 -1.1821  2.9587  2.0713
 5259SOL    HW227240   0.375   0.240   5.557 -0.0484 -1.0972 -0.4912
 5260SOL     OW27241   1.295   1.571   8.128  0.5948  0.3276  0.2909
 5260SOL    HW127242   1.347   1.651   8.117  0.3946  0.3123 -0.7205
 5260SOL    HW227243   1.230   1.605   8.190 -1.0040 -1.8978 -0.1781
 5261SOL     OW27244   2.445   2.060   5.956  0.1998  0.1565  0.3448
 5261SOL    HW127245   2.453   1.966   5.973 -0.0034  0.1944  0.6574
 5261SOL    HW227246   2.524   2.088   6.004  0.7234  0.9926 -1.0177
 5262SOL     OW27247   1.169   2.143  13.476 -0.0728 -0.0579 -0.0988
 5262SOL    HW127248   1.196   2.073  13.535 -1.3034  0.1607  0.7114
 5262SOL    HW227249   1.124   2.093  13.409 -0.3733 -1.0367  0.8398
 5263SOL     OW27250   2.238   4.176   2.620  0.2825 -0.0412  0.3207
 5263SOL    HW127251   2.167   4.153   2.560 -0.8647 -1.6211  2.2990
 5263SOL    HW227252   2.299   4.103   2.619  0.4128  0.0004  3.9454
 5264SOL     OW27253   2.771   0.972   8.449 -0.0471 -0.9508 -0.0504
 5264SOL    HW127254   2.698   0.909   8.453  0.1750 -1.2255 -0.2716
 5264SOL    HW227255   2.840   0.932   8.397  0.2252 -1.9232  1.0329
 5265SOL     OW27256   4.392   1.655   3.206 -0.2975 -0.3146 -0.0971
 5265SOL    HW127257   4.381   1.750   3.201  0.8013  0.0088  3.6569
 5265SOL    HW227258   4.309   1.635   3.248 -1.7977  0.9258 -2.4677
 5266SOL     OW27259   2.776   2.775   9.231 -0.5690 -0.0886  0.3089
 5266SOL    HW127260   2.739   2.775   9.319  0.3584 -0.7117  0.6953
 5266SOL    HW227261   2.729   2.848   9.191 -1.8258 -0.3497  1.3123
 5267SOL     OW27262   2.995   1.539  11.814  0.3513  0.1122 -0.0898
 5267SOL    HW127263   3.079   1.497  11.832 -0.5007 -0.6229  2.0896
 5267SOL    HW227264   3.016   1.582  11.731 -0.7251  0.1431 -0.3445
 5268SOL     OW27265   4.418   0.186   3.283  0.4695 -0.0968 -0.0418
 5268SOL    HW127266   4.378   0.272   3.272  3.0280  1.2576  1.2557
 5268SOL    HW227267   4.478   0.191   3.209 -0.3623  0.5078 -0.6689
 5269SOL     OW27268   3.388   1.397   0.621 -0.8583 -0.2009 -0.3483
 5269SOL    HW127269   3.465   1.341   0.609 -1.0495 -0.7210  0.8598
 5269SOL    HW227270   3.383   1.447   0.539 -1.0292  1.1121  0.4616
 5270SOL     OW27271   1.681   0.766  13.737 -0.6027 -0.3772  0.1009
 5270SOL    HW127272   1.718   0.684  13.769 -1.2085 -0.8037 -0.2827
 5270SOL    HW227273   1.628   0.736  13.663 -1.2964 -2.0098  1.2813
 5271SOL     OW27274   1.082   1.247   8.053 -0.0199  0.1197 -0.1863
 5271SOL    HW127275   1.007   1.306   8.061 -0.3768 -0.8009  3.2741
 5271SOL    HW227276   1.137   1.260   8.130 -0.3767 -3.7500  0.7115
 5272SOL     OW27277   3.321   4.593  13.528 -0.1533  0.1947 -0.5976
 5272SOL    HW127278   3.323   4.688  13.531  0.8862  0.1922 -1.2037
 5272SOL    HW227279   3.414   4.573  13.535  0.1284  2.0209  0.7143
 5273SOL     OW27280   3.466   4.460   6.617 -0.3008  0.1572 -0.3891
 5273SOL    HW127281   3.414   4.537   6.596 -1.4888 -0.2667  0.9988
 5273SOL    HW227282   3.489   4.432   6.529 -0.3051 -0.2337 -0.2663
 5274SOL     OW27283   4.264   1.218   2.222  0.3607  0.4266  0.4862
 5274SOL    HW127284   4.276   1.143   2.280  0.4814 -0.3570 -0.5610
 5274SOL    HW227285   4.353   1.216   2.185  0.5754 -0.5366  1.0435
 5275SOL     OW27286   2.881   0.247   7.847  0.4644 -0.0042 -0.5437
 5275SOL    HW127287   2.868   0.184   7.918 -2.2614  1.5556  0.3482
 5275SOL    HW227288   2.810   0.220   7.788  0.7646  2.9851 -2.3078
 5276SOL     OW27289   3.798   0.790   4.635  0.0358  0.5644 -0.3197
 5276SOL    HW127290   3.811   0.716   4.576  1.1904  1.5809 -1.3390
 5276SOL    HW227291   3.704   0.796   4.655  0.2467 -3.4186  1.8153
 5277SOL     OW27292   3.464   2.576  10.905  0.1656  0.4171  0.2330
 5277SOL    HW127293   3.475   2.671  10.915 -2.6180  0.5603  1.7517
 5277SOL    HW227294   3.516   2.557  10.826  0.0391 -0.0455  0.2603
 5278SOL     OW27295   4.494   1.370  17.268  0.0688 -0.1040  0.1640
 5278SOL    HW127296   4.506   1.423  17.188 -2.8793 -0.6247 -0.6084
 5278SOL    HW227297   4.570   1.313  17.256  0.9620  0.7127  1.9502
 5279SOL     OW27298   2.715   3.714  14.978 -0.4392 -0.1836 -0.1181
 5279SOL    HW127299   2.637   3.658  14.973 -0.8261  0.3147  0.3882
 5279SOL    HW227300   2.672   3.798  14.992 -0.9953 -0.1888 -1.7909
 5280SOL     OW27301   3.965   2.365  11.136 -0.0326 -0.2634  0.4022
 5280SOL    HW127302   4.049   2.375  11.179  1.0840 -0.7686 -1.6587
 5280SOL    HW227303   3.990   2.289  11.084  2.1095  0.9703 -0.3884
 5281SOL     OW27304   3.056   3.527  15.913 -0.4314  0.5779  0.1406
 5281SOL    HW127305   2.982   3.583  15.889 -2.0026 -1.7493 -0.4651
 5281SOL    HW227306   3.089   3.573  15.991 -0.9785 -0.5136  1.0216
 5282SOL     OW27307   2.754   3.576   8.348  0.9530  0.1055  0.2671
 5282SOL    HW127308   2.676   3.568   8.403  0.0217 -1.4763 -1.2924
 5282SOL    HW227309   2.725   3.521   8.276  1.7470  1.7010 -1.2667
 5283SOL     OW27310   2.681   3.619   5.847 -0.0706 -0.0935 -0.1187
 5283SOL    HW127311   2.622   3.563   5.798 -1.7614  2.7829 -1.3415
 5283SOL    HW227312   2.641   3.706   5.841  2.2565  1.0742  1.2601
 5284SOL     OW27313   0.784   3.433   7.653  0.0162 -0.3150  0.2743
 5284SOL    HW127314   0.825   3.496   7.594 -1.7125 -0.7300 -1.3615
 5284SOL    HW227315   0.860   3.410   7.707  0.7374 -0.5092 -0.8195
 5285SOL     OW27316   3.677   4.043  12.034 -0.9145 -0.1502  0.1464
 5285SOL    HW127317   3.675   4.102  12.108  0.2318 -0.9861  0.8428
 5285SOL    HW227318   3.597   4.068  11.988 -0.1123  2.1658  0.0287
 5286SOL     OW27319   2.041   3.212   2.550 -0.3547  0.5680  0.8249
 5286SOL    HW127320   2.033   3.301   2.516  0.7242  0.3711  0.0790
 5286SOL    HW227321   1.954   3.178   2.528  0.7838 -0.8322 -1.3771
 5287SOL     OW27322   0.908   3.915   5.963  0.2048  0.2756  0.0953
 5287SOL    HW127323   0.825   3.961   5.974  0.6136  1.2918 -1.0654
 5287SOL    HW227324   0.885   3.825   5.937  1.0606 -0.7100  2.7488
 5288SOL     OW27325   0.587   4.032   0.613  0.2946  0.4442  0.5703
 5288SOL    HW127326   0.566   4.073   0.529 -1.7398 -0.7438  0.4983
 5288SOL    HW227327   0.681   4.046   0.626  0.0451  1.4107  1.3054
 5289SOL     OW27328   3.272   4.627   9.013 -0.0841  0.6591  0.1286
 5289SOL    HW127329   3.335   4.684   9.056  0.7513 -1.2638  1.4742
 5289SOL    HW227330   3.282   4.546   9.064  2.3393  1.7573  1.4146
 5290SOL     OW27331   4.463   3.562   8.514  0.2092 -0.1574 -0.4579
 5290SOL    HW127332   4.455   3.561   8.419  2.7209  1.6237 -0.6810
 5290SOL    HW227333   4.524   3.635   8.526 -1.0319  0.7360  0.4264
 5291SOL     OW27334   2.859   0.022  11.696 -0.1644 -0.8137  0.2907
 5291SOL    HW127335   2.803   0.087  11.739  2.6723  1.9391 -0.1537
 5291SOL    HW227336   2.795   4.691  11.653 -0.2750 -1.0167  0.7245
 5292SOL     OW27337   2.556   2.049   9.003  0.0121  0.1126  0.4167
 5292SOL    HW127338   2.526   2.112   8.937  0.7586  0.4366  0.3874
 5292SOL    HW227339   2.600   2.106   9.065  1.7529 -0.3433 -0.4088
 5293SOL     OW27340   1.306   4.377   7.330  0.1457  0.8840  0.2341
 5293SOL    HW127341   1.335   4.294   7.293 -2.4701 -0.8680  2.0467
 5293SOL    HW227342   1.294   4.350   7.422 -0.0926 -1.0134 -0.3478
 5294SOL     OW27343   1.292   3.640   7.997 -0.0260  0.6278 -0.1157
 5294SOL    HW127344   1.300   3.679   8.084 -0.4053 -1.5475  0.8960
 5294SOL    HW227345   1.199   3.644   7.975 -0.2909  2.1671  1.3336
 5295SOL     OW27346   0.761   1.013   3.466  0.1433 -0.3118 -0.2808
 5295SOL    HW127347   0.698   0.975   3.405 -0.8341  0.6067  0.1510
 5295SOL    HW227348   0.758   0.963   3.547  2.4566 -0.4431 -0.2900
 5296SOL     OW27349   0.423   1.749  10.161 -0.0690  0.0853 -0.7569
 5296SOL    HW127350   0.504   1.764  10.112  0.9450 -0.6742  0.7189
 5296SOL    HW227351   0.395   1.838  10.182  1.1031  0.1290  0.5765
 5297SOL     OW27352   3.012   2.740   4.235 -0.3722 -0.0922  0.1318
 5297SOL    HW127353   2.940   2.781   4.283  0.6933  0.8358  0.9419
 5297SOL    HW227354   3.018   2.799   4.159 -0.4350 -0.0651  0.1479
 5298SOL     OW27355   0.823   4.006   8.787  0.1958 -0.0613 -0.1058
 5298SOL    HW127356   0.792   4.092   8.760  0.9974  0.4736  0.6987
 5298SOL    HW227357   0.770   3.993   8.866 -0.1279  1.2518 -0.1089
 5299SOL     OW27358   2.264   0.709  14.094  0.0155 -0.2267  0.1368
 5299SOL    HW127359   2.335   0.754  14.048  1.1172 -1.8500  0.2742
 5299SOL    HW227360   2.240   0.633  14.041 -0.3846 -0.0935  0.1255
 5300SOL     OW27361   4.330   3.668   1.644  0.3175  0.5314  0.1389
 5300SOL    HW127362   4.381   3.694   1.720 -2.3467  1.0148  1.7683
 5300SOL    HW227363   4.244   3.678   1.685  0.3874  0.3433  0.3285
 5301SOL     OW27364   3.903   0.484   5.537 -0.7181 -0.2286  0.6797
 5301SOL    HW127365   3.874   0.396   5.514  1.3637 -0.1189 -2.3483
 5301SOL    HW227366   3.997   0.464   5.545 -0.3707  0.6315 -1.2697
 5302SOL     OW27367   3.411   3.113  12.298 -0.5464  0.9905  0.3239
 5302SOL    HW127368   3.378   3.171  12.366 -2.1821 -0.0373  0.4207
 5302SOL    HW227369   3.327   3.067  12.290  0.4034 -0.7553  0.4176
 5303SOL     OW27370   0.914   0.719   2.551  0.5617 -0.4237  0.1780
 5303SOL    HW127371   0.939   0.796   2.499 -0.8179  0.8190  1.3422
 5303SOL    HW227372   0.824   0.746   2.570 -0.0573 -2.0819 -0.3906
 5304SOL     OW27373   2.946   1.136   7.859 -0.1491 -0.5790 -0.1612
 5304SOL    HW127374   2.877   1.185   7.814 -0.0592  0.6169  0.9944
 5304SOL    HW227375   3.028   1.183   7.842  0.5802 -0.9669  2.2348
 5305SOL     OW27376   3.210   3.966   3.328 -0.1065  0.6391  0.0969
 5305SOL    HW127377   3.219   4.057   3.300  2.8422 -0.1095 -1.3497
 5305SOL    HW227378   3.228   3.922   3.245 -2.4860 -0.1588  0.0166
 5306SOL     OW27379   2.606   4.051   5.535  0.1053 -0.2210 -0.4239
 5306SOL    HW127380   2.597   4.091   5.448 -1.3704 -0.2067 -0.2618
 5306SOL    HW227381   2.571   4.127   5.581 -1.2136 -1.7657  1.1274
 5307SOL     OW27382   1.902   0.474   6.098  0.4828 -0.1732 -0.0432
 5307SOL    HW127383   1.913   0.559   6.056 -0.9370  0.2844  0.5176
 5307SOL    HW227384   1.975   0.464   6.159  1.3653 -2.8259 -1.5160
 5308SOL     OW27385   4.609   1.823  15.378  0.4883 -0.1319  0.3882
 5308SOL    HW127386   4.520   1.826  15.344  0.1164  2.2357  1.5464
 5308SOL    HW227387   4.642   1.899  15.330 -0.0975  0.0075  0.2109
 5309SOL     OW27388   4.323   3.994  12.939 -0.1573 -0.2121 -0.1429
 5309SOL    HW127389   4.296   4.079  12.905  0.2449  0.4186  1.0851
 5309SOL    HW227390   4.376   3.968  12.864  1.7629  0.8466  0.8471
 5310SOL     OW27391   2.764   3.959   0.265  0.0128 -0.3374  0.3478
 5310SOL    HW127392   2.710   3.983   0.190 -1.3083  0.7402  1.6494
 5310SOL    HW227393   2.701   3.913   0.320 -1.2243  3.2785  1.9097
 5311SOL     OW27394   1.841   0.903   2.966  0.1569  0.0727  0.3963
 5311SOL    HW127395   1.812   0.814   2.945 -1.0089  0.6093 -0.2719
 5311SOL    HW227396   1.876   0.930   2.881 -1.3370 -1.1954 -0.6274
 5312SOL     OW27397   2.521   3.554   1.182 -0.3708 -0.1578 -0.0600
 5312SOL    HW127398   2.447   3.607   1.209 -0.0178  0.5810 -0.5460
 5312SOL    HW227399   2.588   3.622   1.174 -2.5268  2.0312  0.5555
 5313SOL     OW27400   1.749   3.558   3.402  0.0097 -0.2767 -0.9742
 5313SOL    HW127401   1.832   3.517   3.429 -1.2428 -0.1117  3.0282
 5313SOL    HW227402   1.781   3.648   3.405  1.3912 -0.7879  0.2836
 5314SOL     OW27403   0.503   4.545   2.897  0.4503  0.3663 -0.1589
 5314SOL    HW127404   0.479   4.630   2.861  1.9349  0.4352 -0.9860
 5314SOL    HW227405   0.422   4.496   2.884  0.6945 -0.2207  0.4864
 5315SOL     OW27406   3.658   0.880   7.510  0.1454  0.4031 -0.3937
 5315SOL    HW127407   3.589   0.816   7.490 -1.1648  1.6277  0.1903
 5315SOL    HW227408   3.722   0.864   7.441  2.4388 -0.0704  1.8490
 5316SOL     OW27409   1.591   0.962   4.195 -0.7238  0.1574  0.6310
 5316SOL    HW127410   1.627   0.873   4.196  0.8766  0.7620 -0.8819
 5316SOL    HW227411   1.650   1.003   4.258 -0.1562  0.4438 -0.0892
 5317SOL     OW27412   1.259   0.597   0.575 -0.3714  0.0152 -0.0114
 5317SOL    HW127413   1.262   0.514   0.621 -0.0983  0.0456  0.0268
 5317SOL    HW227414   1.320   0.649   0.628  1.7304 -1.4074 -1.0202
 5318SOL     OW27415   0.389   4.499  11.320 -0.2318  0.4750  0.4666
 5318SOL    HW127416   0.335   4.577  11.335 -3.0072 -1.3156 -0.1939
 5318SOL    HW227417   0.315   4.440  11.305  0.8742 -0.5739 -0.8771
 5319SOL     OW27418   2.969   2.390   4.804 -0.1251  0.0603 -0.1577
 5319SOL    HW127419   2.931   2.310   4.769 -1.3536  0.2970  0.6588
 5319SOL    HW227420   3.035   2.409   4.737  0.8088 -0.7859  0.5239
 5320SOL     OW27421   0.059   2.582   2.566  0.5817 -0.1984  0.2378
 5320SOL    HW127422   0.132   2.630   2.603 -0.0277  1.8854 -1.2602
 5320SOL    HW227423   0.006   2.657   2.539 -1.6701 -1.5754  0.7694
 5321SOL     OW27424   1.186   3.036   8.369  0.0995  0.3234  0.1614
 5321SOL    HW127425   1.271   3.051   8.327 -0.1526  3.4138  0.7801
 5321SOL    HW227426   1.177   3.115   8.421 -0.8984  1.2441 -1.3859
 5322SOL     OW27427   4.291   1.562   3.868  0.2733  0.1604  0.1553
 5322SOL    HW127428   4.242   1.616   3.930  1.2876  0.7644  0.4190
 5322SOL    HW227429   4.279   1.479   3.916 -0.8585 -0.2831 -0.9003
 5323SOL     OW27430   4.233   1.123   0.250  0.0783 -0.5202  0.1604
 5323SOL    HW127431   4.187   1.185   0.307 -0.9410 -0.7069 -0.4620
 5323SOL    HW227432   4.318   1.124   0.295 -0.6127 -0.2496  1.4478
 5324SOL     OW27433   0.929   4.117   6.894 -0.0740  0.3631  0.1129
 5324SOL    HW127434   0.921   4.111   6.989  2.5758  0.1485  0.3388
 5324SOL    HW227435   0.978   4.039   6.868 -0.7526  0.2274 -0.7622
 5325SOL     OW27436   1.125   0.732   8.560  0.2011 -0.5021 -0.4109
 5325SOL    HW127437   1.218   0.755   8.564 -0.2428  0.8465  2.0316
 5325SOL    HW227438   1.109   0.758   8.470  1.3945  0.1721 -0.4258
 5326SOL     OW27439   1.975   2.892   5.453 -0.0143  0.2871 -0.2529
 5326SOL    HW127440   1.994   2.982   5.428  0.9098  0.3806  0.7921
 5326SOL    HW227441   1.903   2.877   5.391 -0.3744  0.9862 -0.0014
 5327SOL     OW27442   1.504   3.215  17.666 -0.1072  0.0080  0.5517
 5327SOL    HW127443   1.511   3.310  17.656  1.0751 -0.3483 -1.9154
 5327SOL    HW227444   1.460   3.219   0.049 -0.8141  0.2403  0.1723
 5328SOL     OW27445   1.588   3.350   4.135 -0.3549  0.1745  0.4866
 5328SOL    HW127446   1.596   3.256   4.151 -0.8694 -0.1350 -1.1393
 5328SOL    HW227447   1.530   3.334   4.061  1.5986 -2.4842 -0.4732
 5329SOL     OW27448   0.229   3.404   8.287  0.3985 -0.4093 -0.2960
 5329SOL    HW127449   0.149   3.457   8.284  1.2166  0.8275 -0.2237
 5329SOL    HW227450   0.196   3.348   8.357 -1.2917 -0.4188 -1.1101
 5330SOL     OW27451   1.113   4.467  12.672  0.3105 -0.2667 -0.5615
 5330SOL    HW127452   1.171   4.396  12.645 -0.3397 -0.1525 -2.2410
 5330SOL    HW227453   1.186   4.529  12.685  1.2558 -1.2501 -1.1874
 5331SOL     OW27454   3.963   0.359   9.819 -0.0151 -0.2309 -0.4490
 5331SOL    HW127455   3.913   0.279   9.836 -1.4801  0.5446 -1.0937
 5331SOL    HW227456   3.929   0.369   9.730 -0.6410  2.9874  0.1646
 5332SOL     OW27457   2.602   0.343   1.167  0.1338  0.1898 -0.8689
 5332SOL    HW127458   2.680   0.319   1.217 -1.7177 -0.7709  1.6174
 5332SOL    HW227459   2.610   0.279   1.097  2.5076 -0.2296 -0.2165
 5333SOL     OW27460   1.441   0.792   4.020  0.3522  0.3302 -0.1136
 5333SOL    HW127461   1.364   0.827   3.976  0.6354 -1.9647 -2.4635
 5333SOL    HW227462   1.463   0.870   4.071  1.0682 -1.0562  1.6554
 5334SOL     OW27463   1.238   3.021  10.592 -0.3215 -0.7932 -0.0681
 5334SOL    HW127464   1.328   3.012  10.622 -0.8871 -1.5286  1.4120
 5334SOL    HW227465   1.196   3.079  10.656  2.4334  1.0328  0.0401
 5335SOL     OW27466   0.331   0.343   5.007  1.0325 -0.0008  0.3106
 5335SOL    HW127467   0.242   0.355   4.973  0.6983 -1.7858  0.5564
 5335SOL    HW227468   0.378   0.411   4.960 -1.7556  2.4329  1.0187
 5336SOL     OW27469   4.568   2.899  11.388  0.0138  0.0379  0.3218
 5336SOL    HW127470   4.623   2.859  11.321  0.2142 -0.9499  1.0749
 5336SOL    HW227471   4.629   2.882  11.460 -0.5219  0.0398  0.7757
 5337SOL     OW27472   1.837   3.685  12.781 -0.3630  0.0182  0.3362
 5337SOL    HW127473   1.784   3.744  12.835  1.7472  2.0431  0.2123
 5337SOL    HW227474   1.773   3.617  12.762 -0.0468  0.1487 -1.1746
 5338SOL     OW27475   1.065   1.461   6.448  0.2088  0.2936 -0.3118
 5338SOL    HW127476   1.145   1.499   6.486  1.6402 -5.4220  2.3466
 5338SOL    HW227477   1.083   1.453   6.354 -1.5167 -0.8737 -0.5400
 5339SOL     OW27478   2.023   0.067   9.045 -0.5720 -0.1070 -0.2857
 5339SOL    HW127479   2.068   4.721   9.000 -0.9059 -0.3121 -0.2958
 5339SOL    HW227480   1.930   0.045   9.036 -0.8352  0.0868  1.9202
 5340SOL     OW27481   3.061   1.891  17.558  0.3762  0.0068 -0.6654
 5340SOL    HW127482   3.026   1.888  17.647  0.4479  0.7259 -0.6111
 5340SOL    HW227483   3.150   1.921  17.576  0.6092  0.5055 -2.6614
 5341SOL     OW27484   3.313   2.853   4.800 -0.0007 -0.1510 -0.3069
 5341SOL    HW127485   3.313   2.757   4.799 -2.3697 -0.1690  3.1756
 5341SOL    HW227486   3.399   2.866   4.761 -0.4776  1.0866 -0.9600
 5342SOL     OW27487   2.578   4.018   8.526 -0.0942 -0.0625  0.4536
 5342SOL    HW127488   2.597   3.994   8.436 -2.1352 -1.6964  0.4392
 5342SOL    HW227489   2.645   4.081   8.553 -3.3526  3.6898 -0.1999
 5343SOL     OW27490   0.496   0.819   4.662 -0.0389 -0.8555 -0.1157
 5343SOL    HW127491   0.518   0.901   4.619  0.9856  0.1862  2.3852
 5343SOL    HW227492   0.579   0.785   4.697 -0.4576 -0.1669  1.5625
 5344SOL     OW27493   3.063   0.040   8.794  0.2514  0.5703  0.3074
 5344SOL    HW127494   3.064   0.042   8.890  2.9409 -3.1035  0.3593
 5344SOL    HW227495   3.108   0.121   8.767  1.3397  0.3271  1.4065
 5345SOL     OW27496   2.461   2.605   9.255 -0.2386 -0.0089  0.0687
 5345SOL    HW127497   2.416   2.689   9.267  1.4016  0.8142  0.4163
 5345SOL    HW227498   2.447   2.594   9.161 -0.5316  2.5757 -0.1815
 5346SOL     OW27499   3.414   2.765  12.620  0.3954  0.4963 -0.0336
 5346SOL    HW127500   3.320   2.777  12.605  0.8262  1.0238 -2.3399
 5346SOL    HW227501   3.442   2.796  12.534  0.6706 -0.1646 -0.1784
 5347SOL     OW27502   4.525   1.857  16.720  0.4170  0.1367  0.4948
 5347SOL    HW127503   4.446   1.882  16.768  0.0669  0.4202 -0.2320
 5347SOL    HW227504   4.533   1.774  16.767  1.0497 -1.8030 -3.0493
 5348SOL     OW27505   4.385   3.540  12.792  0.4022  0.3018  0.1096
 5348SOL    HW127506   4.298   3.570  12.816  0.9563  0.8524  1.4745
 5348SOL    HW227507   4.367   3.486  12.715  0.3918  2.0984 -1.1429
 5349SOL     OW27508   1.139   0.419   8.328  0.1513  0.6704 -0.1839
 5349SOL    HW127509   1.209   0.472   8.366  1.3393  0.5550 -2.1841
 5349SOL    HW227510   1.173   0.418   8.239  1.1379  1.8160  0.1792
 5350SOL     OW27511   2.148   4.074   4.928  0.7095 -0.2041  0.3151
 5350SOL    HW127512   2.219   4.012   4.943  1.5314  0.3951 -1.1110
 5350SOL    HW227513   2.135   4.083   4.833 -1.9106 -1.8583  0.5316
 5351SOL     OW27514   4.256   1.769   7.343  0.0686 -0.5553  0.3091
 5351SOL    HW127515   4.303   1.780   7.261  0.0064  1.5028  0.5436
 5351SOL    HW227516   4.255   1.861   7.369  2.4698 -0.5279  0.2951
 5352SOL     OW27517   2.582   3.231   2.254  0.0446 -0.3665 -0.0530
 5352SOL    HW127518   2.658   3.288   2.247  0.1544 -0.4530  0.4260
 5352SOL    HW227519   2.610   3.158   2.199  0.3432 -2.2632  2.6043
 5353SOL     OW27520   1.899   2.047   3.878 -0.3654  0.2674  0.2039
 5353SOL    HW127521   1.829   2.000   3.831 -0.0918 -1.1167  1.1758
 5353SOL    HW227522   1.860   2.128   3.912 -0.9666 -0.3768  1.0791
 5354SOL     OW27523   0.069   0.856  13.842 -0.1629 -0.3746 -0.2119
 5354SOL    HW127524   0.098   0.945  13.823 -0.3974 -0.5967 -1.6103
 5354SOL    HW227525   0.027   0.856  13.928  0.3273 -0.6964  0.0279
 5355SOL     OW27526   3.614   1.368   9.372  0.6479  0.0289 -0.5083
 5355SOL    HW127527   3.596   1.445   9.426 -0.1218 -1.6465  1.6706
 5355SOL    HW227528   3.525   1.341   9.348  0.4006  0.1060  0.3074
 5356SOL     OW27529   2.191   4.643   2.040 -0.2169 -0.1637  0.1080
 5356SOL    HW127530   2.189   4.687   2.125  0.3652 -0.8323  0.4686
 5356SOL    HW227531   2.253   4.702   1.997  0.1967 -0.0415  0.8736
 5357SOL     OW27532   3.811   0.595   5.814 -0.5150  0.0806  0.2557
 5357SOL    HW127533   3.885   0.628   5.865 -1.1390  0.8582  0.6623
 5357SOL    HW227534   3.865   0.579   5.737 -1.2229 -4.3133  0.6713
 5358SOL     OW27535   0.568   3.354   7.456  0.4603 -0.6794  0.4555
 5358SOL    HW127536   0.646   3.358   7.399  1.3854 -0.7557  1.7223
 5358SOL    HW227537   0.609   3.387   7.536 -0.3794 -0.1659  0.6656
 5359SOL     OW27538   4.209   1.127   9.214 -0.2608 -0.0035 -0.2018
 5359SOL    HW127539   4.145   1.055   9.214  1.2239 -1.2981 -2.1691
 5359SOL    HW227540   4.278   1.091   9.269 -2.2794  0.4066  2.6551
 5360SOL     OW27541   1.532   0.757   3.552 -0.0859 -0.2569  0.2403
 5360SOL    HW127542   1.565   0.760   3.642 -0.0402  2.1366  0.1633
 5360SOL    HW227543   1.613   0.732   3.507 -0.3207 -1.0250  0.2521
 5361SOL     OW27544   0.394   2.849  16.825 -0.4476  0.0448  0.1932
 5361SOL    HW127545   0.326   2.833  16.759  1.0854 -0.2525 -1.2977
 5361SOL    HW227546   0.404   2.768  16.875 -0.8984  0.4580  0.9587
 5362SOL     OW27547   3.433   4.235   2.246 -0.4094 -0.1878 -0.1196
 5362SOL    HW127548   3.452   4.187   2.165  3.5695  2.7355 -0.8680
 5362SOL    HW227549   3.462   4.167   2.307  0.3978 -0.8401 -1.2184
 5363SOL     OW27550   1.732   1.824   4.277 -0.2204 -0.4441  0.0481
 5363SOL    HW127551   1.666   1.834   4.346 -1.0179 -2.2814 -0.4501
 5363SOL    HW227552   1.777   1.909   4.285 -0.1234 -0.8130  3.5272
 5364SOL     OW27553   3.081   3.463   6.697 -0.1569  0.0078  0.4001
 5364SOL    HW127554   3.133   3.388   6.724  0.1733 -0.0978 -0.5328
 5364SOL    HW227555   3.139   3.522   6.648 -1.6010 -0.2503 -1.5883
 5365SOL     OW27556   3.643   3.664   4.216 -0.4380  0.3367  0.1281
 5365SOL    HW127557   3.650   3.745   4.166  0.4691  1.2609  1.7264
 5365SOL    HW227558   3.725   3.624   4.189 -0.2033  2.2839 -2.0626
 5366SOL     OW27559   3.574   4.266   0.309 -0.0174  0.0619  0.1548
 5366SOL    HW127560   3.660   4.285   0.346 -0.7810  1.1184  1.3485
 5366SOL    HW227561   3.524   4.346   0.327 -1.0249  0.1524 -2.8863
 5367SOL     OW27562   0.197   2.100   5.205  0.3534  0.3644  0.1328
 5367SOL    HW127563   0.277   2.050   5.224  2.0418  2.0512 -2.5394
 5367SOL    HW227564   0.152   2.030   5.157 -0.4585  1.0986 -0.1711
 5368SOL     OW27565   3.907   0.749   0.674 -0.4477  0.2658  0.4052
 5368SOL    HW127566   3.998   0.761   0.647 -0.7537 -0.5154 -0.9734
 5368SOL    HW227567   3.879   0.840   0.679 -0.4077  0.2029  1.7742
 5369SOL     OW27568   1.586   1.564   3.540 -0.0067  0.1603  0.6901
 5369SOL    HW127569   1.542   1.596   3.619  0.0025  0.0999  0.7198
 5369SOL    HW227570   1.514   1.568   3.477  1.5791  2.6955 -0.9686
 5370SOL     OW27571   1.477   0.909   2.528 -0.4664  0.4364 -0.2247
 5370SOL    HW127572   1.445   0.993   2.495 -0.6913  0.8476  1.0080
 5370SOL    HW227573   1.412   0.879   2.592 -0.3220 -0.2399 -0.4009
 5371SOL     OW27574   0.314   3.398   3.403  0.2089 -0.3123 -0.2172
 5371SOL    HW127575   0.366   3.325   3.370  2.9383  1.1840  0.7697
 5371SOL    HW227576   0.354   3.474   3.359  1.1467  0.7915  2.5112
 5372SOL     OW27577   3.427   2.480  12.296 -0.1393  0.7290 -0.3070
 5372SOL    HW127578   3.505   2.425  12.281  1.2127  2.2488  1.1471
 5372SOL    HW227579   3.468   2.565  12.315  1.6087  0.1034 -1.2464
 5373SOL     OW27580   0.585   0.378   5.845 -0.2606 -0.2685  0.0769
 5373SOL    HW127581   0.649   0.323   5.890 -3.5268 -2.8585  1.5083
 5373SOL    HW227582   0.536   0.321   5.786  2.7947 -2.8399 -0.0111
 5374SOL     OW27583   3.613   1.364   3.190 -0.2877 -0.5326 -0.5069
 5374SOL    HW127584   3.551   1.392   3.258 -1.8978 -1.4381 -1.6022
 5374SOL    HW227585   3.692   1.392   3.235 -0.9984  0.6741  0.0060
 5375SOL     OW27586   2.022   4.136   2.833  0.1744 -0.4058 -0.4809
 5375SOL    HW127587   2.063   4.187   2.764  1.2985  1.2117  1.4134
 5375SOL    HW227588   1.997   4.059   2.781  0.0051 -0.1703 -0.7466
 5376SOL     OW27589   3.114   0.613   1.833  0.4043  0.1283 -0.2755
 5376SOL    HW127590   3.046   0.569   1.884  0.0264  2.2333  1.0333
 5376SOL    HW227591   3.179   0.618   1.902  1.2386  1.0420 -1.1202
 5377SOL     OW27592   3.169   1.606   8.863 -0.4049  0.2268  0.5821
 5377SOL    HW127593   3.124   1.620   8.779  1.9338 -1.5906 -0.9892
 5377SOL    HW227594   3.093   1.558   8.897 -1.1403  0.1773 -1.1189
 5378SOL     OW27595   1.238   2.560   4.067 -0.0971 -0.7382 -0.0626
 5378SOL    HW127596   1.278   2.473   4.061  2.3450  0.2597  2.2611
 5378SOL    HW227597   1.153   2.537   4.104 -0.9191 -0.9013 -2.0087
 5379SOL     OW27598   0.174   4.278   9.614 -0.0487  0.8590 -0.6482
 5379SOL    HW127599   0.082   4.292   9.591 -0.6193 -1.8307 -0.0166
 5379SOL    HW227600   0.171   4.244   9.704 -1.5121  0.6510 -0.7714
 5380SOL     OW27601   2.704   2.403   5.655 -0.1664 -0.0981 -0.1461
 5380SOL    HW127602   2.741   2.478   5.701 -0.9388 -1.1556  2.2124
 5380SOL    HW227603   2.756   2.405   5.574  2.5664  0.3575  1.6097
 5381SOL     OW27604   1.295   3.322   1.684  0.0233  0.5901  0.1765
 5381SOL    HW127605   1.263   3.267   1.612  0.4689 -0.2569  0.6217
 5381SOL    HW227606   1.343   3.389   1.635  0.5250  0.6277  0.7244
 5382SOL     OW27607   1.411   2.593  12.051 -0.0212  1.0498  0.1730
 5382SOL    HW127608   1.370   2.542  11.981 -0.0149 -1.0546  1.7032
 5382SOL    HW227609   1.502   2.565  12.040  1.0107  3.7121  2.1692
 5383SOL     OW27610   3.733   3.966   4.676  0.3083  0.2113  0.3738
 5383SOL    HW127611   3.806   3.904   4.679  0.1167  0.2020  4.1430
 5383SOL    HW227612   3.665   3.905   4.646  1.4368 -1.6752  1.6189
 5384SOL     OW27613   2.011   1.866   8.721  0.5771  0.4130  0.5030
 5384SOL    HW127614   1.927   1.832   8.688 -0.3926  0.4214  2.9752
 5384SOL    HW227615   2.001   1.832   8.810  2.5127  1.6675  1.1848
 5385SOL     OW27616   1.901   4.631   4.075  0.2721 -0.7087 -0.3159
 5385SOL    HW127617   1.870   4.541   4.084 -1.4748 -0.3886 -3.0961
 5385SOL    HW227618   1.818   4.678   4.080 -0.2287 -1.5849 -0.4469
 5386SOL     OW27619   1.522   0.722   5.046  0.4184 -0.3250  0.1537
 5386SOL    HW127620   1.500   0.813   5.028  0.4278 -0.1611  0.9439
 5386SOL    HW227621   1.503   0.732   5.139 -0.2767 -1.8975  0.1762
 5387SOL     OW27622   2.239   2.714  15.416 -0.1504 -0.2047 -0.1204
 5387SOL    HW127623   2.219   2.770  15.341 -0.3087  0.8290  0.6931
 5387SOL    HW227624   2.176   2.643  15.401  1.3571 -1.6526  0.4786
 5388SOL     OW27625   1.083   4.220   3.881  0.0522  0.4257  0.0967
 5388SOL    HW127626   1.025   4.144   3.880  3.8671 -2.5312  1.3414
 5388SOL    HW227627   1.064   4.264   3.798 -2.2549  0.7334  0.7761
 5389SOL     OW27628   0.951   3.164   7.526  0.0974  0.1559 -0.1149
 5389SOL    HW127629   0.948   3.162   7.430  1.4816 -0.5576 -0.1444
 5389SOL    HW227630   1.029   3.113   7.547  1.6471  2.2992 -0.6959
 5390SOL     OW27631   4.714   1.839   5.383 -0.3679  0.2551  0.3435
 5390SOL    HW127632   0.002   1.849   5.477  1.7496  1.7960 -0.1301
 5390SOL    HW227633   4.623   1.809   5.378 -0.3519  0.3790 -0.8371
 5391SOL     OW27634   1.871   2.927   9.067 -0.3895  0.5879 -0.2088
 5391SOL    HW127635   1.782   2.892   9.076 -2.2479  5.5210  0.7669
 5391SOL    HW227636   1.859   3.018   9.095  3.0264  1.8262 -2.8186
 5392SOL     OW27637   4.056   3.491   3.011  0.6485  0.1470  0.4390
 5392SOL    HW127638   3.963   3.511   3.016  0.8219  1.3308 -1.3494
 5392SOL    HW227639   4.080   3.571   3.058  2.3094 -1.0430  1.6480
 5393SOL     OW27640   1.744   3.514   3.852 -0.2031 -0.4455  0.5612
 5393SOL    HW127641   1.778   3.432   3.889  1.3372 -0.5587 -1.0911
 5393SOL    HW227642   1.690   3.540   3.927 -0.6945  1.8454 -0.6115
 5394SOL     OW27643   3.334   3.048  10.195 -0.8703  0.0857 -0.5823
 5394SOL    HW127644   3.350   2.976  10.255 -0.6008 -0.1705 -0.9575
 5394SOL    HW227645   3.340   3.126  10.250  0.3607  1.5571 -2.7708
 5395SOL     OW27646   1.813   1.113   5.588  0.3613  0.0054 -0.4793
 5395SOL    HW127647   1.828   1.196   5.542  0.2772  0.6529  0.6595
 5395SOL    HW227648   1.756   1.142   5.659 -0.2849  0.2330 -1.0940
 5396SOL     OW27649   0.055   4.288   2.594 -0.1750 -0.3630 -0.4793
 5396SOL    HW127650   0.041   4.352   2.663 -0.7543 -0.7730 -0.2220
 5396SOL    HW227651   0.061   4.199   2.628  1.1752  0.7438  2.2257
 5397SOL     OW27652   2.384   1.568   3.601 -0.4801  0.3375 -0.4160
 5397SOL    HW127653   2.323   1.569   3.527 -1.5367  0.2752  0.4437
 5397SOL    HW227654   2.441   1.645   3.594 -2.2277  1.5692 -1.2758
 5398SOL     OW27655   1.424   1.987  17.426 -0.4137  0.2968  0.4172
 5398SOL    HW127656   1.336   1.998  17.388  0.1823 -0.9417 -1.3154
 5398SOL    HW227657   1.397   1.954  17.512  0.7374 -0.9407  0.3025
 5399SOL     OW27658   3.321   0.994   5.588 -0.0619  0.0357  0.4166
 5399SOL    HW127659   3.407   1.009   5.550  0.0992 -1.2137  0.2654
 5399SOL    HW227660   3.265   1.023   5.515 -0.6423 -1.0118  0.4423
 5400SOL     OW27661   3.169   2.615   8.558  0.2447  0.6275 -0.0339
 5400SOL    HW127662   3.228   2.548   8.523  0.0602 -1.5037  3.6682
 5400SOL    HW227663   3.111   2.617   8.482 -0.2424 -0.6439  0.2891
 5401SOL     OW27664   0.191   4.171   4.312 -0.4374 -0.3175 -0.4399
 5401SOL    HW127665   0.119   4.213   4.265 -0.7041  0.3960  0.6070
 5401SOL    HW227666   0.182   4.081   4.282  0.8206  0.0108 -1.8392
 5402SOL     OW27667   2.481   2.791   4.967 -0.0114 -0.2182 -0.3493
 5402SOL    HW127668   2.429   2.788   5.048  1.0790 -0.2015  0.3587
 5402SOL    HW227669   2.571   2.780   4.998 -0.5180  0.7010  1.4630
 5403SOL     OW27670   2.510   4.596  13.713  0.7191  0.1191  0.0957
 5403SOL    HW127671   2.434   4.593  13.655  0.3115 -1.0116  0.6994
 5403SOL    HW227672   2.542   4.682  13.685  1.0368 -0.2618 -0.7420
 5404SOL     OW27673   3.527   2.301   9.217 -0.0750  1.0218  0.1909
 5404SOL    HW127674   3.616   2.300   9.184  0.1321 -1.5439  0.8604
 5404SOL    HW227675   3.492   2.381   9.177  1.7980  1.6734 -0.1141
 5405SOL     OW27676   4.209   0.375   3.843  0.4610  0.3713  0.0909
 5405SOL    HW127677   4.250   0.378   3.929  0.9343 -0.8054 -0.0934
 5405SOL    HW227678   4.286   0.372   3.786 -0.2839 -1.0791 -0.8420
 5406SOL     OW27679   1.694   3.016   0.037  0.0758 -0.5697  0.0671
 5406SOL    HW127680   1.698   3.029   0.132 -0.0597  1.3450 -0.1756
 5406SOL    HW227681   1.615   3.058   0.002 -0.2250 -1.4915 -0.3724
 5407SOL     OW27682   0.668   2.694   2.579  0.4711 -1.1018 -0.3446
 5407SOL    HW127683   0.726   2.761   2.615  0.5783 -0.1159 -2.3115
 5407SOL    HW227684   0.584   2.735   2.600  1.0955  0.4731 -0.9617
 5408SOL     OW27685   4.424   1.869  16.434  0.4554 -0.3418 -0.2863
 5408SOL    HW127686   4.474   1.824  16.502  1.4872 -1.1258 -1.5583
 5408SOL    HW227687   4.344   1.815  16.426  1.2931 -1.6699  0.2287
 5409SOL     OW27688   2.048   4.282   5.362 -0.0582  0.0035 -0.0565
 5409SOL    HW127689   2.028   4.306   5.452 -0.6888 -0.5699 -0.0455
 5409SOL    HW227690   2.055   4.367   5.319  3.2956 -0.6701 -0.8497
 5410SOL     OW27691   3.978   2.676   4.420 -0.0485  0.1425  0.4076
 5410SOL    HW127692   3.994   2.590   4.379 -1.0280 -0.9342  2.2793
 5410SOL    HW227693   4.061   2.702   4.461  0.4937 -0.8941 -0.0198
 5411SOL     OW27694   1.798   1.857   9.309 -0.2847 -0.2176 -0.2471
 5411SOL    HW127695   1.783   1.951   9.322 -0.4040  0.1240 -2.9298
 5411SOL    HW227696   1.850   1.837   9.387 -1.0388  0.2650  0.3824
 5412SOL     OW27697   0.782   1.543   1.473 -0.1557 -0.5768  0.4211
 5412SOL    HW127698   0.873   1.570   1.463 -0.6451 -0.0665 -2.3903
 5412SOL    HW227699   0.796   1.448   1.468  2.5898 -0.1830  0.9434
 5413SOL     OW27700   2.781   2.257   6.876 -0.3646 -0.0145 -0.4713
 5413SOL    HW127701   2.810   2.348   6.882 -0.4250 -0.2571  3.2300
 5413SOL    HW227702   2.723   2.266   6.800  3.0605  4.7413 -2.5416
 5414SOL     OW27703   2.764   3.547   3.521  0.0900  0.1649  0.4348
 5414SOL    HW127704   2.697   3.481   3.506  0.2829  0.0482  0.0859
 5414SOL    HW227705   2.841   3.492   3.507 -1.8981 -1.7910 -2.7906
 5415SOL     OW27706   3.909   0.462   0.651 -0.5972  0.4896 -0.3799
 5415SOL    HW127707   3.829   0.424   0.687  0.8198  2.4892  4.8211
 5415SOL    HW227708   3.906   0.555   0.674 -1.7012 -0.2127  2.2949
 5416SOL     OW27709   4.614   3.038   6.604 -0.0351  0.3495 -0.1478
 5416SOL    HW127710   4.607   3.055   6.510 -0.4616  1.8895  0.1535
 5416SOL    HW227711   4.703   3.069   6.620 -0.0200 -0.3494  1.1106
 5417SOL     OW27712   2.046   1.379   1.454 -0.5905  0.1487 -0.6376
 5417SOL    HW127713   2.029   1.437   1.380  0.1315  1.3751  0.1636
 5417SOL    HW227714   2.139   1.364   1.438 -0.1938  1.8628  0.0663
 5418SOL     OW27715   1.012   1.271   2.732 -0.2787  0.0164  0.4680
 5418SOL    HW127716   0.930   1.310   2.763  0.5128  0.6360  1.7907
 5418SOL    HW227717   1.068   1.346   2.715 -0.3690 -0.9149 -3.8703
 5419SOL     OW27718   4.256   4.352  11.540 -0.0619  0.5971 -0.9172
 5419SOL    HW127719   4.200   4.425  11.513  0.4906  0.2999 -2.9140
 5419SOL    HW227720   4.340   4.386  11.572  0.1672 -0.0657 -0.8127
 5420SOL     OW27721   3.154   1.803  13.125  0.1605  0.1889  0.3112
 5420SOL    HW127722   3.179   1.729  13.181 -1.3577 -1.2114 -0.8817
 5420SOL    HW227723   3.197   1.876  13.169  1.8365  0.1521 -1.2716
 5421SOL     OW27724   2.362   4.640  14.004 -0.9296  0.2250 -0.4628
 5421SOL    HW127725   2.421   4.626  14.079  0.1750  1.3185 -1.1280
 5421SOL    HW227726   2.418   4.603  13.935 -0.3483  1.4515 -0.6382
 5422SOL     OW27727   2.971   4.587   4.045 -0.2298  0.1303 -0.7971
 5422SOL    HW127728   2.978   4.563   3.953  2.1159  2.5290 -1.2416
 5422SOL    HW227729   3.051   4.550   4.082 -0.8321  1.3839  1.7915
 5423SOL     OW27730   2.207   3.848  14.432 -0.1847  0.7386 -0.0636
 5423SOL    HW127731   2.217   3.854  14.337 -0.1386 -0.3659 -0.1293
 5423SOL    HW227732   2.294   3.873  14.463 -1.0308 -0.4473  3.2773
 5424SOL     OW27733   2.932   3.300   6.062  0.4332 -0.0238 -0.0888
 5424SOL    HW127734   3.009   3.305   6.119  1.0600 -0.6012 -0.8744
 5424SOL    HW227735   2.914   3.394   6.063  0.5369  0.0163 -1.2168
 5425SOL     OW27736   2.104   0.698  13.443  0.1493  0.5760  0.2544
 5425SOL    HW127737   2.177   0.757  13.427  0.9710 -0.2237  1.0672
 5425SOL    HW227738   2.135   0.636  13.509  0.3171  0.0971 -0.2871
 5426SOL     OW27739   3.900   2.412   8.641  0.9049  0.2296 -0.2977
 5426SOL    HW127740   3.910   2.498   8.682  3.0346  0.1447 -0.6302
 5426SOL    HW227741   3.931   2.353   8.709  0.1012  0.7670  0.5491
 5427SOL     OW27742   1.882   1.748   6.976  0.0296  0.3101  0.2334
 5427SOL    HW127743   1.884   1.659   7.011 -0.2974  0.3042  0.2315
 5427SOL    HW227744   1.789   1.768   6.966 -0.1081 -0.3667  0.1098
 5428SOL     OW27745   3.413   0.278   6.565  0.0728 -0.3976  0.1616
 5428SOL    HW127746   3.426   0.189   6.598 -2.1193 -0.8849 -0.2601
 5428SOL    HW227747   3.371   0.262   6.481 -0.4935 -0.6433  0.4873
 5429SOL     OW27748   0.927   0.240  11.246  0.4913  0.1649 -0.4033
 5429SOL    HW127749   0.925   0.148  11.270  1.7282  0.1058 -0.5527
 5429SOL    HW227750   0.849   0.245  11.190  0.1458  2.4215  0.2793
 5430SOL     OW27751   4.720   1.090  17.047 -0.0055 -0.2837  0.5403
 5430SOL    HW127752   0.014   1.014  17.103 -0.6041  0.7682  2.1591
 5430SOL    HW227753   0.035   1.159  17.099 -0.5560 -0.5416  1.3088
 5431SOL     OW27754   2.864   4.505   2.558 -0.5277  0.8361  0.6856
 5431SOL    HW127755   2.845   4.437   2.622 -2.2604 -1.4545 -2.2531
 5431SOL    HW227756   2.959   4.499   2.546 -0.4448  2.6182  0.3826
 5432SOL     OW27757   2.390   2.684   0.578  0.2491 -0.3061 -0.0526
 5432SOL    HW127758   2.394   2.677   0.674 -1.1313  2.5442  0.2241
 5432SOL    HW227759   2.321   2.623   0.552  1.0565 -0.3845 -1.9417
 5433SOL     OW27760   4.162   0.222   1.683 -0.9323  0.4531 -0.3020
 5433SOL    HW127761   4.172   0.318   1.685  2.3526  0.1623 -2.3283
 5433SOL    HW227762   4.128   0.221   1.594 -0.5813  0.8362 -0.4430
 5434SOL     OW27763   0.625   3.746   6.943  0.2070 -0.3124 -0.2684
 5434SOL    HW127764   0.643   3.740   7.037 -1.5056 -0.8499  0.0149
 5434SOL    HW227765   0.615   3.841   6.933 -0.7800 -0.3666  0.2185
 5435SOL     OW27766   4.286   1.526   6.343  0.3699  0.3455  0.2248
 5435SOL    HW127767   4.241   1.451   6.304  1.5308  0.3312 -1.0775
 5435SOL    HW227768   4.345   1.568   6.280  2.0455  0.9621  2.2258
 5436SOL     OW27769   0.835   3.731   5.037  0.2137  0.0474  0.4327
 5436SOL    HW127770   0.750   3.762   5.070  0.0270 -0.5975  0.5413
 5436SOL    HW227771   0.898   3.796   5.067  1.1626 -0.2328 -0.9710
 5437SOL     OW27772   3.072   4.355   5.984 -0.2942 -0.2777 -0.7857
 5437SOL    HW127773   3.139   4.423   5.986 -0.0569 -0.5942  1.7211
 5437SOL    HW227774   3.092   4.312   5.901  1.0979  2.5087 -1.9122
 5438SOL     OW27775   1.763   0.171  16.099  0.0696  0.0555  0.0844
 5438SOL    HW127776   1.736   0.102  16.038  1.3890 -1.5730  1.3267
 5438SOL    HW227777   1.733   0.251  16.057 -1.6873 -0.4728  0.3102
 5439SOL     OW27778   2.462   0.019   7.885 -0.1615  0.5087 -0.4831
 5439SOL    HW127779   2.402   4.708   7.820 -1.5050  1.4866  0.2266
 5439SOL    HW227780   2.415   0.084   7.937  1.3541  0.6466  0.7144
 5440SOL     OW27781   4.240   3.611   6.746  0.5326  0.0643 -0.3012
 5440SOL    HW127782   4.213   3.606   6.838 -0.7461 -0.6402 -0.7254
 5440SOL    HW227783   4.335   3.625   6.755  0.3422  1.1033  0.1842
 5441SOL     OW27784   2.356   4.291   5.164 -0.3734 -0.0951 -0.0920
 5441SOL    HW127785   2.394   4.233   5.098 -0.6467 -1.4525  0.9511
 5441SOL    HW227786   2.271   4.320   5.130  0.1549 -0.1352 -1.4531
 5442SOL     OW27787   2.954   3.019   1.083 -0.3127  0.0228 -0.0720
 5442SOL    HW127788   2.905   3.060   1.155 -0.1931 -2.6316  1.5007
 5442SOL    HW227789   3.010   3.096   1.071  0.8142 -0.3482  2.9240
 5443SOL     OW27790   1.034   1.103   1.607  0.5907  0.2039  0.1630
 5443SOL    HW127791   1.082   1.088   1.689  2.5758  0.1659 -0.9984
 5443SOL    HW227792   1.076   1.035   1.553  4.5093 -0.7037  4.2978
 5444SOL     OW27793   2.545   0.454   5.549 -0.4160 -0.2062  0.3148
 5444SOL    HW127794   2.561   0.544   5.520  1.3821  0.3674  3.0373
 5444SOL    HW227795   2.609   0.402   5.500 -1.1082 -0.3324 -0.4402
 5445SOL     OW27796   2.935   3.123   2.651  0.4130 -0.1610  0.5299
 5445SOL    HW127797   2.929   3.064   2.576 -0.3391  0.5424  0.0355
 5445SOL    HW227798   2.862   3.097   2.707  0.5462 -1.7405 -0.0467
 5446SOL     OW27799   3.784   3.813  14.305 -0.3505  0.0489  0.5112
 5446SOL    HW127800   3.769   3.742  14.367  1.6531  0.9114  1.9586
 5446SOL    HW227801   3.709   3.803  14.246  0.5055 -2.7208 -0.1194
 5447SOL     OW27802   1.789   3.981   5.806  0.6909  0.1873  0.4346
 5447SOL    HW127803   1.825   3.897   5.834 -0.5750  0.0523  1.6494
 5447SOL    HW227804   1.768   3.960   5.715  0.5516  0.4262  0.4118
 5448SOL     OW27805   1.151   2.397   6.219  0.8540 -0.1921 -0.5302
 5448SOL    HW127806   1.193   2.342   6.284 -1.1011 -0.9782  0.0746
 5448SOL    HW227807   1.120   2.333   6.154  0.8132  1.3666 -2.0643
 5449SOL     OW27808   0.682   1.562  12.693  0.1214 -0.0314  0.0308
 5449SOL    HW127809   0.740   1.539  12.765  2.9965  3.1799 -1.2532
 5449SOL    HW227810   0.693   1.657  12.698 -0.8116  0.1872 -1.7639
 5450SOL     OW27811   3.237   0.077   0.068  0.4959 -0.4290 -0.3459
 5450SOL    HW127812   3.241   0.056  17.677 -0.9353  0.9036 -0.6987
 5450SOL    HW227813   3.222   4.714   0.103  2.8202 -0.7286 -0.0696
 5451SOL     OW27814   4.022   3.453   1.518 -0.3177 -0.2776 -0.6925
 5451SOL    HW127815   3.994   3.532   1.563 -1.2381 -0.0672 -1.6278
 5451SOL    HW227816   4.071   3.483   1.441 -0.3525  0.1253 -0.5536
 5452SOL     OW27817   1.172   4.244   8.606 -0.3909 -0.1581  0.6527
 5452SOL    HW127818   1.222   4.285   8.677  1.2029 -2.7820  1.0313
 5452SOL    HW227819   1.199   4.153   8.620  0.0232 -0.2064 -0.4602
 5453SOL     OW27820   4.264   3.791   7.061 -0.2143 -0.0141 -0.1114
 5453SOL    HW127821   4.214   3.839   7.127  0.3832 -0.0164  0.3513
 5453SOL    HW227822   4.194   3.753   7.008 -0.3220  1.5357 -1.0857
 5454SOL     OW27823   3.578   0.179  10.986 -0.3144  0.1429 -0.1252
 5454SOL    HW127824   3.610   0.110  10.928 -0.2007 -0.7682  1.0138
 5454SOL    HW227825   3.520   0.131  11.045  2.9113 -1.9593  1.3601
 5455SOL     OW27826   2.045   0.543   3.180  0.2636  0.6020 -0.1162
 5455SOL    HW127827   2.083   0.481   3.117 -0.0704 -0.8178  1.0668
 5455SOL    HW227828   1.951   0.528   3.171  0.3627 -0.2175  0.1500
 5456SOL     OW27829   3.993   1.181   9.799  0.2642  0.4560 -0.3981
 5456SOL    HW127830   4.024   1.160   9.887 -1.1461 -0.3317 -0.0899
 5456SOL    HW227831   4.062   1.133   9.753 -0.6920  0.3346 -1.7189
 5457SOL     OW27832   3.242   4.409   5.392  0.0165 -0.0645  0.3211
 5457SOL    HW127833   3.229   4.316   5.371 -0.3852 -0.0321  0.4128
 5457SOL    HW227834   3.296   4.400   5.470 -0.0997 -0.3729  0.3689
 5458SOL     OW27835   4.108   3.700   6.514 -0.0915  0.1070 -0.3534
 5458SOL    HW127836   4.164   3.654   6.577 -0.2632 -0.7409 -0.8247
 5458SOL    HW227837   4.022   3.664   6.534 -1.5708  3.9085  0.0637
 5459SOL     OW27838   3.793   2.221  13.892  0.3975  0.4089 -0.2145
 5459SOL    HW127839   3.748   2.164  13.954  1.0156  1.0716  0.8334
 5459SOL    HW227840   3.725   2.272  13.847  0.4709 -0.7484 -1.6520
 5460SOL     OW27841   3.393   0.243   1.393  0.3618  0.2625  0.1013
 5460SOL    HW127842   3.411   0.328   1.353 -1.4185 -0.9086 -3.1636
 5460SOL    HW227843   3.380   0.274   1.483  0.4506  0.1248  0.1612
 5461SOL     OW27844   3.169   1.286   7.870 -0.2271  0.1489 -0.0414
 5461SOL    HW127845   3.126   1.303   7.954  1.6799  1.7401  0.6136
 5461SOL    HW227846   3.243   1.347   7.867  1.7839 -2.1214  2.9823
 5462SOL     OW27847   2.159   0.543  13.877  0.1354 -0.2340 -0.0212
 5462SOL    HW127848   2.225   0.492  13.923 -0.3088 -1.3513 -0.6161
 5462SOL    HW227849   2.097   0.551  13.950  3.0159 -1.1602  2.5404
 5463SOL     OW27850   3.972   2.489   3.255  0.0009  0.1209  0.1223
 5463SOL    HW127851   3.882   2.465   3.279  0.4812 -1.2289  0.5630
 5463SOL    HW227852   3.949   2.548   3.184 -0.4234 -0.9613 -0.6391
 5464SOL     OW27853   0.592   4.341   5.889 -0.2424  0.0016  0.3589
 5464SOL    HW127854   0.632   4.405   5.829  0.1145 -0.1764  0.4021
 5464SOL    HW227855   0.580   4.382   5.974  0.0593 -0.7403  0.7622
 5465SOL     OW27856   0.876   4.547   5.977  0.9169  0.1971  0.2576
 5465SOL    HW127857   0.816   4.606   6.022 -0.7060 -0.3178 -1.2400
 5465SOL    HW227858   0.880   4.471   6.035 -1.6394  0.5477  0.9008
 5466SOL     OW27859   0.672   2.641   0.222  0.4270  1.2420 -0.3208
 5466SOL    HW127860   0.751   2.604   0.261  0.4249  2.2539  0.6508
 5466SOL    HW227861   0.643   2.571   0.164  0.3802  1.0327 -0.0451
 5467SOL     OW27862   0.863   1.117   0.970 -0.2117 -0.1486 -0.1298
 5467SOL    HW127863   0.858   1.200   1.017 -2.8735 -0.6262  0.4199
 5467SOL    HW227864   0.861   1.133   0.876  1.0334  1.4324  0.1290
 5468SOL     OW27865   0.961   3.926   3.689 -0.2465  0.1461 -0.2258
 5468SOL    HW127866   0.971   3.861   3.620  0.2244 -0.1276  0.1036
 5468SOL    HW227867   0.871   3.909   3.719 -0.2803 -0.0154 -0.4210
 5469SOL     OW27868   1.337   2.013   7.454  0.4658  0.0458 -0.6198
 5469SOL    HW127869   1.307   1.990   7.366  1.9353 -2.0477 -0.5802
 5469SOL    HW227870   1.275   1.961   7.505  1.6843 -1.6837 -0.8848
 5470SOL     OW27871   3.737   2.250   8.477 -0.5992 -0.2811 -0.5915
 5470SOL    HW127872   3.820   2.280   8.515 -0.6279  0.2229 -0.9268
 5470SOL    HW227873   3.707   2.330   8.434 -1.3445 -0.1116  0.2519
 5471SOL     OW27874   1.108   4.063   5.618 -0.1066  0.8866 -0.9855
 5471SOL    HW127875   1.132   4.066   5.711  0.2967  0.3029 -1.0693
 5471SOL    HW227876   1.087   3.969   5.616 -1.1783  1.1452 -1.6255
 5472SOL     OW27877   1.324   0.924   8.106  0.4707  0.1659  0.2493
 5472SOL    HW127878   1.268   0.923   8.028 -0.5297 -0.7940  0.9842
 5472SOL    HW227879   1.391   0.989   8.085  1.6147 -1.1323 -0.1011
 5473SOL     OW27880   0.135   0.574   2.301  0.6095 -0.2688  0.1527
 5473SOL    HW127881   0.044   0.544   2.307  1.3781 -3.1253 -2.9906
 5473SOL    HW227882   0.184   0.501   2.337  1.3635  1.1751  2.0857
 5474SOL     OW27883   3.877   3.762   5.574  0.0540  0.0906  0.6561
 5474SOL    HW127884   3.960   3.775   5.619  1.2642  0.0558 -1.5936
 5474SOL    HW227885   3.896   3.675   5.539 -0.5915 -0.0741  0.7064
 5475SOL     OW27886   2.152   4.427   8.826 -0.0170 -0.0088 -0.1984
 5475SOL    HW127887   2.147   4.381   8.742 -1.6624 -0.6663  0.2610
 5475SOL    HW227888   2.245   4.443   8.842 -0.3438  1.3982  0.2918
 5476SOL     OW27889   0.019   0.129   1.277  0.4544  0.2750 -0.0870
 5476SOL    HW127890   0.096   0.102   1.327 -0.2944  3.0819  2.5811
 5476SOL    HW227891   4.670   0.082   1.315  0.7897 -1.0329 -1.0557
 5477SOL     OW27892   0.124   2.408  10.796  0.4082 -0.0601 -0.3080
 5477SOL    HW127893   0.125   2.412  10.892 -2.1751 -0.6240 -0.2667
 5477SOL    HW227894   0.211   2.436  10.767 -1.0933  3.7385 -1.0792
 5478SOL     OW27895   0.850   0.027  15.212  0.0019 -0.4822  0.7202
 5478SOL    HW127896   0.880   0.104  15.260  4.5373 -2.3931  0.8930
 5478SOL    HW227897   0.806   0.060  15.133 -1.0945  1.2058  2.0589
 5479SOL     OW27898   4.034   3.201   2.743 -0.3734 -0.0282  0.1015
 5479SOL    HW127899   4.067   3.159   2.663  2.4174  2.7034 -0.2114
 5479SOL    HW227900   3.945   3.168   2.754 -0.8422  1.5478  1.0702
 5480SOL     OW27901   3.098   0.901   7.976 -0.5201 -0.3669  0.6587
 5480SOL    HW127902   3.046   0.953   7.916 -0.6354 -1.0913  0.1271
 5480SOL    HW227903   3.057   0.922   8.060 -0.4206  0.2622  0.5446
 5481SOL     OW27904   4.648   0.911   7.385 -0.5499 -0.0427  0.2934
 5481SOL    HW127905   4.556   0.929   7.365 -0.2236  0.9102 -0.3332
 5481SOL    HW227906   4.681   0.882   7.301  0.1337  0.5079  0.3747
 5482SOL     OW27907   1.123   4.210   2.379  0.0611  0.1269 -0.6921
 5482SOL    HW127908   1.117   4.305   2.369  1.3380  0.5855  2.9273
 5482SOL    HW227909   1.036   4.175   2.359 -0.1612  0.3579 -0.1268
 5483SOL     OW27910   3.280   3.062  13.643  0.4171  0.2498 -0.4362
 5483SOL    HW127911   3.329   3.125  13.590  1.1331 -0.5667 -0.7544
 5483SOL    HW227912   3.326   3.067  13.727 -2.0425 -1.7979  1.0033
 5484SOL     OW27913   2.102   0.654   6.352  0.1793  0.4206  0.3696
 5484SOL    HW127914   2.029   0.715   6.340  3.2335  3.5195 -2.5995
 5484SOL    HW227915   2.126   0.646   6.259 -2.7209  1.1291 -0.4368
 5485SOL     OW27916   3.971   0.728   2.345 -0.1468  0.1034 -0.0722
 5485SOL    HW127917   3.882   0.758   2.360 -0.3726 -0.3107 -0.6041
 5485SOL    HW227918   3.952   0.648   2.297  2.7746 -0.6417 -0.0168
 5486SOL     OW27919   0.343   1.013  17.298 -0.2942 -0.3879  0.0354
 5486SOL    HW127920   0.417   1.074  17.302 -0.7330  0.2101 -1.1073
 5486SOL    HW227921   0.280   1.059  17.354  1.7857  1.1327  1.1456
 5487SOL     OW27922   0.498   2.730   7.819  0.5417  0.0530  0.1741
 5487SOL    HW127923   0.446   2.738   7.899  0.8351  1.5311  0.2210
 5487SOL    HW227924   0.423   2.692   7.773 -0.3771 -0.7953  2.3415
 5488SOL     OW27925   2.565   2.675  11.857  0.3189 -0.3882  0.0164
 5488SOL    HW127926   2.625   2.743  11.889 -1.4868  0.4342  1.7627
 5488SOL    HW227927   2.603   2.648  11.774  0.6103  2.4137 -0.7678
 5489SOL     OW27928   1.030   1.254  15.473  0.0841 -0.5773  0.3188
 5489SOL    HW127929   1.060   1.184  15.415  0.2500  0.1240 -0.4472
 5489SOL    HW227930   0.940   1.270  15.445 -0.2751 -0.9547  1.2443
 5490SOL     OW27931   4.119   0.944   4.176 -0.1403 -0.0831 -0.2000
 5490SOL    HW127932   4.206   0.963   4.209 -0.4644  1.3836 -0.1623
 5490SOL    HW227933   4.143   0.868   4.122  0.3555  0.3767 -0.6241
 5491SOL     OW27934   3.834   2.603  11.226  0.2721  0.2412  0.3724
 5491SOL    HW127935   3.871   2.518  11.202  0.3499  0.2695  0.3923
 5491SOL    HW227936   3.850   2.652  11.145  1.9965  1.1246  1.2384
 5492SOL     OW27937   4.228   2.666   3.895  0.5921 -0.2371 -0.0172
 5492SOL    HW127938   4.159   2.600   3.905 -0.5688  0.8444 -0.8172
 5492SOL    HW227939   4.200   2.709   3.814 -1.9082 -2.0945 -0.1537
 5493SOL     OW27940   3.611   2.167   0.735  0.1211  0.4499  0.5035
 5493SOL    HW127941   3.698   2.176   0.774  0.3059  0.8204  0.0162
 5493SOL    HW227942   3.617   2.077   0.702 -2.0464  0.3980  0.2572
 5494SOL     OW27943   0.392   1.525  13.955  0.1014  0.3211 -0.6059
 5494SOL    HW127944   0.338   1.507  14.033  0.9408 -3.5791 -0.8972
 5494SOL    HW227945   0.475   1.499  13.995  1.4100  2.2513 -2.0961
 5495SOL     OW27946   3.159   2.829  13.661  0.3979  0.5677  0.1593
 5495SOL    HW127947   3.190   2.918  13.642  0.3132 -0.1280 -3.1832
 5495SOL    HW227948   3.219   2.774  13.611 -1.4668 -0.6428 -0.7094
 5496SOL     OW27949   3.078   2.176   6.923  0.7180  0.3556  0.3585
 5496SOL    HW127950   3.136   2.177   6.847  0.1542 -0.4052 -0.0884
 5496SOL    HW227951   3.008   2.232   6.890  1.1459  1.2215  0.9239
 5497SOL     OW27952   0.384   3.971   7.511  0.1247  1.0590  0.6587
 5497SOL    HW127953   0.352   4.058   7.487 -2.0985  0.2204  0.6548
 5497SOL    HW227954   0.471   3.992   7.547  1.2439  1.9866 -2.5659
 5498SOL     OW27955   3.575   4.409   8.850  0.0123 -0.3313  0.0820
 5498SOL    HW127956   3.568   4.367   8.935  1.7206  0.2703  0.5258
 5498SOL    HW227957   3.505   4.364   8.802  0.1473  0.6922 -1.0925
 5499SOL     OW27958   2.524   2.150   0.444 -0.4754 -0.4645 -0.1082
 5499SOL    HW127959   2.615   2.121   0.441 -0.2899 -0.3873  4.3235
 5499SOL    HW227960   2.509   2.144   0.539  0.8223 -2.0179  0.0089
 5500SOL     OW27961   2.595   2.314   6.396  0.4743 -0.2748  0.0305
 5500SOL    HW127962   2.532   2.257   6.352  0.4175  1.0131 -1.5498
 5500SOL    HW227963   2.556   2.396   6.365 -0.1187 -0.9286 -0.9381
 5501SOL     OW27964   0.737   1.553   5.165 -0.3399 -0.2017  0.1711
 5501SOL    HW127965   0.758   1.567   5.072 -2.0209  1.8831  0.0851
 5501SOL    HW227966   0.642   1.566   5.158 -0.5278 -1.0965  1.0230
 5502SOL     OW27967   3.262   0.000   6.921 -0.2383  0.2054 -0.3897
 5502SOL    HW127968   3.186   0.056   6.907  0.3370  0.9290 -0.6355
 5502SOL    HW227969   3.337   0.055   6.898 -0.6421  0.8647 -0.1338
 5503SOL     OW27970   0.103   0.074   1.631 -0.2098 -0.8208  0.6659
 5503SOL    HW127971   0.048   0.142   1.670  2.1573  0.6891  1.3951
 5503SOL    HW227972   0.032   0.033   1.580  0.7715 -1.6643 -0.0304
 5504SOL     OW27973   0.884   4.088   5.266  0.1960  0.1871 -0.1469
 5504SOL    HW127974   0.908   4.112   5.176  0.7572  1.6163  0.3860
 5504SOL    HW227975   0.947   4.016   5.274 -1.8021 -1.3111  1.9070
 5505SOL     OW27976   1.246   4.570   4.882 -0.0464  0.0957 -0.0119
 5505SOL    HW127977   1.214   4.595   4.968  2.0531 -0.6868  1.0011
 5505SOL    HW227978   1.216   4.480   4.894  0.5104 -0.1929 -0.7856
 5506SOL     OW27979   1.356   4.218   2.240  0.4891  0.3849 -0.2572
 5506SOL    HW127980   1.361   4.155   2.168 -1.2582 -1.0352  0.8633
 5506SOL    HW227981   1.262   4.212   2.259  0.8091  1.6392  1.6287
 5507SOL     OW27982   0.144   2.859   2.476 -0.1741  0.3845 -0.1500
 5507SOL    HW127983   0.052   2.886   2.478 -0.4349 -0.6327  1.4865
 5507SOL    HW227984   0.184   2.946   2.478  1.4891 -0.3831  0.1643
 5508SOL     OW27985   4.291   1.498  12.405 -0.3572 -0.0597  0.2216
 5508SOL    HW127986   4.221   1.433  12.411  0.3484 -0.9125 -0.8947
 5508SOL    HW227987   4.345   1.474  12.480 -1.6298 -0.8210  0.8986
 5509SOL     OW27988   0.802   4.224   4.623  0.1263  0.7518  0.2154
 5509SOL    HW127989   0.718   4.201   4.582 -0.2309 -0.5390  1.6897
 5509SOL    HW227990   0.846   4.260   4.546  1.4221  0.7087  0.9314
 5510SOL     OW27991   4.599   4.140   5.371 -0.1564  0.0570 -0.1027
 5510SOL    HW127992   4.598   4.126   5.466  0.7804  0.5223 -0.0239
 5510SOL    HW227993   4.525   4.202   5.368  0.2676  0.5514 -0.3840
 5511SOL     OW27994   1.532   0.038   5.930  0.3536 -0.4642  0.0382
 5511SOL    HW127995   1.456   4.713   5.899  0.3070 -0.6661  0.4770
 5511SOL    HW227996   1.597   0.028   5.861  0.9494 -0.9226  0.6670
 5512SOL     OW27997   1.288   3.255   8.036  0.2440 -0.0868  0.5671
 5512SOL    HW127998   1.291   3.185   7.971 -2.7068  0.3645 -0.0659
 5512SOL    HW227999   1.317   3.333   7.989 -1.4997  1.1926  1.5615
 5513SOL     OW28000   4.631   1.980   7.242  0.1280 -0.1698 -0.4762
 5513SOL    HW128001   4.639   1.979   7.337 -1.2118 -0.6108 -0.3646
 5513SOL    HW228002   4.651   2.073   7.227 -0.6578  0.4570  2.3986
 5514SOL     OW28003   0.891   1.762  11.075  0.7383 -0.1775 -0.4185
 5514SOL    HW128004   0.949   1.804  11.139  0.4575  2.9107 -2.1997
 5514SOL    HW228005   0.947   1.707  11.020  0.0081 -0.5882 -0.7462
 5515SOL     OW28006   3.738   0.461   0.374 -0.3244 -0.2438 -0.1310
 5515SOL    HW128007   3.689   0.544   0.374  2.9742  1.7029  2.6873
 5515SOL    HW228008   3.833   0.477   0.370 -0.4706  0.5671 -0.3869
 5516SOL     OW28009   4.134   2.697  16.118  0.4015  0.3061  0.6311
 5516SOL    HW128010   4.179   2.684  16.202  1.6758 -0.6365 -0.2144
 5516SOL    HW228011   4.056   2.646  16.139 -0.0345 -0.5402 -3.0396
 5517SOL     OW28012   0.275   4.677   3.762  0.2002  0.4990 -0.5475
 5517SOL    HW128013   0.245   4.596   3.803  1.9142 -0.1096 -0.5179
 5517SOL    HW228014   0.219   4.671   3.684 -0.1118 -1.2440 -0.1868
 5518SOL     OW28015   1.670   2.663  13.969  0.5182  0.0722 -0.3783
 5518SOL    HW128016   1.601   2.729  13.975  0.5889  0.1172 -0.0343
 5518SOL    HW228017   1.642   2.600  13.902  0.0169 -0.6611  0.5105
 5519SOL     OW28018   0.131   4.251  15.521  0.1078  0.6262 -0.2281
 5519SOL    HW128019   0.194   4.323  15.531  1.4665 -0.5478 -0.2279
 5519SOL    HW228020   0.071   4.272  15.592  0.7645 -0.1422  0.5582
 5520SOL     OW28021   4.094   1.587   3.447  0.5588  0.2670  0.3885
 5520SOL    HW128022   4.086   1.540   3.364 -0.4941  0.3932  0.4221
 5520SOL    HW228023   4.113   1.515   3.507 -0.3330 -2.7312 -2.8946
 5521SOL     OW28024   3.338   2.364  11.006  0.0927  0.3091  0.1903
 5521SOL    HW128025   3.366   2.440  10.955 -0.2362  0.9534  0.9651
 5521SOL    HW228026   3.400   2.366  11.079  1.5603 -0.0937 -1.0214
 5522SOL     OW28027   3.219   0.954   0.521 -0.8702 -0.5141  0.6038
 5522SOL    HW128028   3.152   0.900   0.480 -0.5028  0.4104 -1.1858
 5522SOL    HW228029   3.193   0.962   0.613 -2.7682 -1.5514  0.1656
 5523SOL     OW28030   1.480   4.211   6.278 -0.1288  0.0991  0.2728
 5523SOL    HW128031   1.543   4.181   6.213  1.6741  2.5070  0.9186
 5523SOL    HW228032   1.495   4.146   6.348 -0.3438  0.6667  0.8446
 5524SOL     OW28033   1.679   0.406   2.516 -0.0680 -0.4298 -0.2941
 5524SOL    HW128034   1.599   0.384   2.468 -0.1275  0.8820 -0.7792
 5524SOL    HW228035   1.692   0.496   2.487  3.3044 -1.1165 -0.9210
 5525SOL     OW28036   4.186   2.474   2.271 -0.0087 -0.2584  0.4641
 5525SOL    HW128037   4.245   2.401   2.254  0.6196  0.6786 -1.4097
 5525SOL    HW228038   4.243   2.548   2.248  0.2544 -0.4608  0.4701
 5526SOL     OW28039   0.332   1.155   6.044 -0.2708  0.4686  0.2935
 5526SOL    HW128040   0.322   1.216   6.117  0.2824  3.3603 -2.0356
 5526SOL    HW228041   0.240   1.134   6.029 -0.4898  2.6276 -1.3925
 5527SOL     OW28042   4.021   2.487   3.817  0.6349 -0.1233 -0.4910
 5527SOL    HW128043   3.948   2.526   3.769  0.7680  0.3496 -0.3058
 5527SOL    HW228044   4.014   2.395   3.793  0.8023  0.6410 -3.4930
 5528SOL     OW28045   3.285   1.681   9.409  0.3031  0.6103  0.0448
 5528SOL    HW128046   3.296   1.713   9.499 -0.6916  1.5028 -0.1520
 5528SOL    HW228047   3.189   1.682   9.406  0.2948  0.0542  0.2213
 5529SOL     OW28048   1.392   1.329   6.464 -0.1572 -0.4813  0.4459
 5529SOL    HW128049   1.348   1.408   6.495  1.4441  0.2053  0.9789
 5529SOL    HW228050   1.352   1.315   6.378  0.4093  0.3475  0.0466
 5530SOL     OW28051   2.813   3.415   2.285 -0.3526  0.1498  0.0677
 5530SOL    HW128052   2.907   3.401   2.293 -0.4892 -0.8884 -0.0361
 5530SOL    HW228053   2.785   3.427   2.375  0.9055  1.0783  0.3264
 5531SOL     OW28054   1.878   1.534   0.863  0.1127 -0.0373  0.6634
 5531SOL    HW128055   1.938   1.536   0.788  1.1716  0.2442  1.5140
 5531SOL    HW228056   1.877   1.625   0.893 -0.8085 -0.2329  1.2070
 5532SOL     OW28057   0.521   1.447  12.509  0.9097  0.5062  0.0580
 5532SOL    HW128058   0.579   1.488  12.573  2.0043 -1.9104  0.6273
 5532SOL    HW228059   0.469   1.525  12.490 -0.2623 -0.3242 -0.1735
 5533SOL     OW28060   1.548   3.641   0.561  0.2323 -0.0651  0.3657
 5533SOL    HW128061   1.606   3.604   0.627  1.9554  0.6150 -0.7637
 5533SOL    HW228062   1.464   3.621   0.602  0.7327  1.8600  2.2743
 5534SOL     OW28063   4.469   1.427   4.586 -0.4474  1.1099  0.3004
 5534SOL    HW128064   4.540   1.486   4.558  0.5092 -1.3278 -2.4265
 5534SOL    HW228065   4.414   1.481   4.642 -0.5371 -0.1818  1.4391
 5535SOL     OW28066   3.840   2.369   5.701  0.0939 -0.2371 -0.4010
 5535SOL    HW128067   3.832   2.311   5.777  1.8361  2.0285  1.5195
 5535SOL    HW228068   3.804   2.450   5.736  2.5156 -0.4559  2.6849
 5536SOL     OW28069   0.177   3.831   7.000 -0.0756  0.2836 -0.3843
 5536SOL    HW128070   0.186   3.894   6.928  1.8247  0.5322  0.0794
 5536SOL    HW228071   0.215   3.878   7.074 -2.2614  0.4037  0.6540
 5537SOL     OW28072   1.589   2.138  13.776 -0.3970 -0.0785  0.1299
 5537SOL    HW128073   1.512   2.157  13.722 -0.1858  1.8276  0.5067
 5537SOL    HW228074   1.598   2.044  13.765  1.5319  0.1760 -0.4187
 5538SOL     OW28075   1.770   1.673   5.102  0.0246  0.4480 -0.5459
 5538SOL    HW128076   1.814   1.691   5.186 -0.8945  2.0761 -0.4097
 5538SOL    HW228077   1.810   1.593   5.070  0.0123  0.1950  0.0557
 5539SOL     OW28078   3.125   2.820  12.604  0.7929  0.6790 -0.2252
 5539SOL    HW128079   3.050   2.812  12.663 -0.2994  1.1041 -1.5730
 5539SOL    HW228080   3.088   2.862  12.526 -0.8302 -0.1739  0.0665
 5540SOL     OW28081   3.678   3.569   7.483 -0.0373  0.2573 -0.8185
 5540SOL    HW128082   3.744   3.625   7.442  1.3017  1.5990  3.1493
 5540SOL    HW228083   3.678   3.614   7.568  0.2359 -1.6502  0.2013
 5541SOL     OW28084   2.111   2.638   5.886  0.0480 -0.3623 -0.1797
 5541SOL    HW128085   2.195   2.641   5.842  0.5441 -3.0478  0.6053
 5541SOL    HW228086   2.058   2.675   5.815 -1.0832 -1.5824  0.0317
 5542SOL     OW28087   3.485   2.608   4.761 -0.2253 -0.4455  0.0934
 5542SOL    HW128088   3.557   2.545   4.758 -0.9202 -1.2915  1.2148
 5542SOL    HW228089   3.528   2.687   4.729 -1.2797 -0.1316 -0.5312
 5543SOL     OW28090   1.561   0.140   4.619  0.4270 -0.0212  0.1395
 5543SOL    HW128091   1.566   0.065   4.559  0.5897  2.0642 -2.4138
 5543SOL    HW228092   1.544   0.099   4.704 -1.8048  1.7189  0.5145
 5544SOL     OW28093   2.822   1.662  11.493  0.1439 -0.4236  0.1164
 5544SOL    HW128094   2.759   1.673  11.564  2.2231  1.2511  1.7037
 5544SOL    HW228095   2.907   1.673  11.535  0.2508  0.3473 -0.2910
 5545SOL     OW28096   1.831   1.239  17.246 -0.0570  0.2383 -0.4292
 5545SOL    HW128097   1.788   1.176  17.303  1.7350 -1.1016 -0.5552
 5545SOL    HW228098   1.908   1.258  17.298 -0.8850  1.8459  0.2183
 5546SOL     OW28099   3.853   2.318   7.144 -0.1444  0.3157  0.2362
 5546SOL    HW128100   3.830   2.255   7.212 -2.7176  0.5794 -0.3859
 5546SOL    HW228101   3.905   2.372   7.204  0.6967 -0.6562  0.3791
 5547SOL     OW28102   2.624   2.843   7.351  0.2282 -0.5040 -0.4504
 5547SOL    HW128103   2.573   2.863   7.429 -0.7791 -0.0627 -1.2129
 5547SOL    HW228104   2.547   2.806   7.308 -0.4837 -0.0084  0.4057
 5548SOL     OW28105   4.078   3.335   1.787  0.1166  0.0522  0.1815
 5548SOL    HW128106   4.010   3.385   1.832  0.6533  0.6454  0.3357
 5548SOL    HW228107   4.049   3.353   1.697 -2.1438 -0.8782  0.7432
 5549SOL     OW28108   4.432   0.009   8.141  0.5741 -0.1705  0.2780
 5549SOL    HW128109   4.444   0.094   8.182 -1.7409  0.2210  0.1264
 5549SOL    HW228110   4.519   4.715   8.105 -0.2889  0.2936 -2.0770
 5550SOL     OW28111   1.892   0.985   2.691 -0.0321 -0.1899 -0.4969
 5550SOL    HW128112   1.832   0.978   2.617  1.1424 -2.9731 -1.1921
 5550SOL    HW228113   1.902   1.079   2.701  1.9416 -0.3343 -1.2442
 5551SOL     OW28114   2.632   0.960   7.389 -0.1731  0.8124  0.8024
 5551SOL    HW128115   2.557   0.902   7.403 -1.6267  2.2730 -0.8620
 5551SOL    HW228116   2.693   0.939   7.459 -0.7038 -0.3764  0.9187
 5552SOL     OW28117   4.255   2.730  11.017  0.0630 -0.2013  0.1566
 5552SOL    HW128118   4.280   2.679  11.094  1.3173 -0.2323 -0.2775
 5552SOL    HW228119   4.314   2.804  11.005 -1.5612  0.9922 -0.5114
 5553SOL     OW28120   2.595   2.128   7.881  0.5596 -0.8016 -0.1070
 5553SOL    HW128121   2.500   2.141   7.881  0.8756  1.5890  1.6982
 5553SOL    HW228122   2.604   2.046   7.931 -0.3216 -0.2864  0.9055
 5554SOL     OW28123   1.106   2.670   4.669  0.4729  0.1918  0.0962
 5554SOL    HW128124   1.177   2.647   4.730 -0.6093  1.1206  1.6916
 5554SOL    HW228125   1.139   2.752   4.633 -1.5319  0.8139 -0.2847
 5555SOL     OW28126   2.005   4.203   6.912 -0.0063 -0.2244 -0.3718
 5555SOL    HW128127   2.000   4.111   6.888  0.1031 -0.0411 -1.0978
 5555SOL    HW228128   2.055   4.253   6.847  0.8328  1.0527  1.2510
 5556SOL     OW28129   3.504   2.449   9.909 -0.6976 -0.2569 -0.4114
 5556SOL    HW128130   3.515   2.502   9.988 -0.3606 -0.1548 -0.5230
 5556SOL    HW228131   3.574   2.386   9.923  0.9842  1.8385  0.5553
 5557SOL     OW28132   3.622   3.268   1.381 -0.1029  0.0716 -0.1211
 5557SOL    HW128133   3.659   3.337   1.435  2.9873 -0.4995 -1.4996
 5557SOL    HW228134   3.528   3.279   1.396  0.4838  1.2288  2.7160
 5558SOL     OW28135   2.629   2.721   5.948 -0.2204  0.3864  0.0025
 5558SOL    HW128136   2.658   2.705   6.038  1.4327  1.2230 -0.3775
 5558SOL    HW228137   2.708   2.698   5.899  1.4681 -2.0758  3.8213
 5559SOL     OW28138   3.809   2.218   2.680  0.1911  0.0632  0.4832
 5559SOL    HW128139   3.815   2.276   2.604 -1.2370 -0.7646 -0.2632
 5559SOL    HW228140   3.827   2.134   2.637  2.0525  0.0226  1.3513
 5560SOL     OW28141   0.458   2.053   6.143 -0.0322  0.1162 -0.5363
 5560SOL    HW128142   0.459   2.056   6.239  0.4714  1.5173 -0.5868
 5560SOL    HW228143   0.367   2.079   6.138  0.5959  1.9012 -2.4935
 5561SOL     OW28144   4.266   1.369   9.638 -0.5495  0.0559 -0.7043
 5561SOL    HW128145   4.267   1.379   9.543  1.7844 -0.6235 -0.7680
 5561SOL    HW228146   4.238   1.278   9.646  1.4662 -0.5504 -0.4820
 5562SOL     OW28147   0.053   1.897   9.543  0.6233  0.1035  0.6841
 5562SOL    HW128148   0.027   1.902   9.635  1.3340  1.8660  0.7856
 5562SOL    HW228149   4.697   1.913   9.494  2.1919 -0.2745 -2.0183
 5563SOL     OW28150   0.581   2.038  17.057  0.2606 -0.7410  0.4034
 5563SOL    HW128151   0.671   2.069  17.069  0.3356 -0.0014 -2.1293
 5563SOL    HW228152   0.578   1.995  17.142  0.6689  1.2436  1.4205
 5564SOL     OW28153   3.113   3.949   8.878  0.3710  0.2841 -0.0087
 5564SOL    HW128154   3.199   3.972   8.914  0.7384  0.4571 -1.0028
 5564SOL    HW228155   3.046   3.978   8.939  0.3382  1.5831 -0.6599
 5565SOL     OW28156   0.279   3.504   2.656  0.3107 -0.7020 -0.4469
 5565SOL    HW128157   0.221   3.470   2.723 -1.0728  0.3628 -1.1091
 5565SOL    HW228158   0.278   3.433   2.592  0.4094 -1.2568  0.1800
 5566SOL     OW28159   2.116   1.566   8.095  0.0843 -0.0065 -0.3324
 5566SOL    HW128160   2.028   1.602   8.089  0.5486  1.1983  0.1639
 5566SOL    HW228161   2.173   1.637   8.066  0.5556 -0.4129 -0.4212
 5567SOL     OW28162   0.447   1.091  13.660 -0.3089 -0.1291 -0.2109
 5567SOL    HW128163   0.377   1.102  13.595  0.2208  4.0537 -0.0620
 5567SOL    HW228164   0.411   1.152  13.725  0.0897 -0.0786 -0.0376
 5568SOL     OW28165   3.371   0.735   8.249 -0.2296 -0.0510 -0.3482
 5568SOL    HW128166   3.381   0.679   8.172 -2.0099  1.6169 -1.7935
 5568SOL    HW228167   3.333   0.812   8.207  0.6612  0.1581 -0.7619
 5569SOL     OW28168   1.668   0.725   5.961  0.3409  0.2966  0.2413
 5569SOL    HW128169   1.763   0.727   5.967  0.2922 -2.0445  1.6226
 5569SOL    HW228170   1.650   0.819   5.952 -0.2377 -0.0638 -2.4543
 5570SOL     OW28171   2.266   2.061   9.262 -0.2022 -0.0349  0.3235
 5570SOL    HW128172   2.324   2.136   9.253 -0.7116  0.3680  0.4115
 5570SOL    HW228173   2.225   2.092   9.343  0.7328  3.2670 -0.4584
 5571SOL     OW28174   2.609   0.615   7.414  0.2390 -0.0171  0.6151
 5571SOL    HW128175   2.553   0.678   7.459  0.0427 -0.5970  1.1925
 5571SOL    HW228176   2.675   0.595   7.482  0.1518 -2.6596 -0.0995
 5572SOL     OW28177   3.415   3.145   6.458 -0.4687  0.5716  0.2408
 5572SOL    HW128178   3.422   3.228   6.411  0.5281  1.0564  1.2450
 5572SOL    HW228179   3.342   3.165   6.517 -1.6502 -0.2792 -0.9455
 5573SOL     OW28180   0.962   0.955   4.561 -0.0649  0.7585 -0.0058
 5573SOL    HW128181   0.990   1.016   4.629  2.3770 -1.3636  0.8967
 5573SOL    HW228182   1.041   0.903   4.548  3.0591  5.1219  1.2241
 5574SOL     OW28183   0.461   3.176   4.291 -1.0377 -0.1204 -0.3216
 5574SOL    HW128184   0.555   3.161   4.301 -1.0890 -0.2268  0.0057
 5574SOL    HW228185   0.454   3.265   4.258  0.0475 -0.1291 -0.5785
 5575SOL     OW28186   2.816   1.822   0.590 -0.2379 -0.2908 -0.3483
 5575SOL    HW128187   2.874   1.849   0.661 -1.6880 -0.9476  1.0897
 5575SOL    HW228188   2.802   1.907   0.547 -0.6788 -0.7568 -1.1207
 5576SOL     OW28189   0.925   4.650   4.275 -0.2465 -0.4841  0.1212
 5576SOL    HW128190   1.014   4.651   4.239 -0.0834  0.2869  0.5437
 5576SOL    HW228191   0.877   4.684   4.200 -0.5778 -0.3671  0.3853
 5577SOL     OW28192   4.397   4.289   8.885  0.0178 -0.0224  0.1100
 5577SOL    HW128193   4.337   4.254   8.950 -1.0652 -0.9848 -1.4332
 5577SOL    HW228194   4.361   4.378   8.877 -1.3960 -0.6509 -0.3935
 5578SOL     OW28195   0.098   3.023  10.213  0.0840  0.4226  0.0286
 5578SOL    HW128196   0.043   3.096  10.186 -0.3290  0.8093  1.9104
 5578SOL    HW228197   0.045   2.943  10.214  0.5089  0.1364 -0.0856
 5579SOL     OW28198   2.093   3.680   5.265  0.0850 -0.0702  0.0623
 5579SOL    HW128199   2.129   3.767   5.246  0.3279 -0.0320  0.7092
 5579SOL    HW228200   2.031   3.671   5.193 -0.2781  4.1742 -0.1849
 5580SOL     OW28201   3.525   2.738   8.372  0.1473 -0.1144 -0.3271
 5580SOL    HW128202   3.466   2.784   8.431  0.0283 -1.1465  0.3438
 5580SOL    HW228203   3.596   2.697   8.421 -1.1868 -1.3534  0.5640
 5581SOL     OW28204   3.368   3.315   4.515  0.0819 -0.0365 -0.4804
 5581SOL    HW128205   3.415   3.375   4.457 -1.9356  0.8819 -1.1388
 5581SOL    HW228206   3.410   3.230   4.499 -0.7559 -0.2135 -1.7825
 5582SOL     OW28207   3.831   3.038  16.344 -0.2521 -0.5523  0.1173
 5582SOL    HW128208   3.819   3.058  16.251 -1.5453 -2.2217 -0.0722
 5582SOL    HW228209   3.809   2.946  16.334 -0.8528 -0.3161 -0.6967
 5583SOL     OW28210   4.211   2.483   6.180  0.4761  0.0588  0.4635
 5583SOL    HW128211   4.276   2.441   6.124 -0.9325 -0.0532 -1.1003
 5583SOL    HW228212   4.194   2.564   6.131 -0.0392 -1.6134 -2.0903
 5584SOL     OW28213   4.357   3.223   5.679  0.3697 -0.3622  0.1373
 5584SOL    HW128214   4.338   3.158   5.746  0.9700 -1.0392 -0.3492
 5584SOL    HW228215   4.274   3.217   5.632  0.1268 -0.3607  0.5766
 5585SOL     OW28216   3.931   1.112  10.198 -0.0419  0.2828  0.4111
 5585SOL    HW128217   3.949   1.180  10.262 -0.6363 -0.3776  1.2803
 5585SOL    HW228218   3.844   1.137  10.168  0.5397  1.2896 -0.4160
 5586SOL     OW28219   3.688   2.736   6.942  0.3763  0.3261  0.4554
 5586SOL    HW128220   3.706   2.651   6.980  0.3738 -0.1529 -0.6166
 5586SOL    HW228221   3.659   2.790   7.015 -3.6705 -0.3008 -0.7288
 5587SOL     OW28222   2.140   3.912  16.264  0.2423  0.7424 -0.0700
 5587SOL    HW128223   2.218   3.920  16.319  0.5392  0.7373 -0.4941
 5587SOL    HW228224   2.081   3.983  16.292 -0.0212  0.4927  0.0100
 5588SOL     OW28225   3.129   2.309   2.986 -0.1564 -0.6496  0.0993
 5588SOL    HW128226   3.127   2.295   2.892 -0.7866  0.8534 -0.1101
 5588SOL    HW228227   3.038   2.292   3.010  0.6519 -2.7076  1.7981
 5589SOL     OW28228   0.747   1.224  15.454 -0.0530 -0.6721 -0.1625
 5589SOL    HW128229   0.685   1.289  15.420 -0.6941 -0.4886  1.3497
 5589SOL    HW228230   0.704   1.192  15.534  0.4031 -0.6320  0.0969
 5590SOL     OW28231   1.240   2.784   7.317 -0.2593 -0.0010 -0.5105
 5590SOL    HW128232   1.247   2.714   7.383 -0.3862  0.3948 -0.0790
 5590SOL    HW228233   1.332   2.809   7.311 -0.4827  0.8128 -0.5529
 5591SOL     OW28234   0.191   0.056   6.088 -0.1554 -0.4396  0.0823
 5591SOL    HW128235   0.228   0.027   6.172 -0.1323  0.8567  0.5264
 5591SOL    HW228236   0.221   0.146   6.099 -0.8699  0.0617 -2.2173
 5592SOL     OW28237   3.686   2.294   4.985 -0.3642  0.3473 -0.0075
 5592SOL    HW128238   3.766   2.245   4.966 -0.7687 -0.9920  1.7601
 5592SOL    HW228239   3.678   2.330   4.896 -1.6050 -1.1635 -0.5182
 5593SOL     OW28240   3.549   1.305  17.545 -0.3539 -0.3623  0.4401
 5593SOL    HW128241   3.483   1.299  17.614 -0.3342  1.4827  0.6310
 5593SOL    HW228242   3.633   1.295  17.589 -0.2820  1.1467  0.6306
 5594SOL     OW28243   0.249   3.305   2.475 -0.1493 -0.6473 -0.4617
 5594SOL    HW128244   0.261   3.244   2.402  2.1322 -0.1899 -0.4881
 5594SOL    HW228245   0.238   3.242   2.547 -0.9217  0.8761  0.7567
 5595SOL     OW28246   0.850   1.278   4.511 -0.2259  0.2868  0.2061
 5595SOL    HW128247   0.854   1.236   4.425 -0.8234 -1.3079  0.9419
 5595SOL    HW228248   0.942   1.277   4.537 -0.2470 -1.8317  0.2408
 5596SOL     OW28249   2.091   3.204  14.652  0.0647  0.1868 -0.5273
 5596SOL    HW128250   2.099   3.108  14.659 -0.2520  0.2479  0.7326
 5596SOL    HW228251   2.110   3.211  14.559 -0.1649 -0.5397 -0.6332
 5597SOL     OW28252   3.467   0.978   0.403 -0.1348 -0.2874 -0.0684
 5597SOL    HW128253   3.514   0.896   0.419 -2.2134 -0.9129  2.7166
 5597SOL    HW228254   3.393   0.960   0.460  0.5908  0.8734  1.2453
 5598SOL     OW28255   4.422   4.174   4.841 -0.0456 -0.1761  0.1038
 5598SOL    HW128256   4.391   4.265   4.832 -1.1927 -0.4939  0.9109
 5598SOL    HW228257   4.377   4.133   4.767 -1.3486  1.1841  0.1460
 5599SOL     OW28258   1.292   1.715   6.316 -0.3126  0.7731 -0.3745
 5599SOL    HW128259   1.374   1.670   6.338  0.0394  1.5449 -0.0708
 5599SOL    HW228260   1.295   1.797   6.367 -0.2532  1.8131 -2.0649
 5600SOL     OW28261   2.501   1.077   6.750  0.0672  0.0680  0.4253
 5600SOL    HW128262   2.426   1.135   6.754 -0.1988 -0.3675  1.6969
 5600SOL    HW228263   2.510   1.070   6.654  1.3357 -1.2847  0.6294
 5601SOL     OW28264   0.849   2.330  13.221 -0.2257  0.0107 -0.7428
 5601SOL    HW128265   0.930   2.304  13.177 -0.1238 -1.7923  0.4962
 5601SOL    HW228266   0.854   2.418  13.185 -2.0301  0.5798  0.4245
 5602SOL     OW28267   3.665   1.436  11.923  0.8457 -0.2559  0.0788
 5602SOL    HW128268   3.597   1.443  11.990  0.3171 -1.4036 -0.3369
 5602SOL    HW228269   3.686   1.343  11.933 -0.2067 -0.4835  0.1756
 5603SOL     OW28270   0.502   1.344   1.341  0.2363  0.1151 -0.3375
 5603SOL    HW128271   0.534   1.296   1.417 -0.2605  0.5071  0.1194
 5603SOL    HW228272   0.409   1.360   1.360  0.3380  0.8277 -0.4252
 5604SOL     OW28273   2.658   0.454   3.010 -0.2497  0.0341 -0.7936
 5604SOL    HW128274   2.687   0.502   3.087 -0.7395 -1.9458  0.6204
 5604SOL    HW228275   2.725   0.388   2.995 -0.1851  0.1238 -0.9021
 5605SOL     OW28276   4.123   3.070   3.424 -0.1299  0.2303  0.8424
 5605SOL    HW128277   4.149   3.011   3.353 -0.2785 -0.0276  1.0026
 5605SOL    HW228278   4.032   3.098   3.410  0.5276  1.6474 -0.6668
 5606SOL     OW28279   0.993   2.873   8.752 -0.1200 -0.4500  0.0477
 5606SOL    HW128280   0.990   2.925   8.672  0.2872  1.9919  1.6302
 5606SOL    HW228281   0.956   2.790   8.722  0.6133 -0.8644  0.2824
 5607SOL     OW28282   0.207   2.166   1.026 -0.3544 -0.0047 -0.2028
 5607SOL    HW128283   0.288   2.155   1.075 -0.8531  2.4541  1.1442
 5607SOL    HW228284   0.171   2.082   1.055 -0.7282 -0.9726 -3.4282
 5608SOL     OW28285   3.461   4.372  14.614  0.4498  0.4572  0.1579
 5608SOL    HW128286   3.376   4.402  14.647  0.4864  3.3814 -2.4823
 5608SOL    HW228287   3.437   4.298  14.557 -0.1462  0.3959  0.4840
 5609SOL     OW28288   4.141   1.380   9.301 -0.3261 -0.1610  0.4092
 5609SOL    HW128289   4.223   1.392   9.348 -1.0706  0.3702  1.5532
 5609SOL    HW228290   4.152   1.293   9.262 -2.5251 -0.2923  0.0825
 5610SOL     OW28291   4.198   3.304   6.748  0.3373 -0.3272 -0.2534
 5610SOL    HW128292   4.207   3.365   6.821 -3.1729  1.7641 -1.6200
 5610SOL    HW228293   4.107   3.317   6.721  0.9158  2.8327 -0.6074
 5611SOL     OW28294   3.340   2.027   4.573  0.0381  0.3182 -0.0690
 5611SOL    HW128295   3.306   1.963   4.511 -2.3912 -0.9149  2.5261
 5611SOL    HW228296   3.424   1.988   4.596  0.2331  2.0089  2.0608
 5612SOL     OW28297   3.626   1.822   3.488  0.1639 -0.3818 -0.1783
 5612SOL    HW128298   3.611   1.827   3.583  0.2986  1.4331 -0.2485
 5612SOL    HW228299   3.720   1.840   3.485 -0.0228  0.6554  0.2810
 5613SOL     OW28300   0.508   3.602   3.380 -0.6869  0.6552 -0.4916
 5613SOL    HW128301   0.429   3.648   3.351 -1.2213 -0.1115 -0.2539
 5613SOL    HW228302   0.574   3.653   3.332  0.6992  1.7279  2.5627
 5614SOL     OW28303   3.931   3.406   6.606 -0.2929  0.6122 -0.5489
 5614SOL    HW128304   3.941   3.428   6.514 -0.1569  0.6439 -0.5266
 5614SOL    HW228305   3.927   3.488   6.656 -0.7102 -0.6105  1.4277
 5615SOL     OW28306   1.149   3.127   6.342 -0.3599  0.4574  0.5388
 5615SOL    HW128307   1.149   3.124   6.246  0.5633 -0.2492  0.5580
 5615SOL    HW228308   1.209   3.057   6.369  0.1664  0.5577 -0.3531
 5616SOL     OW28309   4.587   1.440  13.696 -0.4299 -0.0311  0.3056
 5616SOL    HW128310   4.565   1.515  13.641  0.6908  0.7791  0.9709
 5616SOL    HW228311   4.678   1.425  13.672 -0.1327  1.0865  0.7470
 5617SOL     OW28312   3.767   0.596  15.718 -0.2205  0.0852  0.0401
 5617SOL    HW128313   3.843   0.541  15.700  2.2993  3.6456 -0.1400
 5617SOL    HW228314   3.809   0.672  15.760 -1.1572  0.5380  0.1529
 5618SOL     OW28315   2.519   0.193   3.571  0.2989 -0.1485 -0.3134
 5618SOL    HW128316   2.456   0.265   3.559  0.6878 -0.0524 -1.8462
 5618SOL    HW228317   2.448   0.129   3.583 -2.1184  2.6400  0.3652
 5619SOL     OW28318   1.765   0.561   1.975  0.2051  0.1576  0.6751
 5619SOL    HW128319   1.750   0.650   2.007  0.7820  0.4723  0.0528
 5619SOL    HW228320   1.740   0.574   1.884  0.8369  0.9980  0.6181
 5620SOL     OW28321   0.036   2.809   5.648 -0.3548 -0.0896 -0.0283
 5620SOL    HW128322   4.710   2.791   5.569  0.4894  1.3732 -0.9020
 5620SOL    HW228323   0.105   2.744   5.631 -1.6439 -1.8300  1.3150
 5621SOL     OW28324   2.266   4.511  13.558  0.4401 -0.0435 -0.2969
 5621SOL    HW128325   2.332   4.529  13.490 -0.6009  2.5407 -0.6437
 5621SOL    HW228326   2.191   4.480  13.508  2.1950 -3.4402 -0.8483
 5622SOL     OW28327   0.260   2.473   4.039  0.0341 -0.5294  0.1760
 5622SOL    HW128328   0.296   2.395   3.997 -1.6250 -1.2796  0.1426
 5622SOL    HW228329   0.167   2.451   4.032 -0.0721 -0.7245  2.1145
 5623SOL     OW28330   4.010   2.784   5.018 -0.3929  0.2532 -0.1537
 5623SOL    HW128331   4.048   2.727   5.085  0.7285  0.9780 -0.1946
 5623SOL    HW228332   3.979   2.721   4.952 -2.1079 -1.2811  2.0905
 5624SOL     OW28333   0.200   4.644  16.145  0.1264  0.0838  0.1390
 5624SOL    HW128334   0.138   4.715  16.130 -0.1292 -0.2834 -0.5477
 5624SOL    HW228335   0.145   4.581  16.191 -0.5735  0.6280  0.0470
 5625SOL     OW28336   4.364   1.537  14.255  0.5585 -0.3578  0.2627
 5625SOL    HW128337   4.276   1.545  14.291  1.7540  2.8208  2.4327
 5625SOL    HW228338   4.361   1.455  14.205  0.4116  0.2204 -0.6684
 5626SOL     OW28339   3.553   2.064   4.933 -0.0928  0.1223  0.5728
 5626SOL    HW128340   3.586   2.151   4.956  0.0609  0.3206 -0.4150
 5626SOL    HW228341   3.462   2.058   4.960 -0.8147  2.0157 -1.4459
 5627SOL     OW28342   1.240   0.045   3.791  0.5760  0.1360 -0.3065
 5627SOL    HW128343   1.295   0.117   3.760 -0.0534  1.1206  0.8311
 5627SOL    HW228344   1.305   4.701   3.784 -1.8037 -1.8454 -3.0303
 5628SOL     OW28345   3.411   1.891   0.481  0.2742  0.4708  0.6961
 5628SOL    HW128346   3.479   1.857   0.539 -0.1223 -0.6974  0.4723
 5628SOL    HW228347   3.460   1.930   0.409 -0.0759  1.5829  1.0684
 5629SOL     OW28348   0.734   0.399  15.665  0.5541 -0.2065  0.5317
 5629SOL    HW128349   0.647   0.359  15.676  0.7776 -0.6486  0.7031
 5629SOL    HW228350   0.728   0.473  15.605  0.7993 -0.6489 -0.0435
 5630SOL     OW28351   3.974   0.285  11.523  0.9093  0.2986  0.3487
 5630SOL    HW128352   4.005   0.376  11.520 -0.1183  0.7009  2.2275
 5630SOL    HW228353   3.990   0.265  11.616 -1.1978  2.5763  1.2086
 5631SOL     OW28354   0.107   2.251   7.629  0.0744 -0.2992  0.0196
 5631SOL    HW128355   0.017   2.263   7.598 -0.2858 -0.2950  1.0689
 5631SOL    HW228356   0.161   2.272   7.553  0.6926  0.3154  0.6193
 5632SOL     OW28357   2.655   1.121  14.795  0.1800 -0.0697  0.3494
 5632SOL    HW128358   2.688   1.111  14.706  1.6041 -0.6547  0.9357
 5632SOL    HW228359   2.693   1.207  14.813 -0.9415  0.4173  0.3847
 5633SOL     OW28360   2.392   3.461  10.010  0.6028  0.3068 -0.1129
 5633SOL    HW128361   2.433   3.445  10.095  0.3768 -0.7457 -0.1969
 5633SOL    HW228362   2.315   3.507  10.042 -0.0386 -0.7361 -0.1578
 5634SOL     OW28363   3.507   0.176   2.079 -0.1536 -0.4459 -0.0888
 5634SOL    HW128364   3.438   0.240   2.098  1.7053  1.6564 -0.3913
 5634SOL    HW228365   3.501   0.129   2.162  1.5267 -0.7192 -0.1269
 5635SOL     OW28366   4.652   3.623   2.138  0.2673 -0.6898 -0.2128
 5635SOL    HW128367   4.580   3.595   2.194 -0.3264  2.4836  0.6053
 5635SOL    HW228368   0.004   3.630   2.194  0.5001 -0.3427 -0.5682
 5636SOL     OW28369   1.041   1.930   6.552 -0.4188 -0.3159 -0.1793
 5636SOL    HW128370   1.039   1.842   6.514 -1.4744  0.4006 -1.8123
 5636SOL    HW228371   0.952   1.954   6.523  0.3658 -0.0608 -2.4169
 5637SOL     OW28372   3.007   3.278  14.838  0.0936 -0.4016 -0.0568
 5637SOL    HW128373   3.085   3.329  14.818  0.4224 -0.8773  0.0132
 5637SOL    HW228374   2.991   3.287  14.932  1.5164  1.0094  0.0507
 5638SOL     OW28375   2.426   4.695  10.556 -0.2053  0.5708  0.3310
 5638SOL    HW128376   2.472   4.674  10.637 -1.9653  0.6067  1.3381
 5638SOL    HW228377   2.492   4.657  10.498 -0.5148  0.0554  0.3163
 5639SOL     OW28378   3.499   0.817   6.877 -0.6319  0.0131 -0.5256
 5639SOL    HW128379   3.504   0.886   6.943 -1.4670 -0.1761 -0.2673
 5639SOL    HW228380   3.459   0.874   6.812 -2.3828  1.7207  2.0272
 5640SOL     OW28381   4.603   1.112   4.129  0.1346 -0.6026 -0.2929
 5640SOL    HW128382   4.672   1.058   4.168 -0.8180 -1.8177 -0.2683
 5640SOL    HW228383   4.609   1.099   4.034 -0.3209  0.5968 -0.4873
 5641SOL     OW28384   3.401   3.552   8.707  0.2809  0.3350  0.2467
 5641SOL    HW128385   3.409   3.549   8.611 -2.8002 -0.9350  0.0120
 5641SOL    HW228386   3.347   3.629   8.723  0.2633  0.7949 -1.9939
 5642SOL     OW28387   3.690   4.505   8.215  0.0478 -0.6412  0.2895
 5642SOL    HW128388   3.769   4.467   8.176  1.1866  1.8832  0.1177
 5642SOL    HW228389   3.709   4.599   8.224 -0.7770 -0.3913 -0.5708
 5643SOL     OW28390   0.848   1.999  17.680 -0.6740 -0.1730 -0.0895
 5643SOL    HW128391   0.823   1.914   0.013 -0.3660 -0.6084 -0.9355
 5643SOL    HW228392   0.938   1.981  17.654  0.8485  1.5422  3.8192
 5644SOL     OW28393   0.501   4.101  15.529  0.2685  0.0842  0.4501
 5644SOL    HW128394   0.420   4.094  15.478 -0.1614  0.3546  1.0898
 5644SOL    HW228395   0.511   4.196  15.523  2.0525 -0.1371  0.0687
 5645SOL     OW28396   4.241   1.786   0.551  0.1294 -0.2629 -0.4056
 5645SOL    HW128397   4.282   1.734   0.482  0.1892  1.3811 -1.6105
 5645SOL    HW228398   4.175   1.818   0.489 -1.5851 -0.4488  1.2940
 5646SOL     OW28399   3.248   2.738   7.024  0.0728 -0.6121 -0.0881
 5646SOL    HW128400   3.198   2.713   6.947 -0.0056 -1.7373  0.3267
 5646SOL    HW228401   3.280   2.826   7.005 -0.3680 -0.4789 -0.2214
 5647SOL     OW28402   0.628   1.100   6.161 -0.1115  0.3534 -0.5460
 5647SOL    HW128403   0.680   1.129   6.086  0.0806 -2.5373 -1.5029
 5647SOL    HW228404   0.540   1.098   6.122 -0.6132 -1.6829  0.7122
 5648SOL     OW28405   3.697   1.544   3.556 -0.0654  0.4519 -0.4438
 5648SOL    HW128406   3.748   1.502   3.486  0.9215  2.0031 -0.6414
 5648SOL    HW228407   3.713   1.636   3.535  1.2823  0.3429  0.0936
 5649SOL     OW28408   0.620   2.574  11.763  0.3542 -0.3915  0.1224
 5649SOL    HW128409   0.697   2.519  11.749 -0.7105 -1.7261 -0.5432
 5649SOL    HW228410   0.646   2.630  11.836  1.2432 -0.9286  0.2220
 5650SOL     OW28411   3.655   1.659  10.079  0.3757  0.0579  0.2788
 5650SOL    HW128412   3.701   1.575  10.070  0.0523 -0.1167  0.2447
 5650SOL    HW228413   3.712   1.708  10.020  0.3124  0.4348  0.5342
 5651SOL     OW28414   1.415   0.046  13.838  0.4955 -0.0261 -0.2695
 5651SOL    HW128415   1.346   0.004  13.890  1.1209  1.7895  1.9958
 5651SOL    HW228416   1.422   4.710  13.764  3.5483 -2.5174  2.0822
 5652SOL     OW28417   2.577   0.497   1.519 -0.2424  0.0130  0.2636
 5652SOL    HW128418   2.671   0.493   1.501 -0.2815 -0.5651  0.2027
 5652SOL    HW228419   2.579   0.517   1.612  0.7315  0.3852  0.1637
 5653SOL     OW28420   0.982   0.939   6.637  0.0699 -0.3409 -0.4160
 5653SOL    HW128421   0.927   0.902   6.707  0.1712  0.7210  0.2320
 5653SOL    HW228422   0.949   1.029   6.638  0.8050 -0.0629 -1.9285
 5654SOL     OW28423   3.790   1.504   6.023 -0.6150  0.1276 -0.2922
 5654SOL    HW128424   3.758   1.416   6.004  0.8674 -0.6901  0.9725
 5654SOL    HW228425   3.836   1.518   5.939 -0.1720 -0.1834 -0.1007
 5655SOL     OW28426   0.351   2.058   7.350  0.4656 -0.4005 -0.1266
 5655SOL    HW128427   0.298   1.987   7.312 -2.8006  0.7579  2.2134
 5655SOL    HW228428   0.295   2.133   7.331  0.5696 -0.0107  1.1164
 5656SOL     OW28429   0.687   0.489   6.093 -0.5905  0.1076  0.3060
 5656SOL    HW128430   0.640   0.564   6.130 -2.5234 -1.7845  1.7184
 5656SOL    HW228431   0.641   0.468   6.012 -0.5428 -0.8192  0.5240
 5657SOL     OW28432   0.977   2.914   8.185  0.1171  0.1205  0.3055
 5657SOL    HW128433   1.004   2.941   8.273 -1.1683  0.0433  0.7251
 5657SOL    HW228434   1.057   2.870   8.157  0.7236 -0.5887  3.1298
 5658SOL     OW28435   3.752   2.536   4.186 -0.8431 -0.7634 -0.1272
 5658SOL    HW128436   3.764   2.629   4.205  0.3868 -0.9416 -0.0218
 5658SOL    HW228437   3.678   2.510   4.241  0.2350 -1.8260  0.8410
 5659SOL     OW28438   2.934   4.418   7.530  0.1478 -0.4710 -0.6714
 5659SOL    HW128439   2.999   4.374   7.584 -1.7147 -0.5378  1.4890
 5659SOL    HW228440   2.902   4.493   7.580  0.3218 -1.5629  1.0500
 5660SOL     OW28441   1.241   3.060  12.352  0.0980 -0.2339  0.0406
 5660SOL    HW128442   1.329   3.030  12.329 -0.4631 -0.3969 -1.8714
 5660SOL    HW228443   1.269   3.140  12.397 -2.0253  1.1511 -1.1213
 5661SOL     OW28444   1.413   3.183   3.701 -0.0544  0.8129 -0.2349
 5661SOL    HW128445   1.437   3.265   3.658 -0.5077  2.7406  3.2252
 5661SOL    HW228446   1.496   3.140   3.720 -1.6324 -2.7541 -1.3499
 5662SOL     OW28447   3.130   1.402   2.613  0.1463  0.1403 -0.4991
 5662SOL    HW128448   3.156   1.387   2.704 -0.6960  2.3404  0.1040
 5662SOL    HW228449   3.206   1.443   2.572  1.9746 -1.1603  1.5739
 5663SOL     OW28450   4.597   3.859   4.740 -0.5791 -0.0542  0.4288
 5663SOL    HW128451   4.676   3.821   4.779 -1.2452 -0.1646  1.6808
 5663SOL    HW228452   4.534   3.862   4.812  1.1361 -0.1947  1.9498
 5664SOL     OW28453   0.394   0.777  15.683 -0.2137 -0.3244  0.1230
 5664SOL    HW128454   0.338   0.820  15.747  1.3795  3.5941 -1.1588
 5664SOL    HW228455   0.466   0.750  15.740  0.2223  1.2460  0.3189
 5665SOL     OW28456   1.110   4.038  15.203 -0.1756 -0.6458  0.0913
 5665SOL    HW128457   1.042   4.021  15.138 -0.6786 -1.5168  0.8429
 5665SOL    HW228458   1.183   4.011  15.147 -0.3939 -0.9060 -0.0651
 5666SOL     OW28459   1.292   4.712   7.044 -0.4559 -0.4018 -0.3062
 5666SOL    HW128460   1.256   4.676   6.963 -0.9035  1.5381 -0.9669
 5666SOL    HW228461   1.302   0.077   7.014 -1.7404 -0.2354 -0.2288
 5667SOL     OW28462   1.356   1.996   8.656 -0.1623  0.0480  0.1889
 5667SOL    HW128463   1.349   2.081   8.699 -0.1239 -0.1242  0.5369
 5667SOL    HW228464   1.300   2.015   8.581  1.9554  1.1559 -1.0956
 5668SOL     OW28465   1.492   0.180  13.593  0.2783  0.3278  0.3401
 5668SOL    HW128466   1.468   0.163  13.685 -1.1978  0.6202  0.0029
 5668SOL    HW228467   1.538   0.099  13.572  0.5845  0.6516 -0.2340
 5669SOL     OW28468   1.301   3.715   4.202 -0.3163  0.2251  0.2079
 5669SOL    HW128469   1.323   3.652   4.133 -2.3016 -1.3150  0.9888
 5669SOL    HW228470   1.206   3.712   4.205 -0.4062  1.2568 -1.9433
 5670SOL     OW28471   1.817   4.283   8.065 -0.5615 -0.1654  0.2796
 5670SOL    HW128472   1.768   4.362   8.045  0.8613  0.2898 -1.3839
 5670SOL    HW228473   1.892   4.327   8.105 -0.0517 -0.3846 -0.4298
 5671SOL     OW28474   2.912   2.612  10.135  0.2312 -0.7513 -0.4221
 5671SOL    HW128475   2.855   2.561  10.077 -0.6924 -1.3748  1.0314
 5671SOL    HW228476   2.927   2.532  10.186 -2.4418  0.0459  1.6279
 5672SOL     OW28477   0.714   3.386   3.425  0.1323  0.7303  0.0589
 5672SOL    HW128478   0.630   3.427   3.403 -0.0907  1.6653  2.5977
 5672SOL    HW228479   0.720   3.408   3.518  0.9884 -0.8784  0.3931
 5673SOL     OW28480   1.775   0.735   9.270  0.3394 -0.1382 -0.1154
 5673SOL    HW128481   1.774   0.826   9.299 -0.9289 -0.5147  0.9718
 5673SOL    HW228482   1.689   0.707   9.301  0.7113 -0.9639  0.1771
 5674SOL     OW28483   0.424   2.673   8.099  0.0767 -0.2755 -0.4941
 5674SOL    HW128484   0.439   2.631   8.184  1.0581  1.2654  0.0941
 5674SOL    HW228485   0.376   2.744   8.141  1.3819  0.1119  0.3721
 5675SOL     OW28486   1.381   3.412   8.870 -0.2496 -0.5626  0.1433
 5675SOL    HW128487   1.348   3.486   8.921 -2.4713  0.8666 -3.3433
 5675SOL    HW228488   1.306   3.353   8.858 -0.1121 -1.1259  2.0519
 5676SOL     OW28489   3.291   2.233   2.308 -0.5087  0.1040 -0.0110
 5676SOL    HW128490   3.223   2.167   2.320 -0.1736 -0.3766 -0.7832
 5676SOL    HW228491   3.366   2.176   2.325 -1.1322 -0.1003  2.0551
 5677SOL     OW28492   3.619   1.888   5.469 -0.0757 -0.3176 -0.1407
 5677SOL    HW128493   3.699   1.927   5.504  1.5536 -3.1928 -0.6036
 5677SOL    HW228494   3.559   1.936   5.526 -0.3440  0.6720 -1.2695
 5678SOL     OW28495   4.643   3.715   0.250  0.5371 -0.0311  0.4356
 5678SOL    HW128496   4.577   3.751   0.190  0.0946 -2.2668 -0.4340
 5678SOL    HW228497   4.589   3.680   0.321 -0.0108  0.1201  0.0959
 5679SOL     OW28498   0.451   4.013   4.893 -0.0947  0.4506 -0.0241
 5679SOL    HW128499   0.505   4.024   4.971  1.3247  0.3997 -1.0158
 5679SOL    HW228500   0.366   4.057   4.901 -0.7316 -0.8994  0.7658
 5680SOL     OW28501   4.068   0.610   5.909  0.1499 -0.3829  0.6764
 5680SOL    HW128502   4.112   0.615   5.994  1.0742 -0.5343  0.2103
 5680SOL    HW228503   4.086   0.518   5.888  1.8076  0.7987 -3.0295
 5681SOL     OW28504   1.478   0.325   5.067 -0.1699 -0.0107 -0.5290
 5681SOL    HW128505   1.536   0.250   5.076 -2.3242 -1.7970 -1.3427
 5681SOL    HW228506   1.408   0.289   5.012 -0.1069  0.4783 -0.9324
 5682SOL     OW28507   2.042   3.136   8.238 -0.1918 -0.2367 -0.3811
 5682SOL    HW128508   1.963   3.185   8.218 -0.2185 -0.5390 -1.0245
 5682SOL    HW228509   2.043   3.130   8.333  4.5630  0.4910 -0.3542
 5683SOL     OW28510   4.402   3.017  17.125 -0.4548  0.6104  0.5884
 5683SOL    HW128511   4.409   2.936  17.075 -4.1651 -0.2936  1.5312
 5683SOL    HW228512   4.483   2.998  17.172 -0.5925 -1.7147 -0.1413
 5684SOL     OW28513   3.475   0.039   5.323  0.3717  0.4401 -0.0201
 5684SOL    HW128514   3.511   0.083   5.400 -1.4261  1.3922  0.2688
 5684SOL    HW228515   3.513   4.677   5.335 -0.8960  0.0507  1.0893
 5685SOL     OW28516   4.230   2.619   7.690  0.5886 -0.2941 -0.4466
 5685SOL    HW128517   4.192   2.558   7.754  0.8708  0.8458  0.8058
 5685SOL    HW228518   4.206   2.701   7.733 -1.2091 -1.4649  0.7831
 5686SOL     OW28519   3.460   3.403  11.569 -0.3517 -0.6919  0.3641
 5686SOL    HW128520   3.518   3.379  11.641  0.5759  3.3022  0.9576
 5686SOL    HW228521   3.503   3.470  11.516 -0.3975  0.7868  2.1994
 5687SOL     OW28522   3.826   3.526   4.017  0.2718  0.2737  0.0959
 5687SOL    HW128523   3.893   3.463   4.042 -0.5563 -1.4589 -2.0269
 5687SOL    HW228524   3.854   3.558   3.931  1.2670  1.3211  0.8131
 5688SOL     OW28525   0.396   2.127   2.368 -0.1570  0.3575 -0.2711
 5688SOL    HW128526   0.479   2.163   2.337  0.4722 -2.9276 -2.4264
 5688SOL    HW228527   0.340   2.160   2.298  0.6820  1.5496 -0.3869
 5689SOL     OW28528   2.273   1.529   1.720  0.0045  0.4541  0.0558
 5689SOL    HW128529   2.349   1.523   1.778 -0.7798  1.0206  1.1394
 5689SOL    HW228530   2.222   1.455   1.752  1.3655 -1.0861 -1.3395
 5690SOL     OW28531   0.879   0.749  15.943 -0.7654 -0.0545 -0.2432
 5690SOL    HW128532   0.874   0.727  16.036 -3.9091  0.2089 -0.3510
 5690SOL    HW228533   0.947   0.684  15.924  0.7504  1.7164 -0.8366
 5691SOL     OW28534   4.018   0.999   1.934 -0.1997  0.2616 -0.0562
 5691SOL    HW128535   3.979   0.912   1.941  0.2514 -0.0599 -1.6189
 5691SOL    HW228536   3.945   1.047   1.973  0.2570  1.0227 -0.1433
 5692SOL     OW28537   0.599   0.041   8.618  0.3672  0.5134 -0.5090
 5692SOL    HW128538   0.646   0.072   8.696  0.5218  0.8931 -0.7530
 5692SOL    HW228539   0.665   0.061   8.551 -0.2672  1.5502 -0.8052
 5693SOL     OW28540   0.290   3.744   8.802 -0.0178 -0.1253 -0.1245
 5693SOL    HW128541   0.257   3.793   8.878  2.0783  1.5838 -0.3042
 5693SOL    HW228542   0.314   3.660   8.843  0.3318  0.6284  1.2299
 5694SOL     OW28543   2.417   0.295  15.827 -0.2591  0.1137 -0.4351
 5694SOL    HW128544   2.509   0.271  15.834 -0.2835 -0.0868 -0.8405
 5694SOL    HW228545   2.382   0.239  15.758 -0.8060 -1.4578  1.1147
 5695SOL     OW28546   1.850   4.402  11.878 -0.5492  0.1471  0.6825
 5695SOL    HW128547   1.797   4.342  11.930  0.2178 -1.5582 -0.4767
 5695SOL    HW228548   1.914   4.438  11.939 -0.6739 -0.5800  1.2450
 5696SOL     OW28549   3.595   3.731  13.609 -0.2395 -0.1010  0.4473
 5696SOL    HW128550   3.651   3.789  13.558  1.7968  0.1110  2.9447
 5696SOL    HW228551   3.581   3.775  13.694 -2.3194  0.3358 -0.1031
 5697SOL     OW28552   1.671   1.616   7.440  0.0528  0.3515 -0.0902
 5697SOL    HW128553   1.672   1.543   7.502 -1.1664 -0.5817 -1.1769
 5697SOL    HW228554   1.598   1.668   7.473 -0.1167  0.3897 -0.5283
 5698SOL     OW28555   3.527   3.951   3.283  0.1424 -0.3678  0.3398
 5698SOL    HW128556   3.608   3.998   3.304 -0.0930  0.0185  0.3690
 5698SOL    HW228557   3.493   4.002   3.209 -0.6094  1.9201  2.2696
 5699SOL     OW28558   2.129   1.993   8.142  0.0277 -0.2172 -0.4219
 5699SOL    HW128559   2.132   1.931   8.215  0.4094 -1.5278 -1.5308
 5699SOL    HW228560   2.039   2.020   8.157  0.3100  0.3272  0.2533
 5700SOL     OW28561   1.786   4.237   6.174 -0.0813  0.4640  0.2596
 5700SOL    HW128562   1.833   4.154   6.180 -1.8663 -0.3967  2.2930
 5700SOL    HW228563   1.791   4.274   6.262 -2.1576 -0.4751  0.7853
 5701SOL     OW28564   3.906   2.585  10.668 -0.0703  0.1811  0.7139
 5701SOL    HW128565   3.964   2.555  10.598 -1.3054 -0.5827  0.0076
 5701SOL    HW228566   3.968   2.645  10.709  0.6835 -1.1566  1.5220
 5702SOL     OW28567   0.771   1.828   3.132  0.4740 -0.1590 -0.0426
 5702SOL    HW128568   0.697   1.838   3.072  1.4814 -1.8304 -1.5573
 5702SOL    HW228569   0.767   1.735   3.156  1.6981 -0.2356 -0.1656
 5703SOL     OW28570   3.284   2.939  16.305  0.5541 -0.3606 -0.1525
 5703SOL    HW128571   3.363   2.909  16.260  0.9583  0.2693  0.1475
 5703SOL    HW228572   3.212   2.879  16.284 -1.0408  1.9138 -1.1895
 5704SOL     OW28573   1.874   2.168   7.045  0.0905  0.0550  1.0574
 5704SOL    HW128574   1.878   2.262   7.029  0.7315 -0.1721 -0.1286
 5704SOL    HW228575   1.837   2.172   7.134  1.5491  1.6393  1.5870
 5705SOL     OW28576   1.350   3.669  10.246 -0.2800 -0.6501  0.3101
 5705SOL    HW128577   1.351   3.731  10.319 -0.9188 -0.0743 -0.1733
 5705SOL    HW228578   1.258   3.647  10.238 -0.1446 -1.3089  0.5432
 5706SOL     OW28579   1.721   2.663  14.834 -0.1305 -0.0787 -0.0757
 5706SOL    HW128580   1.808   2.700  14.818 -1.3899  2.8748  0.0338
 5706SOL    HW228581   1.716   2.583  14.782 -0.8457  1.8807 -2.9946
 5707SOL     OW28582   2.977   0.781   8.826  0.6361 -0.0346  0.0238
 5707SOL    HW128583   2.928   0.855   8.789  0.3778  0.4392  1.3188
 5707SOL    HW228584   2.954   0.792   8.918  0.8805  1.1507 -0.0508
 5708SOL     OW28585   0.257   2.704   3.570 -0.4349 -0.1255 -0.2431
 5708SOL    HW128586   0.289   2.691   3.660  0.1329  0.9406 -0.2973
 5708SOL    HW228587   0.165   2.687   3.587 -0.2903 -2.6470 -1.8248
 5709SOL     OW28588   3.666   4.233   6.181 -0.1239  0.1409  0.3208
 5709SOL    HW128589   3.633   4.194   6.100 -0.7489 -1.3244  1.2900
 5709SOL    HW228590   3.742   4.285   6.155  1.4412 -1.4725  1.6945
 5710SOL     OW28591   0.788   1.436   1.721  0.3959 -0.0835  0.2357
 5710SOL    HW128592   0.700   1.457   1.752 -0.2823 -1.8125 -0.5554
 5710SOL    HW228593   0.799   1.490   1.643 -2.1256  0.5754  0.3532
 5711SOL     OW28594   0.936   3.771   4.463 -0.3646  0.0222 -0.2210
 5711SOL    HW128595   0.871   3.842   4.462  0.6552  0.9817  1.2073
 5711SOL    HW228596   0.903   3.701   4.520  1.2003 -1.7309 -1.5081
 5712SOL     OW28597   3.380   1.216   2.538 -0.4347  0.1270 -0.1959
 5712SOL    HW128598   3.443   1.204   2.609 -1.4488  1.6841  0.9849
 5712SOL    HW228599   3.322   1.146   2.570 -1.5120  1.2805  0.3638
 5713SOL     OW28600   3.445   0.790   4.035 -0.4705  0.0532  0.3857
 5713SOL    HW128601   3.510   0.833   3.979 -0.3336  0.9082  1.2201
 5713SOL    HW228602   3.407   0.846   4.102 -0.1401  0.6480  0.0730
 5714SOL     OW28603   0.039   0.199   7.311  0.4335  0.1876  0.2683
 5714SOL    HW128604   4.698   0.249   7.358  0.7647 -0.2250  1.1721
 5714SOL    HW228605   0.116   0.252   7.330 -0.1535  0.2138  2.6455
 5715SOL     OW28606   4.301   1.899   4.811  0.7263 -0.4083  0.0260
 5715SOL    HW128607   4.211   1.931   4.810 -0.0180 -2.4128  2.5680
 5715SOL    HW228608   4.333   1.936   4.729  0.9212 -1.2886 -0.3048
 5716SOL     OW28609   2.423   4.600   5.033  0.2660  0.1288  0.0273
 5716SOL    HW128610   2.331   4.588   5.008  0.2434 -0.4838  0.4102
 5716SOL    HW228611   2.463   4.587   4.947  1.4217 -1.7482  0.8633
 5717SOL     OW28612   4.265   2.535   5.419  0.4169  0.5311  0.2575
 5717SOL    HW128613   4.253   2.521   5.513  2.2356 -0.2336  0.3760
 5717SOL    HW228614   4.305   2.452   5.390  1.2223  0.8551  0.4513
 5718SOL     OW28615   0.192   0.813   3.590 -0.7426  0.5408  0.1770
 5718SOL    HW128616   0.099   0.803   3.612 -1.3354  1.6560 -1.8461
 5718SOL    HW228617   0.235   0.777   3.668 -0.3743  2.8630  1.0520
 5719SOL     OW28618   4.625   2.911   5.096 -0.1710  0.2177 -0.4197
 5719SOL    HW128619   4.698   2.850   5.109 -0.1060  0.4394  0.2761
 5719SOL    HW228620   4.604   2.897   5.004  0.0049  0.3852 -0.4836
 5720SOL     OW28621   3.600   1.774   0.637  0.2203  0.5137  0.0918
 5720SOL    HW128622   3.581   1.723   0.716 -0.5718  0.6434 -0.0190
 5720SOL    HW228623   3.690   1.799   0.661 -0.0454  2.2530 -0.7474
 5721SOL     OW28624   4.244   4.148   9.054 -0.4242 -0.5889 -0.0326
 5721SOL    HW128625   4.158   4.190   9.062  0.3699  1.1001 -0.3906
 5721SOL    HW228626   4.216   4.064   9.089  1.7964 -1.0992  0.5160
 5722SOL     OW28627   0.536   1.569   6.103 -0.3421 -0.0182  0.4294
 5722SOL    HW128628   0.475   1.588   6.174  0.3628 -0.1688  1.0750
 5722SOL    HW228629   0.497   1.488   6.069 -0.8762  1.5684 -2.6427
 5723SOL     OW28630   1.719   1.003  12.859 -0.1546 -0.6973 -0.8515
 5723SOL    HW128631   1.758   1.085  12.828 -1.8354 -0.1700 -1.5783
 5723SOL    HW228632   1.786   0.944  12.825 -0.9485 -0.7862 -2.2775
 5724SOL     OW28633   0.744   4.017  12.819 -0.2483  0.2011  0.7873
 5724SOL    HW128634   0.739   3.999  12.913 -0.9017 -2.3450  0.2719
 5724SOL    HW228635   0.689   3.943  12.792 -1.4544  2.1831 -2.1756
 5725SOL     OW28636   1.210   3.586  13.152 -0.2946 -0.2762 -0.1085
 5725SOL    HW128637   1.135   3.569  13.094 -2.4476  2.5509  1.8762
 5725SOL    HW228638   1.181   3.665  13.198 -1.9759  0.3266 -2.1602
 5726SOL     OW28639   2.681   2.711   0.832  0.0132  0.7773  0.4063
 5726SOL    HW128640   2.710   2.714   0.923 -1.4007 -2.2352  0.9467
 5726SOL    HW228641   2.756   2.754   0.790  0.2372 -1.5139 -1.5292
 5727SOL     OW28642   4.608   3.560   3.570 -0.3088 -0.6271 -0.0961
 5727SOL    HW128643   4.604   3.568   3.666 -0.7942 -1.0192 -0.0848
 5727SOL    HW228644   4.618   3.465   3.557  2.9094  0.0414 -2.5006
 5728SOL     OW28645   0.365   4.538  13.471  0.4138  0.2364 -0.7158
 5728SOL    HW128646   0.429   4.500  13.412  1.1359 -0.9172  0.8209
 5728SOL    HW228647   0.422   4.585  13.533  1.0161 -4.1060  1.9929
 5729SOL     OW28648   3.866   1.679   8.792 -0.0893 -0.2695 -0.1275
 5729SOL    HW128649   3.925   1.609   8.820  0.3027 -0.2040 -0.7931
 5729SOL    HW228650   3.793   1.656   8.850 -0.2998 -0.6575 -0.5473
 5730SOL     OW28651   2.403   1.116   0.766  0.0950  0.0842 -0.0532
 5730SOL    HW128652   2.335   1.098   0.701  1.2840  3.2634 -2.1856
 5730SOL    HW228653   2.485   1.138   0.720  0.3513 -1.7941 -0.4802
 5731SOL     OW28654   4.044   2.497   4.724  0.1483  0.1375 -0.4074
 5731SOL    HW128655   4.093   2.534   4.797  1.3872  0.4019 -1.3725
 5731SOL    HW228656   4.095   2.424   4.689  0.9342  1.1217 -1.3075
 5732SOL     OW28657   0.727   0.208  16.017  0.2635 -0.1747 -0.2890
 5732SOL    HW128658   0.796   0.151  15.982  1.0875 -0.0412  1.0975
 5732SOL    HW228659   0.686   0.142  16.073  3.1670 -2.1877 -0.5349
 5733SOL     OW28660   2.423   4.575   6.190  0.1167  0.2132  0.3584
 5733SOL    HW128661   2.448   4.578   6.282  0.0490 -0.2138  0.3901
 5733SOL    HW228662   2.429   4.667   6.164 -1.3551  0.2214  0.0740
 5734SOL     OW28663   4.124   1.258   2.595  0.3908 -0.2477 -0.1583
 5734SOL    HW128664   4.212   1.293   2.583  0.3974 -0.0165  0.5992
 5734SOL    HW228665   4.115   1.199   2.520  0.7656  1.1525 -1.3214
 5735SOL     OW28666   1.258   0.350   7.568  0.1639 -0.3058  0.2874
 5735SOL    HW128667   1.292   0.299   7.641  2.0408  0.3545 -0.1188
 5735SOL    HW228668   1.203   0.282   7.528  0.4433 -0.8229  0.7853
 5736SOL     OW28669   0.407   2.244   4.249 -0.4398 -0.1178 -0.4597
 5736SOL    HW128670   0.500   2.266   4.253 -0.3002 -1.1661  2.2647
 5736SOL    HW228671   0.385   2.235   4.156 -0.3211  3.3825 -0.8192
 5737SOL     OW28672   2.861   2.814   0.172  0.6472 -0.5800  0.0746
 5737SOL    HW128673   2.779   2.860   0.154  0.8625 -0.1179  0.2743
 5737SOL    HW228674   2.827   2.760   0.243 -0.2038  0.4373  0.4503
 5738SOL     OW28675   1.807   3.752   8.403  0.0509  0.9167 -0.5417
 5738SOL    HW128676   1.788   3.787   8.490 -0.1709 -2.2356  0.6671
 5738SOL    HW228677   1.718   3.727   8.377  0.6407 -1.8336  0.1045
 5739SOL     OW28678   2.077   3.380  13.715 -0.2351 -0.6089 -0.2346
 5739SOL    HW128679   2.154   3.337  13.680 -0.5691 -0.6552 -0.9116
 5739SOL    HW228680   2.008   3.355  13.654  1.6924  3.1320 -3.9449
 5740SOL     OW28681   4.606   3.801   8.543  0.3101  0.6221  0.2152
 5740SOL    HW128682   4.698   3.801   8.568  0.0946  0.7562  1.0060
 5740SOL    HW228683   4.568   3.867   8.601  0.3238  2.2433 -1.6013
 5741SOL     OW28684   1.572   4.350  13.709 -0.2728  0.3286 -0.1082
 5741SOL    HW128685   1.637   4.367  13.777 -0.6302 -1.8649  0.7637
 5741SOL    HW228686   1.556   4.257  13.722 -0.9089  0.8431  2.7075
 5742SOL     OW28687   0.788   4.547  13.105  0.0276 -0.2294  1.2086
 5742SOL    HW128688   0.773   4.454  13.086  1.4566 -0.2346  0.0602
 5742SOL    HW228689   0.849   4.576  13.037 -0.0957 -2.2080  0.2297
 5743SOL     OW28690   4.479   3.662   5.272 -0.2175 -0.0833 -0.0515
 5743SOL    HW128691   4.496   3.643   5.365 -1.2146 -0.5707  0.0326
 5743SOL    HW228692   4.559   3.625   5.235 -0.3885 -1.3003  0.7834
 5744SOL     OW28693   0.957   0.600  11.912  0.4524  0.0122 -0.3791
 5744SOL    HW128694   1.037   0.552  11.934  0.4378  0.1095 -0.1086
 5744SOL    HW228695   0.938   0.628  12.002  0.7897 -0.9634 -0.0024
 5745SOL     OW28696   1.921   3.649   4.737 -0.6937  0.4469  0.1596
 5745SOL    HW128697   2.012   3.678   4.727 -0.1847 -0.9969  0.5978
 5745SOL    HW228698   1.935   3.555   4.735  1.4798  0.7955 -1.8211
 5746SOL     OW28699   2.107   1.236   2.927 -0.4071  0.3647  0.9023
 5746SOL    HW128700   2.184   1.194   2.889 -0.1066  1.3102  0.4784
 5746SOL    HW228701   2.047   1.260   2.856  0.3212 -0.3449  0.0432
 5747SOL     OW28702   2.545   3.366   5.198  0.0081  0.1963  0.3845
 5747SOL    HW128703   2.540   3.462   5.194  0.9594  0.1858 -1.0504
 5747SOL    HW228704   2.465   3.350   5.248 -0.0303  0.6242  0.4661
 5748SOL     OW28705   3.907   2.500  16.422 -0.0888  0.1845 -0.0359
 5748SOL    HW128706   3.812   2.510  16.415 -0.0267  0.0686 -1.0620
 5748SOL    HW228707   3.920   2.513  16.328 -0.7504  1.7924  0.0836
 5749SOL     OW28708   2.172   3.262   6.252  0.4824  0.2502  0.1237
 5749SOL    HW128709   2.210   3.329   6.196 -0.3501  1.2562  0.7662
 5749SOL    HW228710   2.250   3.209   6.271  0.8684  0.6348 -0.4101
 5750SOL     OW28711   3.084   1.906   0.374 -0.3138  0.0929  0.4359
 5750SOL    HW128712   3.089   2.001   0.364  0.4190 -0.1218 -1.2138
 5750SOL    HW228713   3.157   1.894   0.435  0.0996  1.1830  0.1554
 5751SOL     OW28714   2.399   4.230  10.880  0.1221 -0.0779 -0.4976
 5751SOL    HW128715   2.390   4.322  10.855 -2.9441  0.4821  2.6260
 5751SOL    HW228716   2.494   4.227  10.882  0.0934 -0.8896 -0.3769
 5752SOL     OW28717   3.026   2.708  15.514  0.0472 -0.4751  0.0053
 5752SOL    HW128718   3.066   2.758  15.443  1.3664 -1.0435  0.3421
 5752SOL    HW228719   2.934   2.730  15.501 -0.1575 -0.8250  0.8396
 5753SOL     OW28720   2.992   1.334   2.091  0.6072 -0.2308  0.2258
 5753SOL    HW128721   2.912   1.328   2.144 -0.3531  0.9044 -1.1093
 5753SOL    HW228722   2.968   1.260   2.035 -0.6530 -0.5242  1.1442
 5754SOL     OW28723   3.070   0.394   1.314 -0.3098 -0.5058 -0.0852
 5754SOL    HW128724   3.016   0.331   1.362 -0.9492  0.1183  0.0168
 5754SOL    HW228725   3.123   0.427   1.386  0.1506 -1.0281 -0.1884
 5755SOL     OW28726   0.228   4.422   7.837 -0.0254 -0.1479 -0.3899
 5755SOL    HW128727   0.144   4.468   7.841  0.7025  1.0171  1.2801
 5755SOL    HW228728   0.252   4.465   7.755  0.1419  3.4156  1.5256
 5756SOL     OW28729   2.472   0.867   9.487 -0.0837  0.2460  0.2508
 5756SOL    HW128730   2.431   0.953   9.495 -3.6324 -1.4336 -0.0372
 5756SOL    HW228731   2.560   0.899   9.469  0.9271 -0.4921  3.9457
 5757SOL     OW28732   2.601   0.761   8.438 -0.7248  0.3877  0.1371
 5757SOL    HW128733   2.594   0.677   8.393 -2.7547  0.4847  0.2593
 5757SOL    HW228734   2.534   0.744   8.504 -1.5171 -1.1490 -1.0539
 5758SOL     OW28735   2.705   2.370  12.644  0.0106  0.1279  0.3263
 5758SOL    HW128736   2.740   2.413  12.722 -0.4475 -1.3380  1.3429
 5758SOL    HW228737   2.782   2.359  12.589  0.6959  4.3537  0.4555
 5759SOL     OW28738   2.091   4.405   6.658 -0.2401 -0.0281  0.1273
 5759SOL    HW128739   2.000   4.433   6.647 -0.2802 -0.1182  0.2350
 5759SOL    HW228740   2.123   4.494   6.643 -0.6256 -0.2427 -1.9655
 5760SOL     OW28741   0.983   4.469   3.061 -0.1042  0.1249  0.0362
 5760SOL    HW128742   0.988   4.382   3.099  1.3439 -1.1830 -3.1627
 5760SOL    HW228743   0.929   4.450   2.984 -0.3107  0.6157  0.0553
 5761SOL     OW28744   3.435   4.692   9.458 -0.4566  0.0268 -0.6263
 5761SOL    HW128745   3.400   4.630   9.522  0.3278  0.1905 -0.0360
 5761SOL    HW228746   3.405   0.055   9.478  0.5664  0.1462  0.3958
 5762SOL     OW28747   1.375   1.356   7.089  0.3373 -0.3319 -0.0833
 5762SOL    HW128748   1.398   1.417   7.159 -0.0867  0.3111 -0.5026
 5762SOL    HW228749   1.290   1.328   7.124  0.7169 -1.6780 -0.2296
 5763SOL     OW28750   4.613   2.593   4.563 -0.3516  0.1801 -0.4181
 5763SOL    HW128751   4.659   2.544   4.631 -1.4661 -1.0857 -0.5634
 5763SOL    HW228752   4.541   2.623   4.619 -0.3411 -0.7348  0.0885
 5764SOL     OW28753   1.142   3.109   3.829  0.3187 -0.1245 -0.3497
 5764SOL    HW128754   1.207   3.166   3.789  0.9365 -1.2049 -0.8858
 5764SOL    HW228755   1.092   3.069   3.758  0.2152 -1.5996  0.5576
 5765SOL     OW28756   1.728   2.147   7.797  0.2965  0.7545  0.1580
 5765SOL    HW128757   1.641   2.151   7.757  1.6712  0.4405 -2.9276
 5765SOL    HW228758   1.750   2.240   7.797 -2.1062  1.3454 -1.5568
 5766SOL     OW28759   3.703   1.605   4.348 -0.0147  0.3957  0.2928
 5766SOL    HW128760   3.798   1.605   4.363 -0.1486  0.1667  1.1587
 5766SOL    HW228761   3.700   1.564   4.262  0.9412  1.6006 -0.3152
 5767SOL     OW28762   2.568   3.599   6.815 -0.2002  0.4641 -0.2000
 5767SOL    HW128763   2.476   3.576   6.825 -0.0422 -0.1769 -0.2284
 5767SOL    HW228764   2.617   3.528   6.855 -1.6798 -1.7011 -2.2480
 5768SOL     OW28765   1.342   4.071   9.565  0.1250  0.6303 -0.6673
 5768SOL    HW128766   1.263   4.050   9.614  0.2473  0.8977 -0.3619
 5768SOL    HW228767   1.402   4.114   9.626 -0.6026  1.5915 -0.6226
 5769SOL     OW28768   0.034   2.921   3.964  0.1265  0.4939 -0.1479
 5769SOL    HW128769   0.103   2.983   3.987  1.1536 -1.1828  1.2678
 5769SOL    HW228770   0.064   2.845   4.014 -2.0653 -2.1385 -2.8280
 5770SOL     OW28771   2.977   1.283   8.142 -0.2473  0.0865  0.7162
 5770SOL    HW128772   3.020   1.243   8.218  1.0030 -1.5809 -0.8733
 5770SOL    HW228773   2.893   1.239   8.145 -1.0593  1.5368 -0.9131
 5771SOL     OW28774   2.065   1.310  11.183 -0.1869  0.3836  0.1590
 5771SOL    HW128775   2.113   1.353  11.254 -0.1642  2.3989 -1.1090
 5771SOL    HW228776   2.003   1.258  11.236  2.3267 -1.8950  0.8631
 5772SOL     OW28777   2.533   4.417   3.128 -0.0270  0.2139  0.0363
 5772SOL    HW128778   2.540   4.507   3.099  0.8692  0.0962 -0.1013
 5772SOL    HW228779   2.545   4.425   3.223 -0.7141  1.6242  0.0067
 5773SOL     OW28780   1.749   2.326  17.360  0.8676  0.3037  0.3134
 5773SOL    HW128781   1.845   2.323  17.363  0.8697  0.0601  0.0064
 5773SOL    HW228782   1.738   2.387  17.287 -0.4798 -2.2910 -1.6534
 5774SOL     OW28783   0.600   1.719  14.204  0.2691  0.3170 -0.0987
 5774SOL    HW128784   0.621   1.637  14.249  1.2197  0.0240 -1.0708
 5774SOL    HW228785   0.586   1.700  14.111 -2.7136 -1.2151  0.6872
 5775SOL     OW28786   2.699   3.085   6.964 -0.1435 -0.2447  0.2295
 5775SOL    HW128787   2.743   3.005   6.991 -1.3572 -0.1094  2.5822
 5775SOL    HW228788   2.630   3.044   6.911  0.0491 -1.0046  0.5820
 5776SOL     OW28789   0.812   3.159   4.671 -0.6392 -0.4512 -0.4138
 5776SOL    HW128790   0.806   3.220   4.598  0.9827 -0.3626 -0.4802
 5776SOL    HW228791   0.823   3.227   4.736 -0.7689  0.3121 -1.1943
 5777SOL     OW28792   2.530   0.025   5.872  0.3385  0.1227  0.3117
 5777SOL    HW128793   2.508   0.101   5.925  2.5792 -0.4676  2.0724
 5777SOL    HW228794   2.455   4.697   5.899  1.1344 -0.2102  1.8327
 5778SOL     OW28795   4.549   4.196   8.072 -0.5506  0.1081 -0.1442
 5778SOL    HW128796   4.640   4.195   8.102 -1.0835 -1.2919  1.4077
 5778SOL    HW228797   4.543   4.104   8.045 -0.5423  0.1274 -0.2123
 5779SOL     OW28798   2.966   3.044  13.656  0.3193  0.0730  0.7034
 5779SOL    HW128799   3.017   2.969  13.686  3.0577  2.1620  1.2669
 5779SOL    HW228800   3.030   3.112  13.632  0.0115  0.5199  1.1570
 5780SOL     OW28801   2.145   4.106   3.290  0.0484 -0.0535 -0.0943
 5780SOL    HW128802   2.119   4.172   3.226  1.2235  1.0936  0.6062
 5780SOL    HW228803   2.106   4.024   3.260  0.1430 -0.3456  0.5913
 5781SOL     OW28804   4.324   0.418   4.464  0.7943 -0.3183 -0.2045
 5781SOL    HW128805   4.242   0.457   4.433  0.5234  1.2094  2.3900
 5781SOL    HW228806   4.294   0.345   4.517  0.1939 -0.7163 -1.0958
 5782SOL     OW28807   4.502   0.040  14.095 -0.1369 -0.7901 -0.5830
 5782SOL    HW128808   4.590   0.016  14.123 -0.4305  1.0054  1.8615
 5782SOL    HW228809   4.515   0.017  14.003 -2.3983 -0.0681 -1.0694
 5783SOL     OW28810   1.587   3.132   6.465  0.3390  0.6469 -0.3353
 5783SOL    HW128811   1.553   3.050   6.501 -1.8334  0.1863 -3.4661
 5783SOL    HW228812   1.656   3.102   6.405  2.0919  0.1209  1.9637
 5784SOL     OW28813   1.527   2.280   8.703  0.2835 -0.0411 -0.0456
 5784SOL    HW128814   1.607   2.227   8.699  1.8178  2.1884  0.8571
 5784SOL    HW228815   1.579   2.361   8.704  0.3837 -0.0984 -0.6223
 5785SOL     OW28816   0.671   0.954  16.040  0.6439 -0.6096 -0.2369
 5785SOL    HW128817   0.608   0.986  15.975  1.0921 -0.6650 -0.6976
 5785SOL    HW228818   0.630   0.883  16.090  0.3044  0.4069  0.9236
 5786SOL     OW28819   2.307   2.776   6.274 -0.0213 -0.1776 -0.0146
 5786SOL    HW128820   2.254   2.696   6.270  1.5807 -1.1848 -0.9475
 5786SOL    HW228821   2.236   2.837   6.256 -1.2120 -1.6984 -0.4706
 5787SOL     OW28822   4.250   0.760   7.934 -0.1123  0.0963  0.0303
 5787SOL    HW128823   4.239   0.745   8.028  1.7574  0.1870  0.2657
 5787SOL    HW228824   4.224   0.675   7.898  1.8590 -0.7871  0.7073
 5788SOL     OW28825   3.483   3.514   3.847  0.1434 -0.2766  0.1073
 5788SOL    HW128826   3.462   3.511   3.940 -1.5829 -1.4075 -0.3196
 5788SOL    HW228827   3.399   3.545   3.814 -1.5811 -1.1335  3.7414
 5789SOL     OW28828   3.511   4.130   9.842 -0.0248 -0.0922 -0.1886
 5789SOL    HW128829   3.493   4.177   9.760 -1.3841 -0.5720 -0.1679
 5789SOL    HW228830   3.606   4.137   9.843 -0.0495  0.3572 -0.8644
 5790SOL     OW28831   1.393   0.051   8.636 -0.3437  0.2503 -0.0716
 5790SOL    HW128832   1.436   0.057   8.550  2.5152 -3.1235  1.1145
 5790SOL    HW228833   1.301   0.076   8.626 -0.9164 -2.1944 -0.8304
 5791SOL     OW28834   2.434   2.584  12.989 -0.3058 -0.4352 -0.7493
 5791SOL    HW128835   2.479   2.596  13.072  0.8794  0.5401 -1.5416
 5791SOL    HW228836   2.452   2.663  12.939 -3.4804 -0.1139 -1.4252
 5792SOL     OW28837   1.026   3.455   0.496 -0.0825 -0.5457  0.1280
 5792SOL    HW128838   0.968   3.388   0.533  1.2930 -0.7290  1.9621
 5792SOL    HW228839   0.977   3.477   0.417  4.0198  1.5405 -1.8648
 5793SOL     OW28840   2.835   0.367   6.772 -0.0483 -0.1406  0.2796
 5793SOL    HW128841   2.904   0.391   6.834  1.1254 -1.6079 -0.4755
 5793SOL    HW228842   2.760   0.367   6.833 -0.6902 -0.5202 -0.5050
 5794SOL     OW28843   0.585   4.023   3.459  0.4386  0.4911 -0.3533
 5794SOL    HW128844   0.662   3.974   3.429 -0.2699 -0.6842 -0.2478
 5794SOL    HW228845   0.565   4.072   3.380  0.2609  0.5499 -0.2713
 5795SOL     OW28846   4.260   0.085   6.761  0.0830  0.0107  0.1276
 5795SOL    HW128847   4.183   0.066   6.815 -0.9439 -2.5368 -2.2533
 5795SOL    HW228848   4.266   0.012   6.700  0.5509 -1.8177  2.3822
 5796SOL     OW28849   0.433   3.819   4.028  0.1571 -0.5411 -0.1544
 5796SOL    HW128850   0.374   3.856   3.962 -1.1665  0.4941  1.6226
 5796SOL    HW228851   0.453   3.902   4.072  0.6458 -0.9746  0.4302
 5797SOL     OW28852   0.923   3.565  17.604 -0.0426 -0.4349 -0.1474
 5797SOL    HW128853   0.922   3.548  17.510 -0.6942 -1.2491 -0.0000
 5797SOL    HW228854   0.850   3.513  17.639  0.5553  0.2727  2.1391
 5798SOL     OW28855   2.116   3.834   4.422  0.3086  0.3932 -0.1018
 5798SOL    HW128856   2.065   3.754   4.413 -1.1983  1.2960  0.2088
 5798SOL    HW228857   2.167   3.827   4.503  0.2717 -0.9661 -0.1978
 5799SOL     OW28858   1.162   3.406  15.525  0.1460  0.3450 -0.1262
 5799SOL    HW128859   1.184   3.316  15.505  1.0389  0.6370 -0.4262
 5799SOL    HW228860   1.243   3.448  15.554 -0.1056  0.7258  0.0330
 5800SOL     OW28861   1.050   3.575  15.037  0.1155  0.5486  0.0441
 5800SOL    HW128862   1.090   3.661  15.026 -0.0817  0.4279 -1.5918
 5800SOL    HW228863   1.124   3.515  15.029 -1.6920 -2.0037  2.2771
 5801SOL     OW28864   0.781   0.206   4.072 -1.1324  0.1720 -0.1962
 5801SOL    HW128865   0.865   0.242   4.044 -1.2655  2.0208  1.7395
 5801SOL    HW228866   0.785   0.113   4.048  1.4356 -0.2184  1.7846
 5802SOL     OW28867   2.592   4.337   8.631 -0.4860 -0.0277 -0.2633
 5802SOL    HW128868   2.651   4.412   8.635  0.8032 -1.1139  1.4002
 5802SOL    HW228869   2.554   4.331   8.718  0.8718 -0.7238  0.2706
 5803SOL     OW28870   2.893   1.937   9.249  0.0564  0.4415  0.0548
 5803SOL    HW128871   2.947   1.979   9.182  0.3183  0.9947  0.6028
 5803SOL    HW228872   2.926   1.848   9.238 -3.1610 -0.5770 -1.0418
 5804SOL     OW28873   0.271   2.161   8.337 -0.1035 -0.7060 -0.4961
 5804SOL    HW128874   0.205   2.116   8.284 -1.3397 -0.1216  0.5328
 5804SOL    HW228875   0.267   2.102   8.412 -0.5113 -0.5675 -0.4111
 5805SOL     OW28876   1.720   3.298   5.978 -0.5998 -0.5079 -0.0273
 5805SOL    HW128877   1.671   3.259   6.050 -1.8691 -1.5017 -1.4351
 5805SOL    HW228878   1.759   3.371   6.026  2.7206 -1.5442 -1.1164
 5806SOL     OW28879   0.218   2.433   0.755  0.5525  0.1095 -0.7242
 5806SOL    HW128880   0.166   2.485   0.694 -0.8569 -1.6817 -1.0569
 5806SOL    HW228881   0.233   2.503   0.818 -0.0943  0.9132 -1.4496
 5807SOL     OW28882   4.585   3.786   7.675 -0.0253  0.1221  0.5151
 5807SOL    HW128883   4.588   3.817   7.766  3.7376 -1.1073  0.8333
 5807SOL    HW228884   4.493   3.763   7.668 -0.1286  0.8078 -0.3551
 5808SOL     OW28885   3.959   4.378   5.357  0.3429  0.5045 -0.6009
 5808SOL    HW128886   4.021   4.341   5.421  0.2430  2.1217  0.4354
 5808SOL    HW228887   3.964   4.321   5.281 -0.0281 -1.6838  1.0134
 5809SOL     OW28888   4.293   0.408   3.335 -0.6180  0.1095 -0.2134
 5809SOL    HW128889   4.204   0.442   3.327 -0.5576  0.5599  1.0660
 5809SOL    HW228890   4.319   0.458   3.412  2.8879 -2.1767  0.0704
 5810SOL     OW28891   1.682   4.114   8.287  0.0182  0.1089  0.0851
 5810SOL    HW128892   1.628   4.187   8.319  0.2437  1.2177 -2.0881
 5810SOL    HW228893   1.735   4.159   8.222 -1.2189  0.4878 -0.6493
 5811SOL     OW28894   3.471   4.492   6.911 -0.5453 -0.1232  0.5590
 5811SOL    HW128895   3.495   4.529   6.826 -0.8668 -1.2517 -0.0209
 5811SOL    HW228896   3.547   4.515   6.964 -1.3158 -0.5705  1.8610
 5812SOL     OW28897   1.647   0.438   4.091  0.0927  0.3599  0.0154
 5812SOL    HW128898   1.740   0.417   4.102  0.2783  1.0186 -0.2871
 5812SOL    HW228899   1.631   0.515   4.147  1.6873 -0.9108  2.2136
 5813SOL     OW28900   3.560   1.470  14.490 -0.3053  0.3693  0.6359
 5813SOL    HW128901   3.529   1.461  14.580  3.1752  1.9427  1.9799
 5813SOL    HW228902   3.487   1.524  14.460 -0.0023  0.7900  0.6543
 5814SOL     OW28903   3.220   2.108   7.901 -1.1232 -0.6260 -0.0790
 5814SOL    HW128904   3.157   2.068   7.961  0.1119  0.3506  1.8817
 5814SOL    HW228905   3.267   2.028   7.878  1.0544  0.0415  1.9793
 5815SOL     OW28906   4.055   4.557   1.232  0.1043 -0.4526 -0.0481
 5815SOL    HW128907   4.025   4.472   1.200 -0.2828 -0.9855  1.7170
 5815SOL    HW228908   4.033   4.611   1.156 -0.4304 -2.8011 -1.5564
 5816SOL     OW28909   3.642   1.666   2.666  0.3557  0.2095 -0.7971
 5816SOL    HW128910   3.678   1.621   2.589 -1.7666 -0.6585 -1.2740
 5816SOL    HW228911   3.554   1.692   2.639  0.4268  0.8696 -0.3907
 5817SOL     OW28912   0.542   4.167   4.550  0.1065  0.0487 -0.3000
 5817SOL    HW128913   0.457   4.210   4.543 -0.0327 -0.0335  0.8194
 5817SOL    HW228914   0.524   4.099   4.615 -0.3008  0.3572 -0.0941
 5818SOL     OW28915   1.243   2.675   7.622 -0.4564 -0.5669 -0.0956
 5818SOL    HW128916   1.188   2.753   7.622  0.9162  0.3936  0.6294
 5818SOL    HW228917   1.305   2.704   7.688 -1.6285 -1.1798  1.2730
 5819SOL     OW28918   1.043   0.405  15.532 -0.2391 -0.0176 -0.1573
 5819SOL    HW128919   1.066   0.370  15.619  0.0308 -1.4786 -0.8218
 5819SOL    HW228920   1.059   0.499  15.536  0.8412 -0.0916 -3.2073
 5820SOL     OW28921   0.530   0.240   3.696  0.3363 -0.0447  0.1401
 5820SOL    HW128922   0.511   0.183   3.621  1.7347  1.1355 -1.1310
 5820SOL    HW228923   0.446   0.282   3.713  0.3490 -0.2575  0.7071
 5821SOL     OW28924   0.439   2.756  13.027  0.5019  0.6249 -0.0727
 5821SOL    HW128925   0.428   2.840  13.070 -2.5785 -0.0300  0.3975
 5821SOL    HW228926   0.422   2.697  13.100  2.3942  0.2381  0.0758
 5822SOL     OW28927   1.324   0.668   6.546  0.1654 -0.3259  0.6505
 5822SOL    HW128928   1.283   0.582   6.560  3.7409 -2.1023  0.3683
 5822SOL    HW228929   1.249   0.714   6.510 -0.0054 -0.8927  0.2705
 5823SOL     OW28930   1.447   1.355   2.415  0.5858 -0.3253  0.4506
 5823SOL    HW128931   1.407   1.268   2.421 -0.9536  0.4665  1.7647
 5823SOL    HW228932   1.467   1.364   2.509 -2.0074  1.8492  0.7721
 5824SOL     OW28933   0.571   0.808  11.285 -0.7111  0.2541 -0.2573
 5824SOL    HW128934   0.498   0.776  11.338 -2.5155  2.1964 -1.5645
 5824SOL    HW228935   0.522   0.850  11.214 -1.4629 -0.8967 -0.4215
 5825SOL     OW28936   2.338   4.586   8.579 -0.2806  0.3233  0.1349
 5825SOL    HW128937   2.362   4.556   8.666 -2.3785  1.2743  1.0445
 5825SOL    HW228938   2.289   4.513   8.542  0.6372 -1.2963  2.1505
 5826SOL     OW28939   1.457   0.349  10.585 -0.3096  0.3156  0.2748
 5826SOL    HW128940   1.551   0.369  10.587 -0.3271  0.4909 -0.6900
 5826SOL    HW228941   1.410   0.403  10.521  0.4584 -0.3381 -0.8550
 5827SOL     OW28942   2.670   3.508   9.029  0.7165 -0.0147 -0.1312
 5827SOL    HW128943   2.633   3.427   9.064 -0.3922  0.7160  0.3819
 5827SOL    HW228944   2.705   3.552   9.106  0.9169  0.2898 -0.4009
 5828SOL     OW28945   2.922   3.544   5.698 -0.1608 -0.5043  0.5055
 5828SOL    HW128946   2.941   3.637   5.686  0.9182 -0.9198 -1.0717
 5828SOL    HW228947   2.876   3.549   5.781 -2.1044 -1.3516 -0.5307
 5829SOL     OW28948   1.325   2.783   7.853 -0.1978  0.4165 -0.0335
 5829SOL    HW128949   1.257   2.785   7.921  1.5685  0.1012  1.7480
 5829SOL    HW228950   1.400   2.763   7.910 -1.9615 -0.4318  2.0014
 5830SOL     OW28951   1.082   3.315   2.669  0.1714 -0.2308  0.5843
 5830SOL    HW128952   0.998   3.332   2.712  0.2738  0.8453  0.3525
 5830SOL    HW228953   1.105   3.403   2.641  0.2077 -0.1210  0.9621
 5831SOL     OW28954   3.676   3.427   1.611 -0.7944  0.0548  0.9332
 5831SOL    HW128955   3.747   3.460   1.666 -0.6212  0.5473  0.4126
 5831SOL    HW228956   3.598   3.437   1.665 -1.5931 -0.2064 -0.1646
 5832SOL     OW28957   1.037   0.512   2.369 -0.4413  0.1369  0.2854
 5832SOL    HW128958   1.044   0.591   2.422 -0.3708  1.5451 -1.8576
 5832SOL    HW228959   0.970   0.537   2.305  1.8590  0.4537 -1.9675
 5833SOL     OW28960   3.730   2.575   8.494 -0.9941  0.2322 -0.1682
 5833SOL    HW128961   3.816   2.589   8.454 -0.7362 -0.2887  0.2108
 5833SOL    HW228962   3.762   2.534   8.575 -1.9487 -1.1075 -0.4735
 5834SOL     OW28963   1.077   4.635   7.654  0.0142 -0.1256 -0.1322
 5834SOL    HW128964   1.083   4.598   7.742  1.1788 -1.7593 -0.8867
 5834SOL    HW228965   1.010   4.700   7.675  0.0992 -0.1287  0.1502
 5835SOL     OW28966   3.212   0.612  10.785  0.4662  0.5030  0.6939
 5835SOL    HW128967   3.171   0.567  10.712  1.8796 -0.2103  0.3451
 5835SOL    HW228968   3.244   0.690  10.739  1.3524 -0.3835 -0.1811
 5836SOL     OW28969   2.266   2.429   6.595  0.1672  0.8586 -0.4417
 5836SOL    HW128970   2.271   2.517   6.632 -0.4872 -0.0968  1.9113
 5836SOL    HW228971   2.321   2.433   6.517 -0.9653  0.1892 -1.2807
 5837SOL     OW28972   3.050   2.264   0.798 -0.3153  0.5653 -0.1118
 5837SOL    HW128973   3.122   2.326   0.787  0.2600 -0.0442  0.2184
 5837SOL    HW228974   3.073   2.232   0.885  0.8649 -0.3076 -0.7589
 5838SOL     OW28975   3.554   0.600  13.478 -0.5229  0.8214 -0.0770
 5838SOL    HW128976   3.516   0.584  13.391  1.1876  1.9877 -1.0433
 5838SOL    HW228977   3.484   0.587  13.542 -2.3946 -0.6041 -2.4237
 5839SOL     OW28978   2.362   3.759   9.204 -0.0448  0.4087 -0.3609
 5839SOL    HW128979   2.387   3.735   9.115 -0.1148 -2.2306  0.3089
 5839SOL    HW228980   2.327   3.675   9.234  0.0413 -0.0765 -1.6125
 5840SOL     OW28981   4.152   3.244   3.642 -0.3182  0.2308  0.7274
 5840SOL    HW128982   4.090   3.305   3.602  0.3865  0.8085  0.4957
 5840SOL    HW228983   4.168   3.184   3.569 -2.7422 -0.2582  0.6223
 5841SOL     OW28984   0.415   2.111   4.694  0.1667 -0.1917  0.1939
 5841SOL    HW128985   0.365   2.092   4.615 -3.3889  2.3701  1.8887
 5841SOL    HW228986   0.502   2.109   4.653 -0.5245  0.5228 -1.2987
 5842SOL     OW28987   4.709   3.500   4.603 -0.8697 -0.0568 -0.3648
 5842SOL    HW128988   4.628   3.466   4.642 -0.3981  1.0854  1.6465
 5842SOL    HW228989   0.033   3.423   4.576 -0.2911  0.4393 -0.7159
 5843SOL     OW28990   2.936   0.057   9.813 -0.4851 -0.1673  0.8452
 5843SOL    HW128991   2.882   0.120   9.766 -1.1209  0.9123  3.0158
 5843SOL    HW228992   2.873   0.025   9.878  1.1525  0.7571  2.8972
 5844SOL     OW28993   0.535   1.444  17.481 -0.0292 -0.4614  0.1568
 5844SOL    HW128994   0.563   1.532  17.454 -1.1821  0.2555  1.2541
 5844SOL    HW228995   0.490   1.461  17.564  1.1541 -0.4336  0.8069
 5845SOL     OW28996   2.787   3.559   9.342  0.6526 -0.3887 -0.2462
 5845SOL    HW128997   2.727   3.585   9.411  0.2584  1.1355 -1.1651
 5845SOL    HW228998   2.874   3.574   9.379  0.5970  1.9524 -1.0659
 5846SOL     OW28999   3.176   1.374   9.113  0.1232 -0.2810  0.2749
 5846SOL    HW129000   3.230   1.405   9.185  1.2830  0.1312 -0.7879
 5846SOL    HW229001   3.218   1.290   9.093  0.7499  0.4247 -1.3992
 5847SOL     OW29002   3.642   1.183   4.508 -0.0769 -0.5745 -0.2914
 5847SOL    HW129003   3.736   1.176   4.497 -0.1285 -0.6213 -0.7299
 5847SOL    HW229004   3.604   1.166   4.421  1.3371 -0.9208 -0.8367
 5848SOL     OW29005   2.010   1.990   6.316  0.4197 -0.4415 -0.0404
 5848SOL    HW129006   1.919   1.979   6.290 -0.0934  1.7508  0.7854
 5848SOL    HW229007   1.998   2.069   6.369  3.4964  0.9636 -1.4010
 5849SOL     OW29008   4.186   1.714   4.460  0.0860  0.4393 -0.7472
 5849SOL    HW129009   4.281   1.718   4.464  0.2121 -1.9823 -1.1759
 5849SOL    HW229010   4.154   1.732   4.548  0.5743 -3.1600  0.1563
 5850SOL     OW29011   4.541   2.529  17.025  0.0559 -0.3575 -0.4921
 5850SOL    HW129012   4.526   2.456  17.086 -3.2938  0.3754 -0.4159
 5850SOL    HW229013   4.587   2.493  16.950  0.0509 -0.9155 -0.2314
 5851SOL     OW29014   2.904   0.737   4.921  0.7519 -0.1710 -0.0197
 5851SOL    HW129015   2.958   0.672   4.966 -0.0407 -1.1616 -0.5065
 5851SOL    HW229016   2.899   0.697   4.835 -0.6166  1.3986 -0.6721
 5852SOL     OW29017   0.557   3.012  16.365  0.1984 -0.0389 -0.5485
 5852SOL    HW129018   0.597   2.987  16.282  0.1797  0.7822 -0.8060
 5852SOL    HW229019   0.532   2.926  16.397  1.2886 -0.5795 -1.1913
 5853SOL     OW29020   3.653   0.564   4.085 -0.1332 -0.3941 -0.0645
 5853SOL    HW129021   3.582   0.627   4.074  0.1443 -0.0034  0.3308
 5853SOL    HW229022   3.711   0.632   4.120 -0.1940 -0.0283 -0.6728
 5854SOL     OW29023   1.228   0.876  14.200  0.2187  0.1325 -0.6528
 5854SOL    HW129024   1.139   0.873  14.164  0.2568  0.2064 -0.7520
 5854SOL    HW229025   1.212   0.836  14.285  0.8272  0.2133 -0.4992
 5855SOL     OW29026   4.520   0.314  15.694  0.2175  0.3353  0.3529
 5855SOL    HW129027   4.494   0.364  15.616 -2.1694  0.5848  1.3366
 5855SOL    HW229028   4.523   0.380  15.763  1.1457  1.5141 -0.8058
 5856SOL     OW29029   2.695   0.983   9.009 -0.3793 -0.6441  0.0305
 5856SOL    HW129030   2.756   0.924   9.053  0.6983  1.3083  1.1528
 5856SOL    HW229031   2.611   0.940   9.029 -0.7950  0.0656 -0.1759
 5857SOL     OW29032   3.775   3.477   7.779 -0.0960  0.0021 -0.1474
 5857SOL    HW129033   3.686   3.457   7.750  0.2178 -2.0528  0.2969
 5857SOL    HW229034   3.753   3.486   7.871 -0.7345  0.3334 -0.3377
 5858SOL     OW29035   4.022   3.960   2.802  0.3944 -0.1067  0.6316
 5858SOL    HW129036   4.077   4.034   2.829  1.7938 -0.4270 -1.3056
 5858SOL    HW229037   4.080   3.922   2.735 -0.0909 -1.4455  0.9740
 5859SOL     OW29038   0.322   4.556   2.365  0.0907  0.4156  0.3611
 5859SOL    HW129039   0.349   4.503   2.440 -0.6097 -1.9723 -1.1061
 5859SOL    HW229040   0.407   4.576   2.325 -0.3315  2.6861  0.5876
 5860SOL     OW29041   4.384   1.321   8.829 -0.3988 -0.2921 -0.2664
 5860SOL    HW129042   4.443   1.360   8.765 -1.7942 -2.2549 -2.7602
 5860SOL    HW229043   4.366   1.388   8.895  0.2903  0.7306 -1.1224
 5861SOL     OW29044   1.326   0.563   4.146 -0.1813 -0.2308 -0.4072
 5861SOL    HW129045   1.378   0.623   4.092  0.9927 -0.3459  0.6202
 5861SOL    HW229046   1.340   0.478   4.104  0.5305  0.2814 -1.2065
 5862SOL     OW29047   1.625   0.750  14.276 -0.0982 -0.1390 -0.0242
 5862SOL    HW129048   1.571   0.803  14.334  0.9471 -1.4425  2.1674
 5862SOL    HW229049   1.675   0.814  14.225 -1.8193  0.3161 -1.1169
 5863SOL     OW29050   1.745   3.291   2.583 -0.0662 -0.4613  0.5046
 5863SOL    HW129051   1.743   3.282   2.679  1.2768 -0.2080  0.5647
 5863SOL    HW229052   1.761   3.200   2.556 -0.9847 -0.2832 -0.6049
 5864SOL     OW29053   1.318   3.458   6.785 -0.4496 -0.4258  0.6787
 5864SOL    HW129054   1.308   3.363   6.782 -0.3033 -0.4413  0.7154
 5864SOL    HW229055   1.378   3.486   6.716  0.5617 -0.8176  1.4005
 5865SOL     OW29056   2.363   0.795  14.627  0.1138 -0.0122 -0.5984
 5865SOL    HW129057   2.377   0.882  14.664 -2.0073 -0.1117  0.3594
 5865SOL    HW229058   2.327   0.823  14.542  0.1542 -0.3112 -0.7155
 5866SOL     OW29059   4.553   0.191   8.306 -0.2625  0.0080 -0.5070
 5866SOL    HW129060   4.535   0.256   8.374  0.4993  0.8015 -1.0739
 5866SOL    HW229061   4.593   0.129   8.367  0.1847  1.7414  0.9749
 5867SOL     OW29062   0.521   3.291   6.487  0.2688  0.2405  0.3554
 5867SOL    HW129063   0.540   3.373   6.442  2.0493 -0.4607 -0.1744
 5867SOL    HW229064   0.461   3.327   6.552  0.2372  0.6224  0.1121
 5868SOL     OW29065   2.499   2.429   9.852  0.1256 -0.1725 -0.3348
 5868SOL    HW129066   2.548   2.465   9.778  3.1835 -0.3750  1.5798
 5868SOL    HW229067   2.487   2.509   9.903  1.8516  0.1123 -0.3489
 5869SOL     OW29068   2.419   2.843   8.777  0.3740  0.4181  0.0916
 5869SOL    HW129069   2.385   2.930   8.759 -1.2129 -0.4504 -1.0678
 5869SOL    HW229070   2.404   2.799   8.694  0.1430  1.4485 -0.4105
 5870SOL     OW29071   0.029   0.739   8.227  0.0123  0.3498  0.9893
 5870SOL    HW129072   0.062   0.829   8.221  2.7501 -0.6585  1.0922
 5870SOL    HW229073   0.046   0.709   8.316 -2.4123  0.4110  1.4627
 5871SOL     OW29074   0.564   1.282   8.447 -0.0776 -0.2609  0.5779
 5871SOL    HW129075   0.583   1.354   8.387  0.1866 -0.6683  0.1697
 5871SOL    HW229076   0.572   1.317   8.535  1.1578  0.1263  0.3180
 5872SOL     OW29077   1.037   2.588   8.081 -0.0516  0.7291  0.1940
 5872SOL    HW129078   1.026   2.493   8.076  1.9857  0.5886 -1.1195
 5872SOL    HW229079   1.131   2.590   8.097 -0.4093  1.2315  2.2606
 5873SOL     OW29080   0.334   2.938   8.266  0.8138  0.1857  0.4013
 5873SOL    HW129081   0.374   2.943   8.353 -2.9023  1.1081  2.0143
 5873SOL    HW229082   0.344   3.022   8.221 -0.2646 -0.3486 -0.8147
 5874SOL     OW29083   1.603   4.057   1.266  0.1092  0.2241 -0.9974
 5874SOL    HW129084   1.635   4.009   1.189 -0.4945 -0.2867 -0.9329
 5874SOL    HW229085   1.510   4.038   1.252  0.0928 -0.8896  0.6660
 5875SOL     OW29086   2.803   0.213   0.733  0.3193  0.2358 -0.2389
 5875SOL    HW129087   2.716   0.224   0.773 -0.1340 -2.8951 -0.3857
 5875SOL    HW229088   2.841   0.298   0.753 -3.6601  2.1309 -0.6095
 5876SOL     OW29089   1.283   2.883  14.656  0.3001 -0.2311  0.6734
 5876SOL    HW129090   1.344   2.812  14.674  1.1393  0.8078  1.9414
 5876SOL    HW229091   1.227   2.883  14.734 -0.4105 -0.3837  0.1557
 5877SOL     OW29092   0.686   3.577   4.539  0.3766 -0.5798  0.2549
 5877SOL    HW129093   0.694   3.671   4.522  1.5430 -0.8595 -0.7440
 5877SOL    HW229094   0.614   3.579   4.602  1.0024 -0.1987  0.9710
 5878SOL     OW29095   0.977   1.279  14.518  0.3438 -0.5251  0.2187
 5878SOL    HW129096   1.027   1.222  14.575 -2.8745 -1.1476  2.4368
 5878SOL    HW229097   0.957   1.359  14.566 -1.4262 -1.7765  1.5998
 5879SOL     OW29098   1.900   3.054  16.624 -0.1651  0.3927  0.2980
 5879SOL    HW129099   1.927   2.970  16.660  0.8799  0.2462 -0.8482
 5879SOL    HW229100   1.977   3.110  16.630  0.5123 -0.5843  0.7242
 5880SOL     OW29101   1.633   3.000  15.468 -0.4649  0.2620 -0.4871
 5880SOL    HW129102   1.626   2.978  15.561 -0.0005  1.6622 -0.1196
 5880SOL    HW229103   1.666   3.090  15.467  1.0568 -0.3057 -1.1235
 5881SOL     OW29104   0.229   2.884  13.333  0.4697 -0.4132 -0.7848
 5881SOL    HW129105   0.303   2.850  13.384 -0.5217 -1.3081  0.0343
 5881SOL    HW229106   0.244   2.978  13.345 -0.8095 -0.0521 -1.9528
 5882SOL     OW29107   1.861   0.332   8.476 -0.1295  0.4964 -0.0735
 5882SOL    HW129108   1.797   0.354   8.408 -0.4126 -1.7062 -0.5253
 5882SOL    HW229109   1.838   0.239   8.482  0.8760  0.2778  0.3464
 5883SOL     OW29110   3.093   2.027   3.184  0.7935 -0.7013 -0.0918
 5883SOL    HW129111   3.040   1.975   3.244  0.9105 -1.4724 -0.6663
 5883SOL    HW229112   3.059   2.001   3.099 -0.4266 -1.8219  0.7471
 5884SOL     OW29113   4.371   4.182  11.327  0.8228 -0.3816 -0.3235
 5884SOL    HW129114   4.319   4.152  11.402  0.8364 -1.5070 -0.7687
 5884SOL    HW229115   4.391   4.264  11.372  0.1834  0.3358 -1.3614
 5885SOL     OW29116   4.332   2.705   7.425  0.4622 -0.2240  0.4041
 5885SOL    HW129117   4.404   2.652   7.460  0.2399 -0.6772  0.1769
 5885SOL    HW229118   4.300   2.735   7.511  2.8858  0.3829  1.0922
 5886SOL     OW29119   3.099   0.749   6.325  0.4298  0.2633  0.5323
 5886SOL    HW129120   3.007   0.772   6.326  0.4287  0.3857 -2.4444
 5886SOL    HW229121   3.121   0.810   6.255  1.7424 -2.1472 -1.1662
 5887SOL     OW29122   1.908   3.294  13.531 -0.1038 -0.3829  0.1277
 5887SOL    HW129123   1.819   3.264  13.549 -1.1336  1.8857 -1.1914
 5887SOL    HW229124   1.931   3.252  13.449  3.4437  2.0503 -0.1408
 5888SOL     OW29125   4.699   3.736   6.556  0.0141 -0.5750  0.0605
 5888SOL    HW129126   0.047   3.757   6.615  1.0248 -1.6227 -0.8351
 5888SOL    HW229127   4.677   3.823   6.523 -0.3202  0.3471  2.6777
 5889SOL     OW29128   3.081   4.333   4.305  0.1409 -0.2936 -0.0814
 5889SOL    HW129129   3.131   4.403   4.263 -1.6437 -0.3035 -2.1805
 5889SOL    HW229130   3.025   4.307   4.232 -2.6387 -0.1693  1.9855
 5890SOL     OW29131   1.929   4.272   9.523 -0.3376  0.2767  0.0888
 5890SOL    HW129132   1.926   4.316   9.438  0.4977 -0.4217 -0.3072
 5890SOL    HW229133   1.980   4.193   9.506 -0.5811 -0.2048  1.5615
 5891SOL     OW29134   4.207   0.806   0.479  0.5204  0.0698  0.5199
 5891SOL    HW129135   4.272   0.819   0.410 -0.0217  0.3231  0.0546
 5891SOL    HW229136   4.132   0.857   0.447 -0.1328 -1.2057  0.0396
 5892SOL     OW29137   0.226   0.515   2.621 -0.6172  0.4836 -0.2012
 5892SOL    HW129138   0.270   0.600   2.627 -0.3441  0.1442  2.5943
 5892SOL    HW229139   0.299   0.457   2.597 -0.7061  0.3722 -0.2001
 5893SOL     OW29140   0.195   1.648   5.862  0.7940  0.0859 -0.8098
 5893SOL    HW129141   0.230   1.566   5.897 -0.1004 -0.9278 -2.3156
 5893SOL    HW229142   0.249   1.720   5.895 -0.4004 -0.0553  1.4797
 5894SOL     OW29143   3.889   2.696  16.595 -0.1465  0.4526  0.4368
 5894SOL    HW129144   3.895   2.626  16.530 -0.1977  1.9910 -1.2304
 5894SOL    HW229145   3.981   2.714  16.613  0.0256  0.5084 -0.4920
 5895SOL     OW29146   0.843   0.047   2.953 -0.1327  0.5701 -0.1079
 5895SOL    HW129147   0.913   4.725   2.909 -0.3987 -0.4929  0.5881
 5895SOL    HW229148   0.885   0.096   3.024 -1.1818  0.9609  0.2542
 5896SOL     OW29149   3.703   2.342   2.446 -0.0026  0.2312  0.0367
 5896SOL    HW129150   3.665   2.256   2.428  2.4234 -0.2404 -2.8228
 5896SOL    HW229151   3.703   2.382   2.359 -0.3147  2.9059  1.2686
 5897SOL     OW29152   1.280   4.095  11.143  0.1429  0.1819  0.0052
 5897SOL    HW129153   1.208   4.046  11.103 -0.6144  0.6812  0.7317
 5897SOL    HW229154   1.235   4.093  11.228 -0.1120  0.0865 -0.1306
 5898SOL     OW29155   0.675   0.128   7.479  0.0686  0.9935  0.1952
 5898SOL    HW129156   0.761   0.161   7.504  2.3554 -2.7825 -2.7669
 5898SOL    HW229157   0.654   0.070   7.552  1.1875 -0.2136 -0.4482
 5899SOL     OW29158   2.339   3.330   3.344 -0.4621 -0.4598 -0.6811
 5899SOL    HW129159   2.254   3.303   3.378  0.5005 -2.6462  0.0138
 5899SOL    HW229160   2.347   3.288   3.259  1.4176 -2.4175  0.4458
 5900SOL     OW29161   0.164   2.369   5.303  0.3707 -0.3331 -0.2199
 5900SOL    HW129162   0.190   2.375   5.395  1.2264 -2.4441 -0.3406
 5900SOL    HW229163   0.182   2.278   5.282 -3.5534 -1.8366  2.9767
 5901SOL     OW29164   0.544   3.105   3.339  0.1350  1.2654  0.5268
 5901SOL    HW129165   0.493   3.094   3.419 -1.2154 -0.0770 -0.5153
 5901SOL    HW229166   0.635   3.110   3.369  0.7086 -1.8601 -0.6338
 5902SOL     OW29167   2.269   3.902   5.586  0.3163  0.1738  0.2317
 5902SOL    HW129168   2.178   3.874   5.574  0.0636  0.6315  1.1007
 5902SOL    HW229169   2.263   3.994   5.559 -0.8499  0.2843  0.9044
 5903SOL     OW29170   0.891   0.736  11.440 -0.4643  0.1875 -0.0012
 5903SOL    HW129171   0.905   0.743  11.534 -0.6608 -2.0417  0.1807
 5903SOL    HW229172   0.806   0.693  11.449 -0.1328 -0.4276  0.1700
 5904SOL     OW29173   1.900   1.402  16.802  0.3600 -0.1196  0.1450
 5904SOL    HW129174   1.854   1.387  16.885 -1.4393 -0.1442 -0.8544
 5904SOL    HW229175   1.823   1.387  16.746 -1.1475  3.1599  1.3323
 5905SOL     OW29176   1.936   3.869   5.078 -0.4126 -0.8700  0.3724
 5905SOL    HW129177   2.007   3.918   5.120 -2.0859  0.6704  1.4259
 5905SOL    HW229178   1.900   3.925   5.009  0.9824 -0.6782 -0.1990
 5906SOL     OW29179   4.574   3.493   6.072  0.5964  1.3842 -0.7595
 5906SOL    HW129180   4.544   3.495   6.163  2.4618  1.2361 -0.1354
 5906SOL    HW229181   4.669   3.498   6.077  0.6040  0.9387 -0.4377
 5907SOL     OW29182   3.818   1.557  17.295  0.3702  0.6405 -0.2500
 5907SOL    HW129183   3.861   1.529  17.375 -1.4684  2.0413  1.2471
 5907SOL    HW229184   3.864   1.502  17.232 -1.4376  1.5946 -2.4305
 5908SOL     OW29185   1.831   4.501   3.799  0.8045  0.2205  0.1674
 5908SOL    HW129186   1.833   4.571   3.734 -0.9113 -1.2717 -1.5063
 5908SOL    HW229187   1.751   4.527   3.846  1.1966  0.9599  0.4270
 5909SOL     OW29188   3.620   2.387  15.625 -0.0170 -0.0022 -0.4047
 5909SOL    HW129189   3.525   2.391  15.637  0.2138 -0.0180  1.3952
 5909SOL    HW229190   3.647   2.458  15.684  2.5598 -1.9608  0.7572
 5910SOL     OW29191   0.054   2.851  11.538  0.0297  0.2960  0.0880
 5910SOL    HW129192   0.119   2.782  11.525  0.8756  1.0666  0.2299
 5910SOL    HW229193   0.079   2.884  11.624  2.1333 -0.0612 -0.3836
 5911SOL     OW29194   0.130   0.212   9.543 -0.0422  1.0481 -0.5639
 5911SOL    HW129195   0.077   0.184   9.468  0.0746  1.8787 -0.9627
 5911SOL    HW229196   0.065   0.242   9.606 -0.3254  2.0332 -1.3149
 5912SOL     OW29197   2.218   1.494   8.520  0.2061 -0.0259 -0.2375
 5912SOL    HW129198   2.142   1.538   8.482 -0.1855 -0.7292 -0.2664
 5912SOL    HW229199   2.246   1.555   8.588 -0.0048  0.4553 -0.5890
 5913SOL     OW29200   2.558   0.347   8.245  0.0767 -0.3333  0.1810
 5913SOL    HW129201   2.599   0.388   8.321  0.2306  1.3075 -0.7838
 5913SOL    HW229202   2.555   0.255   8.271 -0.3911 -0.2221  0.5284
 5914SOL     OW29203   4.528   1.252  12.832 -0.0950 -0.5003  0.0720
 5914SOL    HW129204   4.565   1.336  12.859  0.8029 -1.1511  0.9233
 5914SOL    HW229205   4.593   1.183  12.846 -0.5409 -1.1091 -0.8744
 5915SOL     OW29206   0.343   0.070   6.318  0.1164 -0.3634  0.1184
 5915SOL    HW129207   0.281   0.113   6.377 -0.5414  1.0888 -1.6345
 5915SOL    HW229208   0.378   0.011   6.385 -0.7626 -1.7241 -0.6160
 5916SOL     OW29209   3.549   0.906   2.751 -0.4512 -0.1309 -0.3630
 5916SOL    HW129210   3.512   0.824   2.782 -0.4359 -0.8036 -2.1375
 5916SOL    HW229211   3.467   0.949   2.724 -1.3273 -0.5324  1.6945
 5917SOL     OW29212   0.036   2.094   6.445 -0.1187 -0.2800  0.3106
 5917SOL    HW129213   0.063   2.185   6.434  1.0959 -0.3342  2.8309
 5917SOL    HW229214   0.036   2.095   6.541  0.2721 -0.3066  0.3110
 5918SOL     OW29215   1.317   2.582   6.694  0.2112  0.5413 -0.4497
 5918SOL    HW129216   1.408   2.603   6.671  0.0740  1.2333 -0.3542
 5918SOL    HW229217   1.317   2.488   6.677 -0.0850  0.6194 -0.8879
 5919SOL     OW29218   1.789   0.917   1.400  0.1067  0.4658 -0.3653
 5919SOL    HW129219   1.829   0.830   1.393  1.6584  1.1218  0.4351
 5919SOL    HW229220   1.864   0.964   1.436 -0.1845  0.8732 -0.2858
 5920SOL     OW29221   1.668   2.781   9.142 -0.5812  0.5534  0.2100
 5920SOL    HW129222   1.640   2.840   9.212 -0.7225  1.1372 -0.3309
 5920SOL    HW229223   1.588   2.792   9.091  0.0293 -0.4915 -0.9785
 5921SOL     OW29224   1.887   1.750   3.039 -0.3793  0.4710  0.2360
 5921SOL    HW129225   1.885   1.842   3.010 -0.6282 -0.1913 -1.8505
 5921SOL    HW229226   1.824   1.710   2.979 -0.9510 -1.3303  2.0906
 5922SOL     OW29227   3.540   0.025   7.375 -0.1274  0.1344 -0.3873
 5922SOL    HW129228   3.596   0.072   7.437 -1.2801  1.7792 -0.5942
 5922SOL    HW229229   3.514   0.087   7.306 -2.5300 -1.4572 -0.9050
 5923SOL     OW29230   3.622   2.550  10.689  0.1065  0.1064 -0.1429
 5923SOL    HW129231   3.607   2.461  10.657  1.6191 -1.1514  2.6088
 5923SOL    HW229232   3.714   2.563  10.667  0.5110  1.4660  2.3434
 5924SOL     OW29233   1.532   4.097  13.792  0.4991 -0.3461 -0.2666
 5924SOL    HW129234   1.563   4.056  13.873  0.4774  1.0241  0.4451
 5924SOL    HW229235   1.452   4.046  13.780 -0.0807  0.9445 -1.9205
 5925SOL     OW29236   2.152   4.260   4.624 -0.2127 -0.1366  0.0403
 5925SOL    HW129237   2.118   4.343   4.592  0.7210 -0.0544 -0.6977
 5925SOL    HW229238   2.071   4.209   4.632  0.5083 -1.5000 -1.3818
 5926SOL     OW29239   2.287   0.251   4.835  0.2110  0.0272 -0.4973
 5926SOL    HW129240   2.359   0.308   4.863  0.4528  0.2398 -1.5753
 5926SOL    HW229241   2.243   0.313   4.776  0.5266 -1.9104 -2.7441
 5927SOL     OW29242   3.648   4.659   8.679 -0.6694 -0.0764  0.3224
 5927SOL    HW129243   3.568   4.648   8.731  0.4715  0.2704  2.1373
 5927SOL    HW229244   3.618   4.629   8.594 -0.6189 -1.5414  0.8231
 5928SOL     OW29245   0.455   4.606  16.061  0.0900  0.1438  0.3907
 5928SOL    HW129246   0.366   4.607  16.097  0.8148 -2.4234  2.2669
 5928SOL    HW229247   0.434   4.571  15.974 -1.4312  3.6723 -0.6472
 5929SOL     OW29248   1.007   1.073   1.249 -0.5021 -0.2491  0.2205
 5929SOL    HW129249   1.031   1.016   1.322 -1.7463  3.3836  3.4632
 5929SOL    HW229250   0.912   1.061   1.249 -0.7149  1.4874 -0.5745
 5930SOL     OW29251   0.818   3.362   4.482  0.6618 -0.4279 -0.6398
 5930SOL    HW129252   0.762   3.435   4.508 -1.0129 -1.0224 -2.5352
 5930SOL    HW229253   0.888   3.414   4.443  1.3800 -1.4747 -0.7618
 5931SOL     OW29254   4.193   2.872  15.876  0.1730  0.3438 -0.2827
 5931SOL    HW129255   4.129   2.939  15.900  0.0251 -0.2804  1.0598
 5931SOL    HW229256   4.246   2.925  15.816  1.9938 -0.8160  0.3095
 5932SOL     OW29257   3.559   2.348  13.248 -0.5407 -0.5834 -0.1384
 5932SOL    HW129258   3.480   2.399  13.265  0.5293  1.0595 -0.0589
 5932SOL    HW229259   3.552   2.282  13.179 -0.7564  0.4802 -1.1289
 5933SOL     OW29260   2.261   3.894   5.196 -0.0518  0.0242 -0.2892
 5933SOL    HW129261   2.316   3.947   5.254  0.2951 -1.6055  0.8842
 5933SOL    HW229262   2.302   3.927   5.117 -1.4607  0.7403 -0.7171
 5934SOL     OW29263   3.685   0.767   7.117 -0.2764  0.1418 -0.1893
 5934SOL    HW129264   3.756   0.754   7.053  1.1854  0.5144  1.3717
 5934SOL    HW229265   3.723   0.832   7.176  1.6684  1.5097 -2.9403
 5935SOL     OW29266   4.131   2.308  12.305 -0.0477  0.1451  0.3131
 5935SOL    HW129267   4.174   2.327  12.222 -2.9453 -1.0856 -1.4604
 5935SOL    HW229268   4.081   2.231  12.279  0.5519 -0.6170  1.3825
 5936SOL     OW29269   1.711   3.507   7.600 -0.0071 -0.8918  0.7128
 5936SOL    HW129270   1.707   3.521   7.695  1.0725 -2.7895  1.0290
 5936SOL    HW229271   1.619   3.516   7.574 -0.7889 -3.3713  2.5920
 5937SOL     OW29272   0.297   3.416  12.215 -0.1025  0.1594 -0.1636
 5937SOL    HW129273   0.248   3.484  12.261  1.1633  0.5066  0.7012
 5937SOL    HW229274   0.259   3.346  12.268  0.1389  1.3116  1.5554
 5938SOL     OW29275   0.939   0.581  14.140 -0.3316  0.0318 -0.5277
 5938SOL    HW129276   0.942   0.676  14.133  0.1480  0.2432  2.4954
 5938SOL    HW229277   0.941   0.553  14.048 -2.3113 -0.8801 -0.2826
 5939SOL     OW29278   1.064   2.775   5.518  0.1094 -0.8512  0.3701
 5939SOL    HW129279   1.033   2.687   5.539 -1.2863 -0.9265 -2.0199
 5939SOL    HW229280   1.152   2.767   5.481 -0.2624  2.2392 -1.2293
 5940SOL     OW29281   2.577   0.110   6.246  0.6390  0.6378  0.3550
 5940SOL    HW129282   2.634   0.177   6.284 -0.8245  1.1989  1.5387
 5940SOL    HW229283   2.535   0.160   6.176 -0.5135  0.5920  1.0135
 5941SOL     OW29284   1.856   2.034   8.211 -0.6547  0.6468 -0.5650
 5941SOL    HW129285   1.847   2.007   8.119 -1.1050  3.6266 -1.3811
 5941SOL    HW229286   1.767   2.008   8.231 -0.1567 -0.0531  0.7374
 5942SOL     OW29287   2.205   3.435  17.129  0.0567 -0.2263  0.4815
 5942SOL    HW129288   2.138   3.481  17.079  1.3337  0.8637 -0.2153
 5942SOL    HW229289   2.278   3.457  17.071 -1.9294  1.2733 -1.4181
 5943SOL     OW29290   0.686   2.570   6.672  0.6244  0.0789  0.1509
 5943SOL    HW129291   0.621   2.637   6.691 -1.9474 -2.4982  0.3794
 5943SOL    HW229292   0.697   2.578   6.577 -3.4608 -0.8868 -0.3829
 5944SOL     OW29293   2.015   2.644   6.880  0.4691 -0.1849  0.0692
 5944SOL    HW129294   2.014   2.557   6.919  1.6080  1.1141  3.0599
 5944SOL    HW229295   2.028   2.699   6.958 -3.3706  1.6301 -0.5377
 5945SOL     OW29296   4.678   0.655   1.156 -0.8421  0.1015  0.4090
 5945SOL    HW129297   4.615   0.727   1.152 -0.6293  0.3324  1.1720
 5945SOL    HW229298   4.661   0.624   1.245  0.3510 -0.2786  0.5136
 5946SOL     OW29299   1.515   1.997   5.029  0.4232 -0.4425 -0.5043
 5946SOL    HW129300   1.501   2.063   5.096  0.4485 -0.6916 -0.2523
 5946SOL    HW229301   1.609   2.015   5.023  0.2389 -0.3730 -3.4295
 5947SOL     OW29302   3.688   2.433  13.460 -0.6174 -0.4546 -0.0288
 5947SOL    HW129303   3.636   2.402  13.386 -2.0074 -0.5219  0.9868
 5947SOL    HW229304   3.636   2.392  13.530  0.3572 -1.9660 -0.1841
 5948SOL     OW29305   4.142   1.663   4.090  0.4470  0.2004  0.2363
 5948SOL    HW129306   4.146   1.589   4.150  1.1703 -1.5941 -1.9986
 5948SOL    HW229307   4.114   1.740   4.140 -0.4045  0.5419 -0.7474
 5949SOL     OW29308   4.499   2.179   5.825 -0.2573  0.1864 -0.6182
 5949SOL    HW129309   4.419   2.214   5.787  0.1393  0.8739 -0.8181
 5949SOL    HW229310   4.549   2.164   5.745  1.1557 -0.9560  0.4737
 5950SOL     OW29311   4.303   0.988   2.434 -0.5732 -0.4003  0.5189
 5950SOL    HW129312   4.334   1.046   2.503 -0.4891  1.7430 -1.3062
 5950SOL    HW229313   4.374   0.925   2.420  1.1500  1.4065  1.0851
 5951SOL     OW29314   4.057   2.456   5.269 -0.2273 -0.0258  0.0425
 5951SOL    HW129315   3.966   2.466   5.295 -0.5087 -2.2058 -0.1297
 5951SOL    HW229316   4.107   2.498   5.339  2.4861 -2.0471 -0.6853
 5952SOL     OW29317   3.399   2.738  12.891 -0.1113  0.0601  0.6268
 5952SOL    HW129318   3.406   2.739  12.796 -0.8792 -0.9099  0.5652
 5952SOL    HW229319   3.320   2.792  12.896  0.4508  0.7447  2.1456
 5953SOL     OW29320   0.015   1.077  17.466 -0.5020  0.2406 -0.5521
 5953SOL    HW129321   4.692   1.149  17.506 -0.4325 -0.4017  0.6951
 5953SOL    HW229322   4.686   1.051  17.391 -1.8709 -0.5387  0.7108
 5954SOL     OW29323   3.256   2.712   9.712 -0.1035 -0.6376  0.7872
 5954SOL    HW129324   3.201   2.686   9.638  2.7793  0.0166 -1.6026
 5954SOL    HW229325   3.205   2.684   9.788 -0.0178 -1.8264  0.4155
 5955SOL     OW29326   3.337   0.266   2.830 -0.4977  0.7315 -0.3233
 5955SOL    HW129327   3.268   0.330   2.810 -0.2931  0.8690 -0.5738
 5955SOL    HW229328   3.313   0.191   2.776  1.1942 -0.6297  0.8199
 5956SOL     OW29329   4.016   4.354   4.665  0.2482  0.4220  0.3416
 5956SOL    HW129330   4.091   4.411   4.647  1.7801 -1.6607  0.2392
 5956SOL    HW229331   3.944   4.418   4.674  0.4111  0.1287  3.9359
 5957SOL     OW29332   3.890   4.395   8.029  0.1431 -0.7625  0.0307
 5957SOL    HW129333   3.866   4.471   7.975 -2.4576 -0.2591  1.8844
 5957SOL    HW229334   3.981   4.409   8.052  0.9383 -1.2006 -2.7945
 5958SOL     OW29335   2.237   4.453  17.308 -0.4540  0.1858 -0.2204
 5958SOL    HW129336   2.191   4.523  17.262  1.3291 -0.3389 -2.8233
 5958SOL    HW229337   2.308   4.438  17.244  0.5229  0.0046  0.9030
 5959SOL     OW29338   2.876   3.508  15.011  0.2822 -0.3467  0.5657
 5959SOL    HW129339   2.824   3.586  15.025 -0.8952 -0.7092 -1.7929
 5959SOL    HW229340   2.878   3.501  14.916  2.8826  0.7469  0.5224
 5960SOL     OW29341   1.155   2.877   5.022  0.2264 -0.4882 -0.0701
 5960SOL    HW129342   1.065   2.867   5.055  0.5703 -2.0671  0.4302
 5960SOL    HW229343   1.150   2.961   4.978  2.8722 -0.1633  0.2700
 5961SOL     OW29344   4.047   4.260  16.053  0.1309 -0.2196 -0.5477
 5961SOL    HW129345   4.040   4.237  15.961  0.8956 -2.5873 -0.0356
 5961SOL    HW229346   4.084   4.347  16.040 -0.2894  0.1390  0.6471
 5962SOL     OW29347   4.717   3.061   3.418  0.5380  0.5734 -0.0313
 5962SOL    HW129348   0.076   3.045   3.376 -0.2287  1.1211 -1.7911
 5962SOL    HW229349   0.005   3.023   3.505  1.6335 -0.0676 -0.4895
 5963SOL     OW29350   4.518   2.259   3.600  0.1968  0.3864  0.1490
 5963SOL    HW129351   4.448   2.224   3.657 -1.8235  1.0528 -1.9175
 5963SOL    HW229352   4.480   2.272   3.513  0.9632  1.7048  0.0100
 5964SOL     OW29353   3.230   2.198   7.653  0.5882 -0.3577  0.2653
 5964SOL    HW129354   3.235   2.173   7.745 -0.1627  3.3834  1.3181
 5964SOL    HW229355   3.205   2.118   7.606 -0.2216  0.0675 -0.0100
 5965SOL     OW29356   2.362   3.605  12.010  0.2853  0.0396  0.3152
 5965SOL    HW129357   2.352   3.695  12.040 -0.5716 -0.0898  0.4322
 5965SOL    HW229358   2.343   3.614  11.917 -0.6723 -0.1003  0.5023
 5966SOL     OW29359   4.023   1.015   2.392  0.1906 -0.2308  0.1261
 5966SOL    HW129360   4.023   0.927   2.354 -0.0916 -0.1072 -0.1598
 5966SOL    HW229361   4.113   1.037   2.369  0.5027 -0.7469  0.8413
 5967SOL     OW29362   4.500   0.897   4.977 -0.1822  0.0481  0.0169
 5967SOL    HW129363   4.421   0.946   5.000  0.9401  1.1371  1.4787
 5967SOL    HW229364   4.475   0.807   5.000 -0.6664 -0.4491 -2.4163
 5968SOL     OW29365   3.265   1.765   0.699  0.1857  0.5016  0.3147
 5968SOL    HW129366   3.189   1.823   0.701 -0.5676 -0.4429 -0.3513
 5968SOL    HW229367   3.306   1.792   0.616 -0.4240 -1.3708 -0.6029
 5969SOL     OW29368   2.592   4.412   5.965 -0.2587  0.0628 -0.3082
 5969SOL    HW129369   2.656   4.342   5.977  0.3730  0.5376 -0.8853
 5969SOL    HW229370   2.535   4.401   6.041 -1.1638  2.9041 -0.5850
 5970SOL     OW29371   4.088   4.148   1.728 -0.2932 -0.1255  0.2943
 5970SOL    HW129372   4.115   4.094   1.654 -2.8071  0.2601 -0.8876
 5970SOL    HW229373   4.164   4.205   1.738 -0.6741  0.2487  1.0466
 5971SOL     OW29374   1.564   2.312   2.421 -0.2100  0.3811  0.7297
 5971SOL    HW129375   1.499   2.382   2.424  0.5869  1.1708 -0.7375
 5971SOL    HW229376   1.554   2.268   2.337 -0.7194 -1.9362  1.9986
 5972SOL     OW29377   0.839   0.748   8.656 -0.4918 -0.4069 -0.7020
 5972SOL    HW129378   0.879   0.706   8.733 -1.0205  0.8593  0.2497
 5972SOL    HW229379   0.912   0.722   8.599  0.7747 -3.1802  2.1376
 5973SOL     OW29380   3.324   4.476   0.130  0.1555 -0.1866  0.0954
 5973SOL    HW129381   3.374   4.507   0.205  1.9811  0.2356 -1.3065
 5973SOL    HW229382   3.338   4.381   0.130  2.0112  0.0923 -1.5504
 5974SOL     OW29383   4.581   3.452  15.726  0.2564 -0.0448  0.7643
 5974SOL    HW129384   4.540   3.379  15.680 -3.0440  3.5923 -2.1549
 5974SOL    HW229385   4.660   3.408  15.757  1.2126  0.2918 -1.1930
 5975SOL     OW29386   3.316   0.819   2.454  0.0148  0.2776 -0.0396
 5975SOL    HW129387   3.404   0.820   2.416  0.4926  1.3262  1.0916
 5975SOL    HW229388   3.276   0.764   2.386  1.2487  1.7634 -1.9478
 5976SOL     OW29389   1.665   3.940   3.118 -0.2979 -0.2270 -0.6147
 5976SOL    HW129390   1.641   4.003   3.186 -1.3603 -0.9490 -0.3244
 5976SOL    HW229391   1.696   4.001   3.051 -0.9366  0.3739 -0.3665
 5977SOL     OW29392   4.258   2.528  12.471  0.7507 -0.1105  0.7802
 5977SOL    HW129393   4.179   2.554  12.424  2.6765  0.1599 -2.3480
 5977SOL    HW229394   4.242   2.434  12.460 -0.2693  0.2692 -0.9150
 5978SOL     OW29395   1.658   4.522   6.857 -0.0386  0.1767 -0.2120
 5978SOL    HW129396   1.643   4.559   6.944  4.2931  0.7859  0.2798
 5978SOL    HW229397   1.686   4.435   6.885  1.6391  0.4078 -1.1444
 5979SOL     OW29398   3.130   0.352  13.864 -0.0858  0.0127  0.2053
 5979SOL    HW129399   3.163   0.368  13.776 -0.3393 -0.2350  0.0624
 5979SOL    HW229400   3.104   0.435  13.903 -2.2990 -2.1208  3.2811
 5980SOL     OW29401   2.986   4.597   2.192 -0.2879  0.1692 -0.2131
 5980SOL    HW129402   3.073   4.564   2.172 -0.8551 -0.1519 -2.1517
 5980SOL    HW229403   2.941   4.518   2.225  1.1040 -0.9377 -0.9734
 5981SOL     OW29404   1.412   3.763   5.649 -0.0933  0.5348  0.1629
 5981SOL    HW129405   1.388   3.803   5.733 -1.7875  1.4419 -0.7699
 5981SOL    HW229406   1.419   3.838   5.589  1.5702  0.6052  0.4232
 5982SOL     OW29407   4.472   4.379  12.834  0.2870 -0.0755  0.5267
 5982SOL    HW129408   4.433   4.448  12.781  0.4420 -0.4832 -0.1228
 5982SOL    HW229409   4.400   4.319  12.855  0.8935 -0.9998 -0.0542
 5983SOL     OW29410   0.024   2.825   7.342  0.2036 -0.4170 -0.3596
 5983SOL    HW129411   0.109   2.868   7.338  0.2824 -0.6182 -0.8401
 5983SOL    HW229412   4.690   2.892   7.377  0.4199 -0.9972  1.1320
 5984SOL     OW29413   0.097   3.147  14.521 -0.5055  0.6920 -0.0921
 5984SOL    HW129414   0.176   3.094  14.519 -1.2988 -0.3089 -4.5613
 5984SOL    HW229415   0.027   3.081  14.520  1.1932 -1.1953  3.7765
 5985SOL     OW29416   4.180   0.376   7.070  0.3892 -0.2479  0.2503
 5985SOL    HW129417   4.154   0.404   7.158 -1.2953 -2.5605  0.5013
 5985SOL    HW229418   4.108   0.416   7.021  1.1882  0.4575 -0.3262
 5986SOL     OW29419   0.065   1.309  17.679 -0.4571 -0.0084 -0.0390
 5986SOL    HW129420   0.040   1.400  17.695 -0.9640  0.0648 -1.2399
 5986SOL    HW229421   0.048   1.277   0.066 -1.7641  0.8147 -0.0001
 5987SOL     OW29422   0.613   0.138   5.529 -0.1617  0.2006  0.1640
 5987SOL    HW129423   0.533   0.117   5.481  0.4160  0.6224 -0.9884
 5987SOL    HW229424   0.609   0.099   5.616  2.3632  2.5473  1.3476
 5988SOL     OW29425   1.539   4.331   8.433 -0.2127  0.4341 -0.3799
 5988SOL    HW129426   1.481   4.401   8.464 -1.7809  0.5566 -3.5696
 5988SOL    HW229427   1.576   4.308   8.518 -2.6341 -1.8323  0.0604
 5989SOL     OW29428   1.865   0.805  15.842 -0.3181 -0.6543  0.1939
 5989SOL    HW129429   1.907   0.794  15.757 -2.0608  1.3438 -0.9134
 5989SOL    HW229430   1.784   0.853  15.825  0.5913  0.5795 -0.6232
 5990SOL     OW29431   1.008   0.187   6.028 -0.1292 -0.1704 -0.5307
 5990SOL    HW129432   1.000   0.233   6.112  0.3450 -0.1294 -0.5095
 5990SOL    HW229433   1.061   0.251   5.981 -0.2455 -1.5148 -2.5058
 5991SOL     OW29434   4.453   3.604   2.812  0.5365 -0.4503 -0.2052
 5991SOL    HW129435   4.407   3.674   2.859 -2.3590 -1.9419 -0.8666
 5991SOL    HW229436   4.387   3.567   2.754  0.8608 -2.1862  0.5423
 5992SOL     OW29437   4.141   1.351   7.444  0.3396  0.0584  0.3252
 5992SOL    HW129438   4.099   1.312   7.520 -1.0004  1.6363  0.4087
 5992SOL    HW229439   4.179   1.421   7.497 -1.5709  1.4008 -0.0900
 5993SOL     OW29440   0.456   4.040   0.851 -0.3435  0.1399 -0.2425
 5993SOL    HW129441   0.474   3.958   0.897  0.4612  0.2951 -0.2762
 5993SOL    HW229442   0.516   4.035   0.776 -0.5708 -0.6185 -0.3705
 5994SOL     OW29443   4.646   0.264   9.688  0.0456 -0.6647  0.5509
 5994SOL    HW129444   4.566   0.258   9.635  0.7145  0.6414 -0.6193
 5994SOL    HW229445   4.630   0.185   9.739 -0.4880 -1.2008 -0.4352
 5995SOL     OW29446   2.992   1.160  15.637  0.5285 -0.7363  0.0272
 5995SOL    HW129447   2.933   1.196  15.571 -2.6417 -2.4216  1.9480
 5995SOL    HW229448   3.081   1.178  15.606  0.0791  1.2370 -0.1382
 5996SOL     OW29449   0.106   1.133   6.925 -0.3510 -0.1992  0.0596
 5996SOL    HW129450   0.176   1.110   6.865 -1.2416 -3.0028  0.1086
 5996SOL    HW229451   0.061   1.187   6.861  0.2746  0.5694  0.2594
 5997SOL     OW29452   1.220   1.797   6.761 -0.2607  0.6213  0.5094
 5997SOL    HW129453   1.276   1.868   6.792 -1.8699  1.3568  1.7069
 5997SOL    HW229454   1.199   1.820   6.671 -0.1198  0.1853  0.3661
 5998SOL     OW29455   3.916   3.240  16.909 -0.0469  0.5144 -0.2081
 5998SOL    HW129456   3.858   3.275  16.977 -0.2101 -0.6890  0.2643
 5998SOL    HW229457   3.893   3.297  16.835  0.1504  1.1027  0.1803
 5999SOL     OW29458   1.965   3.959  10.935 -0.5895 -0.1170 -0.1305
 5999SOL    HW129459   2.044   3.996  10.895 -0.9101 -2.2170 -2.6619
 5999SOL    HW229460   1.915   3.939  10.856  0.8947 -2.1151 -0.5630
 6000SOL     OW29461   3.809   1.715   4.042  0.0026 -0.4406  0.1940
 6000SOL    HW129462   3.863   1.639   4.020  1.1027  0.4738 -0.2550
 6000SOL    HW229463   3.867   1.758   4.105 -2.2674  0.9493  1.3536
 6001SOL     OW29464   2.382   0.108  12.538  0.4318  0.0635  0.4819
 6001SOL    HW129465   2.317   0.083  12.472 -0.0218  0.9760  0.5862
 6001SOL    HW229466   2.433   0.028  12.555 -0.2788 -0.7498 -1.1615
 6002SOL     OW29467   1.682   0.132   6.191  0.1912 -0.3333 -0.4233
 6002SOL    HW129468   1.713   0.047   6.221  0.4179  0.3265  1.2137
 6002SOL    HW229469   1.629   0.112   6.113 -0.1671  0.2305 -0.3273
 6003SOL     OW29470   2.202   4.108  11.709  0.0572 -0.1484  0.0733
 6003SOL    HW129471   2.113   4.141  11.697  0.1260 -0.4982 -1.4363
 6003SOL    HW229472   2.253   4.185  11.735 -1.2554  1.0169 -0.7894
 6004SOL     OW29473   3.823   1.928   4.398 -0.2030 -0.1114 -0.0400
 6004SOL    HW129474   3.735   1.919   4.361 -0.4336  1.6074  0.0581
 6004SOL    HW229475   3.830   1.858   4.463  0.0158  0.2430  0.3155
 6005SOL     OW29476   4.278   0.344   8.228  0.3483 -0.1512  0.0816
 6005SOL    HW129477   4.323   0.355   8.312  2.0025  2.1027 -1.0978
 6005SOL    HW229478   4.197   0.373   8.269 -0.0292 -1.5406  0.2999
 6006SOL     OW29479   3.090   0.343   7.294 -0.7932  0.1996 -0.5450
 6006SOL    HW129480   3.001   0.308   7.283 -0.6540  0.2930 -1.9566
 6006SOL    HW229481   3.139   0.267   7.262 -0.0677  0.5911 -0.3426
 6007SOL     OW29482   0.077   4.111   8.552 -0.4022 -0.4615 -0.5209
 6007SOL    HW129483   0.008   4.137   8.613  0.3149  2.6529 -1.0423
 6007SOL    HW229484   0.071   4.179   8.486  3.3414 -1.7249 -2.1405
 6008SOL     OW29485   0.755   0.188   5.926  0.1764 -0.5046  0.3042
 6008SOL    HW129486   0.842   0.205   5.961  0.6220 -1.7918 -0.1712
 6008SOL    HW229487   0.722   0.129   5.995 -1.4151  0.1699  0.1247
 6009SOL     OW29488   2.921   1.878  10.389  0.0458  0.0447  0.0565
 6009SOL    HW129489   2.874   1.961  10.399  3.4596  2.2395 -2.3587
 6009SOL    HW229490   2.849   1.821  10.360 -0.5420  1.4486 -1.2531
 6010SOL     OW29491   0.366   4.044  16.676  0.4825  0.4962 -0.0269
 6010SOL    HW129492   0.329   4.120  16.722 -0.3108 -0.4994  0.9971
 6010SOL    HW229493   0.372   3.982  16.750  0.9316  1.6579  0.9116
 6011SOL     OW29494   1.939   0.731   7.209 -0.1678 -0.2787  0.2169
 6011SOL    HW129495   2.004   0.686   7.155 -0.1570  1.5994 -1.3192
 6011SOL    HW229496   1.950   0.683   7.292 -1.1800  0.0247  0.5166
 6012SOL     OW29497   3.347   1.018  14.731 -0.2786 -0.0405 -0.1956
 6012SOL    HW129498   3.359   1.017  14.636 -0.1608 -3.0702 -0.1470
 6012SOL    HW229499   3.410   0.958  14.771 -0.1871  0.2484  0.0930
 6013SOL     OW29500   3.612   1.277   0.943 -0.9856 -0.2895  0.6600
 6013SOL    HW129501   3.676   1.266   0.873 -0.0594 -0.0692  1.4695
 6013SOL    HW229502   3.544   1.219   0.907 -0.2788 -0.1629 -0.8851
 6014SOL     OW29503   4.062   4.230   5.580  0.4589 -0.4395  0.5754
 6014SOL    HW129504   4.127   4.260   5.644  0.5050 -0.9680  0.7738
 6014SOL    HW229505   4.100   4.151   5.541 -2.1323 -1.0771 -0.6363
 6015SOL     OW29506   2.563   1.182   3.424  0.0464  0.3476 -0.1355
 6015SOL    HW129507   2.480   1.192   3.376 -0.4303 -1.7577  0.2918
 6015SOL    HW229508   2.537   1.100   3.465 -1.8710  1.4521  0.8626
 6016SOL     OW29509   3.221   2.929   6.231 -0.0168  0.3940 -0.3781
 6016SOL    HW129510   3.205   2.835   6.225 -0.1806  0.2374  2.7249
 6016SOL    HW229511   3.139   2.977   6.221 -0.7406 -0.1658  2.9064
 6017SOL     OW29512   2.768   4.139   1.586 -0.0605  0.5520  0.9384
 6017SOL    HW129513   2.827   4.206   1.550 -1.2110  0.7098 -0.6331
 6017SOL    HW229514   2.790   4.140   1.679  1.4361  1.4582  0.5789
 6018SOL     OW29515   4.595   0.021   1.482 -0.0455  0.1232 -0.4096
 6018SOL    HW129516   4.536   0.027   1.557  1.3159 -1.7948  0.8349
 6018SOL    HW229517   4.606   4.651   1.481 -3.3178 -0.2651 -0.5003
 6019SOL     OW29518   4.217   4.320   7.192 -0.3434  0.2298 -0.2549
 6019SOL    HW129519   4.178   4.390   7.246 -1.1654 -0.1339 -0.3770
 6019SOL    HW229520   4.140   4.294   7.140 -1.1479 -2.7794  2.4896
 6020SOL     OW29521   4.302   0.699  11.186 -0.0108  0.4541  0.0522
 6020SOL    HW129522   4.254   0.769  11.141 -1.0034 -1.0184 -1.1680
 6020SOL    HW229523   4.373   0.754  11.220  1.3524  0.0620 -2.1514
 6021SOL     OW29524   2.814   0.563   1.301  0.2769  0.0129 -0.6489
 6021SOL    HW129525   2.844   0.473   1.287 -0.1507 -0.1930 -0.2285
 6021SOL    HW229526   2.882   0.588   1.363  0.2706 -0.6725 -0.3678
 6022SOL     OW29527   2.553   3.028  16.822 -0.1309 -0.3885  0.0658
 6022SOL    HW129528   2.479   3.064  16.871  0.8071  0.9774  0.4748
 6022SOL    HW229529   2.626   3.068  16.869 -0.7035  1.8683 -0.9631
 6023SOL     OW29530   2.515   4.394  16.039  0.0304  0.2085  0.0348
 6023SOL    HW129531   2.578   4.360  16.102  0.4882  2.2065  0.6558
 6023SOL    HW229532   2.439   4.392  16.097  1.3945  1.6963  1.8973
 6024SOL     OW29533   4.439   2.008  13.131  0.4366 -0.0672 -0.2732
 6024SOL    HW129534   4.374   2.011  13.201 -0.5381 -0.1112 -1.1798
 6024SOL    HW229535   4.395   1.951  13.068  1.3643 -0.6809 -0.3800
 6025SOL     OW29536   1.899   1.939   2.106 -0.3594  0.3380 -0.5246
 6025SOL    HW129537   1.959   1.973   2.172  0.5408 -0.4342 -0.9379
 6025SOL    HW229538   1.816   1.963   2.147 -1.3674 -0.8373 -1.8385
 6026SOL     OW29539   2.411   3.961  10.172  0.0592  0.0699 -0.2284
 6026SOL    HW129540   2.423   3.885  10.116  1.1950 -0.8689  1.2685
 6026SOL    HW229541   2.418   3.926  10.261  0.9358 -1.0646 -0.7532
 6027SOL     OW29542   0.975   1.690  14.652  0.4531 -0.2490 -0.6345
 6027SOL    HW129543   1.054   1.705  14.599  0.6563 -2.0960 -0.8243
 6027SOL    HW229544   0.926   1.768  14.624  2.9604  1.4813 -0.2172
 6028SOL     OW29545   1.116   2.820  12.371 -0.3060 -0.5874 -0.4721
 6028SOL    HW129546   1.143   2.911  12.370  1.4887 -1.1334 -1.7861
 6028SOL    HW229547   1.206   2.794  12.390  0.3475  3.3503  1.8246
 6029SOL     OW29548   2.319   0.405  16.922  0.5627 -0.1774 -0.6603
 6029SOL    HW129549   2.296   0.316  16.894 -1.9460 -0.3020  1.8205
 6029SOL    HW229550   2.282   0.413  17.010 -1.3368  2.6667 -1.7183
 6030SOL     OW29551   0.280   4.435   2.790 -0.2884  0.5584 -0.3732
 6030SOL    HW129552   0.260   4.350   2.829 -0.1398  1.1146  0.9169
 6030SOL    HW229553   0.188   4.458   2.780  0.0676  2.4192  0.6092
 6031SOL     OW29554   4.433   4.510  13.928 -0.2179  0.1339 -0.1521
 6031SOL    HW129555   4.508   4.504  13.869 -1.8332  0.3019 -2.2309
 6031SOL    HW229556   4.474   4.501  14.014 -0.3227  0.2896 -0.0861
 6032SOL     OW29557   0.084   0.969   4.229 -0.1706  0.1629 -0.3010
 6032SOL    HW129558   0.152   1.003   4.288 -1.0031  0.2501  0.6022
 6032SOL    HW229559   0.072   0.886   4.276 -0.3815 -1.1403 -2.6517
 6033SOL     OW29560   4.309   2.375   7.162  0.2674  0.0438 -0.7820
 6033SOL    HW129561   4.392   2.420   7.146 -0.1974  2.3665  3.3589
 6033SOL    HW229562   4.331   2.342   7.249 -1.2297 -0.2664 -0.5308
 6034SOL     OW29563   2.647   2.364   6.661 -0.2731 -0.1350  0.2281
 6034SOL    HW129564   2.628   2.321   6.578  0.1126  0.2949 -0.0817
 6034SOL    HW229565   2.652   2.459   6.650 -0.0780  0.2420  3.4697
 6035SOL     OW29566   0.296   3.352   0.328  0.1439 -0.3121  0.1027
 6035SOL    HW129567   0.217   3.406   0.327  1.0952  1.1290  1.7955
 6035SOL    HW229568   0.316   3.355   0.421  1.7417  1.2743 -0.2859
 6036SOL     OW29569   3.564   2.109   2.394 -0.1388 -0.3149  0.3534
 6036SOL    HW129570   3.581   2.035   2.336  1.3877 -0.5686  1.1190
 6036SOL    HW229571   3.500   2.078   2.458 -2.9644  1.4483 -1.6537
 6037SOL     OW29572   0.864   0.875   9.235 -0.1342  0.5730  0.0251
 6037SOL    HW129573   0.788   0.888   9.291 -1.5033 -0.2362 -1.6423
 6037SOL    HW229574   0.934   0.878   9.300 -0.5147  2.0394  0.3712
 6038SOL     OW29575   1.781   3.599   7.168 -0.4286 -0.2355  0.2921
 6038SOL    HW129576   1.736   3.580   7.085  0.7381  1.3617 -0.6865
 6038SOL    HW229577   1.855   3.651   7.138 -1.2017  0.0737 -1.1125
 6039SOL     OW29578   4.659   2.064  15.264 -0.5213 -0.3990 -0.0158
 6039SOL    HW129579   4.618   2.139  15.309  1.0707  0.9391 -0.7804
 6039SOL    HW229580   0.022   2.102  15.269 -0.2067 -1.0868 -0.4317
 6040SOL     OW29581   0.896   0.523   8.472  0.0673  0.5111 -0.1784
 6040SOL    HW129582   0.959   0.510   8.401 -0.4411  1.9410 -0.8857
 6040SOL    HW229583   0.944   0.520   8.554 -1.7010 -0.8560  0.8037
 6041SOL     OW29584   0.586   2.129   8.087  0.0781  0.1082 -0.0008
 6041SOL    HW129585   0.553   2.113   7.999  0.0361 -1.2668  0.2621
 6041SOL    HW229586   0.577   2.223   8.097  1.4577  0.1503  0.8671
 6042SOL     OW29587   2.866   3.422  16.789  0.4663 -0.4558  0.1037
 6042SOL    HW129588   2.962   3.418  16.785  0.4615  0.3874 -0.8037
 6042SOL    HW229589   2.865   3.506  16.836  0.5375 -0.5846  0.3375
 6043SOL     OW29590   2.729   2.164  10.369 -0.0088  0.5190  0.1787
 6043SOL    HW129591   2.746   2.256  10.353 -0.9922  0.6975  0.1168
 6043SOL    HW229592   2.759   2.152  10.459  0.2097  3.4317  0.4848
 6044SOL     OW29593   2.342   4.490  12.230 -0.3937 -0.1995  0.0609
 6044SOL    HW129594   2.433   4.487  12.260 -0.0528  0.3425 -0.9095
 6044SOL    HW229595   2.358   4.509  12.137  0.6840  1.3705  0.5576
 6045SOL     OW29596   2.485   2.417  12.461 -0.0128  0.1716 -0.0771
 6045SOL    HW129597   2.494   2.369  12.379  1.3176  0.9058 -0.3565
 6045SOL    HW229598   2.560   2.377  12.506 -1.3530 -2.0287  0.2038
 6046SOL     OW29599   1.533   4.614   4.271  0.7085  0.2618 -0.2162
 6046SOL    HW129600   1.523   4.524   4.243  1.9767 -0.2584  0.9535
 6046SOL    HW229601   1.587   4.602   4.350  0.2862 -1.8304 -0.2640
 6047SOL     OW29602   2.798   2.216  11.577  0.4453  0.0507 -0.1075
 6047SOL    HW129603   2.719   2.262  11.549  0.8342 -1.1557 -3.2311
 6047SOL    HW229604   2.752   2.137  11.606  0.1058  0.5901  0.7940
 6048SOL     OW29605   4.112   1.701   6.808  0.2515 -0.2718  0.5399
 6048SOL    HW129606   4.070   1.780   6.841  1.7323  0.1083  1.5433
 6048SOL    HW229607   4.064   1.628   6.848  0.1260  0.9866  2.7028
 6049SOL     OW29608   1.631   1.938   3.313 -0.4388 -0.3994  0.3366
 6049SOL    HW129609   1.552   1.913   3.360 -0.1566  0.0970  1.0781
 6049SOL    HW229610   1.595   2.003   3.252 -0.7834 -0.6286  0.2959
 6050SOL     OW29611   3.037   4.060   5.946  0.2840 -0.0213 -0.2734
 6050SOL    HW129612   3.097   4.021   5.882  1.0384  0.2558  0.2660
 6050SOL    HW229613   3.017   4.147   5.912 -0.0565  1.1488  2.9590
 6051SOL     OW29614   0.384   1.924   2.537 -0.3953  0.1643 -0.3013
 6051SOL    HW129615   0.404   1.999   2.480 -0.4226  0.8632  0.6110
 6051SOL    HW229616   0.288   1.928   2.539 -0.4249 -1.6805  1.3280
 6052SOL     OW29617   3.184   3.595   1.176 -0.5621 -0.3190 -0.1611
 6052SOL    HW129618   3.168   3.667   1.115 -0.0948  0.2427  0.3798
 6052SOL    HW229619   3.246   3.538   1.132 -1.0077 -1.1264  0.2548
 6053SOL     OW29620   2.108   1.344   2.514 -0.7495 -0.4244 -0.2113
 6053SOL    HW129621   2.201   1.324   2.524 -1.0352 -0.8524  1.5758
 6053SOL    HW229622   2.122   1.437   2.494  1.1129 -0.7075 -0.2427
 6054SOL     OW29623   2.848   0.769   3.562  0.0636  0.3391 -0.4413
 6054SOL    HW129624   2.934   0.803   3.586  0.5903 -0.3462 -1.3452
 6054SOL    HW229625   2.853   0.803   3.473 -0.4720 -0.3754 -0.7457
 6055SOL     OW29626   1.346   1.126  10.790 -0.0079 -0.0366  0.2342
 6055SOL    HW129627   1.360   1.215  10.759  0.9123 -0.1133  0.4334
 6055SOL    HW229628   1.264   1.091  10.755  1.2051 -4.4595  1.8530
 6056SOL     OW29629   2.303   2.365   2.893  0.0440  0.4831 -0.0287
 6056SOL    HW129630   2.356   2.407   2.961 -0.5203  0.3655  0.4827
 6056SOL    HW229631   2.374   2.355   2.830 -0.6519 -1.6842 -0.4519
 6057SOL     OW29632   2.538   1.968  11.388  0.3567  0.4700  0.0723
 6057SOL    HW129633   2.464   1.909  11.395 -0.2500  1.2549  0.2398
 6057SOL    HW229634   2.512   2.056  11.414 -0.3739 -0.1739  1.5312
 6058SOL     OW29635   0.680   0.362  11.949  0.2823  1.1182 -0.3187
 6058SOL    HW129636   0.711   0.430  12.008  2.8806 -0.1075 -0.2520
 6058SOL    HW229637   0.764   0.331  11.915 -0.7228 -1.0903 -0.7982
 6059SOL     OW29638   1.132   1.129   6.127 -0.0711 -0.3633 -0.6948
 6059SOL    HW129639   1.120   1.224   6.132  0.1732 -0.4921  1.9084
 6059SOL    HW229640   1.085   1.099   6.049  1.2648 -1.5331 -1.0395
 6060SOL     OW29641   2.887   0.309   4.530  0.2869  0.1344 -0.4971
 6060SOL    HW129642   2.819   0.376   4.516  1.9064  1.3848 -2.2851
 6060SOL    HW229643   2.890   0.303   4.626  0.1052  0.1636 -0.4895
 6061SOL     OW29644   0.051   0.706   4.320 -0.3677 -0.6307  0.2012
 6061SOL    HW129645   0.128   0.651   4.306  0.1881  0.0741  0.4323
 6061SOL    HW229646   0.012   0.663   4.396 -1.0274 -0.3105  0.0438
 6062SOL     OW29647   0.357   1.553   7.768 -0.4908 -0.1850 -0.1755
 6062SOL    HW129648   0.293   1.497   7.725 -0.1374  0.4921 -1.5776
 6062SOL    HW229649   0.422   1.556   7.698 -1.1140  1.8814 -0.6680
 6063SOL     OW29650   0.414   1.349  14.945 -0.0249 -0.0407  0.4987
 6063SOL    HW129651   0.339   1.405  14.963  1.4872  2.4865 -1.1512
 6063SOL    HW229652   0.396   1.269  14.995  1.3147 -1.4583 -1.2810
 6064SOL     OW29653   0.123   3.026   5.826 -0.0724 -0.0460  0.3110
 6064SOL    HW129654   0.063   3.093   5.795 -1.5995 -0.3767  2.5879
 6064SOL    HW229655   0.117   2.956   5.761  1.7649  0.5129 -0.4827
 6065SOL     OW29656   0.896   0.897   3.190 -0.1407  0.1397 -0.6633
 6065SOL    HW129657   0.866   0.819   3.236  0.3016  0.0841 -0.4652
 6065SOL    HW229658   0.957   0.849   3.134  0.5295 -1.1940  1.2042
 6066SOL     OW29659   0.308   3.833  12.680  0.4374  0.1975  0.4201
 6066SOL    HW129660   0.294   3.859  12.771  1.8659  1.0242  0.4117
 6066SOL    HW229661   0.272   3.905  12.628 -2.3285 -0.5440  1.3371
 6067SOL     OW29662   2.064   1.349   3.466  0.0384 -0.2943  0.1687
 6067SOL    HW129663   1.991   1.304   3.423 -0.1249  0.4225 -0.3110
 6067SOL    HW229664   2.066   1.435   3.424  0.1073 -0.2967  0.1666
 6068SOL     OW29665   2.111   1.605   4.720 -0.8764  0.3419 -1.0969
 6068SOL    HW129666   2.099   1.547   4.796 -1.8352  0.4928 -1.1384
 6068SOL    HW229667   2.085   1.550   4.647 -1.8933  1.3474 -1.4859
 6069SOL     OW29668   0.959   0.475   6.465  0.2410 -0.2503  0.5575
 6069SOL    HW129669   0.992   0.564   6.475 -1.7177  0.3463  1.6722
 6069SOL    HW229670   0.981   0.448   6.554 -2.2473  0.0129  1.2424
 6070SOL     OW29671   1.477   2.692  14.755  0.1394  0.0279  0.1796
 6070SOL    HW129672   1.434   2.625  14.809  0.7144 -1.6751 -1.4808
 6070SOL    HW229673   1.564   2.674  14.789  0.5876  0.9613 -0.4800
 6071SOL     OW29674   3.365   4.704   7.760 -0.3423  0.2877  0.0504
 6071SOL    HW129675   3.296   4.716   7.825 -0.4650 -0.8336  0.1181
 6071SOL    HW229676   3.323   0.015   7.682 -0.2914 -1.2546 -0.6845
 6072SOL     OW29677   0.882   4.709   5.130 -0.5490  0.4006 -0.0412
 6072SOL    HW129678   0.793   4.685   5.103 -0.0231 -0.0145 -1.4243
 6072SOL    HW229679   0.860   0.074   5.153 -1.4836  0.1481  0.0521
 6073SOL     OW29680   1.905   1.217   8.438 -0.2134 -0.0898 -0.0046
 6073SOL    HW129681   1.936   1.127   8.431  0.6715  0.2495 -0.4050
 6073SOL    HW229682   1.919   1.237   8.530  0.6390 -1.4242  0.1607
 6074SOL     OW29683   4.329   2.418   8.801  0.4568 -0.8835 -0.0617
 6074SOL    HW129684   4.273   2.488   8.834 -1.2415 -2.2962  0.0261
 6074SOL    HW229685   4.325   2.350   8.868  0.0640 -0.5192  0.2830
 6075SOL     OW29686   0.601   1.567   8.423 -0.7367 -0.0564  0.0634
 6075SOL    HW129687   0.543   1.642   8.433  0.4417  1.0848 -1.6299
 6075SOL    HW229688   0.661   1.567   8.498  1.0084  2.3937 -1.3172
 6076SOL     OW29689   1.956   3.480   2.783 -0.1456 -0.1004 -0.4209
 6076SOL    HW129690   1.955   3.469   2.688  1.0026  2.3507 -0.7282
 6076SOL    HW229691   1.983   3.393   2.811  0.3058  0.1531 -0.0546
 6077SOL     OW29692   4.369   0.001   4.409 -0.1185  0.0282 -0.1166
 6077SOL    HW129693   4.451   0.049   4.420  0.0483  0.0941 -1.6924
 6077SOL    HW229694   4.348   0.034   4.321 -1.6278 -3.5391 -1.0596
 6078SOL     OW29695   0.244   2.716   5.984  0.6097  0.3891  0.5011
 6078SOL    HW129696   0.260   2.759   6.067 -0.3448  1.6655  0.0158
 6078SOL    HW229697   0.302   2.761   5.923  0.1236 -1.2932 -1.2351
 6079SOL     OW29698   2.779   1.254   9.647 -0.7500  0.2508  0.2827
 6079SOL    HW129699   2.797   1.329   9.703 -0.4651 -1.1223  2.0142
 6079SOL    HW229700   2.699   1.214   9.681 -1.8715  0.7439 -1.7118
 6080SOL     OW29701   2.919   2.193   7.234  0.5424 -0.4099 -0.1754
 6080SOL    HW129702   2.986   2.256   7.208  1.5861 -1.4238  0.0446
 6080SOL    HW229703   2.962   2.109   7.220  1.1292 -0.1954  0.3183
 6081SOL     OW29704   1.669   3.312   4.878 -0.3196 -0.4947  0.1587
 6081SOL    HW129705   1.755   3.349   4.862 -0.3675  0.2312  1.5673
 6081SOL    HW229706   1.669   3.217   4.864 -0.8070 -0.3409 -0.9015
 6082SOL     OW29707   0.715   2.893   5.272 -0.1414  0.4005 -0.4561
 6082SOL    HW129708   0.760   2.810   5.254 -0.0634  0.6491 -1.4184
 6082SOL    HW229709   0.757   2.912   5.356  0.2682 -0.0512 -0.5584
 6083SOL     OW29710   2.869   3.383   5.280  0.0013  0.3898  0.5149
 6083SOL    HW129711   2.879   3.412   5.190  0.9276  0.1888  0.5559
 6083SOL    HW229712   2.797   3.444   5.301 -0.0658  0.7778 -0.8253
 6084SOL     OW29713   4.000   4.052  10.985 -0.7900  0.4996  0.4296
 6084SOL    HW129714   4.054   4.073  11.061  1.6437  1.2368 -1.4979
 6084SOL    HW229715   3.918   4.087  11.019 -1.7984 -0.5925 -0.9107
 6085SOL     OW29716   3.377   2.195   0.906  0.3100 -0.0564  0.1400
 6085SOL    HW129717   3.464   2.156   0.903  0.6638  0.5918  1.8563
 6085SOL    HW229718   3.406   2.283   0.880  1.9824 -0.6764 -0.0861
 6086SOL     OW29719   2.107   2.345   7.675  0.2154 -0.6193  0.0459
 6086SOL    HW129720   2.155   2.379   7.750 -0.8987 -0.1431  0.5343
 6086SOL    HW229721   2.019   2.371   7.704  0.5201 -0.0887  0.4978
 6087SOL     OW29722   2.995   2.939   3.819 -0.0333 -0.5844 -0.1572
 6087SOL    HW129723   2.920   2.887   3.789 -0.4164  0.4378 -0.9723
 6087SOL    HW229724   3.063   2.913   3.757 -0.5456 -1.9886 -0.1364
 6088SOL     OW29725   3.412   0.296   3.316 -0.5521 -0.2908  0.1660
 6088SOL    HW129726   3.454   0.291   3.402  0.0969 -1.4434 -0.2168
 6088SOL    HW229727   3.358   0.217   3.321  0.1183 -0.6885  1.1493
 6089SOL     OW29728   4.378   3.774   3.822  0.4034 -0.3338 -0.0485
 6089SOL    HW129729   4.385   3.753   3.728 -0.0511  0.2721 -0.2163
 6089SOL    HW229730   4.307   3.716   3.851  0.0430  1.3541  2.4331
 6090SOL     OW29731   0.100   1.831   6.119 -0.4021 -0.3174 -0.5553
 6090SOL    HW129732   0.022   1.823   6.173  2.2541 -2.2227  2.9876
 6090SOL    HW229733   0.118   1.923   6.141 -1.2798 -0.1055 -0.7273
 6091SOL     OW29734   2.544   2.717   3.993  0.4602 -0.9989  0.4776
 6091SOL    HW129735   2.587   2.735   4.077 -2.4763  0.7618  1.5931
 6091SOL    HW229736   2.593   2.779   3.939  1.2504 -0.8809  1.3319
 6092SOL     OW29737   2.028   4.622   7.296  0.0158 -0.1421 -0.0171
 6092SOL    HW129738   2.124   4.620   7.294 -0.0082 -1.0516 -0.2084
 6092SOL    HW229739   2.003   4.712   7.272 -1.0629 -0.2990  0.5225
 6093SOL     OW29740   3.720   3.702   3.696  0.0268  0.5626 -0.3476
 6093SOL    HW129741   3.681   3.699   3.784 -1.2935  0.9125 -0.9320
 6093SOL    HW229742   3.684   3.783   3.660  0.1855  0.4799 -0.6894
 6094SOL     OW29743   4.255   1.851   0.806  0.4314 -0.2124  0.1516
 6094SOL    HW129744   4.329   1.822   0.861  0.5733  1.9145  1.0888
 6094SOL    HW229745   4.273   1.819   0.718 -0.3652  2.5619 -1.0054
 6095SOL     OW29746   1.118   2.134   6.724  0.2243  0.2715 -0.1053
 6095SOL    HW129747   1.201   2.102   6.759  1.2969  0.4150 -2.4723
 6095SOL    HW229748   1.103   2.074   6.651 -0.9417  0.7480 -0.2594
 6096SOL     OW29749   2.874   3.905   3.273 -0.8468  0.3555  0.4459
 6096SOL    HW129750   2.938   3.860   3.218 -1.9526  0.8436 -1.2599
 6096SOL    HW229751   2.800   3.928   3.216 -0.4589 -3.6603 -1.6886
 6097SOL     OW29752   4.158   1.289   0.450 -0.4719 -0.3004  0.3496
 6097SOL    HW129753   4.178   1.230   0.523  1.4697 -1.5702 -1.2170
 6097SOL    HW229754   4.136   1.368   0.501  1.1235 -1.2140  2.4862
 6098SOL     OW29755   3.885   1.121   0.474  0.3300  0.0221 -0.1595
 6098SOL    HW129756   3.947   1.184   0.438  0.5926  0.7294  1.5432
 6098SOL    HW229757   3.902   1.045   0.419 -1.3862 -0.5046  0.0155
 6099SOL     OW29758   2.855   3.909   5.349 -0.0389  0.4990 -0.2893
 6099SOL    HW129759   2.885   4.000   5.360  1.3383 -0.3306  2.7395
 6099SOL    HW229760   2.862   3.884   5.441  0.2848  0.6230 -0.2794
 6100SOL     OW29761   3.806   4.319  16.159  0.1548 -0.1332  0.1291
 6100SOL    HW129762   3.885   4.272  16.134 -0.6203 -1.7744  0.7426
 6100SOL    HW229763   3.792   4.366  16.077  1.2808  1.4296  0.8155
 6101SOL     OW29764   1.885   3.724  13.411 -0.3725 -0.3630 -0.2634
 6101SOL    HW129765   1.874   3.712  13.505  0.9020 -0.2890 -0.1002
 6101SOL    HW229766   1.970   3.684  13.393 -0.7916 -0.4780 -2.0329
 6102SOL     OW29767   1.433   2.654   3.121 -0.2492 -0.5781  0.7114
 6102SOL    HW129768   1.446   2.661   3.027  2.7097 -1.9102  1.0323
 6102SOL    HW229769   1.494   2.583   3.141  1.5209 -0.0278 -2.6987
 6103SOL     OW29770   1.626   0.116   5.590  0.5656  0.0878  0.0561
 6103SOL    HW129771   1.701   0.062   5.566 -0.1372 -1.1028  0.5538
 6103SOL    HW229772   1.673   0.194   5.619  0.5411  0.0084  0.3089
 6104SOL     OW29773   0.704   4.492   2.519 -0.0814 -0.4292 -0.1767
 6104SOL    HW129774   0.616   4.459   2.503 -0.7486  1.0493  0.4238
 6104SOL    HW229775   0.721   4.439   2.597  2.3366 -0.6758 -0.8632
 6105SOL     OW29776   4.394   1.440   5.032  0.1187  0.0456 -0.0023
 6105SOL    HW129777   4.486   1.427   5.012  0.0389 -0.4060 -0.0588
 6105SOL    HW229778   4.372   1.409   5.120 -0.3603  0.0220 -0.1303
 6106SOL     OW29779   3.181   3.189   6.845  0.2076  0.3731  0.1419
 6106SOL    HW129780   3.213   3.176   6.755  1.6936 -0.2785  0.7770
 6106SOL    HW229781   3.148   3.101   6.865 -2.5320  1.2814 -0.3107
 6107SOL     OW29782   3.789   3.556   2.549  0.3401 -0.1368  0.5224
 6107SOL    HW129783   3.720   3.580   2.611 -0.0762  2.6249 -1.0139
 6107SOL    HW229784   3.863   3.549   2.611  1.0571  0.3474 -0.2823
 6108SOL     OW29785   1.994   1.414   5.700 -0.6156 -0.5753 -0.2102
 6108SOL    HW129786   1.949   1.389   5.620 -0.0000  0.8011 -0.9982
 6108SOL    HW229787   1.921   1.449   5.750 -0.5947 -0.1075 -0.5038
 6109SOL     OW29788   3.487   0.604   8.050 -0.3113 -0.1509  0.4139
 6109SOL    HW129789   3.534   0.684   8.072  0.3382  0.0725 -1.7686
 6109SOL    HW229790   3.463   0.629   7.961 -3.1151 -0.0995  1.1733
 6110SOL     OW29791   3.914   3.022   8.361 -0.0797 -0.3921 -0.5636
 6110SOL    HW129792   3.858   2.965   8.309 -2.8720  2.0137 -0.2496
 6110SOL    HW229793   3.854   3.040   8.434 -1.3055 -0.4086 -1.5635
 6111SOL     OW29794   2.997   2.019   5.796  0.0349 -0.0423 -0.3078
 6111SOL    HW129795   2.945   1.947   5.761  0.0408 -1.2833  2.2728
 6111SOL    HW229796   2.927   2.074   5.832  0.5385  0.2742  0.1944
 6112SOL     OW29797   4.579   4.652   9.634 -0.1561 -0.0915 -0.5509
 6112SOL    HW129798   4.598   4.687   9.722 -0.3035 -2.3077  0.3479
 6112SOL    HW229799   4.620   4.566   9.642 -0.4457 -0.2860 -1.2048
 6113SOL     OW29800   0.329   2.871   6.588 -0.1742 -0.1689  0.3049
 6113SOL    HW129801   0.415   2.905   6.563 -0.3864  0.0368 -0.1434
 6113SOL    HW229802   0.288   2.941   6.638 -1.6340  0.8536 -2.3250
 6114SOL     OW29803   4.020   2.010   4.731  0.0318  0.4544  0.4620
 6114SOL    HW129804   3.969   1.935   4.759  1.1034 -0.1733  0.7517
 6114SOL    HW229805   4.056   1.985   4.646 -0.1420  0.4004  0.4042
 6115SOL     OW29806   2.538   1.802   2.491 -0.3136 -0.0999 -0.8880
 6115SOL    HW129807   2.499   1.785   2.405  1.3651 -1.1766 -1.4472
 6115SOL    HW229808   2.456   1.823   2.535  0.1574  0.4534 -0.2636
 6116SOL     OW29809   2.451   2.866  12.038 -0.4626  0.3381 -0.3363
 6116SOL    HW129810   2.456   2.813  11.959 -1.2315 -1.2800  0.7026
 6116SOL    HW229811   2.403   2.814  12.102 -4.0919  0.7410 -2.7306
 6117SOL     OW29812   2.748   2.757   8.147 -0.2038  0.1376 -0.1155
 6117SOL    HW129813   2.758   2.681   8.090  0.3623 -1.1880  1.7486
 6117SOL    HW229814   2.830   2.747   8.194 -1.5045  0.5552  2.2625
 6118SOL     OW29815   0.774   1.357   2.811  0.2284 -0.3361  0.0383
 6118SOL    HW129816   0.796   1.450   2.818 -1.3971  0.0504 -0.0418
 6118SOL    HW229817   0.757   1.333   2.902  0.9770 -0.3980  0.1661
 6119SOL     OW29818   4.651   0.781  11.839 -0.2479  0.1104 -0.0346
 6119SOL    HW129819   4.699   0.705  11.874  0.8662 -0.3027 -2.4529
 6119SOL    HW229820   4.601   0.747  11.765  0.9097  0.6088 -1.0511
 6120SOL     OW29821   1.551   2.964   8.589  0.4131 -0.5255 -0.1468
 6120SOL    HW129822   1.481   2.948   8.525  0.5693 -1.5851 -0.0545
 6120SOL    HW229823   1.506   3.008   8.661  1.5675  0.3407  0.0555
 6121SOL     OW29824   4.370   3.867   6.197 -0.5692  0.0770 -0.0240
 6121SOL    HW129825   4.332   3.781   6.214  1.5456 -1.0659 -0.9992
 6121SOL    HW229826   4.328   3.924   6.261  2.4061  0.8503  1.2694
 6122SOL     OW29827   3.819   1.146   6.558  0.2683 -0.4279 -0.0202
 6122SOL    HW129828   3.883   1.097   6.610 -1.3868 -1.5506  0.9347
 6122SOL    HW229829   3.812   1.078   6.491 -0.5223 -0.1583 -0.2100
 6123SOL     OW29830   1.906   2.313   9.845  0.3333  0.0594 -0.2239
 6123SOL    HW129831   1.957   2.341   9.768 -0.3317 -0.4244 -0.8419
 6123SOL    HW229832   1.904   2.392   9.899 -0.1453  0.0418 -0.2137
 6124SOL     OW29833   2.253   1.528   2.083 -0.4098  0.3632 -0.0705
 6124SOL    HW129834   2.323   1.551   2.022 -0.6244 -0.5333 -0.6407
 6124SOL    HW229835   2.288   1.451   2.129 -2.2972 -0.4971 -0.0933
 6125SOL     OW29836   2.026   2.437   9.632 -0.1859 -0.5480  0.1149
 6125SOL    HW129837   2.071   2.361   9.596  1.6989  0.7755 -0.3361
 6125SOL    HW229838   2.024   2.487   9.551  1.7835 -1.3472 -0.4128
 6126SOL     OW29839   2.971   1.457  10.345 -0.7501  0.4084  0.0527
 6126SOL    HW129840   2.963   1.512  10.423 -1.3613  2.6122 -1.5509
 6126SOL    HW229841   2.997   1.372  10.380  0.4670  1.0577  0.7537
 6127SOL     OW29842   0.525   0.489  16.887  0.1669 -0.1424 -0.2365
 6127SOL    HW129843   0.600   0.490  16.946 -0.4820  0.3563  0.5838
 6127SOL    HW229844   0.475   0.550  16.941 -0.7685 -1.0470 -0.0722
 6128SOL     OW29845   4.036   4.639   6.729 -0.8800 -0.4474  0.7933
 6128SOL    HW129846   4.113   4.598   6.691  0.1709  1.5994  0.6840
 6128SOL    HW229847   3.980   4.635   6.651 -0.6048  1.2166  0.4940
 6129SOL     OW29848   0.415   1.467   4.880 -0.5391 -0.4489  0.0901
 6129SOL    HW129849   0.382   1.525   4.812  0.8194  0.2624  0.0346
 6129SOL    HW229850   0.468   1.527   4.932  1.4580 -1.6538 -0.5322
 6130SOL     OW29851   1.906   2.354   3.727  0.0384  0.5494 -0.2117
 6130SOL    HW129852   1.944   2.319   3.646  0.1883 -0.6788  0.3840
 6130SOL    HW229853   1.830   2.389   3.681 -0.8384  0.8956  1.5009
 6131SOL     OW29854   3.041   2.596   5.524 -0.4882  0.0321  0.0280
 6131SOL    HW129855   3.049   2.669   5.585 -0.6664  1.2761 -1.4471
 6131SOL    HW229856   3.088   2.526   5.570 -1.0087 -1.6732 -2.0381
 6132SOL     OW29857   2.676   0.790   4.530 -0.0369 -0.0418 -0.2857
 6132SOL    HW129858   2.707   0.815   4.443  0.5429  0.2173 -0.0091
 6132SOL    HW229859   2.621   0.713   4.517 -1.5964  1.1212 -0.5555
 6133SOL     OW29860   0.582   0.042  16.796  0.4723 -0.4815  0.7952
 6133SOL    HW129861   0.645   0.080  16.856  0.4610  0.1209  0.4315
 6133SOL    HW229862   0.508   0.093  16.830  0.1698  0.2519 -0.9520
 6134SOL     OW29863   0.100   1.809   7.711 -0.0918  0.4816  0.0608
 6134SOL    HW129864   0.117   1.744   7.779 -0.6695 -1.7386 -1.9330
 6134SOL    HW229865   0.118   1.758   7.632 -2.4652 -1.8717  1.0579
 6135SOL     OW29866   0.822   2.340   4.139 -0.2889 -0.5838 -0.0926
 6135SOL    HW129867   0.782   2.304   4.219 -3.5053  1.0373 -0.9348
 6135SOL    HW229868   0.757   2.320   4.072  0.9034  1.2441 -1.7939
 6136SOL     OW29869   1.473   1.703   5.089 -0.4646 -0.0380 -0.0252
 6136SOL    HW129870   1.564   1.703   5.117 -0.4172  0.5984 -0.1885
 6136SOL    HW229871   1.466   1.790   5.049 -0.7194  0.4618  1.1073
 6137SOL     OW29872   0.019   2.789   4.438  0.0710 -0.0931  0.3949
 6137SOL    HW129873   4.701   2.720   4.489 -0.2071 -1.3240 -1.5345
 6137SOL    HW229874   4.703   2.870   4.471 -0.1909 -0.2002  0.3319
 6138SOL     OW29875   1.993   2.384   8.287 -0.0100  0.5413 -0.7722
 6138SOL    HW129876   2.001   2.310   8.347 -0.9550  0.5303 -0.6566
 6138SOL    HW229877   2.058   2.446   8.320 -0.8567  0.9403  0.1546
 6139SOL     OW29878   1.510   3.398   6.992 -0.0418 -0.8796 -0.6050
 6139SOL    HW129879   1.578   3.463   6.973 -1.5666  0.4284 -1.5671
 6139SOL    HW229880   1.444   3.424   6.928  0.8010  1.3643 -0.5952
 6140SOL     OW29881   2.432   0.572   6.410  0.0449 -0.4129  0.1142
 6140SOL    HW129882   2.468   0.569   6.499 -0.3329 -0.7460  0.2553
 6140SOL    HW229883   2.398   0.662   6.404 -0.2866 -0.5311  0.2490
 6141SOL     OW29884   4.646   3.825   4.067  0.1263  0.0885 -0.0890
 6141SOL    HW129885   4.616   3.773   4.141 -1.6687  2.2135  0.7048
 6141SOL    HW229886   4.564   3.864   4.034 -0.1941 -0.8405 -0.4004
 6142SOL     OW29887   3.739   3.017   4.418 -0.2653 -0.1289  0.0618
 6142SOL    HW129888   3.759   3.076   4.345  0.2793  0.3800  0.6164
 6142SOL    HW229889   3.824   3.015   4.462  0.1642 -1.6154 -0.8540
 6143SOL     OW29890   2.406   0.461   1.319 -0.1014 -0.0156 -0.8722
 6143SOL    HW129891   2.464   0.495   1.388 -2.0313  0.7309  0.3591
 6143SOL    HW229892   2.479   0.439   1.261  0.0887  0.5119 -0.8375
 6144SOL     OW29893   2.996   0.801  14.333 -0.1419 -0.2609 -0.1302
 6144SOL    HW129894   2.944   0.782  14.410 -3.7739 -3.3609 -3.3703
 6144SOL    HW229895   2.932   0.812  14.263  0.7616  0.1633 -0.8939
 6145SOL     OW29896   2.422   3.009   0.433  0.1530  0.5003  0.3458
 6145SOL    HW129897   2.440   3.018   0.526  0.3448 -2.0465  0.5564
 6145SOL    HW229898   2.458   3.087   0.392 -0.7786  1.4340  1.3340
 6146SOL     OW29899   1.293   4.194  11.919 -0.3922 -0.5295 -1.0265
 6146SOL    HW129900   1.289   4.271  11.974 -1.1364  0.4724 -2.4718
 6146SOL    HW229901   1.310   4.133  11.991 -2.2829 -0.4086 -0.4818
 6147SOL     OW29902   0.054   0.290   1.070  0.4012  0.0000  0.0096
 6147SOL    HW129903   0.058   0.226   1.140 -0.9661 -0.0031  0.0810
 6147SOL    HW229904   4.687   0.286   1.045  0.5143 -1.5487 -0.1510
 6148SOL     OW29905   1.571   2.614   1.504  0.8098 -0.4384  0.5208
 6148SOL    HW129906   1.607   2.547   1.562  1.6730  0.3706  0.9124
 6148SOL    HW229907   1.504   2.563   1.459 -0.1475  0.7745  0.5774
 6149SOL     OW29908   4.706   3.976   0.553  0.2253 -0.3694 -0.1859
 6149SOL    HW129909   0.005   3.894   0.510 -1.3483 -0.8251 -0.2103
 6149SOL    HW229910   0.058   3.999   0.604 -0.3540 -0.2365  0.6439
 6150SOL     OW29911   4.380   2.984   7.597 -0.3970  0.3132  0.0926
 6150SOL    HW129912   4.288   3.010   7.610 -0.9133 -1.2417 -0.4946
 6150SOL    HW229913   4.413   3.054   7.540  1.9665  1.9276  3.4768
 6151SOL     OW29914   2.790   4.609   6.200 -0.5209 -0.0322 -0.0998
 6151SOL    HW129915   2.717   4.649   6.246 -2.0839 -0.4851 -2.1591
 6151SOL    HW229916   2.750   4.542   6.144 -0.1028 -0.2911 -0.0846
 6152SOL     OW29917   1.038   3.729   7.348  0.2993  0.0522 -0.0475
 6152SOL    HW129918   1.126   3.764   7.331  0.8015 -0.0951  2.2906
 6152SOL    HW229919   1.041   3.649   7.294 -2.8438 -0.2371  0.2068
 6153SOL     OW29920   2.403   4.196  10.063  0.3060  0.0283  0.3263
 6153SOL    HW129921   2.401   4.121  10.122  0.2797 -0.9839 -0.9691
 6153SOL    HW229922   2.312   4.215  10.043 -0.2105 -1.2396  1.5245
 6154SOL     OW29923   1.084   2.185   3.064  0.2933 -0.9025  0.0488
 6154SOL    HW129924   1.064   2.250   3.132  2.4056 -0.9399  0.7158
 6154SOL    HW229925   1.177   2.197   3.047  0.0587  1.4291  0.3551
 6155SOL     OW29926   4.630   0.308   2.332  0.0213  0.2970 -0.1237
 6155SOL    HW129927   4.602   0.391   2.294 -0.2725 -0.9794 -2.7366
 6155SOL    HW229928   4.660   0.341   2.416  0.6708 -1.1851  0.2354
 6156SOL     OW29929   0.626   4.616   4.987 -0.0490 -0.1907 -0.0001
 6156SOL    HW129930   0.601   4.677   4.917 -1.4625 -1.2817 -0.4329
 6156SOL    HW229931   0.625   4.531   4.944  0.4421 -0.0744 -0.2353
 6157SOL     OW29932   1.270   0.467  10.118  0.4256  0.4239 -0.3230
 6157SOL    HW129933   1.253   0.409  10.192  2.5016  0.6876  0.3671
 6157SOL    HW229934   1.361   0.492  10.133  0.0734  1.8587 -0.5360
 6158SOL     OW29935   3.205   3.000   7.440  0.4706  0.2527  0.7306
 6158SOL    HW129936   3.133   3.023   7.500 -2.1736 -0.9537 -1.9881
 6158SOL    HW229937   3.233   2.916   7.475  1.6132 -0.4781 -1.9663
 6159SOL     OW29938   4.038   0.838  11.422  0.0305  0.2460 -0.0564
 6159SOL    HW129939   4.045   0.782  11.500 -0.3942 -1.3396 -1.1489
 6159SOL    HW229940   3.945   0.832  11.398  0.4335  1.7366 -1.9148
 6160SOL     OW29941   1.008   2.611   9.042  0.3326  0.5598  0.4717
 6160SOL    HW129942   0.967   2.591   8.958 -0.9852 -1.2764  1.5621
 6160SOL    HW229943   1.070   2.538   9.049  0.8933  0.9718 -0.1533
 6161SOL     OW29944   2.270   1.128   8.404 -0.4965 -0.2865 -0.1989
 6161SOL    HW129945   2.234   1.062   8.345  2.1541 -4.5626  2.9120
 6161SOL    HW229946   2.360   1.128   8.372  0.1104 -3.8772  1.4708
 6162SOL     OW29947   3.068   2.268   3.978 -0.0909  0.2712  0.4182
 6162SOL    HW129948   3.004   2.316   4.030  1.5627  0.8672  1.9185
 6162SOL    HW229949   3.017   2.252   3.899  1.7900 -0.6386 -0.6270
 6163SOL     OW29950   3.542   1.648  17.265  0.4940 -0.2035  0.4047
 6163SOL    HW129951   3.562   1.735  17.230 -0.6199 -1.2959 -2.9451
 6163SOL    HW229952   3.631   1.612  17.260 -0.4822 -2.8226  1.9829
 6164SOL     OW29953   1.722   4.489   5.812  0.0536 -0.4422 -0.7242
 6164SOL    HW129954   1.741   4.402   5.845 -1.5984 -0.1778  0.9435
 6164SOL    HW229955   1.627   4.488   5.799  0.0369 -1.7912 -0.4020
 6165SOL     OW29956   4.230   4.477   0.493 -0.3092  0.4960 -0.8533
 6165SOL    HW129957   4.320   4.447   0.508 -0.6254  0.5666  1.1753
 6165SOL    HW229958   4.199   4.476   0.583 -0.9421  1.8296 -1.0500
 6166SOL     OW29959   2.559   3.195  12.823 -0.5787 -0.2886 -0.1487
 6166SOL    HW129960   2.573   3.272  12.768  0.5615  1.6169  2.7635
 6166SOL    HW229961   2.560   3.241  12.907  0.3811  1.4303 -1.1085
 6167SOL     OW29962   4.040   3.110  11.250  0.0085 -0.4848  0.8533
 6167SOL    HW129963   4.087   3.033  11.217  0.5541  0.6480 -0.9896
 6167SOL    HW229964   3.954   3.079  11.278 -0.4325 -1.7926 -1.9798
 6168SOL     OW29965   1.629   1.868   8.696 -0.0854  0.4996  0.2032
 6168SOL    HW129966   1.549   1.919   8.684 -1.1337 -1.3576 -0.7982
 6168SOL    HW229967   1.611   1.803   8.628 -1.6711  0.3820  0.7125
 6169SOL     OW29968   2.486   1.037   4.460  0.2873 -0.3120  0.2876
 6169SOL    HW129969   2.546   0.972   4.496  0.9009 -1.0194 -2.0064
 6169SOL    HW229970   2.506   1.014   4.370  0.5944  0.8902  0.0513
 6170SOL     OW29971   1.079   1.735  15.567 -0.4827 -0.0921  0.0537
 6170SOL    HW129972   1.166   1.695  15.562 -1.5565 -2.5873  1.0741
 6170SOL    HW229973   1.078   1.791  15.490  4.3786 -1.5495 -1.0557
 6171SOL     OW29974   1.655   4.028  14.025 -0.2202 -0.7153  0.2306
 6171SOL    HW129975   1.661   3.949  14.079 -2.1509 -1.3888 -0.5239
 6171SOL    HW229976   1.733   4.066  14.065  0.4191 -2.3029  0.4941
 6172SOL     OW29977   0.312   3.119   2.293 -0.5913 -0.2262 -0.3855
 6172SOL    HW129978   0.325   3.145   2.202 -0.5499  0.3552 -0.2121
 6172SOL    HW229979   0.295   3.025   2.282 -1.6707  0.0989 -1.4787
 6173SOL     OW29980   4.518   3.486  14.762 -0.3596  0.2006 -0.2966
 6173SOL    HW129981   4.505   3.503  14.669 -1.4763  0.5803 -0.0726
 6173SOL    HW229982   4.513   3.574  14.800  1.2984  1.4327 -2.9774
 6174SOL     OW29983   3.697   1.243   7.482  0.2116  0.0158 -0.0239
 6174SOL    HW129984   3.615   1.223   7.528  0.7261 -1.0421  0.4553
 6174SOL    HW229985   3.753   1.201   7.549  0.4934 -0.3055 -0.4603
 6175SOL     OW29986   2.804   4.075  15.050 -0.3199 -0.0189  0.3250
 6175SOL    HW129987   2.818   4.089  14.956  1.0197  0.3530  0.5864
 6175SOL    HW229988   2.756   4.154  15.074 -0.2443 -0.3743  1.6333
 6176SOL     OW29989   2.106   1.878  12.668  0.1334 -0.2573  0.0263
 6176SOL    HW129990   2.063   1.912  12.746 -1.6692  1.4757 -1.7180
 6176SOL    HW229991   2.142   1.959  12.633  1.9795 -0.7136  0.8760
 6177SOL     OW29992   4.129   3.217   6.362 -0.0266  0.3545 -0.2406
 6177SOL    HW129993   4.069   3.291   6.358  0.6864  0.9181 -0.3849
 6177SOL    HW229994   4.213   3.258   6.382  0.3226 -1.8477  2.7946
 6178SOL     OW29995   3.948   2.555   6.568 -0.0128 -0.0502  0.2155
 6178SOL    HW129996   3.993   2.591   6.645  0.1201  0.9690 -0.3383
 6178SOL    HW229997   3.862   2.588   6.596 -1.9695 -1.6650 -3.9039
 6179SOL     OW29998   1.006   0.947   2.411 -0.3940  0.0995  0.2951
 6179SOL    HW129999   0.932   0.957   2.351  0.4479 -0.7559 -0.8868
 6179SOL    HW230000   1.081   0.957   2.352 -2.3618  1.6131 -1.9443
 6180SOL     OW30001   3.880   4.388   7.496 -0.2062  0.5717  0.0516
 6180SOL    HW130002   3.808   4.381   7.433 -1.6013  0.4975  1.6670
 6180SOL    HW230003   3.942   4.443   7.447 -2.0724  1.7235 -1.0113
 6181SOL     OW30004   3.365   4.596   8.755  0.4242 -0.1189 -0.7607
 6181SOL    HW130005   3.321   4.597   8.840 -1.2964 -0.2799 -1.6482
 6181SOL    HW230006   3.377   4.502   8.744 -0.6130 -0.3377 -0.0184
 6182SOL     OW30007   0.471   2.555   5.236 -0.1592 -0.0692  0.0680
 6182SOL    HW130008   0.501   2.464   5.245 -0.8337 -0.2417  0.5050
 6182SOL    HW230009   0.547   2.598   5.196 -0.3650 -0.7999 -1.1306
 6183SOL     OW30010   0.721   2.520  14.623 -0.6467  0.3961 -0.0845
 6183SOL    HW130011   0.692   2.469  14.698  0.1715  0.2472  0.1352
 6183SOL    HW230012   0.677   2.601  14.645  0.7432  1.1746 -0.1380
 6184SOL     OW30013   4.587   4.723  14.810  0.2728  0.5943  0.4636
 6184SOL    HW130014   4.540   4.698  14.731 -1.7027 -0.4087  1.9480
 6184SOL    HW230015   4.541   4.676  14.879  0.1289  2.6128  1.7356
 6185SOL     OW30016   0.702   3.711   8.200  0.4752 -0.3607 -0.1439
 6185SOL    HW130017   0.627   3.654   8.185 -0.1149  1.0426 -2.6470
 6185SOL    HW230018   0.720   3.747   8.113 -0.0948 -0.1480 -0.1744
 6186SOL     OW30019   0.151   2.265   7.315  0.5126 -0.0475  0.4384
 6186SOL    HW130020   0.207   2.330   7.273 -0.2927  0.8051  0.6970
 6186SOL    HW230021   0.060   2.282   7.295  0.5724 -0.2101  0.0269
 6187SOL     OW30022   0.191   1.241   0.410 -0.2804 -0.5831 -0.0052
 6187SOL    HW130023   0.116   1.215   0.463 -0.2180  0.5414  0.6454
 6187SOL    HW230024   0.257   1.191   0.459 -0.2655  0.7082  1.2966
 6188SOL     OW30025   3.400   3.638  12.487 -0.0407  0.5609 -0.8839
 6188SOL    HW130026   3.367   3.696  12.556 -1.6867 -1.1500 -0.2229
 6188SOL    HW230027   3.495   3.643  12.493 -0.0747 -0.7770  0.9471
 6189SOL     OW30028   0.056   3.611   1.787  0.4578 -0.8662  0.0714
 6189SOL    HW130029   0.007   3.583   1.710  3.0558  1.9373 -2.5584
 6189SOL    HW230030   0.071   3.521   1.817 -2.8475  0.0368  4.4856
 6190SOL     OW30031   4.368   1.603   3.625  0.0773 -0.0818  0.0326
 6190SOL    HW130032   4.311   1.526   3.615 -1.2603  0.6841  1.7158
 6190SOL    HW230033   4.366   1.619   3.719  1.9722 -0.5230  0.1412
 6191SOL     OW30034   2.457   3.808   9.481  0.2946  0.4508 -0.3328
 6191SOL    HW130035   2.426   3.787   9.393  2.6211  0.5053 -1.1550
 6191SOL    HW230036   2.501   3.727   9.507  0.0582  0.6649  0.7252
 6192SOL     OW30037   0.258   3.848   5.123  0.4105 -0.4024 -0.4539
 6192SOL    HW130038   0.208   3.924   5.152  1.3887 -0.2336  0.8064
 6192SOL    HW230039   0.215   3.778   5.173  1.2917  0.6925  1.8461
 6193SOL     OW30040   2.485   2.323   7.538 -0.2885  0.4451  0.2756
 6193SOL    HW130041   2.449   2.235   7.551 -1.1016  1.0450  2.0068
 6193SOL    HW230042   2.521   2.330   7.449 -0.2729 -0.1205  0.2347
 6194SOL     OW30043   2.134   2.686   9.753  0.3764 -0.1258 -0.0898
 6194SOL    HW130044   2.049   2.706   9.713 -0.0328 -0.6954  0.5049
 6194SOL    HW230045   2.134   2.593   9.733 -1.8463 -0.4705  1.5169
 6195SOL     OW30046   1.183   0.397   2.169 -0.4111  0.2981  0.4916
 6195SOL    HW130047   1.116   0.353   2.117  0.6619  1.2206 -1.6741
 6195SOL    HW230048   1.131   0.417   2.247  0.0303 -0.5743  1.0142
 6196SOL     OW30049   3.058   3.502  14.628  0.4084 -0.0098 -0.7692
 6196SOL    HW130050   3.064   3.549  14.545 -1.9404  0.4197 -0.7103
 6196SOL    HW230051   2.973   3.531  14.662  0.3161 -0.7932 -0.3180
 6197SOL     OW30052   4.243   0.593  17.351  0.0901  0.2974 -0.0128
 6197SOL    HW130053   4.273   0.504  17.369 -0.4130  0.2005  0.3265
 6197SOL    HW230054   4.241   0.638  17.436  0.7982  1.3287 -0.5415
 6198SOL     OW30055   0.868   3.450  16.852 -0.0688 -1.0348 -0.1205
 6198SOL    HW130056   0.935   3.383  16.861  0.8021 -0.2623 -0.8949
 6198SOL    HW230057   0.840   3.427  16.763  1.2254  2.5204 -1.4276
 6199SOL     OW30058   0.885   0.560   7.488  0.2249 -0.2009  0.0940
 6199SOL    HW130059   0.791   0.543   7.485  0.3204 -0.6367 -0.2282
 6199SOL    HW230060   0.914   0.469   7.488 -0.7214 -0.4992  1.0736
 6200SOL     OW30061   4.391   1.546  15.538 -0.2450  0.1332 -0.0049
 6200SOL    HW130062   4.320   1.592  15.582 -0.9464 -1.5900  0.6522
 6200SOL    HW230063   4.346   1.476  15.490  0.0744 -1.9529  2.7573
 6201SOL     OW30064   2.838   0.761   7.806 -0.3806 -0.4274  0.6375
 6201SOL    HW130065   2.900   0.695   7.774  0.1086 -0.6690  2.0395
 6201SOL    HW230066   2.818   0.734   7.896 -1.0655  0.2689  0.6964
 6202SOL     OW30067   2.532   0.070   8.252  0.0987 -0.1675 -0.1246
 6202SOL    HW130068   2.478   0.020   8.314 -2.2560  1.5314 -0.8135
 6202SOL    HW230069   2.467   0.103   8.191  0.0083 -1.1390 -0.5565
 6203SOL     OW30070   0.109   1.956   5.874  1.1358 -0.4279  0.1533
 6203SOL    HW130071   0.022   1.996   5.873  0.7507 -1.2283  3.4389
 6203SOL    HW230072   0.104   1.902   5.953  0.4368 -0.3694  0.1452
 6204SOL     OW30073   1.227   0.142   3.308 -0.2936 -0.0235 -0.0341
 6204SOL    HW130074   1.165   0.175   3.373  0.2958  3.5047 -1.2629
 6204SOL    HW230075   1.289   0.214   3.293  0.2787 -0.5790 -0.3402
 6205SOL     OW30076   0.075   0.048  12.630  0.6204  0.0414  0.4427
 6205SOL    HW130077   4.720   4.723  12.643  0.0599  0.0666 -2.7231
 6205SOL    HW230078   0.049   0.136  12.657 -1.6163 -0.8470  1.2003
 6206SOL     OW30079   1.609   0.095   3.511 -0.2145 -0.5269 -0.1530
 6206SOL    HW130080   1.622   0.135   3.425  1.8998  1.4202  1.0409
 6206SOL    HW230081   1.590   0.010   3.474 -1.0434 -0.0062 -0.9077
 6207SOL     OW30082   4.349   3.284  11.115 -0.3313 -0.4715 -0.1270
 6207SOL    HW130083   4.350   3.206  11.171  2.5640  1.3477  2.3674
 6207SOL    HW230084   4.441   3.284  11.089 -0.7063 -2.0336 -1.4602
 6208SOL     OW30085   3.259   0.944   5.063 -0.0402  0.5663 -0.3024
 6208SOL    HW130086   3.218   0.989   4.990  1.7978  1.4375 -0.7947
 6208SOL    HW230087   3.180   0.916   5.110  1.3208 -0.8456  1.1452
 6209SOL     OW30088   2.110   0.047   5.507  0.0762 -0.0115  1.0393
 6209SOL    HW130089   2.124   0.126   5.456 -0.0974  1.4940  3.3272
 6209SOL    HW230090   2.135   0.071   5.597  2.2586 -0.7338  0.6292
 6210SOL     OW30091   3.128   1.851   7.266  0.0233 -0.5740 -0.2724
 6210SOL    HW130092   3.219   1.826   7.246  1.3609  2.7739  1.6872
 6210SOL    HW230093   3.094   1.883   7.183  1.3902  1.5469 -0.0015
 6211SOL     OW30094   3.150   4.537   5.174  0.1421  0.4749 -0.1932
 6211SOL    HW130095   3.139   4.462   5.115  1.2802 -2.0812  2.8385
 6211SOL    HW230096   3.199   4.494   5.244 -0.1381  0.0946 -0.2295
 6212SOL     OW30097   4.422   2.937   4.297  0.3589 -0.0996  0.7918
 6212SOL    HW130098   4.422   2.992   4.219  0.9428  0.8722  1.4919
 6212SOL    HW230099   4.443   2.850   4.263  0.2960 -1.1371  3.4094
 6213SOL     OW30100   2.134   1.171   4.464 -0.1001  0.1521  0.1522
 6213SOL    HW130101   2.134   1.084   4.423  0.9748  1.1623 -1.9731
 6213SOL    HW230102   2.065   1.155   4.529  0.6011 -0.0247  0.8531
 6214SOL     OW30103   0.335   0.128  13.752 -0.1503 -0.3441 -0.0233
 6214SOL    HW130104   0.284   0.173  13.685  2.5388  0.6984 -1.3752
 6214SOL    HW230105   0.298   0.139  13.840 -0.4677 -1.8747  0.0437
 6215SOL     OW30106   2.952   3.299  11.887  0.0751  0.4601  0.4505
 6215SOL    HW130107   3.036   3.338  11.864 -0.5841  0.4227 -2.0572
 6215SOL    HW230108   2.912   3.292  11.800 -1.5675 -2.6969  1.4386
 6216SOL     OW30109   2.650   0.391  11.389 -0.7416 -0.0253 -0.5878
 6216SOL    HW130110   2.554   0.392  11.382 -0.7759 -0.0621 -0.0711
 6216SOL    HW230111   2.661   0.387  11.484 -0.4840 -2.1844 -0.7234
 6217SOL     OW30112   2.636   1.690   3.879 -0.3359  0.0917 -0.5153
 6217SOL    HW130113   2.663   1.619   3.937 -0.5390 -0.6699 -1.3536
 6217SOL    HW230114   2.548   1.711   3.910 -1.1515 -1.5833 -1.6634
 6218SOL     OW30115   4.246   0.634   0.964 -0.4379  0.7854  0.1505
 6218SOL    HW130116   4.153   0.612   0.972 -1.0150  2.7942 -1.0580
 6218SOL    HW230117   4.264   0.650   0.871 -1.3456 -1.5232 -0.4149
 6219SOL     OW30118   2.797   0.443  15.390  0.2863 -0.4530 -0.8241
 6219SOL    HW130119   2.757   0.394  15.319 -0.3430  1.9901 -2.1578
 6219SOL    HW230120   2.813   0.525  15.343 -0.0446  0.5176  0.7671
 6220SOL     OW30121   2.469   2.339  12.890 -0.3051  0.0006  0.4155
 6220SOL    HW130122   2.557   2.364  12.864 -0.1988  1.6372  2.3517
 6220SOL    HW230123   2.446   2.426  12.923 -0.0787 -0.6971  2.3836
 6221SOL     OW30124   3.712   2.290  11.019  0.8369 -0.0607  0.7477
 6221SOL    HW130125   3.791   2.334  11.051  1.0401  0.4179 -0.4401
 6221SOL    HW230126   3.649   2.331  11.077  1.1349  0.3065  0.8106
 6222SOL     OW30127   0.912   3.896   7.920 -0.3629 -0.4063  0.4440
 6222SOL    HW130128   0.957   3.973   7.955  0.6185  0.1133 -1.9135
 6222SOL    HW230129   0.821   3.926   7.914  0.6335  2.6004  0.0212
 6223SOL     OW30130   1.012   0.012  13.595 -0.2072  0.2145  0.1795
 6223SOL    HW130131   0.935   4.701  13.638 -0.4875 -0.5668 -0.9745
 6223SOL    HW230132   1.065   4.666  13.631 -0.0238  0.9037  1.2795
 6224SOL     OW30133   1.956   2.940   8.065  0.0593 -0.4255 -0.0898
 6224SOL    HW130134   1.998   3.004   8.122 -1.9500 -0.7555  1.7318
 6224SOL    HW230135   2.012   2.937   7.987  1.2243 -0.6938  0.7611
 6225SOL     OW30136   3.292   0.092   1.121 -0.3102 -0.0414 -0.6099
 6225SOL    HW130137   3.253   0.086   1.208 -0.8162 -2.8467 -1.0241
 6225SOL    HW230138   3.327   0.003   1.108  0.8630  0.5224 -1.3399
 6226SOL     OW30139   4.409   3.336  14.973 -0.0584 -0.2855  0.0821
 6226SOL    HW130140   4.466   3.329  14.897 -0.8822 -0.1757 -0.5430
 6226SOL    HW230141   4.387   3.430  14.968  0.0206 -0.4253 -2.5182
 6227SOL     OW30142   1.999   3.456   7.920  0.1872 -0.3886 -0.5255
 6227SOL    HW130143   2.071   3.420   7.868  1.3888  0.1826  0.7545
 6227SOL    HW230144   1.931   3.403   7.878 -0.7381  0.8016 -0.5300
 6228SOL     OW30145   2.003   3.191   9.134  1.1544 -0.5215  0.4834
 6228SOL    HW130146   2.026   3.243   9.056  1.3390 -0.8994  0.2867
 6228SOL    HW230147   2.015   3.254   9.205  0.3396  0.6983 -0.4515
 6229SOL     OW30148   3.715   0.262   7.482 -0.3354  0.4630  0.1959
 6229SOL    HW130149   3.808   0.283   7.496 -0.4870  0.1752  1.5699
 6229SOL    HW230150   3.681   0.306   7.560 -0.5480 -0.1009  0.4216
 6230SOL     OW30151   0.002   3.223   8.417 -0.2233 -0.3166  0.3330
 6230SOL    HW130152   4.696   3.135   8.435 -0.7222 -0.2227 -0.0717
 6230SOL    HW230153   0.086   3.210   8.460 -0.4515  1.0571  1.2007
 6231SOL     OW30154   3.792   2.891   9.056 -0.3647 -0.1556 -0.4940
 6231SOL    HW130155   3.825   2.870   9.143 -0.8373  0.7442 -0.1033
 6231SOL    HW230156   3.871   2.920   9.010 -1.4180  0.8833 -1.6435
 6232SOL     OW30157   3.163   4.591   0.724  0.8666  0.0440 -0.2148
 6232SOL    HW130158   3.245   4.555   0.691 -0.8624 -1.5001 -2.7992
 6232SOL    HW230159   3.161   4.672   0.673 -0.9042 -0.6960 -1.3018
 6233SOL     OW30160   2.840   1.772   6.025 -0.5940 -0.7900 -0.3703
 6233SOL    HW130161   2.794   1.792   5.944 -1.0788  0.9816  0.3424
 6233SOL    HW230162   2.855   1.678   6.018  0.9497 -0.6914  1.5876
 6234SOL     OW30163   3.816   4.529   0.366  0.2663  0.8667  0.4735
 6234SOL    HW130164   3.771   4.506   0.285 -0.3640 -0.2100  1.1327
 6234SOL    HW230165   3.899   4.482   0.354  0.4154  1.2917 -0.1011
 6235SOL     OW30166   2.524   3.625   5.231 -0.1689 -0.4718  0.3765
 6235SOL    HW130167   2.603   3.609   5.281  0.7069  1.5627 -0.3465
 6235SOL    HW230168   2.494   3.693   5.292 -1.6601 -0.8127  0.0316
 6236SOL     OW30169   4.416   4.038   2.920 -0.1780  0.4079 -0.3211
 6236SOL    HW130170   4.356   3.964   2.918 -0.1903  0.4247 -0.6011
 6236SOL    HW230171   4.488   4.014   2.978  0.8946 -0.3688 -1.9695
 6237SOL     OW30172   4.311   0.747   1.397 -0.7709 -0.0683 -0.4284
 6237SOL    HW130173   4.230   0.773   1.442 -1.0635  0.7478 -1.4116
 6237SOL    HW230174   4.365   0.708   1.466 -1.2524 -1.6777 -0.9818
 6238SOL     OW30175   2.169   2.884   9.036 -0.1666 -0.6711 -0.4371
 6238SOL    HW130176   2.153   2.881   8.942 -0.8711  3.4612 -0.4223
 6238SOL    HW230177   2.078   2.895   9.065  0.4438 -1.3919  1.7546
 6239SOL     OW30178   1.710   0.220  17.389  0.1314  0.6018  0.4217
 6239SOL    HW130179   1.618   0.218  17.416  0.0542 -1.3986  0.0527
 6239SOL    HW230180   1.714   0.160  17.314 -2.4361  0.9863 -0.0126
 6240SOL     OW30181   0.471   0.117  12.226 -0.2105  0.8813  0.5805
 6240SOL    HW130182   0.479   0.051  12.158  0.0946  0.9542  0.5443
 6240SOL    HW230183   0.418   0.069  12.290  3.3680 -1.1146  2.0429
 6241SOL     OW30184   2.608   1.495  12.304 -0.4227  0.1263  0.1883
 6241SOL    HW130185   2.605   1.507  12.209  0.6187  0.3153  0.1833
 6241SOL    HW230186   2.521   1.518  12.335  0.8181  2.3175  1.9957
 6242SOL     OW30187   4.469   3.625   1.904 -0.2411 -0.3353 -0.3612
 6242SOL    HW130188   4.430   3.540   1.918 -0.4961 -0.5716 -2.4740
 6242SOL    HW230189   4.548   3.619   1.958 -0.8262  1.5345  0.7173
 6243SOL     OW30190   4.188   0.453   9.934 -0.7220 -0.0853 -0.1440
 6243SOL    HW130191   4.246   0.377   9.941 -0.9840 -0.2043  0.6857
 6243SOL    HW230192   4.110   0.403   9.908 -0.6838 -0.6500  0.8448
 6244SOL     OW30193   3.961   3.478   6.351 -0.3731 -0.6570 -0.4976
 6244SOL    HW130194   3.880   3.440   6.316 -0.9880  0.8497 -0.7063
 6244SOL    HW230195   3.964   3.555   6.294 -1.3345 -1.3597 -1.4783
 6245SOL     OW30196   4.316   4.536  12.089 -0.1437  0.4956  0.5472
 6245SOL    HW130197   4.347   4.525  12.179 -0.6704  1.9511  0.9045
 6245SOL    HW230198   4.390   4.571  12.040  0.0873 -1.2175 -0.3231
 6246SOL     OW30199   3.215   2.564   3.024  0.0850 -0.0085 -0.0471
 6246SOL    HW130200   3.190   2.481   2.982  2.3812 -1.1230  0.7782
 6246SOL    HW230201   3.310   2.556   3.035 -0.3171 -2.4680  1.5733
 6247SOL     OW30202   1.104   4.677   2.876  0.2769 -0.0946  0.2476
 6247SOL    HW130203   1.101   4.613   2.948 -0.3896 -0.6270 -0.2513
 6247SOL    HW230204   1.133   0.032   2.919  2.8020 -0.8541 -0.0174
 6248SOL     OW30205   4.116   3.671   4.894 -0.4456  0.2466 -0.5144
 6248SOL    HW130206   4.165   3.674   4.976 -1.0803 -1.5226 -0.0790
 6248SOL    HW230207   4.032   3.631   4.918 -0.2268 -0.2032 -0.4987
 6249SOL     OW30208   2.463   0.513   6.159 -0.1576 -0.1305 -0.1871
 6249SOL    HW130209   2.444   0.516   6.253  2.1616  1.6813  0.2184
 6249SOL    HW230210   2.385   0.551   6.121  1.6855  1.9685 -1.8450
 6250SOL     OW30211   1.283   4.217  15.315  0.2740 -0.4324  0.3549
 6250SOL    HW130212   1.210   4.172  15.273  0.7646 -1.7861  0.9430
 6250SOL    HW230213   1.288   4.292  15.256 -0.7900 -1.2902 -0.8620
 6251SOL     OW30214   4.630   1.969   6.777 -0.5777 -0.1422  0.0872
 6251SOL    HW130215   4.723   1.947   6.771 -0.1007  2.1799 -1.2844
 6251SOL    HW230216   4.611   2.004   6.864 -3.4228  2.6069 -1.6388
 6252SOL     OW30217   1.412   3.774   6.778 -0.0729 -0.5905 -0.0027
 6252SOL    HW130218   1.480   3.840   6.766 -0.6325 -0.3185 -1.6312
 6252SOL    HW230219   1.433   3.709   6.712  3.2392  0.1760  0.3170
 6253SOL     OW30220   0.930   1.238   8.949  0.5983  0.1181 -0.1823
 6253SOL    HW130221   0.908   1.146   8.932  3.0315 -0.5380  0.3009
 6253SOL    HW230222   0.846   1.277   8.926  0.5759  0.1989  0.0304
 6254SOL     OW30223   2.879   3.301  11.629  0.4357 -0.0777 -0.4885
 6254SOL    HW130224   2.958   3.320  11.578 -0.5472  2.3430 -1.0950
 6254SOL    HW230225   2.828   3.266  11.556 -1.1909  1.0672  0.0899
 6255SOL     OW30226   0.839   2.227   7.212 -0.0173  0.5370 -0.4300
 6255SOL    HW130227   0.906   2.294   7.198  0.3688  0.1447 -0.4916
 6255SOL    HW230228   0.808   2.251   7.299 -1.3754  2.3722 -1.4511
 6256SOL     OW30229   1.758   2.148   1.972  0.8622  0.1016 -0.6572
 6256SOL    HW130230   1.743   2.093   1.896  0.0406 -0.4394 -0.1127
 6256SOL    HW230231   1.844   2.116   1.997 -0.4840 -1.1619  2.4131
 6257SOL     OW30232   0.560   0.689  11.902  0.0745 -0.1029 -0.4044
 6257SOL    HW130233   0.474   0.729  11.908  1.4184  2.9510 -1.7650
 6257SOL    HW230234   0.547   0.594  11.891 -1.2526  0.2413 -1.7860
 6258SOL     OW30235   1.640   0.822   8.186 -0.4501  0.7466  0.3853
 6258SOL    HW130236   1.610   0.911   8.169 -1.3796  0.1675 -1.0674
 6258SOL    HW230237   1.734   0.832   8.201 -0.7684  2.2187  1.3890
 6259SOL     OW30238   2.744   0.298  10.362  0.1751  0.1587 -0.2986
 6259SOL    HW130239   2.672   0.351  10.395 -1.0852 -0.5535 -1.8519
 6259SOL    HW230240   2.704   0.218  10.396  0.6571 -0.9852 -2.4069
 6260SOL     OW30241   2.401   4.108   4.563  0.0309  0.1955  0.0775
 6260SOL    HW130242   2.334   4.168   4.595  1.3141  0.5783  2.0546
 6260SOL    HW230243   2.416   4.048   4.637 -1.8197 -1.2608 -0.7283
 6261SOL     OW30244   0.180   3.634   3.608  0.4043 -0.3745  0.6967
 6261SOL    HW130245   0.093   3.671   3.619  1.3357  1.7205  0.9314
 6261SOL    HW230246   0.213   3.685   3.534 -0.9592 -0.4942  0.0138
 6262SOL     OW30247   3.424   0.038   0.480  0.0058  0.6311  0.3211
 6262SOL    HW130248   3.349   0.041   0.540  0.9024 -0.3940  1.5013
 6262SOL    HW230249   3.467   0.122   0.492 -0.5055  0.8003  0.9734
 6263SOL     OW30250   4.458   4.231   5.975  0.6546  0.2870  0.3046
 6263SOL    HW130251   4.545   4.203   5.948 -0.0417 -2.2946  0.7394
 6263SOL    HW230252   4.476   4.324   5.992 -0.2902  0.5402 -0.0647
 6264SOL     OW30253   1.297   4.183   2.870  0.0143  0.7309  0.2562
 6264SOL    HW130254   1.286   4.233   2.790 -1.6307  1.0692  0.6962
 6264SOL    HW230255   1.392   4.197   2.876  0.1365 -0.0227  0.0914
 6265SOL     OW30256   3.433   3.669  10.964 -0.0521 -0.3419  0.7148
 6265SOL    HW130257   3.400   3.687  10.875  0.0517 -1.3089  0.4839
 6265SOL    HW230258   3.399   3.749  11.003  0.4353  0.3352 -0.2319
 6266SOL     OW30259   2.199   2.516   7.448 -0.1609 -0.5639  0.0741
 6266SOL    HW130260   2.152   2.441   7.484 -0.3461 -0.8701 -0.8071
 6266SOL    HW230261   2.179   2.513   7.355  2.2250  0.6082 -0.4799
 6267SOL     OW30262   1.992   4.402   2.464 -0.5531  0.3871  0.2211
 6267SOL    HW130263   2.073   4.449   2.445 -1.4011  1.7630 -0.0126
 6267SOL    HW230264   1.938   4.464   2.415 -0.1352  1.2572  0.8843
 6268SOL     OW30265   0.156   0.170   2.036 -0.4774  0.2574 -0.0227
 6268SOL    HW130266   0.142   0.104   2.104  2.1606 -0.1820  0.0821
 6268SOL    HW230267   0.199   0.105   1.981  0.1438 -0.8667  1.7955
 6269SOL     OW30268   2.649   2.929  13.690  0.4924  0.6278  0.3156
 6269SOL    HW130269   2.606   2.859  13.740 -0.6270  0.6491 -0.6145
 6269SOL    HW230270   2.741   2.909  13.708  0.4191  0.7219  0.8077
 6270SOL     OW30271   2.542   0.808   2.968  0.0773  0.8666  0.1345
 6270SOL    HW130272   2.452   0.776   2.970 -0.2170  1.7370  1.2490
 6270SOL    HW230273   2.571   0.731   2.919 -1.5683 -0.1441  0.7373
 6271SOL     OW30274   4.427   0.773   1.150  0.2292 -0.2397  0.4078
 6271SOL    HW130275   4.374   0.725   1.086 -0.6599 -1.5760  2.1586
 6271SOL    HW230276   4.386   0.765   1.236  1.0723  1.4064  0.9671
 6272SOL     OW30277   0.886   3.377   3.833 -0.2322 -0.0236 -0.3541
 6272SOL    HW130278   0.840   3.388   3.916 -0.7400  1.2023 -0.7995
 6272SOL    HW230279   0.820   3.405   3.770  0.0853  2.1507  0.2895
 6273SOL     OW30280   0.324   4.592   1.047  0.4022  0.3128 -0.4030
 6273SOL    HW130281   0.321   4.503   1.012 -1.1768 -0.2772  1.2709
 6273SOL    HW230282   0.239   4.630   1.025 -0.6999 -0.7893  1.9453
 6274SOL     OW30283   4.128   2.799   5.965  0.4595  0.8697  0.4378
 6274SOL    HW130284   4.143   2.718   5.917 -2.0722  0.4165  0.4098
 6274SOL    HW230285   4.179   2.780   6.044 -1.9193  0.0716  1.7549
 6275SOL     OW30286   4.113   3.094   7.088 -0.1704 -0.3699  0.3875
 6275SOL    HW130287   4.059   3.070   7.013 -0.0973  1.9619 -0.4265
 6275SOL    HW230288   4.141   3.008   7.119 -2.2354 -1.2447 -0.1838
 6276SOL     OW30289   4.599   0.827   3.587  0.0113  0.5544 -0.1318
 6276SOL    HW130290   4.625   0.735   3.583 -2.0878 -0.0168 -0.5673
 6276SOL    HW230291   4.528   0.834   3.522 -1.4878 -0.8294  1.3292
 6277SOL     OW30292   3.933   0.925   8.512 -0.1865  0.4881  0.4077
 6277SOL    HW130293   3.876   0.941   8.587 -0.7828  0.0606  0.0497
 6277SOL    HW230294   3.931   0.831   8.496 -0.6555  0.4688  0.5996
 6278SOL     OW30295   1.325   1.352   2.857  0.4632 -1.0074 -0.0587
 6278SOL    HW130296   1.359   1.413   2.923  0.4388 -2.9626  1.7684
 6278SOL    HW230297   1.348   1.266   2.892  1.6016 -1.9646 -3.1982
 6279SOL     OW30298   2.043   0.561  15.622  0.1984 -0.7740  0.3560
 6279SOL    HW130299   2.064   0.652  15.644 -0.8982 -0.7559  1.3103
 6279SOL    HW230300   1.952   0.565  15.650 -0.7689 -0.0360 -3.0319
 6280SOL     OW30301   0.442   3.974   8.204 -0.4562  0.3476 -0.2092
 6280SOL    HW130302   0.385   4.036   8.158 -1.1902  1.8023  2.7165
 6280SOL    HW230303   0.386   3.897   8.199 -0.9395  0.8589 -3.0135
 6281SOL     OW30304   4.171   0.375  14.221 -1.0040  0.3137 -0.2917
 6281SOL    HW130305   4.260   0.391  14.190  0.2669 -1.9926  2.2441
 6281SOL    HW230306   4.176   0.287  14.258  3.4002  1.4297  1.7149
 6282SOL     OW30307   4.685   2.197   2.297 -0.1795  0.2439  0.2999
 6282SOL    HW130308   4.609   2.146   2.269 -0.1405 -0.8151  2.1496
 6282SOL    HW230309   4.635   2.266   2.340 -0.6334 -0.4989  0.9766
 6283SOL     OW30310   4.496   3.254   4.573 -0.1015  0.0764 -0.3028
 6283SOL    HW130311   4.490   3.258   4.477 -0.0995  0.9545 -0.2692
 6283SOL    HW230312   4.450   3.336   4.594 -0.0922  0.2674 -1.0391
 6284SOL     OW30313   1.401   0.134   8.909  0.3326 -0.3965  0.3162
 6284SOL    HW130314   1.321   0.091   8.939  0.7637  0.1845  2.2636
 6284SOL    HW230315   1.422   0.086   8.828  1.0049 -2.6270  1.7989
 6285SOL     OW30316   2.879   0.337  13.152 -0.2779  0.0653 -0.8188
 6285SOL    HW130317   2.866   0.424  13.190  1.4714 -0.2070  0.4257
 6285SOL    HW230318   2.945   0.306  13.214  1.0175  1.0305 -1.7212
 6286SOL     OW30319   3.346   2.303  13.517  0.1132  0.4306  0.3809
 6286SOL    HW130320   3.296   2.307  13.436  0.6018 -2.1068 -0.0567
 6286SOL    HW230321   3.281   2.341  13.577 -0.4601  0.4732 -0.2683
 6287SOL     OW30322   1.912   3.708   8.983  0.0242 -0.0009 -0.3425
 6287SOL    HW130323   1.944   3.660   9.060  0.8924  1.5977  0.2921
 6287SOL    HW230324   1.860   3.636   8.947 -0.4742 -0.2418  0.8493
 6288SOL     OW30325   1.295   2.793   5.380 -0.9489  0.0553 -0.4878
 6288SOL    HW130326   1.373   2.770   5.329 -1.1031 -0.9301 -0.2875
 6288SOL    HW230327   1.326   2.878   5.410 -1.1763  0.6494 -1.9563
 6289SOL     OW30328   3.603   3.553  14.800  0.1331 -0.2837  0.4909
 6289SOL    HW130329   3.585   3.633  14.849 -1.0668 -0.8372  0.9470
 6289SOL    HW230330   3.532   3.501  14.838 -0.8878  0.3138 -0.6155
 6290SOL     OW30331   3.526   2.757   9.260  0.2869  0.5309  0.3566
 6290SOL    HW130332   3.610   2.769   9.215 -0.3278  0.9692 -0.6723
 6290SOL    HW230333   3.483   2.684   9.215 -0.6421  0.9468  0.5656
 6291SOL     OW30334   4.417   0.779   8.330 -0.0973  0.1589  0.3605
 6291SOL    HW130335   4.324   0.756   8.335 -0.1157 -0.1343 -1.1412
 6291SOL    HW230336   4.446   0.810   8.416  0.1939  0.2809  0.2180
 6292SOL     OW30337   3.583   3.148   7.102 -0.3975 -0.7423 -0.0268
 6292SOL    HW130338   3.658   3.192   7.143  0.2628 -1.4278 -0.4842
 6292SOL    HW230339   3.553   3.090   7.171 -1.2887  0.5871  0.6982
 6293SOL     OW30340   2.507   2.130  13.048  0.0798 -0.2782 -0.2183
 6293SOL    HW130341   2.485   2.207  12.995 -1.7034 -1.7978 -1.6854
 6293SOL    HW230342   2.465   2.054  13.008 -2.4276  0.7638  0.4361
 6294SOL     OW30343   4.210   0.489   1.664 -0.0050  0.1512  0.4064
 6294SOL    HW130344   4.302   0.496   1.689 -0.3758  0.4274  1.6823
 6294SOL    HW230345   4.216   0.458   1.574  0.2111 -0.6765  0.7122
 6295SOL     OW30346   2.283   0.009   3.136  0.8614  0.1042  0.6355
 6295SOL    HW130347   2.320   0.025   3.049 -2.8800 -0.0621 -0.9798
 6295SOL    HW230348   2.221   4.664   3.117  0.9779  0.2058 -0.0980
 6296SOL     OW30349   2.630   3.328  13.059  0.3914  0.2521  0.4424
 6296SOL    HW130350   2.638   3.291  13.147  1.1061 -1.3906 -0.3294
 6296SOL    HW230351   2.724   3.339  13.050  0.1985  2.4019  0.8955
 6297SOL     OW30352   2.945   0.861   9.535  0.3831  0.0935  0.9085
 6297SOL    HW130353   2.863   0.900   9.506 -0.4248 -3.0035 -0.9473
 6297SOL    HW230354   2.973   0.931   9.594 -1.4472  0.8378  0.8895
 6298SOL     OW30355   4.123   4.593  11.555  0.5004 -0.5193  0.1066
 6298SOL    HW130356   4.167   4.589  11.640 -1.2475  0.8980  1.0878
 6298SOL    HW230357   4.043   4.642  11.576  0.7424 -0.2215  0.3203
 6299SOL     OW30358   3.397   1.869  16.937  0.6434 -0.0549  0.2872
 6299SOL    HW130359   3.355   1.874  16.851  1.1060 -0.8454  0.0203
 6299SOL    HW230360   3.369   1.952  16.976 -0.1832 -2.0521  3.9963
 6300SOL     OW30361   0.507   0.817   5.436 -0.2438  0.2598  0.3055
 6300SOL    HW130362   0.541   0.795   5.523 -0.3543 -0.8157  0.0828
 6300SOL    HW230363   0.580   0.781   5.385 -0.4099  1.2261 -0.6084
 6301SOL     OW30364   1.841   2.060   7.546 -0.2100 -0.0096  0.2171
 6301SOL    HW130365   1.746   2.051   7.555  0.1100 -1.0831  2.7752
 6301SOL    HW230366   1.853   2.096   7.634  1.5691 -0.8134  0.2920
 6302SOL     OW30367   0.198   3.659   2.931  0.0039  0.0602  0.1954
 6302SOL    HW130368   0.237   3.693   2.850  0.1459 -2.1175 -0.6558
 6302SOL    HW230369   0.151   3.586   2.890  0.3494  1.3793 -2.5789
 6303SOL     OW30370   0.411   1.189  10.877 -0.5379  0.1330 -0.2196
 6303SOL    HW130371   0.456   1.194  10.793 -0.6282  0.1041 -0.2695
 6303SOL    HW230372   0.401   1.282  10.897 -1.9414 -0.3908  1.5211
 6304SOL     OW30373   1.065   1.962   3.848 -0.0730 -0.3066 -0.1817
 6304SOL    HW130374   1.080   2.027   3.916 -0.8036 -0.1624 -0.1586
 6304SOL    HW230375   0.992   1.998   3.799  0.6996 -1.2560 -2.0112
 6305SOL     OW30376   4.092   2.280   6.654 -0.2174  0.2673 -0.4274
 6305SOL    HW130377   4.040   2.347   6.698  0.4887 -0.0915  0.9347
 6305SOL    HW230378   4.160   2.264   6.719 -1.0575  1.5564  0.7725
 6306SOL     OW30379   3.922   1.190   3.454 -0.6545  0.1578  0.7082
 6306SOL    HW130380   3.919   1.109   3.403  0.5416  0.0113  0.8705
 6306SOL    HW230381   3.972   1.162   3.530  2.7512  1.4713 -1.0187
 6307SOL     OW30382   0.702   3.764   7.501  0.1482 -0.3730 -0.4506
 6307SOL    HW130383   0.784   3.797   7.539  1.9012 -1.9206 -2.8922
 6307SOL    HW230384   0.659   3.742   7.584 -0.5491  2.5295 -0.0317
 6308SOL     OW30385   3.755   0.908   5.321 -0.2937  0.5622 -0.6209
 6308SOL    HW130386   3.669   0.936   5.288 -0.9595 -1.2224 -0.3624
 6308SOL    HW230387   3.813   0.954   5.260 -0.1647  1.3262  0.0896
 6309SOL     OW30388   0.991   1.890   8.575 -0.0651 -0.3185  0.0547
 6309SOL    HW130389   1.064   1.895   8.636  0.3112  0.7514 -0.4845
 6309SOL    HW230390   0.934   1.946   8.627 -3.8563 -2.9004 -1.2628
 6310SOL     OW30391   4.541   4.646   7.357 -0.6828  0.6321  0.3846
 6310SOL    HW130392   4.510   4.698   7.431 -0.7742  1.2239 -0.0692
 6310SOL    HW230393   4.470   4.650   7.294  1.0209  2.9672 -1.4120
 6311SOL     OW30394   0.818   2.747   4.075  0.1470 -0.0992  0.6230
 6311SOL    HW130395   0.892   2.713   4.124  0.1914 -1.1867 -0.2018
 6311SOL    HW230396   0.811   2.838   4.105  0.6399  0.0722  0.2151
 6312SOL     OW30397   4.254   3.820   7.783  0.0812  0.4273 -0.1815
 6312SOL    HW130398   4.168   3.793   7.751  0.1731 -1.2864  0.9845
 6312SOL    HW230399   4.256   3.802   7.877  0.9842  3.1823  0.3242
 6313SOL     OW30400   2.973   1.607  17.436  0.4823 -0.2122 -0.8075
 6313SOL    HW130401   3.049   1.569  17.393  1.0684 -0.6288  0.5908
 6313SOL    HW230402   3.019   1.681  17.475  1.3677 -0.1334 -1.9816
 6314SOL     OW30403   1.630   3.032   3.793 -0.1091 -0.5042 -0.5192
 6314SOL    HW130404   1.634   2.950   3.744  2.1151 -1.8408  1.8634
 6314SOL    HW230405   1.706   3.025   3.851 -0.6734 -0.7890  0.1817
 6315SOL     OW30406   1.727   3.586   6.542  1.2134 -0.3088 -0.2191
 6315SOL    HW130407   1.789   3.657   6.528  0.6890  0.1892 -0.0217
 6315SOL    HW230408   1.789   3.525   6.583  2.8835  1.3743 -0.2490
 6316SOL     OW30409   0.058   2.944  13.624 -0.7127  0.1558  0.1305
 6316SOL    HW130410   0.122   2.876  13.644  0.6959  1.9790  1.8355
 6316SOL    HW230411   0.045   2.954  13.530 -1.0425  0.2513  0.1844
 6317SOL     OW30412   3.336   3.102   5.604 -0.1109  0.2558 -0.5615
 6317SOL    HW130413   3.259   3.153   5.630 -0.2763  0.4693 -1.4521
 6317SOL    HW230414   3.331   3.037   5.673 -2.0179  1.3244  0.3212
 6318SOL     OW30415   0.289   2.776   4.427  0.3227  0.4134 -0.1734
 6318SOL    HW130416   0.295   2.703   4.365  1.1464  0.5833 -0.2971
 6318SOL    HW230417   0.195   2.774   4.446  0.6016  1.6947  1.2859
 6319SOL     OW30418   3.179   3.518   7.377 -0.6846  0.2585  0.3550
 6319SOL    HW130419   3.191   3.607   7.412  2.1141  0.0533 -0.0862
 6319SOL    HW230420   3.154   3.474   7.457  2.3739  2.7471  2.6997
 6320SOL     OW30421   1.476   4.364   3.908  0.0754 -0.2539 -0.7542
 6320SOL    HW130422   1.520   4.298   3.961 -1.0448 -0.1706  0.2861
 6320SOL    HW230423   1.391   4.325   3.929  0.1204  1.0538  1.8299
 6321SOL     OW30424   1.359   1.894   4.822  0.6109 -0.1841  0.2342
 6321SOL    HW130425   1.438   1.884   4.769  1.7922  2.7022  1.4127
 6321SOL    HW230426   1.401   1.928   4.900  3.0970  0.2304 -1.3004
 6322SOL     OW30427   3.050   1.462   5.752 -0.1075 -0.1194  0.2074
 6322SOL    HW130428   3.034   1.396   5.820 -1.7923 -1.9461 -1.9582
 6322SOL    HW230429   3.140   1.434   5.732  0.1190  1.1102 -0.4556
 6323SOL     OW30430   2.313   4.651  14.754 -0.0673 -0.0009 -0.4805
 6323SOL    HW130431   2.392   4.689  14.715  0.6341  1.6661  2.5663
 6323SOL    HW230432   2.245   4.716  14.734  0.9274  1.3780  0.6006
 6324SOL     OW30433   4.591   2.868   7.700 -0.3752  0.0360 -0.3209
 6324SOL    HW130434   4.515   2.925   7.688 -2.0663 -1.6810  2.2778
 6324SOL    HW230435   4.653   2.919   7.647  1.0542 -0.7094  0.6292
 6325SOL     OW30436   1.850   0.610   2.816 -0.2742 -0.0378 -0.5533
 6325SOL    HW130437   1.767   0.631   2.773  0.5870  1.4818 -1.4773
 6325SOL    HW230438   1.813   0.568   2.894  2.3004 -0.0528  0.6590
 6326SOL     OW30439   3.632   4.691   3.389 -0.1508  0.0484 -0.4427
 6326SOL    HW130440   3.575   4.702   3.465 -0.2902  1.0209 -0.6838
 6326SOL    HW230441   3.566   4.692   3.319  0.1444 -0.5381 -0.7312
 6327SOL     OW30442   2.454   4.599   7.473 -0.3827  0.0428 -0.1795
 6327SOL    HW130443   2.514   4.539   7.518 -0.3730 -1.2088 -1.8900
 6327SOL    HW230444   2.404   4.643   7.542 -0.3541  0.3896 -0.3784
 6328SOL     OW30445   3.759   4.052   8.125 -0.2242 -0.6331 -0.2931
 6328SOL    HW130446   3.792   4.086   8.209  0.7861  0.5225 -1.1643
 6328SOL    HW230447   3.705   3.980   8.159  0.2607 -0.1399  1.5076
 6329SOL     OW30448   3.299   0.234   6.335 -0.0533 -0.0503 -0.1893
 6329SOL    HW130449   3.267   0.322   6.312 -0.1336  0.1494  0.7003
 6329SOL    HW230450   3.246   0.197   6.264  2.5507  0.9581 -2.6680
 6330SOL     OW30451   3.131   2.350   2.681 -0.0803 -0.1944  0.2257
 6330SOL    HW130452   3.058   2.370   2.623 -0.9911 -0.7801  1.1608
 6330SOL    HW230453   3.174   2.436   2.687  1.2728 -0.8403 -0.2458
 6331SOL     OW30454   0.278   1.948   3.767 -0.1937  0.1187 -0.0764
 6331SOL    HW130455   0.331   1.869   3.771 -0.4944 -0.1517 -1.3727
 6331SOL    HW230456   0.308   1.967   3.678 -0.5778 -0.4025 -0.3185
 6332SOL     OW30457   3.736   1.247   4.843 -0.2504 -0.0106 -0.0120
 6332SOL    HW130458   3.674   1.268   4.773 -1.4057  0.9642  1.2921
 6332SOL    HW230459   3.681   1.233   4.920  0.0624  2.4600  0.6882
 6333SOL     OW30460   0.850   1.901  14.542 -0.2035  0.2771 -0.1675
 6333SOL    HW130461   0.847   1.861  14.455  2.7372 -1.3446  0.5058
 6333SOL    HW230462   0.803   1.985  14.537 -2.4578 -0.9259  0.4858
 6334SOL     OW30463   0.220   2.714   8.537 -0.0972  0.1733 -0.0837
 6334SOL    HW130464   0.256   2.625   8.528  0.8069  0.5390 -0.1204
 6334SOL    HW230465   0.160   2.707   8.464  0.1518  0.5416 -0.3202
 6335SOL     OW30466   0.291   3.600   6.881 -0.7247 -0.0585 -0.7413
 6335SOL    HW130467   0.299   3.609   6.976 -1.0725 -2.2599 -0.5099
 6335SOL    HW230468   0.261   3.689   6.863 -2.7085 -0.7671 -0.8810
 6336SOL     OW30469   4.226   2.060   8.250  0.0568 -0.2499  0.3343
 6336SOL    HW130470   4.297   2.021   8.199  0.9406 -0.6034  1.8331
 6336SOL    HW230471   4.270   2.065   8.335 -0.5469  0.4489  0.6074
 6337SOL     OW30472   3.598   0.089   1.835  0.0956  0.4848 -0.4868
 6337SOL    HW130473   3.668   0.152   1.849 -0.3335  1.0173 -0.6942
 6337SOL    HW230474   3.548   0.108   1.914 -0.6778  0.2104 -0.9074
 6338SOL     OW30475   3.047   0.595   7.205 -0.1711  0.0987  0.0878
 6338SOL    HW130476   3.062   0.507   7.239 -0.7966 -0.3324 -0.7493
 6338SOL    HW230477   3.125   0.638   7.241  0.6225 -1.2107 -0.0595
 6339SOL     OW30478   0.543   0.386   2.584  0.0889  0.3633 -0.6723
 6339SOL    HW130479   0.625   0.379   2.534 -0.4373  2.9124 -1.8720
 6339SOL    HW230480   0.480   0.397   2.513 -1.6471  2.0016  1.1240
 6340SOL     OW30481   3.008   1.509   2.889  0.2340  0.7891  0.1789
 6340SOL    HW130482   2.974   1.480   2.805  1.1406  0.9941 -0.2569
 6340SOL    HW230483   3.066   1.438   2.916  0.5591  1.0818  0.2458
 6341SOL     OW30484   3.546   2.033   8.405  0.0162  0.4389 -0.1288
 6341SOL    HW130485   3.604   1.958   8.394 -0.0248  0.5310 -0.9334
 6341SOL    HW230486   3.604   2.106   8.426  1.7443 -1.1988  0.7241
 6342SOL     OW30487   1.568   0.544   1.734  0.9514  0.1799 -0.2283
 6342SOL    HW130488   1.493   0.490   1.709 -0.5740  1.4425  1.6581
 6342SOL    HW230489   1.591   0.587   1.652  1.4997  1.4708  0.6025
 6343SOL     OW30490   3.158   4.146   4.471 -0.2734 -0.7974 -0.3291
 6343SOL    HW130491   3.130   4.225   4.426  1.1133 -0.8385 -1.2837
 6343SOL    HW230492   3.132   4.086   4.401  0.8844 -0.5714 -0.9555
 6344SOL     OW30493   0.826   2.051   8.694  0.1652  0.0803  0.3215
 6344SOL    HW130494   0.794   2.120   8.637 -1.0040 -1.4053 -0.7956
 6344SOL    HW230495   0.826   2.102   8.775  1.1952  0.9095 -0.2022
 6345SOL     OW30496   2.817   2.668   0.392  0.0313  0.1670  0.2434
 6345SOL    HW130497   2.827   2.585   0.346  0.0150  0.5377 -0.4359
 6345SOL    HW230498   2.865   2.648   0.473 -2.3815 -1.2017  1.3435
 6346SOL     OW30499   4.637   4.309   9.565  0.3218 -0.2471  0.4438
 6346SOL    HW130500   4.560   4.366   9.563 -0.3161 -1.1260 -0.0669
 6346SOL    HW230501   4.597   4.222   9.574  2.9163 -1.7451 -2.3376
 6347SOL     OW30502   3.451   1.420   3.400 -0.2276  0.1516 -0.4578
 6347SOL    HW130503   3.389   1.350   3.378  0.3693 -0.3974 -0.4119
 6347SOL    HW230504   3.441   1.420   3.495 -0.9860 -3.9027 -0.5175
 6348SOL     OW30505   4.456   0.211   5.874  0.3101 -0.4082 -0.5419
 6348SOL    HW130506   4.505   0.281   5.830 -1.1959 -0.9054 -2.9985
 6348SOL    HW230507   4.523   0.144   5.891  0.4718  0.2335  1.3544
 6349SOL     OW30508   0.200   3.378  10.185  0.7008 -0.0511  0.0861
 6349SOL    HW130509   0.187   3.416  10.271 -2.0166 -0.2553 -0.2507
 6349SOL    HW230510   0.118   3.332  10.170  0.5669 -0.2052  1.3346
 6350SOL     OW30511   1.260   2.554   2.519  0.0780 -0.4781 -0.2054
 6350SOL    HW130512   1.239   2.639   2.558  1.0009 -1.1089  1.7049
 6350SOL    HW230513   1.240   2.492   2.589  0.4130 -1.7512 -1.2449
 6351SOL     OW30514   2.299   0.053   2.829  0.2507  0.4222 -0.0491
 6351SOL    HW130515   2.249   4.707   2.788  2.4783 -1.6092  0.7501
 6351SOL    HW230516   2.239   0.128   2.828 -2.2894 -1.5844 -0.4962
 6352SOL     OW30517   4.200   2.962  11.446 -0.5295 -0.0411 -0.2041
 6352SOL    HW130518   4.109   2.938  11.466 -0.7140  1.2383  0.4464
 6352SOL    HW230519   4.204   3.042  11.497 -3.2124  0.4148 -0.7184
 6353SOL     OW30520   1.673   2.252  15.709  0.3431 -0.0613  0.0093
 6353SOL    HW130521   1.623   2.210  15.639 -1.0340  1.6643 -0.0634
 6353SOL    HW230522   1.610   2.248  15.781 -2.7400  1.8252 -2.5916
 6354SOL     OW30523   0.686   3.787   2.947 -0.8036  0.2932 -0.5168
 6354SOL    HW130524   0.661   3.696   2.929  0.3469  0.5918 -3.6379
 6354SOL    HW230525   0.778   3.780   2.921  0.0831  0.4552  2.6771
 6355SOL     OW30526   0.963   3.111   7.880 -0.0718 -0.1719 -0.4743
 6355SOL    HW130527   1.053   3.080   7.889  0.1813  0.3981 -1.0812
 6355SOL    HW230528   0.967   3.183   7.817  1.3347  0.8622  0.7840
 6356SOL     OW30529   2.189   2.568   4.990 -0.1482  0.2509  0.6003
 6356SOL    HW130530   2.230   2.534   4.911 -0.2901  4.3716 -1.2722
 6356SOL    HW230531   2.094   2.570   4.984 -0.0791 -0.9722 -0.9480
 6357SOL     OW30532   3.170   4.168   8.166 -0.1728  0.7447 -0.0668
 6357SOL    HW130533   3.229   4.232   8.128  0.9191 -0.2681 -0.0768
 6357SOL    HW230534   3.202   4.161   8.256 -0.1522  2.8421  0.0797
 6358SOL     OW30535   0.120   0.270  11.750  0.5555  0.2352  0.3099
 6358SOL    HW130536   0.099   0.292  11.841  3.4900 -0.6742  1.1993
 6358SOL    HW230537   0.069   0.341  11.711  0.9023  0.5037  0.3520
 6359SOL     OW30538   2.662   4.127   5.979 -0.6817 -0.2657 -0.4140
 6359SOL    HW130539   2.703   4.089   5.901 -1.5353 -2.9289  0.4476
 6359SOL    HW230540   2.696   4.074   6.051 -1.4882 -0.8046 -0.4285
 6360SOL     OW30541   1.301   3.060  14.440  0.2050 -0.2168 -0.3815
 6360SOL    HW130542   1.283   3.028  14.529 -1.1544  0.5986 -0.3724
 6360SOL    HW230543   1.356   3.139  14.446  1.4162 -1.2247  1.8024
 6361SOL     OW30544   2.401   1.370  16.317  0.4040  0.0453 -0.0297
 6361SOL    HW130545   2.479   1.426  16.322  1.9436 -2.3044  1.9526
 6361SOL    HW230546   2.390   1.332  16.404 -2.5245  2.2103  0.5522
 6362SOL     OW30547   0.955   1.665   3.699 -0.0649 -0.7084  0.3944
 6362SOL    HW130548   0.863   1.649   3.680  0.1129 -1.9004  0.5778
 6362SOL    HW230549   0.980   1.728   3.632  1.2404 -0.8196  0.7753
 6363SOL     OW30550   1.842   1.762   2.541 -0.4323  0.0607 -0.3904
 6363SOL    HW130551   1.852   1.728   2.452 -0.2743 -1.1406  0.0814
 6363SOL    HW230552   1.849   1.855   2.518 -0.1187  0.0409 -0.3883
 6364SOL     OW30553   0.649   0.403   8.434 -0.1799 -0.0827  0.4059
 6364SOL    HW130554   0.581   0.461   8.468 -0.5653  0.7133 -1.7422
 6364SOL    HW230555   0.720   0.466   8.448 -0.9887  1.2256 -1.4513
 6365SOL     OW30556   2.425   3.634   2.905  0.0816 -0.4035 -0.0679
 6365SOL    HW130557   2.394   3.545   2.923 -0.0163 -0.2825  0.3779
 6365SOL    HW230558   2.476   3.642   2.986 -0.7161 -1.4920  0.5437
 6366SOL     OW30559   4.026   0.458  12.971  0.5094 -0.1404  0.0807
 6366SOL    HW130560   4.027   0.554  12.974 -0.4099 -0.1824  1.9634
 6366SOL    HW230561   4.042   0.444  12.878 -3.1968  2.0090 -0.8903
 6367SOL     OW30562   1.989   0.585   4.741  0.2632 -0.0621  0.0619
 6367SOL    HW130563   1.954   0.665   4.780  2.1835  0.5896  0.4821
 6367SOL    HW230564   1.917   0.549   4.690  0.4600  0.2796 -0.4592
 6368SOL     OW30565   4.183   0.387   3.002 -0.4657 -0.3855  0.2145
 6368SOL    HW130566   4.089   0.402   3.001 -0.5666 -1.1663 -0.9369
 6368SOL    HW230567   4.191   0.291   3.002 -0.3264 -0.3677 -0.6735
 6369SOL     OW30568   3.865   0.178   2.297 -0.8663 -0.0400 -0.2196
 6369SOL    HW130569   3.892   0.254   2.247  0.1515 -0.5142 -0.3844
 6369SOL    HW230570   3.945   0.131   2.320 -1.4823 -0.9395  0.1199
 6370SOL     OW30571   0.260   4.129   0.456 -0.1877  0.0413 -0.0187
 6370SOL    HW130572   0.258   4.099   0.546  0.3200 -0.6115 -0.2223
 6370SOL    HW230573   0.345   4.173   0.449 -1.2837  2.3608  1.5036
 6371SOL     OW30574   4.037   4.130   9.694  0.5206  0.0123 -0.7464
 6371SOL    HW130575   4.133   4.131   9.689  0.6788 -0.5755  2.0901
 6371SOL    HW230576   4.010   4.175   9.614 -0.1313 -0.3667 -0.7367
 6372SOL     OW30577   4.316   2.479  11.615 -0.0014 -0.1514 -0.0417
 6372SOL    HW130578   4.228   2.509  11.639  0.9747  1.3578  1.6232
 6372SOL    HW230579   4.353   2.562  11.584  2.6897 -0.8175  1.4228
 6373SOL     OW30580   3.073   2.808   9.336 -0.8654  0.5721  0.7526
 6373SOL    HW130581   2.980   2.804   9.312 -0.2932  1.4120 -1.6303
 6373SOL    HW230582   3.064   2.875   9.404  2.3856  1.4601  0.2723
 6374SOL     OW30583   2.264   1.656   6.827 -0.6577 -0.0516  0.0927
 6374SOL    HW130584   2.336   1.680   6.885  0.4722  1.6550 -2.0018
 6374SOL    HW230585   2.224   1.575   6.858 -1.0795 -1.0004 -2.8695
 6375SOL     OW30586   2.062   0.950   8.514  0.6302 -0.2034 -0.5285
 6375SOL    HW130587   2.139   0.983   8.468  0.3035 -0.6771 -1.4059
 6375SOL    HW230588   2.111   0.931   8.594 -0.7877  2.2391  0.9192
 6376SOL     OW30589   2.155   2.418   7.207  0.4273 -0.9769 -0.3578
 6376SOL    HW130590   2.221   2.378   7.150  0.5497 -0.6498 -0.4460
 6376SOL    HW230591   2.073   2.401   7.160 -1.3274  1.5355  1.7994
 6377SOL     OW30592   4.553   4.466  14.170 -0.5155  0.0143 -0.2119
 6377SOL    HW130593   4.622   4.531  14.177 -1.0873  0.6560 -0.5372
 6377SOL    HW230594   4.492   4.519  14.222 -0.1567 -0.7491  0.9798
 6378SOL     OW30595   4.112   0.746   3.205  0.3580  0.3032  0.2629
 6378SOL    HW130596   4.125   0.761   3.112  3.0337  1.3791  0.8203
 6378SOL    HW230597   4.041   0.803   3.233 -2.7067 -2.5275 -1.7872
 6379SOL     OW30598   2.293   1.638   5.857  0.6189  0.4453  0.2367
 6379SOL    HW130599   2.347   1.655   5.779  0.2297 -1.3478 -0.4309
 6379SOL    HW230600   2.323   1.705   5.918  0.1949  1.5633 -0.7922
 6380SOL     OW30601   2.486   2.542   8.334  0.3994 -0.4849 -0.0304
 6380SOL    HW130602   2.578   2.534   8.310  0.5612  0.2041  0.3570
 6380SOL    HW230603   2.473   2.473   8.399 -0.3424 -0.9531 -0.6764
 6381SOL     OW30604   3.566   2.827   3.701 -0.3156 -0.4843 -0.7824
 6381SOL    HW130605   3.586   2.740   3.736 -0.5101 -0.8058 -1.4714
 6381SOL    HW230606   3.504   2.798   3.634 -0.2630 -0.5525 -0.8015
 6382SOL     OW30607   3.751   0.559   2.692  0.0158 -0.2617 -0.3790
 6382SOL    HW130608   3.666   0.517   2.686 -0.2290  0.0841  0.6541
 6382SOL    HW230609   3.758   0.609   2.611  0.1574  0.1089 -0.1414
 6383SOL     OW30610   3.208   4.679  13.138  0.0037  0.6117 -0.4237
 6383SOL    HW130611   3.286   4.724  13.170  2.8324 -3.3077 -1.6829
 6383SOL    HW230612   3.200   4.722  13.053  4.6098 -2.4550 -2.4339
 6384SOL     OW30613   4.416   0.109   9.191  0.1773  0.1479 -0.0840
 6384SOL    HW130614   4.407   0.181   9.129 -1.9985  0.2077  0.2884
 6384SOL    HW230615   4.384   0.037   9.137 -0.3901 -1.6356  2.6110
 6385SOL     OW30616   1.503   0.155   3.759  0.3883 -0.1159 -0.2690
 6385SOL    HW130617   1.574   0.207   3.794 -0.4609 -0.5717  2.1032
 6385SOL    HW230618   1.531   0.119   3.674 -0.8216 -2.4003  0.2955
 6386SOL     OW30619   3.803   3.878  16.487 -0.3647 -0.2478 -0.3184
 6386SOL    HW130620   3.743   3.852  16.556  1.2240 -2.7571  0.1438
 6386SOL    HW230621   3.823   3.792  16.448  0.7982  0.2747 -0.8713
 6387SOL     OW30622   3.350   3.891   7.227  0.3187 -0.0674 -0.1244
 6387SOL    HW130623   3.380   3.922   7.142  1.6401 -0.5619  0.1720
 6387SOL    HW230624   3.306   3.971   7.257 -0.1888 -1.4741  2.8632
 6388SOL     OW30625   2.123   2.246   0.909  0.0951 -0.0140  0.3401
 6388SOL    HW130626   2.037   2.208   0.893 -0.1471 -0.4783  2.8887
 6388SOL    HW230627   2.133   2.309   0.837 -0.9033  1.2900  1.3416
 6389SOL     OW30628   3.401   4.467   0.686  0.8559 -0.1846 -0.1411
 6389SOL    HW130629   3.459   4.500   0.755 -0.1148 -0.0404  0.5985
 6389SOL    HW230630   3.424   4.374   0.691 -1.5477 -0.8457 -1.3465
 6390SOL     OW30631   2.403   4.274   6.130 -0.1275  0.3157 -0.2847
 6390SOL    HW130632   2.373   4.349   6.182 -2.3268 -0.7363 -0.0245
 6390SOL    HW230633   2.367   4.201   6.180 -0.6407 -0.1465 -1.3343
 6391SOL     OW30634   1.278   2.043   2.373  0.0210 -0.4976  0.4992
 6391SOL    HW130635   1.198   1.995   2.393  1.1961 -2.0247  1.4985
 6391SOL    HW230636   1.241   2.096   2.302  2.3146  2.9180  1.8333
 6392SOL     OW30637   3.417   4.396   6.070  0.1161  0.3618  0.0691
 6392SOL    HW130638   3.499   4.432   6.035 -0.5397  0.6068 -1.2188
 6392SOL    HW230639   3.436   4.304   6.052 -1.9427 -0.1035  0.2644
 6393SOL     OW30640   2.939   3.324   1.777 -0.3806 -0.3317 -0.2161
 6393SOL    HW130641   3.025   3.301   1.743  0.4581  1.3813  0.7729
 6393SOL    HW230642   2.935   3.268   1.855  0.4343  0.1529  0.1622
 6394SOL     OW30643   2.040   4.089   7.977 -0.1491  0.3036  0.4935
 6394SOL    HW130644   2.000   4.116   8.060 -1.3884  1.4310 -0.4797
 6394SOL    HW230645   1.998   4.149   7.916 -0.3549 -2.7574 -2.3697
 6395SOL     OW30646   2.626   4.659  14.638 -0.3223  0.0547  0.0961
 6395SOL    HW130647   2.667   4.719  14.701 -0.7695  0.2626  0.1940
 6395SOL    HW230648   2.697   4.630  14.582  1.6193  2.4325  1.3269
 6396SOL     OW30649   1.733   1.284   2.366 -0.2040  0.6538 -0.4019
 6396SOL    HW130650   1.639   1.301   2.355 -0.4952  0.9825  2.5444
 6396SOL    HW230651   1.733   1.195   2.401  1.2879  0.6854 -0.3620
 6397SOL     OW30652   3.106   1.395   6.993  0.1311 -0.1313 -0.7697
 6397SOL    HW130653   3.011   1.389   6.987  0.1901 -0.8172 -1.0346
 6397SOL    HW230654   3.124   1.484   7.023 -1.1301 -0.3031  0.4802
 6398SOL     OW30655   4.456   1.772   4.455 -0.1953  0.2561  0.4270
 6398SOL    HW130656   4.505   1.733   4.527  0.1987  2.0893  1.1549
 6398SOL    HW230657   4.473   1.866   4.455 -2.1222  0.6133 -1.0889
 6399SOL     OW30658   3.168   0.062   2.725 -0.3215 -0.3254  0.0101
 6399SOL    HW130659   3.089   0.039   2.774  0.4376  0.2600  1.5203
 6399SOL    HW230660   3.178   4.719   2.659 -3.0929  1.0321 -1.8116
 6400SOL     OW30661   0.816   3.898   3.401 -0.4660  0.2230 -0.0739
 6400SOL    HW130662   0.786   3.808   3.386 -2.4380  1.0278 -0.9146
 6400SOL    HW230663   0.899   3.906   3.355  0.2592  0.1290  1.2182
 6401SOL     OW30664   0.245   1.846   6.439 -0.4474  0.2722 -0.3950
 6401SOL    HW130665   0.283   1.934   6.434  0.1511 -0.0247 -1.0187
 6401SOL    HW230666   0.152   1.868   6.452 -0.3496  0.1637  0.4859
 6402SOL     OW30667   1.309   2.586   6.015 -0.0374 -0.7346  0.4293
 6402SOL    HW130668   1.254   2.538   5.954 -2.4588  2.1764  0.3313
 6402SOL    HW230669   1.281   2.673   5.987 -1.7872 -1.1176  0.9786
 6403SOL     OW30670   0.595   3.351   6.186 -0.2246  0.2697  0.4498
 6403SOL    HW130671   0.544   3.410   6.242  1.0382 -0.1285  2.0218
 6403SOL    HW230672   0.677   3.352   6.235  0.4294  0.7413 -0.6466
 6404SOL     OW30673   1.204   2.129  10.616 -0.4071 -0.1579  0.8508
 6404SOL    HW130674   1.157   2.176  10.547 -0.4436 -1.7451 -0.2060
 6404SOL    HW230675   1.200   2.199  10.681  1.0041 -0.7261  1.5524
 6405SOL     OW30676   2.652   3.006   4.037 -0.2043  0.0149 -0.2736
 6405SOL    HW130677   2.676   3.050   3.956 -0.2322 -2.7101 -1.7519
 6405SOL    HW230678   2.696   3.064   4.099  0.1944 -1.1924  0.5669
 6406SOL     OW30679   3.814   3.866  12.361 -0.2686 -0.2131 -0.1312
 6406SOL    HW130680   3.909   3.855  12.370 -0.2967 -1.9752 -2.1033
 6406SOL    HW230681   3.786   3.852  12.452 -0.5744  2.4412  0.1846
 6407SOL     OW30682   3.910   1.350   2.909  0.6227  0.6261 -0.2654
 6407SOL    HW130683   3.904   1.381   2.819 -1.8368 -0.3204 -0.4462
 6407SOL    HW230684   3.901   1.430   2.961  3.1068 -0.9304  2.5203
 6408SOL     OW30685   2.790   1.361   3.424  0.1982  0.1644  0.2432
 6408SOL    HW130686   2.810   1.271   3.448  2.4452 -0.0674 -2.4903
 6408SOL    HW230687   2.699   1.341   3.403  0.6844 -1.6350 -0.0923
 6409SOL     OW30688   4.071   2.167   1.277  0.1518  0.1707  0.2720
 6409SOL    HW130689   4.033   2.249   1.308 -2.3479 -1.3104  1.0604
 6409SOL    HW230690   4.138   2.197   1.215 -1.0826 -1.0327 -1.6381
 6410SOL     OW30691   2.857   3.563   6.056 -0.1288  0.2388 -0.2893
 6410SOL    HW130692   2.814   3.556   6.142  2.3712 -0.1066  0.9519
 6410SOL    HW230693   2.781   3.594   6.007 -0.9420  0.7887  1.2860
 6411SOL     OW30694   3.709   2.495   3.115  0.6275  0.2747  0.7587
 6411SOL    HW130695   3.737   2.440   3.042  0.5251 -3.2663  3.3674
 6411SOL    HW230696   3.703   2.579   3.071 -0.1758 -1.4807 -2.4900
 6412SOL     OW30697   0.965   2.604   8.540 -0.2788  0.3539  0.1511
 6412SOL    HW130698   1.054   2.638   8.533  0.6244 -2.0856 -0.3721
 6412SOL    HW230699   0.925   2.645   8.464  0.7279 -0.7176 -0.9513
 6413SOL     OW30700   2.086   1.825  15.340 -0.0425  0.1040 -0.1978
 6413SOL    HW130701   2.145   1.801  15.412 -0.8212 -0.8683  0.1232
 6413SOL    HW230702   2.021   1.755  15.340  0.4240 -0.3188  2.3196
 6414SOL     OW30703   0.079   3.734   5.287 -0.1025 -0.2809 -0.2927
 6414SOL    HW130704   0.040   3.649   5.268 -0.9311 -0.0032  0.1497
 6414SOL    HW230705   0.141   3.718   5.358 -0.5860 -1.7234 -0.2039
 6415SOL     OW30706   3.820   0.178   4.024  0.4843 -0.0259 -0.0692
 6415SOL    HW130707   3.896   0.180   3.965  0.8649 -0.2267  0.4131
 6415SOL    HW230708   3.760   0.243   3.987 -0.0052 -0.1881  0.4533
 6416SOL     OW30709   2.665   2.531  13.145  0.3495 -0.0324 -0.2446
 6416SOL    HW130710   2.643   2.469  13.215 -0.6807 -3.0892 -3.2590
 6416SOL    HW230711   2.736   2.581  13.184  1.5026 -0.3596 -1.9118
 6417SOL     OW30712   3.386   1.960  14.122 -0.2401  0.5152  0.4456
 6417SOL    HW130713   3.324   2.021  14.164 -2.2395 -0.7497 -0.6760
 6417SOL    HW230714   3.351   1.873  14.139  0.2332  0.3558  0.5975
 6418SOL     OW30715   2.330   1.254  14.986  0.4748  0.2556 -0.3263
 6418SOL    HW130716   2.241   1.273  15.014  0.6641 -0.2576  0.6458
 6418SOL    HW230717   2.312   1.231  14.895  3.4162  0.6584 -1.0156
 6419SOL     OW30718   3.241   1.759   6.889 -0.0993  0.0428 -0.0676
 6419SOL    HW130719   3.257   1.801   6.804  0.4721 -0.3253 -0.1396
 6419SOL    HW230720   3.265   1.667   6.876 -3.4639 -0.8809  0.1971
 6420SOL     OW30721   2.833   2.432   6.328 -0.2693 -0.1802  0.2531
 6420SOL    HW130722   2.865   2.381   6.253 -1.3004  1.6653 -1.4456
 6420SOL    HW230723   2.771   2.379   6.377  0.2829 -0.5176  0.5881
 6421SOL     OW30724   2.220   1.541   8.872 -0.7921 -0.2347  0.5474
 6421SOL    HW130725   2.218   1.573   8.963  2.0078  4.1523 -0.9586
 6421SOL    HW230726   2.156   1.605   8.842  0.6771  2.2937  2.8225
 6422SOL     OW30727   4.418   3.863   0.356 -0.1209 -0.2941 -0.2029
 6422SOL    HW130728   4.322   3.866   0.359 -0.1287  0.1385 -0.8144
 6422SOL    HW230729   4.435   3.779   0.399 -1.6212 -0.8442 -0.6644
 6423SOL     OW30730   0.506   3.474   2.386  0.0436 -0.1909 -0.1644
 6423SOL    HW130731   0.418   3.454   2.419 -0.1164  0.0378 -0.4521
 6423SOL    HW230732   0.484   3.466   2.293  0.6414 -0.2071 -0.3048
 6424SOL     OW30733   0.181   0.432   0.878 -0.4600 -0.0532  0.2391
 6424SOL    HW130734   0.140   0.368   0.937  0.4371 -2.0159 -1.2751
 6424SOL    HW230735   0.269   0.425   0.916 -0.1951 -1.0631 -0.5653
 6425SOL     OW30736   3.028   2.335   2.107 -0.1440 -0.1372 -0.0357
 6425SOL    HW130737   3.099   2.274   2.088  0.0114  0.3850 -1.1177
 6425SOL    HW230738   3.078   2.392   2.166 -1.2279  1.5370 -0.7282
 6426SOL     OW30739   4.635   4.717   5.915 -0.6106 -0.9830 -0.2665
 6426SOL    HW130740   4.655   4.623   5.908  1.2526 -0.5121 -1.2406
 6426SOL    HW230741   4.706   0.020   5.973  0.2695 -3.2648 -0.2498
 6427SOL     OW30742   3.763   0.193  11.272  0.0698  0.0484 -0.1710
 6427SOL    HW130743   3.777   0.138  11.195 -0.5637  0.2274 -0.4177
 6427SOL    HW230744   3.734   0.273  11.228  0.2793  0.4798  0.4778
 6428SOL     OW30745   2.979   3.010   6.220 -0.0235 -0.2105  0.3317
 6428SOL    HW130746   2.941   3.097   6.210 -1.6843 -1.0906 -0.9340
 6428SOL    HW230747   2.963   2.983   6.130  0.4186  2.9636 -0.7209
 6429SOL     OW30748   0.457   3.610   3.652 -0.0046 -0.1565 -0.3509
 6429SOL    HW130749   0.473   3.590   3.560  0.3100  0.0133 -0.3365
 6429SOL    HW230750   0.362   3.619   3.657  0.1952  1.8418 -0.1274
 6430SOL     OW30751   4.017   0.644   8.867  0.7438 -0.3822  0.3008
 6430SOL    HW130752   4.076   0.640   8.791  0.3785 -1.5989  0.0824
 6430SOL    HW230753   4.008   0.555   8.902  0.1005 -0.2357  0.5090
 6431SOL     OW30754   1.312   1.013   6.853  0.5453  0.1108  0.5960
 6431SOL    HW130755   1.328   1.027   6.760  0.8568  0.5627  0.7183
 6431SOL    HW230756   1.218   1.023   6.870  0.8425  0.6460  1.9511
 6432SOL     OW30757   0.234   4.179   2.896 -0.5257  0.2048  0.0182
 6432SOL    HW130758   0.187   4.101   2.866  1.0514 -0.3855 -0.9022
 6432SOL    HW230759   0.286   4.143   2.967  0.1536 -0.7595 -0.9623
 6433SOL     OW30760   1.683   3.647   6.923 -0.1931 -0.4793  0.0622
 6433SOL    HW130761   1.655   3.738   6.911  1.4116 -0.0495 -0.4252
 6433SOL    HW230762   1.764   3.639   6.872 -1.0632  0.2316 -1.4467
 6434SOL     OW30763   3.934   3.168   8.694 -0.4713  0.0413 -0.1339
 6434SOL    HW130764   3.936   3.186   8.600 -0.8875 -0.4560 -0.2391
 6434SOL    HW230765   3.867   3.233   8.716  0.7573  1.7038 -1.3889
 6435SOL     OW30766   2.118   4.103   8.472 -0.1451  0.3825  0.0247
 6435SOL    HW130767   2.176   4.029   8.491 -0.6490  0.1459  0.6337
 6435SOL    HW230768   2.083   4.086   8.385  0.8891 -0.6191 -0.1889
 6436SOL     OW30769   3.011   0.662   6.041 -0.3474  0.3615 -0.6512
 6436SOL    HW130770   3.078   0.722   6.072  0.6321 -1.5032  0.8015
 6436SOL    HW230771   2.944   0.689   6.103  0.7712  2.7590 -0.4855
 6437SOL     OW30772   1.527   0.502   5.917  0.0653  0.5940  0.1165
 6437SOL    HW130773   1.576   0.573   5.958  0.0373  0.5896  0.1579
 6437SOL    HW230774   1.584   0.488   5.842  0.4840 -1.5527  0.8485
 6438SOL     OW30775   1.033   2.816   7.142  0.1845 -0.5151  0.2027
 6438SOL    HW130776   1.055   2.748   7.079 -0.2861 -1.8025  1.4013
 6438SOL    HW230777   1.089   2.790   7.215 -0.2872  0.1566  0.8020
 6439SOL     OW30778   2.165   2.091   3.277  0.6116 -0.0003  0.1796
 6439SOL    HW130779   2.142   2.164   3.219  2.7588  0.6235  0.1257
 6439SOL    HW230780   2.240   2.051   3.234  0.8914  1.3369 -0.5566
 6440SOL     OW30781   0.866   0.674   4.469 -0.0607 -0.4886  0.2898
 6440SOL    HW130782   0.911   0.692   4.552  3.0349 -2.2543 -1.0014
 6440SOL    HW230783   0.855   0.763   4.436  1.0883 -0.0943  0.9670
 6441SOL     OW30784   3.309   1.734  13.929 -0.5638 -0.7001 -0.8049
 6441SOL    HW130785   3.316   1.705  14.020 -1.0698  0.9780 -0.2206
 6441SOL    HW230786   3.379   1.800  13.925  0.7572 -2.0403  0.5915
 6442SOL     OW30787   4.062   0.709   4.843 -0.0792  0.2146  0.6204
 6442SOL    HW130788   4.058   0.801   4.869 -0.7079 -0.0233  1.3866
 6442SOL    HW230789   4.115   0.691   4.921 -2.8674 -0.8625  2.2869
 6443SOL     OW30790   1.531   1.433  12.400 -0.7531  0.3475  0.1218
 6443SOL    HW130791   1.526   1.385  12.482 -1.0802 -0.2923 -0.2753
 6443SOL    HW230792   1.515   1.359  12.341  2.0349  1.2475 -1.7581
 6444SOL     OW30793   0.301   2.703  12.663  0.0734 -0.3092 -0.4020
 6444SOL    HW130794   0.282   2.753  12.583  3.4917  3.5839  1.2524
 6444SOL    HW230795   0.395   2.718  12.666 -0.1359  1.4374 -2.4178
 6445SOL     OW30796   0.051   4.264   3.384 -0.0848 -0.0577  0.0245
 6445SOL    HW130797   0.005   4.329   3.332 -0.4136  0.3322  0.7948
 6445SOL    HW230798   4.701   4.205   3.385  0.2563 -0.4985 -0.2697
 6446SOL     OW30799   3.414   4.594   8.225 -0.0982 -0.5165 -0.0487
 6446SOL    HW130800   3.351   4.666   8.217  2.2315  1.3141 -1.8836
 6446SOL    HW230801   3.393   4.577   8.317  0.3482  1.7487  0.4834
 6447SOL     OW30802   3.212   3.850   8.388  0.1156  1.2880  0.4659
 6447SOL    HW130803   3.160   3.823   8.312 -0.0170 -0.3760  1.1476
 6447SOL    HW230804   3.280   3.905   8.349  1.7371 -1.8805 -1.1472
 6448SOL     OW30805   2.275   1.129   7.942 -0.4539  0.1859  0.0070
 6448SOL    HW130806   2.290   1.173   7.858 -0.5773  1.1739  0.4927
 6448SOL    HW230807   2.288   1.197   8.009 -0.9414 -2.0852  2.4311
 6449SOL     OW30808   4.194   0.386   2.035  0.0579  0.1278 -0.5614
 6449SOL    HW130809   4.184   0.365   1.943 -1.1103  1.7824 -0.8159
 6449SOL    HW230810   4.234   0.473   2.026  1.2927 -0.5714 -1.6654
 6450SOL     OW30811   1.571   0.613   5.599  0.2013  0.5896 -0.2193
 6450SOL    HW130812   1.649   0.668   5.591  0.9486 -0.2112  1.5268
 6450SOL    HW230813   1.618   0.536   5.632 -0.5715 -0.2919 -1.1401
 6451SOL     OW30814   3.950   1.084   8.987 -0.1005  0.5683  0.0612
 6451SOL    HW130815   3.881   1.061   8.925 -1.8030  0.2421  2.0794
 6451SOL    HW230816   3.903   1.102   9.069  0.8737 -0.9231  0.9396
 6452SOL     OW30817   3.724   3.380   9.428  0.1263 -0.1453 -0.3870
 6452SOL    HW130818   3.816   3.358   9.413  0.2848 -1.1298  2.0994
 6452SOL    HW230819   3.731   3.421   9.515  0.1283 -0.9776 -0.0001
 6453SOL     OW30820   2.318   4.326   2.833 -0.6902  0.4498 -0.6661
 6453SOL    HW130821   2.309   4.296   2.743  0.6552 -0.4814 -0.4884
 6453SOL    HW230822   2.386   4.263   2.858 -1.3709 -0.6325 -1.5768
 6454SOL     OW30823   0.104   1.206   5.595 -0.8769 -0.1641  0.5947
 6454SOL    HW130824   0.103   1.115   5.564 -0.5525 -0.5098  1.5833
 6454SOL    HW230825   0.196   1.220   5.616 -1.1274  1.5565  0.5572
 6455SOL     OW30826   2.070   1.628   3.296 -0.2672 -0.1922  0.5384
 6455SOL    HW130827   2.090   1.619   3.202  1.6676 -0.2064  0.9359
 6455SOL    HW230828   1.993   1.685   3.295 -1.3915 -1.7372  0.1415
 6456SOL     OW30829   3.001   3.682   6.891  0.0681  0.0014  0.0649
 6456SOL    HW130830   3.048   3.643   6.965  3.1196  0.4130 -1.6737
 6456SOL    HW230831   3.015   3.606   6.834 -0.9520 -0.1975  0.0827
 6457SOL     OW30832   2.835   2.789   7.597 -0.0361 -0.0036  0.1189
 6457SOL    HW130833   2.763   2.756   7.651  0.2203 -1.4486 -0.4209
 6457SOL    HW230834   2.810   2.765   7.508 -0.4488  0.7078  0.0388
 6458SOL     OW30835   1.138   0.966   5.458  0.4658 -0.2624  0.1127
 6458SOL    HW130836   1.106   0.940   5.545 -0.4341  1.1436  0.1894
 6458SOL    HW230837   1.231   0.973   5.482  0.7187 -2.2258 -0.2279
 6459SOL     OW30838   1.431   2.632   5.587  0.2636 -0.0106  0.3779
 6459SOL    HW130839   1.502   2.664   5.531 -0.6177  0.8794 -0.2495
 6459SOL    HW230840   1.371   2.602   5.519  2.0799 -0.6569 -0.9290
 6460SOL     OW30841   0.562   4.405   6.137 -0.4322  0.5266 -0.6088
 6460SOL    HW130842   0.595   4.472   6.197  0.5342 -2.2021  1.9256
 6460SOL    HW230843   0.550   4.338   6.204 -3.1243  0.6688 -0.9413
 6461SOL     OW30844   3.337   0.348  17.626 -0.2183 -0.2890 -0.0698
 6461SOL    HW130845   3.276   0.367  17.554 -0.5994  0.6973  0.5192
 6461SOL    HW230846   3.313   0.257  17.646  1.2217 -0.5914  0.2724
 6462SOL     OW30847   4.018   4.343   9.959 -0.0605 -0.0268 -0.2768
 6462SOL    HW130848   3.938   4.336   9.907  0.4785 -3.0697 -0.6981
 6462SOL    HW230849   4.062   4.259   9.943  1.9999  0.3808  3.1862
 6463SOL     OW30850   3.529   2.280   3.070 -0.2664 -0.4399  0.2586
 6463SOL    HW130851   3.586   2.304   3.143  0.4678  1.7857 -1.0227
 6463SOL    HW230852   3.443   2.266   3.110 -0.5995 -2.4478 -1.1695
 6464SOL     OW30853   3.559   1.733  12.126 -0.3826  0.6713 -0.9543
 6464SOL    HW130854   3.490   1.787  12.087 -2.2126 -0.6599  0.4354
 6464SOL    HW230855   3.612   1.797  12.174  0.5051 -0.0115 -1.0281
 6465SOL     OW30856   1.846   1.332   7.166  0.4226  0.0607  0.1534
 6465SOL    HW130857   1.844   1.307   7.259 -0.7362  1.1525  0.4313
 6465SOL    HW230858   1.788   1.265   7.130 -2.2429  1.5263  1.6764
 6466SOL     OW30859   1.876   0.274   5.171 -0.1762  0.1520  0.0449
 6466SOL    HW130860   1.906   0.359   5.140  2.1036 -0.0597  1.6630
 6466SOL    HW230861   1.957   0.223   5.165 -0.8928 -0.7643 -1.6773
 6467SOL     OW30862   0.109   3.938  14.936  0.3635 -0.2293  0.2131
 6467SOL    HW130863   0.125   3.856  14.888  0.9027  0.0349 -0.0567
 6467SOL    HW230864   0.107   3.905  15.026  0.2273  2.4679  1.1988
 6468SOL     OW30865   3.721   1.542  16.959  0.8836  0.0624 -0.5966
 6468SOL    HW130866   3.770   1.527  17.040  1.8715  0.1583 -1.1760
 6468SOL    HW230867   3.683   1.624  16.989 -0.6307 -0.5417 -0.8372
 6469SOL     OW30868   1.352   4.275   4.648  0.1018  0.1927 -0.3872
 6469SOL    HW130869   1.291   4.343   4.620 -0.1635  0.6177  1.2692
 6469SOL    HW230870   1.308   4.242   4.726 -1.1940 -3.1064 -2.4955
 6470SOL     OW30871   1.513   0.918   1.397  0.3087 -0.6554  0.1450
 6470SOL    HW130872   1.606   0.896   1.403  0.0803 -1.5548  0.3599
 6470SOL    HW230873   1.476   0.847   1.448 -2.4197  0.3498 -0.4287
 6471SOL     OW30874   2.652   1.255  13.749  0.9639 -0.7272  0.3373
 6471SOL    HW130875   2.665   1.168  13.711  1.0593 -0.3799 -0.4204
 6471SOL    HW230876   2.744   1.275  13.763  0.9882  0.9613 -2.2544
 6472SOL     OW30877   4.374   0.979   4.211 -0.2699  0.4207  0.6393
 6472SOL    HW130878   4.439   1.042   4.182 -1.0852  1.3873  0.9456
 6472SOL    HW230879   4.408   0.958   4.299  0.7887  0.6894  0.2928
 6473SOL     OW30880   0.576   1.146  15.844 -0.2295  0.1241 -0.1685
 6473SOL    HW130881   0.627   1.207  15.899  1.3945 -1.4276  0.0459
 6473SOL    HW230882   0.516   1.215  15.816  1.2581  0.2954 -2.8965
 6474SOL     OW30883   0.649   1.022  16.923 -0.1708 -0.1507 -0.4907
 6474SOL    HW130884   0.717   1.037  16.857 -0.7982  1.4088 -0.8013
 6474SOL    HW230885   0.696   1.010  17.005 -2.7156  1.1865  1.1657
 6475SOL     OW30886   1.851   2.457   5.523 -0.1389 -0.3612  0.3448
 6475SOL    HW130887   1.847   2.478   5.429  0.2547  0.0950  0.4282
 6475SOL    HW230888   1.944   2.479   5.538  0.4174 -1.6360 -1.2844
 6476SOL     OW30889   2.949   3.775   7.231 -0.2882  0.3595 -0.0262
 6476SOL    HW130890   2.898   3.767   7.150 -0.5306 -0.7090  0.2370
 6476SOL    HW230891   2.979   3.865   7.218 -2.7319  1.0014 -1.2524
 6477SOL     OW30892   4.577   3.885   2.627  0.8772 -0.0176  0.4001
 6477SOL    HW130893   4.526   3.814   2.666  0.3846  0.6281  0.9325
 6477SOL    HW230894   4.593   3.849   2.540  1.7006 -1.1646  1.0297
 6478SOL     OW30895   4.611   4.451   3.651  0.5885 -0.3464  0.5160
 6478SOL    HW130896   4.518   4.466   3.664  0.7567  2.6245 -1.6512
 6478SOL    HW230897   4.616   4.469   3.557  1.9025  1.0123  0.8232
 6479SOL     OW30898   4.273   2.105  11.225 -0.0564  0.0969  0.7912
 6479SOL    HW130899   4.288   2.046  11.299  0.5561 -0.0992  0.5171
 6479SOL    HW230900   4.219   2.053  11.166 -0.9719  0.0324  1.7020
 6480SOL     OW30901   1.169   4.576   4.167 -0.0636  0.2589 -0.2971
 6480SOL    HW130902   1.146   4.539   4.082 -0.4550 -4.2950  1.7572
 6480SOL    HW230903   1.219   4.503   4.202  1.4405  0.6021 -1.7566
 6481SOL     OW30904   0.334   2.592   2.237  0.1265 -0.5592 -0.0753
 6481SOL    HW130905   0.275   2.531   2.281 -1.4268  0.4437 -0.7529
 6481SOL    HW230906   0.341   2.561   2.147  3.0822 -2.1523  0.7105
 6482SOL     OW30907   2.990   0.349   1.055 -0.2637 -0.5085  0.5587
 6482SOL    HW130908   2.916   0.289   1.062 -0.6109  0.2148  3.0508
 6482SOL    HW230909   2.999   0.378   1.146  1.1758 -0.1581  0.3050
 6483SOL     OW30910   4.332   2.158   2.494 -0.2950 -0.6292  0.1330
 6483SOL    HW130911   4.333   2.071   2.454  1.1666  0.0501 -1.3142
 6483SOL    HW230912   4.284   2.213   2.431 -0.0827  0.3909  0.8587
 6484SOL     OW30913   2.597   0.422   5.829  0.2223 -0.1052 -0.4510
 6484SOL    HW130914   2.561   0.442   5.742  0.4104  1.7247 -0.1102
 6484SOL    HW230915   2.682   0.392   5.796  0.4362 -1.8009  1.7142
 6485SOL     OW30916   3.966   3.465   6.024  0.1376  0.0327 -0.0006
 6485SOL    HW130917   4.013   3.512   5.955 -0.2714  0.2630 -0.1198
 6485SOL    HW230918   4.027   3.412   6.075 -0.1054  0.6377  0.9251
 6486SOL     OW30919   3.542   1.176   8.731 -0.5969 -0.2001  0.2942
 6486SOL    HW130920   3.519   1.269   8.732  1.6934  0.3648  0.1892
 6486SOL    HW230921   3.456   1.143   8.758 -1.0624 -1.4266 -2.7168
 6487SOL     OW30922   2.318   4.052   7.074  1.0956 -0.3319  0.1021
 6487SOL    HW130923   2.343   4.123   7.015 -0.1991 -0.5713 -0.7451
 6487SOL    HW230924   2.251   4.096   7.128  0.8576  0.2138 -0.6374
 6488SOL     OW30925   3.337   0.805  13.277 -0.3826 -0.0661 -0.0249
 6488SOL    HW130926   3.258   0.804  13.223  0.0817  1.5259 -0.7292
 6488SOL    HW230927   3.306   0.740  13.340 -1.0016 -1.0387 -1.3425
 6489SOL     OW30928   0.998   3.801   5.565  0.0415  0.4193  0.2225
 6489SOL    HW130929   0.949   3.735   5.517 -1.7883  1.8635  0.0734
 6489SOL    HW230930   0.974   3.778   5.655  0.0082  0.5203  0.2402
 6490SOL     OW30931   4.593   2.690   5.482  0.2773  0.1192 -0.8251
 6490SOL    HW130932   4.538   2.613   5.500  2.5855 -1.0293  1.3120
 6490SOL    HW230933   4.531   2.759   5.461  1.6979  2.4742  2.8311
 6491SOL     OW30934   3.211   1.209  14.864 -1.0485  0.1182  0.9434
 6491SOL    HW130935   3.260   1.129  14.849 -0.8741  0.5012 -0.5407
 6491SOL    HW230936   3.273   1.273  14.898 -0.3437  0.9107 -1.8660
 6492SOL     OW30937   4.620   2.385   5.257 -0.5872 -0.6638  0.0576
 6492SOL    HW130938   4.696   2.443   5.260  0.7204 -2.4636  1.9240
 6492SOL    HW230939   4.659   2.300   5.277 -0.7000 -1.1152 -1.6533
 6493SOL     OW30940   3.968   2.919   2.542  0.4366 -0.2394  0.9739
 6493SOL    HW130941   3.916   2.939   2.465  0.2805  2.0761  1.6832
 6493SOL    HW230942   3.895   2.879   2.591 -1.6638  0.4210 -1.6112
 6494SOL     OW30943   2.958   1.311  11.381 -0.2673 -0.2346 -0.1291
 6494SOL    HW130944   2.963   1.335  11.289 -1.0254  0.6827  0.0771
 6494SOL    HW230945   2.891   1.378  11.394 -1.3649 -1.3790  0.0249
 6495SOL     OW30946   3.825   1.410   3.336 -0.0485 -0.3892  0.0786
 6495SOL    HW130947   3.892   1.428   3.271 -2.0341 -1.3032 -2.2106
 6495SOL    HW230948   3.870   1.335   3.376 -1.3350 -1.3737 -0.3419
 6496SOL     OW30949   2.870   2.021   0.816  0.2453  0.0746  0.5810
 6496SOL    HW130950   2.852   2.012   0.909  0.5847  0.1042  0.6471
 6496SOL    HW230951   2.809   2.088   0.784 -0.9081 -1.8937 -1.3882
 6497SOL     OW30952   3.829   2.652   4.759 -0.7391 -0.4299  1.0243
 6497SOL    HW130953   3.903   2.595   4.734 -1.3658 -0.3037 -1.1433
 6497SOL    HW230954   3.776   2.657   4.679  2.2890 -1.9401 -1.0992
 6498SOL     OW30955   2.029   0.809   4.106  0.4682 -0.7111 -0.3766
 6498SOL    HW130956   2.047   0.770   4.192  0.6192  1.9571  0.8269
 6498SOL    HW230957   1.948   0.763   4.085 -0.3022  1.3117 -1.8858
 6499SOL     OW30958   2.307   2.833   9.338 -0.2703 -0.1287 -0.2495
 6499SOL    HW130959   2.278   2.853   9.427  1.8055  0.7016  0.2316
 6499SOL    HW230960   2.252   2.902   9.300 -1.2001 -1.8869 -2.1295
 6500SOL     OW30961   2.419   1.085  10.424 -0.0211  0.0809 -0.1662
 6500SOL    HW130962   2.436   1.031  10.501 -0.2003 -0.0737 -0.2336
 6500SOL    HW230963   2.401   1.012  10.365  0.3609  0.9354 -1.3562
 6501SOL     OW30964   0.880   3.968   1.460 -0.2264  0.1442 -0.3500
 6501SOL    HW130965   0.838   4.007   1.536 -1.1558 -1.2156 -0.1670
 6501SOL    HW230966   0.839   4.007   1.383  0.3361 -0.8556 -1.1607
 6502SOL     OW30967   2.755   4.600   5.840 -0.1008 -0.1030 -0.4997
 6502SOL    HW130968   2.705   4.545   5.901  0.2661  2.0625  1.7417
 6502SOL    HW230969   2.704   4.681   5.828  1.3923  0.9185  0.0759
 6503SOL     OW30970   0.971   2.839  13.824  0.4775 -0.0541  0.4564
 6503SOL    HW130971   0.931   2.845  13.737 -0.2118  0.4209  0.8046
 6503SOL    HW230972   0.931   2.758  13.855 -1.3253  0.5297 -0.3315
 6504SOL     OW30973   4.173   2.812   4.182  0.4752 -0.1470  0.0518
 6504SOL    HW130974   4.251   2.763   4.208  0.7578  0.3669  0.1801
 6504SOL    HW230975   4.139   2.763   4.107  0.5244 -0.8349  0.4774
 6505SOL     OW30976   4.358   2.816  13.359  0.2545 -0.4079 -0.1563
 6505SOL    HW130977   4.312   2.738  13.390 -0.6743  0.6183  1.0877
 6505SOL    HW230978   4.335   2.884  13.423  0.1193 -0.9035  0.3276
 6506SOL     OW30979   4.471   0.825   9.132 -0.7529 -0.1293 -0.3775
 6506SOL    HW130980   4.506   0.744   9.094  1.4259  1.3736 -1.5528
 6506SOL    HW230981   4.490   0.806   9.224 -2.0397  1.4866  0.2109
 6507SOL     OW30982   1.292   0.489   6.893 -0.0903 -0.4741 -0.4741
 6507SOL    HW130983   1.381   0.525   6.895  0.0008 -0.7631  0.6061
 6507SOL    HW230984   1.250   0.572   6.916 -0.8007 -0.9826  0.0850
 6508SOL     OW30985   3.747   0.495   7.151  0.6098 -0.8925  0.1741
 6508SOL    HW130986   3.767   0.501   7.244 -1.1582 -0.2917  0.5122
 6508SOL    HW230987   3.703   0.580   7.145 -1.5619 -2.1809 -2.4648
 6509SOL     OW30988   1.795   3.297   7.808 -0.1536 -0.4728 -0.3960
 6509SOL    HW130989   1.702   3.274   7.812 -0.2462 -0.2871 -1.5071
 6509SOL    HW230990   1.836   3.216   7.776  0.4994  0.2038 -1.2680
 6510SOL     OW30991   3.584   1.218   0.488 -0.5995 -0.3792  0.0727
 6510SOL    HW130992   3.553   1.136   0.450  2.2317 -1.1287 -0.5502
 6510SOL    HW230993   3.602   1.277   0.415  0.2962 -0.7113  0.0232
 6511SOL     OW30994   2.569   1.407  11.315 -0.0737 -0.0400 -0.0853
 6511SOL    HW130995   2.632   1.372  11.377  0.0895  0.8142  0.2400
 6511SOL    HW230996   2.572   1.332  11.255  0.0194 -0.4933  0.4911
 6512SOL     OW30997   4.142   3.862   5.713  0.3521  0.4288  0.3111
 6512SOL    HW130998   4.168   3.929   5.649 -0.2732 -0.7019 -1.1213
 6512SOL    HW230999   4.164   3.915   5.790  0.7548 -0.9119  1.1103
 6513SOL     OW31000   1.937   3.251   3.299 -0.2823  0.3441  0.1950
 6513SOL    HW131001   2.015   3.240   3.354 -1.0294 -2.0965  0.7286
 6513SOL    HW231002   1.870   3.222   3.361 -1.6526  1.1718 -0.9052
 6514SOL     OW31003   2.221   0.614  12.666 -0.2229  0.6738 -0.4431
 6514SOL    HW131004   2.258   0.654  12.587  2.3763  0.0278  0.4480
 6514SOL    HW231005   2.247   0.523  12.652 -1.3867  0.3740 -0.6648
 6515SOL     OW31006   1.672   1.516   6.167  0.5080  0.2746  0.5114
 6515SOL    HW131007   1.673   1.563   6.251  1.6945 -0.3652  0.8717
 6515SOL    HW231008   1.678   1.590   6.106 -0.6250 -2.0360 -2.3868
 6516SOL     OW31009   3.513   1.067   9.306 -0.3811  0.4107 -0.5515
 6516SOL    HW131010   3.418   1.076   9.310 -0.5158 -0.9652 -0.7271
 6516SOL    HW231011   3.530   1.069   9.400 -3.1163  1.4380 -0.0852
 6517SOL     OW31012   0.413   1.060   5.379 -0.0895  0.2078 -0.1603
 6517SOL    HW131013   0.447   0.979   5.418  0.3585  0.3430 -0.2744
 6517SOL    HW231014   0.383   1.029   5.294 -1.6697  1.7336 -0.1628
 6518SOL     OW31015   0.172   0.252   3.508  0.1545 -0.6625  0.1672
 6518SOL    HW131016   0.076   0.248   3.510 -0.0960  3.1157 -2.1899
 6518SOL    HW231017   0.192   0.159   3.499 -1.6755 -1.0570  0.0258
 6519SOL     OW31018   4.062   4.345   6.700 -0.3288 -0.6556 -0.0328
 6519SOL    HW131019   4.088   4.302   6.619 -2.4277  1.0422 -1.5843
 6519SOL    HW231020   4.098   4.289   6.769  1.7192  2.1296  1.2116
 6520SOL     OW31021   1.914   0.213   4.356  0.4085  0.0039  0.0080
 6520SOL    HW131022   2.002   0.189   4.327  1.5758  1.1674  2.5655
 6520SOL    HW231023   1.909   0.295   4.306  0.7400 -0.0963 -0.1866
 6521SOL     OW31024   1.098   1.540   9.217 -0.1334 -0.2245  0.3609
 6521SOL    HW131025   1.106   1.552   9.312  0.5017  1.0217  0.1481
 6521SOL    HW231026   1.159   1.598   9.171  0.2868  0.1454  1.3879
 6522SOL     OW31027   2.864   3.025   1.738 -0.1179 -0.2317 -0.6169
 6522SOL    HW131028   2.795   3.023   1.671 -0.8728  2.0741  0.0690
 6522SOL    HW231029   2.937   3.033   1.678 -0.6899  0.4342 -1.2237
 6523SOL     OW31030   2.087   3.494   5.723 -0.5046 -0.1078 -0.2953
 6523SOL    HW131031   2.096   3.443   5.642  0.5307 -0.4054  0.0190
 6523SOL    HW231032   2.034   3.433   5.775  0.0683 -2.0204 -1.9242
 6524SOL     OW31033   1.430   2.347   6.193  0.2102 -0.5694 -0.0347
 6524SOL    HW131034   1.352   2.385   6.153 -0.3602 -0.4235  1.2163
 6524SOL    HW231035   1.495   2.385   6.134  1.5172 -2.2581  0.3234
 6525SOL     OW31036   3.345   3.198   3.569  0.1140 -0.3178  0.2937
 6525SOL    HW131037   3.315   3.158   3.488  0.7081  0.7393 -0.4541
 6525SOL    HW231038   3.262   3.227   3.607 -0.1762 -2.0067  0.9320
 6526SOL     OW31039   2.454   4.008   2.029  0.5024 -0.3976 -0.5493
 6526SOL    HW131040   2.532   3.953   2.038 -0.3665 -1.7127 -0.9917
 6526SOL    HW231041   2.403   3.980   2.105  1.8605 -1.1322  0.0887
 6527SOL     OW31042   3.367   1.300   6.524  0.1846 -0.1922  0.2420
 6527SOL    HW131043   3.423   1.281   6.600 -0.3172  3.5356  1.5717
 6527SOL    HW231044   3.431   1.343   6.468  0.6653  1.3267  1.9307
 6528SOL     OW31045   0.206   2.784   1.685 -0.2177 -0.1672  0.5248
 6528SOL    HW131046   0.284   2.731   1.668 -0.5400 -1.3422  2.7454
 6528SOL    HW231047   0.230   2.822   1.770  0.2325  2.6521 -0.8588
 6529SOL     OW31048   2.129   0.420   2.193 -0.4216  0.7011 -0.5058
 6529SOL    HW131049   2.150   0.334   2.156  1.2339  1.3447 -1.0713
 6529SOL    HW231050   2.213   0.466   2.199  0.1089 -0.3780  0.3374
 6530SOL     OW31051   0.859   2.057   3.722 -0.7294  0.3929 -0.1901
 6530SOL    HW131052   0.802   2.011   3.660 -0.8679  0.6697 -0.2701
 6530SOL    HW231053   0.839   2.145   3.691  0.1552  1.4250  2.1559
 6531SOL     OW31054   2.271   3.892   2.908  0.5620  0.1854  0.3134
 6531SOL    HW131055   2.301   3.938   2.830 -1.6298 -1.3029 -1.4181
 6531SOL    HW231056   2.302   3.802   2.898 -0.7157 -0.0959 -1.0833
 6532SOL     OW31057   1.377   1.107   2.919  0.3139 -0.3496  0.1672
 6532SOL    HW131058   1.356   1.032   2.864 -1.7919  0.3276  0.0473
 6532SOL    HW231059   1.454   1.091   2.974 -1.1589 -1.0689  2.0199
 6533SOL     OW31060   1.224   0.757  15.278 -0.1585 -0.2055 -0.1598
 6533SOL    HW131061   1.172   0.701  15.220 -0.4045 -0.2787  0.1280
 6533SOL    HW231062   1.266   0.820  15.220  0.4146 -0.4318  0.0088
 6534SOL     OW31063   0.756   2.903   6.955 -0.5302  0.0567  0.2354
 6534SOL    HW131064   0.745   2.867   6.866  1.4050 -0.4748  0.2155
 6534SOL    HW231065   0.713   2.832   7.003  1.3909 -1.3716 -0.1537
 6535SOL     OW31066   0.712   3.809   8.615  0.1512 -0.5257  0.3675
 6535SOL    HW131067   0.761   3.866   8.675 -1.9317 -0.7177  2.2312
 6535SOL    HW231068   0.628   3.853   8.629 -0.3273 -1.4549  0.3641
 6536SOL     OW31069   3.133   0.323  16.198 -0.0893  0.2606 -0.1566
 6536SOL    HW131070   3.106   0.280  16.117  0.6833  0.5561 -0.5716
 6536SOL    HW231071   3.138   0.243  16.250 -0.0552  0.9099  0.8371
 6537SOL     OW31072   4.102   1.809   8.524 -0.1795 -0.1085 -0.5024
 6537SOL    HW131073   4.147   1.725   8.512  1.5657  0.5659  1.3197
 6537SOL    HW231074   4.045   1.788   8.597  1.4296 -2.1683  0.1710
 6538SOL     OW31075   4.712   0.446   2.564 -0.5477  0.1330  0.0562
 6538SOL    HW131076   4.675   0.460   2.651 -1.5154 -2.2818  0.0417
 6538SOL    HW231077   0.077   0.470   2.582 -0.5667 -1.2868  2.1416
 6539SOL     OW31078   4.087   3.254   0.024  0.2361  0.6528 -0.0647
 6539SOL    HW131079   4.072   3.314  17.653  0.0535  0.0956 -0.4887
 6539SOL    HW231080   4.123   3.179  17.679  0.2354  0.4476  0.2643
 6540SOL     OW31081   3.022   2.722   2.875  0.4110  0.7643 -0.1256
 6540SOL    HW131082   3.109   2.685   2.892 -1.1311 -2.4894  0.6501
 6540SOL    HW231083   3.028   2.818   2.877  1.4862  0.6969 -0.3572
 6541SOL     OW31084   3.325   2.273   5.007 -0.3149  0.0834 -0.2796
 6541SOL    HW131085   3.277   2.232   4.935  1.0328 -2.8017  0.4776
 6541SOL    HW231086   3.326   2.362   4.973 -0.0697 -0.0505 -0.6226
 6542SOL     OW31087   0.344   1.992   6.996 -0.3030 -0.3671  0.0850
 6542SOL    HW131088   0.277   1.969   7.061  0.0647 -0.0626  0.5695
 6542SOL    HW231089   0.336   1.923   6.930 -2.2293 -0.3800  0.3364
 6543SOL     OW31090   2.612   3.628   4.158 -0.5905  0.2931 -0.7787
 6543SOL    HW131091   2.548   3.619   4.229  0.6929  2.1700  0.5987
 6543SOL    HW231092   2.673   3.557   4.178  0.3767  1.6700  1.2069
 6544SOL     OW31093   2.333   3.461  13.316 -0.1798 -0.0046 -0.3969
 6544SOL    HW131094   2.337   3.514  13.236 -0.5016  1.3300  0.4736
 6544SOL    HW231095   2.349   3.369  13.294  0.2188  0.2584 -1.1949
 6545SOL     OW31096   3.840   2.739   7.733  0.2325  0.5249 -0.3801
 6545SOL    HW131097   3.880   2.693   7.806 -0.5592 -1.2794 -1.0787
 6545SOL    HW231098   3.783   2.668   7.704 -0.2342  0.3096  1.1065
 6546SOL     OW31099   0.490   0.872  17.524  0.0112 -0.6817  0.3214
 6546SOL    HW131100   0.498   0.825  17.607 -0.4565 -1.2661  0.0376
 6546SOL    HW231101   0.437   0.949  17.543 -0.3419 -1.3180  1.9198
 6547SOL     OW31102   3.395   3.961  13.788  0.2472 -0.1472 -0.5863
 6547SOL    HW131103   3.337   3.899  13.744 -0.2202  0.7283 -1.1972
 6547SOL    HW231104   3.451   3.991  13.717 -0.7437  0.8555 -0.9390
 6548SOL     OW31105   1.376   1.576   5.313  0.4520  0.2964  0.1965
 6548SOL    HW131106   1.303   1.638   5.315 -0.9352 -1.2160 -2.1783
 6548SOL    HW231107   1.411   1.600   5.228  0.3771 -0.7962 -0.1452
 6549SOL     OW31108   2.053   0.015   9.317  0.4687 -0.5122  0.1685
 6549SOL    HW131109   2.080   4.675   9.253  2.6651 -0.9328  1.5398
 6549SOL    HW231110   2.013   0.080   9.259  0.5545 -0.2491  0.4030
 6550SOL     OW31111   0.268   3.928  12.929 -0.3138  0.0476  0.2032
 6550SOL    HW131112   0.257   3.911  13.022  1.6376  0.2105  0.4635
 6550SOL    HW231113   0.252   4.021  12.916 -0.3278  0.1470  0.9761
 6551SOL     OW31114   2.855   4.118  16.966 -0.3368  0.0752  0.3978
 6551SOL    HW131115   2.939   4.157  16.991  0.9091 -1.5955 -1.1379
 6551SOL    HW231116   2.832   4.083  17.052 -2.1909  1.5816  0.4943
 6552SOL     OW31117   0.628   3.673   2.603  0.0289 -0.6529 -0.4026
 6552SOL    HW131118   0.602   3.583   2.580 -0.9015  0.5436 -4.0285
 6552SOL    HW231119   0.554   3.726   2.574  1.4720  2.4604  1.7177
 6553SOL     OW31120   0.158   3.164   6.633  0.4236  0.4163 -0.0455
 6553SOL    HW131121   0.213   3.173   6.554  0.1925  0.8024 -0.1657
 6553SOL    HW231122   0.151   3.255   6.662 -1.3608  0.6275 -1.1487
 6554SOL     OW31123   3.310   4.333   2.643  0.2664  0.4464  0.4669
 6554SOL    HW131124   3.269   4.248   2.658  1.9812 -0.4783 -0.1273
 6554SOL    HW231125   3.400   4.316   2.672  0.8701 -0.3939 -1.9393
 6555SOL     OW31126   1.579   4.463   6.114  0.2126 -0.5773 -0.5169
 6555SOL    HW131127   1.492   4.459   6.074 -0.6380  1.4192  1.0898
 6555SOL    HW231128   1.623   4.380   6.101  2.5620  0.4949  0.6444
 6556SOL     OW31129   0.107   0.247   8.525 -0.4775 -0.5382  0.1486
 6556SOL    HW131130   0.107   0.253   8.621  0.6234 -1.8403  0.2441
 6556SOL    HW231131   0.028   0.195   8.510 -1.0206  0.0127  1.1366
 6557SOL     OW31132   4.717   2.561   6.002  0.0841 -0.4055  0.2899
 6557SOL    HW131133   4.697   2.587   6.092  1.2394  0.6035  0.2453
 6557SOL    HW231134   0.080   2.598   6.005  0.1094 -0.2852 -2.3517
 6558SOL     OW31135   1.431   4.171   8.052  0.2855 -0.4317  0.8339
 6558SOL    HW131136   1.498   4.234   8.080  1.0614 -1.3816  1.0879
 6558SOL    HW231137   1.398   4.142   8.137  0.1542  0.3452  1.0480
 6559SOL     OW31138   4.106   0.453   7.328  0.0093  0.4492 -0.3620
 6559SOL    HW131139   4.037   0.468   7.393  1.2236 -0.0613  1.0243
 6559SOL    HW231140   4.174   0.406   7.376 -1.5857 -1.8892 -0.3631
 6560SOL     OW31141   3.581   1.943   4.286 -0.5203 -0.2408  0.2593
 6560SOL    HW131142   3.487   1.954   4.297 -0.2331  1.0567  1.3998
 6560SOL    HW231143   3.607   2.034   4.272  2.1644 -1.1139 -0.4750
 6561SOL     OW31144   0.302   3.354   0.610  0.2620  0.2972 -0.1194
 6561SOL    HW131145   0.223   3.383   0.655  1.0313 -0.5515  1.7464
 6561SOL    HW231146   0.333   3.281   0.663  1.3592  0.9431  0.1437
 6562SOL     OW31147   2.319   4.605   5.932  0.4195 -0.3265 -0.0603
 6562SOL    HW131148   2.349   4.554   6.007 -0.1771  0.9236  1.0400
 6562SOL    HW231149   2.227   4.579   5.930  0.3996 -0.2485 -0.1420
 6563SOL     OW31150   1.157   1.475   3.746  0.2817  0.1162  0.4618
 6563SOL    HW131151   1.224   1.521   3.695  0.2662 -0.1257  0.2185
 6563SOL    HW231152   1.079   1.523   3.718  1.4255  2.7905  1.8650
 6564SOL     OW31153   1.222   3.825  14.998  0.2051  0.4375  0.0300
 6564SOL    HW131154   1.210   3.805  14.905 -0.7794 -1.0736  0.4822
 6564SOL    HW231155   1.317   3.815  14.998  0.1892  0.2906 -0.0401
 6565SOL     OW31156   3.949   0.689   0.221  0.0404  0.1935 -0.3295
 6565SOL    HW131157   4.011   0.691   0.148 -1.5173  1.3156 -1.6261
 6565SOL    HW231158   3.977   0.611   0.268  1.4204  1.4262  0.8798
 6566SOL     OW31159   2.401   3.218  16.947  0.2204 -0.3122 -0.3253
 6566SOL    HW131160   2.364   3.291  16.897 -0.5492 -0.0001  0.6782
 6566SOL    HW231161   2.492   3.246  16.946 -0.2277  1.1321 -0.7900
 6567SOL     OW31162   2.512   1.945   6.888 -0.0522  0.3372 -0.5965
 6567SOL    HW131163   2.608   1.942   6.888 -0.1126 -1.6550  0.5556
 6567SOL    HW231164   2.488   2.020   6.834 -1.2745  1.9288  2.1836
 6568SOL     OW31165   4.051   0.649  10.924  0.2994 -0.0869  0.4228
 6568SOL    HW131166   3.985   0.584  10.901  1.3217  0.4256 -4.0933
 6568SOL    HW231167   4.013   0.730  10.959 -1.3447  0.3867 -2.4572
 6569SOL     OW31168   2.874   2.594   2.117 -0.2381 -0.2763  0.2055
 6569SOL    HW131169   2.967   2.569   2.111 -0.2438  0.2513 -2.0870
 6569SOL    HW231170   2.825   2.540   2.056 -0.1391  1.0982 -1.1034
 6570SOL     OW31171   0.789   0.807   5.653  0.1085  0.8003 -0.1637
 6570SOL    HW131172   0.779   0.901   5.641 -1.0436  0.6969 -0.0528
 6570SOL    HW231173   0.797   0.804   5.748 -0.1288 -0.3671 -0.1815
 6571SOL     OW31174   4.513   2.952  13.748  0.4729  0.3928 -0.1689
 6571SOL    HW131175   4.556   2.868  13.769  0.7939  0.6573  0.2455
 6571SOL    HW231176   4.571   2.982  13.678  1.9039 -0.3156  0.6981
 6572SOL     OW31177   2.819   0.845   3.850  0.1693  0.2718 -0.1562
 6572SOL    HW131178   2.817   0.936   3.818 -0.7773  0.5988  0.8266
 6572SOL    HW231179   2.790   0.803   3.769  0.0120 -1.0587  0.6037
 6573SOL     OW31180   1.827   2.128   3.372 -0.9352 -0.2737  0.1811
 6573SOL    HW131181   1.872   2.124   3.288 -1.4383  2.1097 -0.1934
 6573SOL    HW231182   1.762   2.059   3.362 -1.9462  0.6390  0.4981
 6574SOL     OW31183   0.464   4.568  14.931  0.0975 -0.4833 -0.2726
 6574SOL    HW131184   0.515   4.591  14.854 -1.1352 -0.9345 -1.2335
 6574SOL    HW231185   0.381   4.605  14.902  0.7194  0.6729 -0.5375
 6575SOL     OW31186   3.518   0.035   5.072 -0.1111  0.3783  0.0127
 6575SOL    HW131187   3.497   0.036   5.166 -0.1167  1.1360 -0.0001
 6575SOL    HW231188   3.464   4.693   5.031  0.3752  0.1899 -0.3194
 6576SOL     OW31189   3.553   2.410   8.340 -0.0307  0.1300  0.3319
 6576SOL    HW131190   3.555   2.495   8.383  0.1783  0.2644  0.0636
 6576SOL    HW231191   3.578   2.431   8.250  0.5646 -0.3933  0.3728
 6577SOL     OW31192   3.840   0.721   3.508 -0.6200 -0.1142  0.1298
 6577SOL    HW131193   3.785   0.687   3.437 -1.1420  2.2628 -0.5775
 6577SOL    HW231194   3.798   0.804   3.529 -0.7414 -0.2038  0.2390
 6578SOL     OW31195   1.652   4.635   6.370 -0.1175  0.3728 -0.4734
 6578SOL    HW131196   1.638   4.587   6.288  0.9515 -1.3205  0.3215
 6578SOL    HW231197   1.562   4.656   6.396 -0.0237 -0.6625  0.6856
 6579SOL     OW31198   2.517   3.690   3.149 -0.1758 -0.5556  0.3882
 6579SOL    HW131199   2.536   3.783   3.160  2.3084 -0.9212 -0.6308
 6579SOL    HW231200   2.483   3.661   3.234  1.0407  0.6280  1.2754
 6580SOL     OW31201   4.665   4.571  13.563 -0.5009 -0.4807  0.2821
 6580SOL    HW131202   0.005   4.624  13.519 -0.8255 -1.0014 -0.8235
 6580SOL    HW231203   4.593   4.584  13.500 -0.0798 -1.3401 -0.3720
 6581SOL     OW31204   4.601   1.366   8.330 -0.0190  0.5166  0.1563
 6581SOL    HW131205   4.506   1.361   8.320 -0.1185  0.0860  1.3788
 6581SOL    HW231206   4.626   1.438   8.387  1.1276  1.4060 -1.4775
 6582SOL     OW31207   1.872   2.784   8.445  0.1394  0.4410  0.3479
 6582SOL    HW131208   1.906   2.694   8.442  1.5219  1.0284 -1.5785
 6582SOL    HW231209   1.929   2.825   8.510  0.9650 -0.9861  0.5200
 6583SOL     OW31210   0.749   4.092   1.239  0.2008 -0.2314 -0.2293
 6583SOL    HW131211   0.709   4.170   1.202  0.3276 -0.2384 -0.3835
 6583SOL    HW231212   0.791   4.061   1.158  0.1996 -2.6875  0.6902
 6584SOL     OW31213   3.884   3.016   4.995  0.2186  0.0860 -0.3590
 6584SOL    HW131214   3.922   2.930   5.014  0.7987  0.4222 -0.0235
 6584SOL    HW231215   3.856   3.004   4.904 -2.8188  0.0557  0.5821
 6585SOL     OW31216   0.011   0.319   3.272 -1.2003  0.2613  0.0362
 6585SOL    HW131217   0.090   0.359   3.238 -3.1858  3.5685 -0.7223
 6585SOL    HW231218   0.019   0.225   3.258  0.1137  0.1360  1.7045
 6586SOL     OW31219   3.630   0.925   1.335  0.1925 -0.0766  0.0707
 6586SOL    HW131220   3.662   1.006   1.374  0.5453 -0.3522  0.3464
 6586SOL    HW231221   3.561   0.946   1.272 -0.2557 -0.3644  0.4626
 6587SOL     OW31222   4.557   0.085   2.224  0.1005  0.1879  0.4444
 6587SOL    HW131223   4.592   0.159   2.273 -0.1931 -0.5524  1.7647
 6587SOL    HW231224   4.514   0.132   2.153 -2.3696 -1.5922  0.7577
 6588SOL     OW31225   1.776   3.633   1.978 -0.6802  0.1264  0.1922
 6588SOL    HW131226   1.728   3.558   2.015  2.4181 -0.7039  2.4771
 6588SOL    HW231227   1.701   3.680   1.940 -0.6372  0.7014  0.8299
 6589SOL     OW31228   1.004   4.368   6.661  0.9383 -0.7082  0.2632
 6589SOL    HW131229   1.027   4.394   6.750 -1.7193 -0.7326  0.9764
 6589SOL    HW231230   1.064   4.418   6.605 -0.0675  0.3074  0.0858
 6590SOL     OW31231   1.047   3.063  14.257  0.1595  0.8452  0.2434
 6590SOL    HW131232   1.123   3.040  14.311 -0.0099 -0.9703 -0.2769
 6590SOL    HW231233   1.075   3.147  14.221  2.7858  0.6594  1.7954
 6591SOL     OW31234   1.268   4.484  14.473 -0.6623  0.5524 -0.7283
 6591SOL    HW131235   1.220   4.442  14.544  0.8994 -0.2978 -0.1802
 6591SOL    HW231236   1.359   4.473  14.499 -1.3322 -2.0400  0.5490
 6592SOL     OW31237   0.465   3.711   5.867 -0.4271 -0.6105 -0.0228
 6592SOL    HW131238   0.507   3.628   5.843 -2.3118 -1.7036  0.4932
 6592SOL    HW231239   0.514   3.779   5.821 -1.3718 -0.5470 -0.9469
 6593SOL     OW31240   0.544   1.221   6.413 -0.2181 -0.4575  0.0998
 6593SOL    HW131241   0.592   1.186   6.338  0.5736 -0.2041  0.4869
 6593SOL    HW231242   0.566   1.147   6.470  0.4499 -0.8055 -0.5980
 6594SOL     OW31243   4.147   0.725   4.570  0.1608  0.4266  0.0949
 6594SOL    HW131244   4.186   0.811   4.585  0.5832  0.3727 -0.6824
 6594SOL    HW231245   4.124   0.696   4.658  1.7952  1.4137  0.8380
 6595SOL     OW31246   1.435   1.020   1.059  0.0563 -0.0384 -0.1562
 6595SOL    HW131247   1.344   1.010   1.034  0.4732 -0.9765 -1.3033
 6595SOL    HW231248   1.457   1.113   1.053 -0.3216  0.1354  1.0814
 6596SOL     OW31249   0.990   3.584   0.179 -0.0190  0.6266 -0.4514
 6596SOL    HW131250   0.895   3.582   0.190  0.4313 -0.3857  3.5637
 6596SOL    HW231251   0.996   3.589   0.084 -0.7974 -0.4303 -0.5575
 6597SOL     OW31252   3.243   2.135   4.791  0.0289 -0.6468 -0.1683
 6597SOL    HW131253   3.299   2.105   4.720  1.3620 -1.3657  1.1757
 6597SOL    HW231254   3.158   2.137   4.747  0.5551  2.5869 -1.0243
 6598SOL     OW31255   4.648   2.050   5.627  0.0591 -0.1115  0.5769
 6598SOL    HW131256   4.619   1.959   5.638  0.2377 -0.2591 -0.2062
 6598SOL    HW231257   0.016   2.043   5.607 -0.0591  0.6837 -0.2456
 6599SOL     OW31258   3.945   1.072   1.616  0.0896 -0.5359 -0.4091
 6599SOL    HW131259   3.855   1.095   1.639  0.0627  0.3902 -1.4417
 6599SOL    HW231260   3.967   1.031   1.699 -0.3122  1.0898  0.5091
 6600SOL     OW31261   2.539   2.442   6.102  0.0151 -0.0476 -0.8496
 6600SOL    HW131262   2.582   2.528   6.101 -1.9908  1.0272  3.0679
 6600SOL    HW231263   2.450   2.468   6.083  0.3193  0.2925 -1.7800
 6601SOL     OW31264   4.175   3.532  11.532 -0.4753  0.2752  0.1965
 6601SOL    HW131265   4.112   3.464  11.553 -1.7092  1.8534  1.6006
 6601SOL    HW231266   4.199   3.504  11.444 -0.8535  1.1043 -0.1742
 6602SOL     OW31267   3.074   1.248  12.871 -0.3138 -0.6036  0.0180
 6602SOL    HW131268   3.038   1.288  12.951 -0.7330 -1.7759  0.4102
 6602SOL    HW231269   3.013   1.174  12.877 -2.5987  1.2439 -0.1253
 6603SOL     OW31270   3.130   2.089  10.454  0.2040  0.1378  0.4851
 6603SOL    HW131271   3.162   2.134  10.532 -0.9966 -0.1414  1.1409
 6603SOL    HW231272   3.036   2.106  10.465  0.0820 -0.1857 -0.0425
 6604SOL     OW31273   3.555   4.413   2.895 -0.4312  0.0678  0.2546
 6604SOL    HW131274   3.576   4.463   2.816 -0.3687  1.0677  0.9030
 6604SOL    HW231275   3.627   4.439   2.952  0.2054 -0.6659 -0.2217
 6605SOL     OW31276   4.494   1.425  10.606  0.1000  0.5495  0.3134
 6605SOL    HW131277   4.585   1.413  10.634  0.7113 -0.9625 -2.3575
 6605SOL    HW231278   4.473   1.345  10.558  1.5609 -0.3861  1.2251
 6606SOL     OW31279   2.187   3.355   3.635  0.0063  0.0493  0.0879
 6606SOL    HW131280   2.256   3.319   3.692 -0.9247 -2.0687 -0.1545
 6606SOL    HW231281   2.198   3.445   3.666  0.9995  0.4824 -1.4993
 6607SOL     OW31282   4.337   4.567   8.313 -0.3700  0.1650  0.3248
 6607SOL    HW131283   4.370   4.623   8.243  0.7312 -1.2480 -0.2969
 6607SOL    HW231284   4.417   4.531   8.352 -0.2577  0.9161  0.8020
 6608SOL     OW31285   4.366   2.714   3.137 -0.0767  0.5707  0.1427
 6608SOL    HW131286   4.283   2.760   3.149  0.1634  0.3104  2.6920
 6608SOL    HW231287   4.370   2.710   3.041 -0.0436 -0.1687  0.1820
 6609SOL     OW31288   2.912   1.378  11.117 -0.4031 -0.2365  0.4197
 6609SOL    HW131289   2.868   1.461  11.138  0.3133  0.5024 -0.9812
 6609SOL    HW231290   2.886   1.366  11.026 -0.7287 -0.5260  0.5492
 6610SOL     OW31291   1.730   0.917  17.169 -0.2495 -0.3447  0.4005
 6610SOL    HW131292   1.713   0.960  17.253 -1.5084 -2.1079  1.0447
 6610SOL    HW231293   1.721   0.990  17.108  0.0309 -1.5742 -1.1257
 6611SOL     OW31294   0.037   2.836  12.028 -0.9564 -0.1768  0.2328
 6611SOL    HW131295   4.688   2.819  12.086 -0.9275 -0.3286  0.2236
 6611SOL    HW231296   0.108   2.844  12.092  1.4763  1.3262 -2.6667
 6612SOL     OW31297   2.694   0.203  12.951 -0.2028 -0.0371 -0.0230
 6612SOL    HW131298   2.618   0.181  12.896  0.4018 -0.9544 -0.5056
 6612SOL    HW231299   2.680   0.145  13.026 -0.2066 -0.5344 -0.4088
 6613SOL     OW31300   0.749   3.488   0.781  0.3804 -0.2797  0.3843
 6613SOL    HW131301   0.707   3.554   0.724  1.2702  1.2685  1.5098
 6613SOL    HW231302   0.767   3.434   0.704  1.0123 -1.8755  1.6781
 6614SOL     OW31303   4.536   3.123  13.503  0.0213  0.6849 -0.1050
 6614SOL    HW131304   4.464   3.180  13.475 -0.1761  1.5066  2.1216
 6614SOL    HW231305   4.584   3.177  13.565  0.1915 -0.2173  0.5542
 6615SOL     OW31306   1.721   0.690   8.505 -0.4725 -0.1284  0.6187
 6615SOL    HW131307   1.758   0.756   8.446 -0.1768 -0.2555  0.6606
 6615SOL    HW231308   1.751   0.612   8.459 -0.2228  0.4604 -0.2164
 6616SOL     OW31309   1.127   1.282   3.425  0.2935 -0.8264 -0.0808
 6616SOL    HW131310   1.095   1.309   3.339 -2.5383 -1.8434  0.6649
 6616SOL    HW231311   1.083   1.197   3.433  0.4319 -1.0214 -1.3991
 6617SOL     OW31312   1.970   4.299   5.631  0.2983 -0.6287  0.4559
 6617SOL    HW131313   1.880   4.286   5.600  1.0400  0.2210 -2.0348
 6617SOL    HW231314   1.963   4.292   5.727 -2.3863 -0.0529  0.2812
 6618SOL     OW31315   0.175   3.854   1.848 -0.2263  0.0736 -0.2788
 6618SOL    HW131316   0.185   3.874   1.941  1.3997  2.1927 -0.9157
 6618SOL    HW231317   0.118   3.777   1.840  0.0400 -0.1732  0.2469
 6619SOL     OW31318   2.028   0.493   5.026  0.1008 -0.3441 -0.2002
 6619SOL    HW131319   2.122   0.506   5.028  0.0581 -0.0467 -0.0832
 6619SOL    HW231320   2.013   0.531   4.940  1.0768  2.0746  0.6944
 6620SOL     OW31321   1.111   2.833   4.032 -0.4560 -0.0076  0.6770
 6620SOL    HW131322   1.070   2.849   4.117 -3.3244 -0.5027 -0.6390
 6620SOL    HW231323   1.147   2.745   4.043 -1.0607 -0.3925 -0.4993
 6621SOL     OW31324   3.292   1.004   2.687  0.1088 -0.2325 -0.0074
 6621SOL    HW131325   3.225   0.981   2.752  0.3713  1.4250  0.8748
 6621SOL    HW231326   3.248   0.980   2.606  1.1001 -2.6334  0.1703
 6622SOL     OW31327   2.897   0.723   2.391  0.1840 -0.2367  0.5014
 6622SOL    HW131328   2.911   0.726   2.486 -0.9196 -0.8792  0.6728
 6622SOL    HW231329   2.874   0.813   2.367  1.4949  0.2439  1.0256
 6623SOL     OW31330   3.886   4.321   6.023  0.3839 -0.0224  0.2603
 6623SOL    HW131331   3.911   4.376   5.948  0.6598 -0.1127  0.2891
 6623SOL    HW231332   3.903   4.235   5.984  0.6365  0.7214 -1.2688
 6624SOL     OW31333   3.631   3.439  15.997 -0.1719 -0.1262 -0.3542
 6624SOL    HW131334   3.619   3.474  15.909 -2.0212 -2.0786 -0.9017
 6624SOL    HW231335   3.548   3.450  16.044 -0.1353 -1.0139 -0.0771
 6625SOL     OW31336   3.859   0.147   4.664 -0.3063 -0.3396  0.2493
 6625SOL    HW131337   3.776   0.108   4.637 -0.0335 -1.1767  0.6293
 6625SOL    HW231338   3.910   0.116   4.589 -0.2747 -0.7960  0.4599
 6626SOL     OW31339   4.527   4.449   2.963  0.0994 -1.1216  0.5067
 6626SOL    HW131340   4.475   4.411   2.892  1.7359  0.9032 -1.7765
 6626SOL    HW231341   4.466   4.447   3.037 -1.5047  1.5505 -0.7545
 6627SOL     OW31342   4.621   0.544  13.030  0.0748  0.0005 -0.3293
 6627SOL    HW131343   4.529   0.571  13.039 -0.1140 -0.6090 -0.4251
 6627SOL    HW231344   4.654   0.540  13.120 -1.0750  1.6567  0.1696
 6628SOL     OW31345   2.969   1.894   2.705  0.2921  0.0090 -0.0452
 6628SOL    HW131346   3.024   1.943   2.645  1.2471 -0.0517  0.7873
 6628SOL    HW231347   2.979   1.805   2.671  2.9015  1.6293 -3.4666
 6629SOL     OW31348   0.924   4.424  11.779 -0.9797  0.1377  0.0866
 6629SOL    HW131349   0.958   4.504  11.740 -0.3917 -0.8527 -1.4370
 6629SOL    HW231350   0.983   4.409  11.853  0.8944 -0.5739 -1.5378
 6630SOL     OW31351   3.375   1.079   6.803  0.2119  0.0463 -0.1657
 6630SOL    HW131352   3.329   1.128   6.871 -0.6459 -0.3436 -0.4610
 6630SOL    HW231353   3.448   1.133   6.775 -0.0921  0.4338 -0.2106
 6631SOL     OW31354   1.762   4.274   2.248  0.1251 -0.1981 -0.3213
 6631SOL    HW131355   1.788   4.366   2.258  0.1516  0.0033 -2.1529
 6631SOL    HW231356   1.715   4.284   2.165  1.6911 -1.5291 -1.3687
 6632SOL     OW31357   3.774   4.361   8.652 -0.2087  0.9269  0.3263
 6632SOL    HW131358   3.739   4.403   8.574  1.3486  1.4062 -0.1202
 6632SOL    HW231359   3.714   4.399   8.716 -0.4123  0.3338  0.4906
 6633SOL     OW31360   4.719   0.933   3.050  0.6049  0.0535 -1.0894
 6633SOL    HW131361   0.046   0.956   2.973  0.7225  1.6842 -0.5307
 6633SOL    HW231362   4.650   0.886   3.002 -1.3512  0.2939  1.4913
 6634SOL     OW31363   4.520   2.958   8.898  0.6323  0.2382 -0.3106
 6634SOL    HW131364   4.578   2.917   8.834 -0.4380 -2.2979  0.3661
 6634SOL    HW231365   4.549   2.914   8.978 -2.5842  1.1811  1.3780
 6635SOL     OW31366   1.462   0.587   9.257  0.5346 -0.5021  0.4909
 6635SOL    HW131367   1.482   0.495   9.242 -1.6357 -0.8562 -0.1342
 6635SOL    HW231368   1.465   0.607   9.163  0.7179  1.9322  1.0127
 6636SOL     OW31369   2.367   3.417  10.422 -0.2702  0.1408  0.4417
 6636SOL    HW131370   2.308   3.492  10.420 -0.6608 -0.2078 -1.0103
 6636SOL    HW231371   2.341   3.368  10.500  0.3829 -0.8185  0.0613
 6637SOL     OW31372   3.635   1.590  17.639 -0.3617  0.9335 -0.8477
 6637SOL    HW131373   3.681   1.509  17.658 -1.5697  0.1760 -1.2001
 6637SOL    HW231374   3.572   1.557  17.575  0.1420 -1.9669  0.1697
 6638SOL     OW31375   2.942   4.380   1.560 -0.6097 -0.5266  0.3731
 6638SOL    HW131376   3.000   4.379   1.637 -2.0242  0.0570  1.4484
 6638SOL    HW231377   2.856   4.383   1.601 -0.8326 -2.9234  0.1048
 6639SOL     OW31378   3.615   0.329   6.232  0.3228  0.2913  0.5900
 6639SOL    HW131379   3.633   0.244   6.273 -1.6583 -0.7159 -0.6097
 6639SOL    HW231380   3.586   0.296   6.147  3.6206 -1.6225  0.2245
 6640SOL     OW31381   4.445   2.895   1.395 -0.0227  0.2487 -0.6084
 6640SOL    HW131382   4.484   2.895   1.307  1.0274 -1.3034 -0.1535
 6640SOL    HW231383   4.412   2.984   1.401  0.6164  0.3406  1.3270
 6641SOL     OW31384   0.136   0.098   7.703 -0.5227 -0.0518  0.3452
 6641SOL    HW131385   0.090   0.037   7.645  1.3419 -0.5763 -0.5612
 6641SOL    HW231386   0.173   0.050   7.777 -1.6961 -0.1441  0.8756
 6642SOL     OW31387   0.812   2.089  13.679  0.0899  0.5648 -0.1351
 6642SOL    HW131388   0.815   2.184  13.689 -1.9707  0.6207 -0.1522
 6642SOL    HW231389   0.804   2.076  13.585  1.8855  0.6908 -0.3203
 6643SOL     OW31390   3.115   3.275  11.478 -0.0819 -0.1869  0.0017
 6643SOL    HW131391   3.153   3.188  11.492  1.9935  0.2704 -2.8821
 6643SOL    HW231392   3.147   3.302  11.392 -3.1589 -1.8892 -1.6724
 6644SOL     OW31393   4.165   4.263  17.597 -0.4026  0.4680  0.0528
 6644SOL    HW131394   4.234   4.198  17.581  0.6578  1.2785  1.3555
 6644SOL    HW231395   4.219   4.339  17.574  1.1609 -1.1309 -1.5566
 6645SOL     OW31396   4.613   2.511   8.936  0.2229 -0.3056  0.4969
 6645SOL    HW131397   4.594   2.578   8.870  1.6231 -0.9972 -0.6067
 6645SOL    HW231398   4.531   2.463   8.930 -0.1610  0.4272 -0.0566
 6646SOL     OW31399   4.433   1.051   1.082  0.6122 -0.1263  0.3096
 6646SOL    HW131400   4.523   1.084   1.092  1.0385 -0.5672 -2.1139
 6646SOL    HW231401   4.440   0.960   1.108  1.5046 -0.3803 -0.8134
 6647SOL     OW31402   1.619   2.073   4.747  0.6072  0.3146  0.8830
 6647SOL    HW131403   1.686   2.043   4.809 -0.2520 -1.2955  1.0350
 6647SOL    HW231404   1.623   1.999   4.687 -0.3870 -0.8622  2.2513
 6648SOL     OW31405   2.185   3.347   7.751 -0.0042 -0.0516 -0.2035
 6648SOL    HW131406   2.236   3.426   7.732 -0.6523  0.4482  0.1382
 6648SOL    HW231407   2.250   3.276   7.759  0.7755  0.6141 -0.6473
 6649SOL     OW31408   4.520   3.281   3.611 -0.2418 -0.7515 -0.4384
 6649SOL    HW131409   4.520   3.220   3.538  0.8117  1.5861 -2.3884
 6649SOL    HW231410   4.496   3.232   3.690  0.8701  0.4591  0.6672
 6650SOL     OW31411   1.338   2.549  14.543 -0.3211  0.2535  0.1845
 6650SOL    HW131412   1.410   2.565  14.482 -1.2253 -0.5661 -1.0998
 6650SOL    HW231413   1.376   2.571  14.627  0.6896  0.9988 -0.4633
 6651SOL     OW31414   2.464   3.955   8.754 -0.0003  0.1555  0.0152
 6651SOL    HW131415   2.403   3.882   8.742  0.7520 -0.8420  2.0763
 6651SOL    HW231416   2.499   3.969   8.666 -0.2264  0.4894 -0.0193
 6652SOL     OW31417   4.490   0.226   4.714 -0.6299 -0.0688 -0.5346
 6652SOL    HW131418   4.399   0.220   4.685 -0.5828 -1.5843 -0.3278
 6652SOL    HW231419   4.471   0.242   4.806  1.5050  0.7212 -0.2355
 6653SOL     OW31420   0.399   1.125   3.349 -0.1486 -0.0280 -0.7739
 6653SOL    HW131421   0.477   1.078   3.320  0.6766  2.0111 -1.8165
 6653SOL    HW231422   0.353   1.145   3.268 -0.9994 -1.8914 -0.7541
 6654SOL     OW31423   4.638   1.232  15.105  0.1547  0.1583 -0.2872
 6654SOL    HW131424   0.006   1.235  15.082  0.9077 -3.6178  2.4104
 6654SOL    HW231425   4.608   1.159  15.050 -4.1287  0.0559  2.1432
 6655SOL     OW31426   4.035   0.686   7.189  0.2920  0.3830 -0.2027
 6655SOL    HW131427   4.046   0.603   7.237 -1.4052 -0.2547 -0.9074
 6655SOL    HW231428   4.120   0.706   7.151  0.0264  0.5783 -0.6930
 6656SOL     OW31429   3.621   2.685   7.489  0.5450 -0.1974 -0.4192
 6656SOL    HW131430   3.680   2.748   7.446 -0.7933  1.8852  0.7839
 6656SOL    HW231431   3.558   2.694   7.417  1.9812 -0.8885 -1.7796
 6657SOL     OW31432   3.284   0.081  17.476 -0.2889  0.0283  0.3245
 6657SOL    HW131433   3.365   0.042  17.445  0.0733  1.1733 -0.1682
 6657SOL    HW231434   3.224   0.062  17.404  0.0688 -3.0050  0.8265
 6658SOL     OW31435   3.861   3.628   6.722 -0.1657 -0.5881  0.0235
 6658SOL    HW131436   3.840   3.720   6.712 -1.7114 -0.8116  1.1671
 6658SOL    HW231437   3.780   3.604   6.767 -0.4135 -0.6772 -0.4748
 6659SOL     OW31438   0.844   4.606   2.329  0.5528 -0.2502  0.3637
 6659SOL    HW131439   0.830   4.528   2.275  0.9840 -0.5619  0.7031
 6659SOL    HW231440   0.786   4.577   2.399  1.6092 -1.1241  0.8746
 6660SOL     OW31441   2.233   2.662   6.718 -0.2265  0.2882  0.3534
 6660SOL    HW131442   2.160   2.660   6.780 -0.1334  1.6125  0.5213
 6660SOL    HW231443   2.200   2.725   6.654  0.8117  0.5891  0.1150
 6661SOL     OW31444   1.316   0.384   2.982 -0.5506  0.0247 -0.1573
 6661SOL    HW131445   1.286   0.325   2.912 -1.1903  0.4056 -0.2077
 6661SOL    HW231446   1.234   0.411   3.023  0.0689  2.6077 -0.5902
 6662SOL     OW31447   0.355   1.617  12.035  0.1041 -0.1696  0.6157
 6662SOL    HW131448   0.450   1.605  12.039  0.5759  2.0862 -3.3344
 6662SOL    HW231449   0.343   1.674  12.111 -1.5722  0.0682  0.1725
 6663SOL     OW31450   4.522   2.622   7.849  0.3857 -0.0173  0.0586
 6663SOL    HW131451   4.544   2.668   7.930 -0.7480  0.9856 -0.2074
 6663SOL    HW231452   4.532   2.685   7.778  2.7076 -2.7751 -2.0668
 6664SOL     OW31453   1.755   1.931   5.624 -0.5041 -0.8945  0.2293
 6664SOL    HW131454   1.775   2.022   5.647 -1.3569 -0.9395  1.1219
 6664SOL    HW231455   1.672   1.939   5.577  1.2699 -0.9824 -2.9435
 6665SOL     OW31456   2.838   1.052  15.862 -0.0053  0.6815  0.5068
 6665SOL    HW131457   2.749   1.078  15.838 -0.4258  0.1359  1.4467
 6665SOL    HW231458   2.888   1.084  15.787 -1.5146  0.2664 -0.6686
 6666SOL     OW31459   3.321   3.639   6.911 -0.5493  0.1700 -0.5234
 6666SOL    HW131460   3.292   3.567   6.966  0.7362 -0.8540 -1.1837
 6666SOL    HW231461   3.340   3.586   6.834  1.6717  0.5577 -0.2511
 6667SOL     OW31462   2.897   1.880   3.310 -0.7452 -0.5994 -0.5324
 6667SOL    HW131463   2.812   1.860   3.349  0.2938 -2.8003  0.6534
 6667SOL    HW231464   2.949   1.799   3.317 -0.2976 -0.2265  0.4193
 6668SOL     OW31465   4.395   3.286   6.371  0.2771  0.2350  0.7207
 6668SOL    HW131466   4.424   3.325   6.454  1.1815  0.6201  0.2208
 6668SOL    HW231467   4.478   3.282   6.324 -0.7266 -0.3182 -1.0171
 6669SOL     OW31468   2.162   3.329  12.792  0.4231 -0.4231 -0.3741
 6669SOL    HW131469   2.177   3.344  12.698 -1.8909 -1.3795 -0.8845
 6669SOL    HW231470   2.214   3.250  12.803  3.0370  1.7635  2.7275
 6670SOL     OW31471   0.404   3.706   7.399  0.6402 -0.0515  0.0821
 6670SOL    HW131472   0.400   3.800   7.419 -0.9128 -0.4703  1.7877
 6670SOL    HW231473   0.488   3.682   7.439 -0.6503 -1.7159  1.7707
 6671SOL     OW31474   1.307   3.269   7.578  0.8834  0.6236 -0.8317
 6671SOL    HW131475   1.229   3.318   7.554  1.3843 -0.5833 -4.9239
 6671SOL    HW231476   1.375   3.337   7.577  1.8566 -0.3378 -0.0276
 6672SOL     OW31477   1.486   0.983   7.057  0.4861 -0.1392  0.8113
 6672SOL    HW131478   1.427   1.017   6.990  0.3877  0.6260  1.2877
 6672SOL    HW231479   1.497   0.898   7.013  0.1345  0.0296  0.3988
 6673SOL     OW31480   1.776   2.318   4.741  0.3964  0.0769  0.2066
 6673SOL    HW131481   1.854   2.263   4.745  0.0843 -0.4915 -1.4425
 6673SOL    HW231482   1.711   2.248   4.745  0.4210  0.0548  0.2204
 6674SOL     OW31483   0.089   0.093   4.671 -0.0991 -0.6611  0.2399
 6674SOL    HW131484   0.163   0.095   4.610 -1.5406  2.8765 -1.4017
 6674SOL    HW231485   0.120   0.030   4.737 -0.7554 -2.3196 -1.0444
 6675SOL     OW31486   2.189   4.291   1.714  0.0303 -0.1433 -0.0935
 6675SOL    HW131487   2.232   4.363   1.668 -0.9333 -0.3646 -1.3200
 6675SOL    HW231488   2.142   4.343   1.779  1.0951  3.2813 -2.0854
 6676SOL     OW31489   3.795   1.080   2.043 -0.5069  0.7408 -0.0257
 6676SOL    HW131490   3.760   1.144   1.980  2.9948  1.9361 -0.7720
 6676SOL    HW231491   3.776   1.130   2.122 -3.5178 -1.4076  0.6014
 6677SOL     OW31492   2.046   1.441   5.301  0.1411  0.0700  0.2501
 6677SOL    HW131493   2.101   1.436   5.222  1.4333  2.7167  0.9814
 6677SOL    HW231494   2.002   1.523   5.277  0.4419  0.2044  0.1560
 6678SOL     OW31495   2.394   3.856   8.298 -0.0583  0.1155  0.2140
 6678SOL    HW131496   2.377   3.946   8.270 -1.4595 -0.6841 -1.5153
 6678SOL    HW231497   2.337   3.851   8.375 -0.3650 -0.7940 -0.0703
 6679SOL     OW31498   3.916   3.605  13.619  1.1796 -0.0086 -0.1858
 6679SOL    HW131499   3.879   3.691  13.597  0.8106  0.0582  0.6835
 6679SOL    HW231500   3.861   3.560  13.683 -1.1782  0.1970 -2.0807
 6680SOL     OW31501   2.198   1.136  13.281 -0.1330 -0.1080  0.0847
 6680SOL    HW131502   2.260   1.099  13.343  0.5972 -1.1193 -1.2497
 6680SOL    HW231503   2.190   1.067  13.216  1.4649  1.6462 -1.9925
 6681SOL     OW31504   3.877   1.049   3.904 -0.4612 -0.0692 -0.2534
 6681SOL    HW131505   3.935   0.974   3.905  1.4781  1.4472  0.1446
 6681SOL    HW231506   3.871   1.079   3.995  1.7389  0.6445 -0.3551
 6682SOL     OW31507   3.667   2.034   6.678  0.6006 -0.1892  0.5493
 6682SOL    HW131508   3.740   2.093   6.662 -0.3615  0.3456 -1.8057
 6682SOL    HW231509   3.696   1.956   6.632 -2.2316  0.5701 -2.4878
 6683SOL     OW31510   2.697   4.565   8.521 -0.2948  0.1531  0.0804
 6683SOL    HW131511   2.617   4.617   8.525 -1.9758 -2.1947 -2.5771
 6683SOL    HW231512   2.765   4.614   8.566 -0.7234  2.8053 -2.1226
 6684SOL     OW31513   0.246   0.890  15.262  0.0212 -0.3471  0.1391
 6684SOL    HW131514   0.281   0.977  15.245 -0.5954 -0.0242  0.5608
 6684SOL    HW231515   0.152   0.896  15.246  0.2235 -2.8423 -2.0769
 6685SOL     OW31516   2.390   0.674   4.846  0.0454  0.6414 -0.0009
 6685SOL    HW131517   2.474   0.671   4.891 -0.8558  0.7812  1.7047
 6685SOL    HW231518   2.340   0.627   4.913 -1.1763  0.5394 -0.9732
 6686SOL     OW31519   2.462   1.516  13.812 -0.7188 -0.0423 -0.0858
 6686SOL    HW131520   2.466   1.610  13.795 -1.3136 -0.4637 -2.6027
 6686SOL    HW231521   2.439   1.516  13.905 -0.1772  1.6517  0.0375
 6687SOL     OW31522   0.690   3.585  15.098 -0.1808 -0.3131 -0.2028
 6687SOL    HW131523   0.728   3.524  15.036  2.7635  0.7548  0.5666
 6687SOL    HW231524   0.744   3.572  15.176  1.7337  0.0545 -1.4683
 6688SOL     OW31525   4.313   0.933  17.196  0.5426  0.5529 -0.3063
 6688SOL    HW131526   4.297   0.843  17.167  1.2747  0.7492 -1.2961
 6688SOL    HW231527   4.234   0.945  17.249 -0.3075 -0.0624 -1.4382
 6689SOL     OW31528   3.484   1.825   2.275  0.3715 -0.6284  0.0177
 6689SOL    HW131529   3.565   1.867   2.247  1.2084 -0.7078  2.3122
 6689SOL    HW231530   3.509   1.736   2.303 -1.0102 -0.9747  0.1699
 6690SOL     OW31531   2.398   3.036   2.702  0.2871  0.2012 -0.4963
 6690SOL    HW131532   2.306   3.011   2.693  0.6307  0.1630 -3.9393
 6690SOL    HW231533   2.433   3.042   2.613 -2.3887  3.2833 -1.3199
 6691SOL     OW31534   0.273   0.048  15.532  0.1406  0.3023  0.4405
 6691SOL    HW131535   0.223   4.702  15.492 -1.6270  2.8390 -1.7794
 6691SOL    HW231536   0.263   0.027  15.625 -2.2180  1.1125  0.3756
 6692SOL     OW31537   0.438   2.696   1.104  0.1394 -0.6758 -0.4038
 6692SOL    HW131538   0.467   2.713   1.193  2.7723 -1.1021 -1.2012
 6692SOL    HW231539   0.515   2.668   1.055  1.6947  1.2889  0.9274
 6693SOL     OW31540   4.041   4.419   0.307  0.5604  0.1542 -1.0592
 6693SOL    HW131541   4.083   4.462   0.381 -0.1714 -2.2938  0.7447
 6693SOL    HW231542   4.103   4.348   0.293 -0.3433 -0.4820 -1.8662
 6694SOL     OW31543   1.461   1.656  14.431  0.3334 -0.3231  0.2180
 6694SOL    HW131544   1.480   1.740  14.389  1.1406  0.7846  2.7746
 6694SOL    HW231545   1.554   1.634  14.424 -0.0176 -2.0209  0.8880
 6695SOL     OW31546   4.263   1.661  13.605 -0.1722 -0.8694  0.0109
 6695SOL    HW131547   4.181   1.698  13.572  0.9649  0.5922 -1.1853
 6695SOL    HW231548   4.260   1.718  13.682  0.1188 -2.4390  1.1860
 6696SOL     OW31549   0.326   0.390   7.815  0.2737 -0.3117 -0.0876
 6696SOL    HW131550   0.402   0.388   7.756  2.5115  0.5437  2.7822
 6696SOL    HW231551   0.327   0.317   7.877  0.7601  1.6776  2.2400
 6697SOL     OW31552   3.895   1.435  10.042 -0.1017  0.0300 -0.2840
 6697SOL    HW131553   3.940   1.412  10.123 -1.3398 -1.5956 -0.0407
 6697SOL    HW231554   3.966   1.472   9.991  0.2883 -0.9266 -0.4251
 6698SOL     OW31555   0.362   1.356   6.228 -0.4743  0.2142 -0.1449
 6698SOL    HW131556   0.417   1.318   6.297  0.2967 -2.8682 -2.4753
 6698SOL    HW231557   0.350   1.447   6.255  0.9664  0.1656  0.6819
 6699SOL     OW31558   0.962   3.329   6.588 -0.1718  0.6253 -0.2053
 6699SOL    HW131559   0.890   3.324   6.651 -1.0500  2.2676 -1.0604
 6699SOL    HW231560   1.008   3.399   6.635 -0.0941  0.0968  0.4929
 6700SOL     OW31561   4.676   2.489   4.810 -0.3556  0.2898 -0.0143
 6700SOL    HW131562   4.707   2.398   4.811 -0.5919  0.2452  2.4318
 6700SOL    HW231563   4.612   2.488   4.881  3.2367  0.5389  3.1896
 6701SOL     OW31564   0.497   1.662   5.060 -0.0624  0.2581  0.5466
 6701SOL    HW131565   0.573   1.716   5.038 -0.0290 -1.1440 -2.7777
 6701SOL    HW231566   0.434   1.733   5.069 -0.0106  0.2961  0.6079
 6702SOL     OW31567   4.033   2.080   2.845  0.5437 -0.1994  0.1556
 6702SOL    HW131568   3.963   2.115   2.791 -0.9843 -0.2495  2.1021
 6702SOL    HW231569   4.107   2.138   2.829  0.1802 -0.1441 -1.2543
 6703SOL     OW31570   0.904   0.416   0.800 -0.1738 -0.4430  0.4146
 6703SOL    HW131571   0.810   0.402   0.791 -0.3196  0.2930  0.7609
 6703SOL    HW231572   0.924   0.501   0.761 -2.4923 -0.4180 -0.6790
 6704SOL     OW31573   0.422   1.103   2.058 -0.0546  0.3253 -0.4223
 6704SOL    HW131574   0.371   1.025   2.082 -0.9963  1.3054  0.7614
 6704SOL    HW231575   0.351   1.158   2.024  0.1231 -0.3523 -1.9154
 6705SOL     OW31576   4.018   4.019   3.780  0.3188 -0.1836 -0.3778
 6705SOL    HW131577   3.923   4.021   3.796 -0.0056  2.1259 -2.4954
 6705SOL    HW231578   4.024   3.948   3.716 -1.8083 -1.0177  0.3312
 6706SOL     OW31579   4.619   4.111   4.250  0.2540 -0.3008 -0.0130
 6706SOL    HW131580   4.695   4.053   4.251  0.6933  0.2721 -0.3469
 6706SOL    HW231581   4.656   4.185   4.202 -0.5133  0.4966  0.6320
 6707SOL     OW31582   2.565   0.400  12.469 -0.3201  0.8358 -0.3644
 6707SOL    HW131583   2.500   0.412  12.538  0.1024 -3.4980  0.8105
 6707SOL    HW231584   2.527   0.414  12.382  2.6589  0.1369 -1.7919
 6708SOL     OW31585   3.305   3.574   6.635 -0.2557 -0.2849  0.5973
 6708SOL    HW131586   3.359   3.652   6.618 -1.3397  0.2430 -0.4536
 6708SOL    HW231587   3.368   3.505   6.612  1.2802  0.9059  1.1811
 6709SOL     OW31588   2.161   2.730  16.303  0.0097  0.5216  0.3550
 6709SOL    HW131589   2.120   2.713  16.387  0.3095 -1.5602  0.0717
 6709SOL    HW231590   2.203   2.814  16.319 -0.3627  0.4871  1.4534
 6710SOL     OW31591   3.108   0.379   4.815 -0.0018  0.4088 -0.4788
 6710SOL    HW131592   3.124   0.451   4.877 -0.6534 -0.7301  0.9951
 6710SOL    HW231593   3.016   0.359   4.832  0.2997 -1.1610 -0.7423
 6711SOL     OW31594   2.457   3.051   6.477  0.5105 -0.2492  0.5109
 6711SOL    HW131595   2.364   3.055   6.498 -0.5154  0.3946 -4.0356
 6711SOL    HW231596   2.490   3.116   6.538  0.1909  0.6662 -0.2882
 6712SOL     OW31597   0.079   1.307  14.764  0.2537  0.2640  0.2548
 6712SOL    HW131598   0.086   1.232  14.705 -0.0248  0.7549 -0.4005
 6712SOL    HW231599   4.723   1.339  14.725 -0.5898 -0.7068  1.2151
 6713SOL     OW31600   2.109   2.558   5.434  0.1143 -0.3755  0.2587
 6713SOL    HW131601   2.175   2.516   5.378 -0.3507  1.5121 -1.6953
 6713SOL    HW231602   2.089   2.636   5.382  0.4348 -0.0280  0.6535
 6714SOL     OW31603   0.129   4.393   5.138 -0.2449 -0.3413 -0.5658
 6714SOL    HW131604   0.156   4.349   5.057 -0.8060  1.0682 -1.5036
 6714SOL    HW231605   0.144   4.320   5.199  1.2078 -0.4689 -1.0656
 6715SOL     OW31606   1.589   0.735  11.475  0.2199 -0.2847  0.3961
 6715SOL    HW131607   1.498   0.714  11.494  0.4909 -2.6089 -0.8083
 6715SOL    HW231608   1.613   0.646  11.449  0.6424  0.2682 -1.1494
 6716SOL     OW31609   2.176   4.120   0.420  0.2639 -0.1987  0.3581
 6716SOL    HW131610   2.183   4.053   0.487 -1.9572 -1.3498 -0.5417
 6716SOL    HW231611   2.124   4.194   0.452  1.9578  1.2915 -0.3223
 6717SOL     OW31612   0.248   0.314  14.379  0.1599 -0.4833 -0.6417
 6717SOL    HW131613   0.227   0.384  14.317  1.1579 -1.1131 -1.7090
 6717SOL    HW231614   0.208   0.241  14.330  0.4661 -1.1898  0.1620
 6718SOL     OW31615   2.981   0.474   7.798  0.2324  0.2154  0.0083
 6718SOL    HW131616   2.945   0.387   7.815 -2.1351  0.7398 -2.2446
 6718SOL    HW231617   3.075   0.460   7.810  0.4246  1.9764  0.5061
 6719SOL     OW31618   1.415   0.999   5.890  0.2561 -0.2560 -0.8447
 6719SOL    HW131619   1.365   0.980   5.811  2.3695 -1.9733 -1.7738
 6719SOL    HW231620   1.388   0.930   5.951 -0.3908  0.9203  0.2104
 6720SOL     OW31621   1.517   1.708   3.798 -0.4960  0.3688  0.2413
 6720SOL    HW131622   1.496   1.707   3.892  1.9228  1.7659  0.7880
 6720SOL    HW231623   1.440   1.755   3.765 -1.0678 -0.1969  0.7660
 6721SOL     OW31624   3.168   1.812   4.471 -0.2200  0.1739 -0.5837
 6721SOL    HW131625   3.106   1.850   4.409 -0.4464  0.4576 -0.1836
 6721SOL    HW231626   3.231   1.768   4.414  0.7160  0.5525  0.1580
 6722SOL     OW31627   1.729   0.965   7.613 -0.0699 -0.5031  0.3349
 6722SOL    HW131628   1.680   0.946   7.534 -0.0171  1.5587 -0.2130
 6722SOL    HW231629   1.758   0.883   7.652  1.0550  0.7328  2.1317
 6723SOL     OW31630   1.698   0.257   3.015  0.1037  0.3159 -0.0057
 6723SOL    HW131631   1.602   0.252   3.021  0.1253 -0.2376 -0.1506
 6723SOL    HW231632   1.714   0.252   2.921 -0.2082  1.4507 -0.1270
 6724SOL     OW31633   0.439   4.181   6.608 -0.2228 -0.6576 -0.1194
 6724SOL    HW131634   0.393   4.108   6.566  0.4231 -1.6777  0.9287
 6724SOL    HW231635   0.528   4.149   6.622  1.1757  3.5091  0.3545
 6725SOL     OW31636   4.437   4.101   9.326  0.1714  0.3821  0.6612
 6725SOL    HW131637   4.415   4.008   9.321 -2.3675  0.9903  0.5332
 6725SOL    HW231638   4.436   4.103   9.421 -1.1597 -3.6620  0.7562
 6726SOL     OW31639   2.668   4.083   8.202  0.3423  0.6414 -0.5950
 6726SOL    HW131640   2.746   4.138   8.198  0.0269  0.9995 -1.8016
 6726SOL    HW231641   2.713   3.999   8.200  1.4565  1.2349 -0.4981
 6727SOL     OW31642   3.312   3.938  14.048 -0.3645 -0.2678 -0.2310
 6727SOL    HW131643   3.353   3.933  13.961  0.8670  1.6431  0.2324
 6727SOL    HW231644   3.234   3.883  14.037  0.3654 -1.4562  0.6289
 6728SOL     OW31645   1.622   3.553   5.080  0.1083 -0.2618 -0.5966
 6728SOL    HW131646   1.710   3.517   5.068  0.4542  0.2510  0.3732
 6728SOL    HW231647   1.630   3.641   5.043  0.6223  0.7819  2.0118
 6729SOL     OW31648   3.804   0.346   6.591  0.2332  0.2208 -0.3713
 6729SOL    HW131649   3.734   0.300   6.543 -0.9359  3.3912 -1.7544
 6729SOL    HW231650   3.779   0.437   6.571  0.8029  0.6333  0.8413
 6730SOL     OW31651   3.285   2.505   6.059 -0.2613 -0.0704  0.7927
 6730SOL    HW131652   3.306   2.478   6.148  1.9638  1.0851  0.6236
 6730SOL    HW231653   3.370   2.511   6.014 -0.0602 -2.1777  0.9174
 6731SOL     OW31654   4.304   2.109  11.535 -0.3494 -0.0984  0.3684
 6731SOL    HW131655   4.317   2.067  11.620 -0.7028  0.1609  0.5505
 6731SOL    HW231656   4.234   2.169  11.560 -1.7462 -1.3822 -0.3826
 6732SOL     OW31657   0.976   1.014  11.703 -0.0911  0.2891  0.2386
 6732SOL    HW131658   0.891   0.973  11.686  1.1543 -1.0972 -2.7857
 6732SOL    HW231659   0.960   1.103  11.732  2.6618  1.6628 -2.4020
 6733SOL     OW31660   2.853   4.323   6.785 -0.5300  1.1180  0.3323
 6733SOL    HW131661   2.878   4.302   6.876  0.7918  0.7935 -0.1007
 6733SOL    HW231662   2.771   4.277   6.770  0.3162 -1.3859  3.1906
 6734SOL     OW31663   2.713   1.441  15.331  0.2173 -0.5581  0.1999
 6734SOL    HW131664   2.656   1.441  15.253  1.3462  1.3605 -0.6393
 6734SOL    HW231665   2.650   1.398  15.388  0.4081 -1.1514 -0.0445
 6735SOL     OW31666   4.385   1.963   5.279 -0.2113  1.0384 -0.0111
 6735SOL    HW131667   4.427   1.880   5.300 -0.2953  0.8917 -0.4282
 6735SOL    HW231668   4.292   1.950   5.300 -0.1667  2.4213  1.0654
 6736SOL     OW31669   3.820   3.359   5.615  0.1215  0.5212  0.2488
 6736SOL    HW131670   3.805   3.334   5.706  1.0751  0.9381  0.5095
 6736SOL    HW231671   3.735   3.345   5.572  0.7519 -0.5538 -0.6400
 6737SOL     OW31672   1.817   0.850  16.350 -0.0010  0.3561 -0.1592
 6737SOL    HW131673   1.853   0.838  16.262 -3.0395 -2.1134 -1.0640
 6737SOL    HW231674   1.775   0.766  16.368 -3.7610  2.3216  0.2179
 6738SOL     OW31675   3.213   4.500   4.143  0.0404  0.0009  0.1268
 6738SOL    HW131676   3.268   4.475   4.068  0.0756 -2.3154  0.9115
 6738SOL    HW231677   3.262   4.562   4.196 -0.5401  0.2921  0.3174
 6739SOL     OW31678   1.642   0.339   2.133  0.2545 -0.1867  0.5277
 6739SOL    HW131679   1.572   0.283   2.100 -1.0826  2.4689 -1.1281
 6739SOL    HW231680   1.589   0.402   2.180 -0.9122  0.2238 -1.3327
 6740SOL     OW31681   0.519   1.345  16.135  0.6662 -0.0130  0.3173
 6740SOL    HW131682   0.452   1.313  16.075 -0.4779  2.7344  0.1374
 6740SOL    HW231683   0.510   1.301  16.220  1.3801  2.8803  1.9102
 6741SOL     OW31684   1.026   1.695   1.421 -0.0416 -0.3982  0.0764
 6741SOL    HW131685   1.048   1.787   1.408  1.2420 -0.2531  3.1941
 6741SOL    HW231686   1.095   1.650   1.373 -0.1545 -0.5040  0.0130
 6742SOL     OW31687   3.166   4.421   9.360 -0.6508 -0.2399  0.3030
 6742SOL    HW131688   3.078   4.457   9.349 -0.4619  0.5277  1.3440
 6742SOL    HW231689   3.196   4.455   9.444  0.5439 -2.5652  0.8143
 6743SOL     OW31690   0.313   0.540   8.865 -0.0093 -0.0310 -0.1985
 6743SOL    HW131691   0.245   0.508   8.805  0.7162  0.0697 -1.0681
 6743SOL    HW231692   0.331   0.463   8.920 -0.5184  0.0226  0.0462
 6744SOL     OW31693   4.540   2.981   4.556 -0.1860  0.0588  0.1480
 6744SOL    HW131694   4.500   2.963   4.471  0.9672 -2.8369  0.2221
 6744SOL    HW231695   4.524   3.076   4.562 -0.4561  0.0280 -0.0565
 6745SOL     OW31696   0.194   1.328   7.098  0.3116 -0.2906 -0.6368
 6745SOL    HW131697   0.171   1.274   7.023  0.7291 -0.1508 -0.8677
 6745SOL    HW231698   0.157   1.272   7.166 -0.2990  1.5958  0.6020
 6746SOL     OW31699   0.605   0.095  13.350 -0.2577  0.0921  0.3819
 6746SOL    HW131700   0.695   0.122  13.334 -0.5875  0.3904 -0.9960
 6746SOL    HW231701   0.609   0.052  13.435  2.1129 -1.6017 -0.5989
 6747SOL     OW31702   4.183   0.246   4.663 -0.1993 -0.0823 -0.0978
 6747SOL    HW131703   4.098   0.290   4.658  0.0582  0.1547 -2.6532
 6747SOL    HW231704   4.157   0.163   4.624  0.8085  0.0473 -1.0596
 6748SOL     OW31705   1.255   2.805   8.145 -0.1125 -0.9771  0.6270
 6748SOL    HW131706   1.288   2.716   8.144  2.3960 -0.0773  4.5452
 6748SOL    HW231707   1.318   2.857   8.196  0.4462  1.5459 -2.6110
 6749SOL     OW31708   1.546   0.467  11.519 -0.1186 -0.2840  0.3940
 6749SOL    HW131709   1.478   0.415  11.561 -1.9591  0.7654 -1.2793
 6749SOL    HW231710   1.532   0.431  11.431  0.9006  0.7298 -0.1906
 6750SOL     OW31711   0.097   1.187   2.537 -0.6937 -0.2695  0.5702
 6750SOL    HW131712   0.072   1.233   2.617 -0.9356  2.5089 -1.0903
 6750SOL    HW231713   0.187   1.215   2.519 -0.8120 -0.3019 -0.0749
 6751SOL     OW31714   4.243   0.349   0.476 -0.0001 -0.5016 -0.0164
 6751SOL    HW131715   4.296   0.390   0.544  0.1581 -1.2993  0.3510
 6751SOL    HW231716   4.260   0.255   0.487 -1.7340 -0.6083  1.6693
 6752SOL     OW31717   3.767   0.379   2.091 -0.1786  0.0981 -0.1897
 6752SOL    HW131718   3.806   0.349   2.009 -1.9401 -2.4596 -0.0998
 6752SOL    HW231719   3.729   0.297   2.124  0.2524 -0.3196 -0.7312
 6753SOL     OW31720   0.919   3.290   3.244  1.0970 -0.2384 -0.2485
 6753SOL    HW131721   0.891   3.362   3.187 -0.7100  0.2171  1.2146
 6753SOL    HW231722   0.849   3.304   3.308  0.7201  2.5608 -1.2470
 6754SOL     OW31723   3.137   4.370   1.751 -0.5253 -0.1534 -0.0145
 6754SOL    HW131724   3.197   4.365   1.826  0.8866 -0.4607 -1.1640
 6754SOL    HW231725   3.196   4.421   1.695 -1.9438  0.4257 -0.9702
 6755SOL     OW31726   3.103   4.150   0.643 -0.5908  0.4319  0.1055
 6755SOL    HW131727   3.051   4.113   0.571  0.9588  0.5714 -1.0771
 6755SOL    HW231728   3.084   4.242   0.626 -0.4331 -0.0841 -2.8849
 6756SOL     OW31729   3.917   3.060  12.370 -0.6952 -0.0572  0.2616
 6756SOL    HW131730   3.960   2.997  12.312 -0.2121 -0.2991  0.8837
 6756SOL    HW231731   3.984   3.127  12.358 -0.5466 -0.7667 -2.9460
 6757SOL     OW31732   0.208   0.882   7.879  0.1297 -0.0969 -0.0562
 6757SOL    HW131733   0.236   0.796   7.910  1.5282 -0.3671 -2.0740
 6757SOL    HW231734   0.284   0.936   7.902  0.7988 -0.7071 -0.8371
 6758SOL     OW31735   1.465   1.304   7.993 -0.7530  0.1979  0.1084
 6758SOL    HW131736   1.490   1.397   7.990 -0.2956  0.0751 -0.0043
 6758SOL    HW231737   1.428   1.282   7.908  2.0175  1.5784 -1.4630
 6759SOL     OW31738   2.748   2.228   4.895  0.2429 -0.0736  0.4595
 6759SOL    HW131739   2.746   2.310   4.944  1.2584  0.2256 -0.0005
 6759SOL    HW231740   2.692   2.173   4.950  1.0552 -2.1806 -0.8560
 6760SOL     OW31741   3.924   3.189   5.393 -0.5213 -0.2488 -0.5037
 6760SOL    HW131742   3.904   3.239   5.472 -0.3836 -1.4290  0.2762
 6760SOL    HW231743   3.998   3.238   5.355  0.4580 -1.5908 -0.3388
 6761SOL     OW31744   1.333   2.522   7.420 -0.3242  0.1098 -0.7256
 6761SOL    HW131745   1.318   2.437   7.462 -0.2744  0.6332  0.3567
 6761SOL    HW231746   1.294   2.579   7.487  0.2011 -1.4637  0.9179
 6762SOL     OW31747   3.480   4.670   3.186  0.3639 -0.0417  0.2536
 6762SOL    HW131748   3.532   4.628   3.117 -0.0120 -1.6188  0.9348
 6762SOL    HW231749   3.412   4.704   3.127  2.4422  0.8205 -1.6498
 6763SOL     OW31750   4.100   4.135  11.223 -0.2950  0.7728 -0.1518
 6763SOL    HW131751   4.052   4.164  11.300 -2.9915  1.2305 -1.9886
 6763SOL    HW231752   4.192   4.155  11.239  0.6896 -3.8408  0.0939
 6764SOL     OW31753   1.558   4.334   4.239 -1.1696  0.4355 -0.0913
 6764SOL    HW131754   1.546   4.276   4.314  2.8393  1.8451  1.6603
 6764SOL    HW231755   1.646   4.367   4.258 -0.2298 -0.6675 -2.5273
 6765SOL     OW31756   4.279   0.284   7.513 -0.3778  0.3312 -0.0261
 6765SOL    HW131757   4.298   0.272   7.606 -0.2818 -1.0605 -0.2256
 6765SOL    HW231758   4.366   0.284   7.475 -0.5264 -2.8673 -0.3308
 6766SOL     OW31759   2.212   3.557   1.994 -0.1980 -0.0490 -0.5756
 6766SOL    HW131760   2.269   3.505   2.050 -0.3451  1.4322  0.9275
 6766SOL    HW231761   2.180   3.487   1.937  1.4505 -1.7678  0.6093
 6767SOL     OW31762   2.177   0.222   3.279  0.2687  0.0270 -0.0777
 6767SOL    HW131763   2.216   0.138   3.253  0.9500  0.7776 -1.5082
 6767SOL    HW231764   2.147   0.257   3.195 -0.4474 -2.8410 -0.9896
 6768SOL     OW31765   4.252   1.810   3.471  0.3523 -0.4211  0.2523
 6768SOL    HW131766   4.304   1.750   3.524 -0.6153 -1.7706 -0.3324
 6768SOL    HW231767   4.184   1.750   3.439  0.9172 -1.2290  0.5700
 6769SOL     OW31768   2.614   3.347   4.027  0.2330 -0.2293  0.3136
 6769SOL    HW131769   2.646   3.271   3.977  2.2435 -1.5508  3.6441
 6769SOL    HW231770   2.561   3.404   3.971  1.2207  1.2246  0.8658
 6770SOL     OW31771   3.112   4.292  11.695  0.1111 -0.9490 -0.0837
 6770SOL    HW131772   3.059   4.285  11.775 -0.1149  0.9789 -0.0764
 6770SOL    HW231773   3.063   4.228  11.643  2.1810 -1.0221 -1.9603
 6771SOL     OW31774   0.589   4.075  16.520 -0.2701  0.9356 -0.6499
 6771SOL    HW131775   0.644   4.056  16.596  0.4123 -0.6318 -1.5326
 6771SOL    HW231776   0.510   4.028  16.544 -1.0954  3.0003  0.7272
 6772SOL     OW31777   2.795   2.759   9.804  0.0940  0.0695  0.0142
 6772SOL    HW131778   2.870   2.807   9.838 -0.4224  0.9042 -0.0318
 6772SOL    HW231779   2.729   2.795   9.864 -1.0440  1.1660 -1.8955
 6773SOL     OW31780   3.173   4.669   9.849  0.6217  0.3889  0.4072
 6773SOL    HW131781   3.100   0.005   9.843  1.3505  1.2190  0.0181
 6773SOL    HW231782   3.133   4.599   9.900  0.6789  0.5423  0.6591
 6774SOL     OW31783   2.871   1.651  12.723  0.3850 -0.1614 -0.2777
 6774SOL    HW131784   2.809   1.579  12.734 -0.1526  0.1823 -1.0464
 6774SOL    HW231785   2.873   1.674  12.630  0.7805 -0.7394 -0.4173
 6775SOL     OW31786   2.839   3.081   0.468 -0.2097 -0.2364  0.2663
 6775SOL    HW131787   2.928   3.090   0.434 -1.0089  1.0837 -1.4893
 6775SOL    HW231788   2.794   3.042   0.394  0.3046  1.4940 -0.9414
 6776SOL     OW31789   2.435   2.279   9.248  0.3171 -0.2639 -0.8233
 6776SOL    HW131790   2.529   2.265   9.261  0.1519 -1.7619 -1.2642
 6776SOL    HW231791   2.431   2.315   9.160  0.5398  1.6546 -0.0543
 6777SOL     OW31792   3.396   3.844   6.521  0.0749 -0.2380  0.0213
 6777SOL    HW131793   3.431   3.926   6.555 -1.2979 -0.2901  1.5343
 6777SOL    HW231794   3.303   3.860   6.537  0.5055  3.4912 -1.3372
 6778SOL     OW31795   0.369   3.570   3.135 -0.3833  0.1865  0.0771
 6778SOL    HW131796   0.324   3.636   3.082  0.6332  0.6797 -0.1937
 6778SOL    HW231797   0.450   3.551   3.088 -0.4125 -0.5322  0.3208
 6779SOL     OW31798   0.599   3.000  16.657 -0.5217  0.6483 -0.2423
 6779SOL    HW131799   0.525   2.945  16.682 -1.0987  1.0999 -0.9701
 6779SOL    HW231800   0.571   3.013  16.567 -0.0850 -0.0787 -0.4840
 6780SOL     OW31801   0.807   0.942  17.123  0.1975  0.0803  0.6574
 6780SOL    HW131802   0.830   0.849  17.123 -2.0386 -0.4790  0.3737
 6780SOL    HW231803   0.766   0.944  17.210  0.6546  0.1561  0.8705
 6781SOL     OW31804   3.783   1.531  10.938 -0.3201  0.5547  0.0198
 6781SOL    HW131805   3.744   1.575  11.013  0.4720  0.2227  0.6283
 6781SOL    HW231806   3.853   1.592  10.915 -0.6025  1.5239  1.7077
 6782SOL     OW31807   0.888   3.854   8.380  0.1240 -0.3064  0.1899
 6782SOL    HW131808   0.864   3.819   8.466  1.7829  0.9164  1.1559
 6782SOL    HW231809   0.824   3.826   8.314  0.9571 -1.0270 -0.3125
 6783SOL     OW31810   2.932   4.302  14.669 -0.2784 -0.1517  0.6333
 6783SOL    HW131811   2.888   4.375  14.713  0.9780 -0.4174  2.3363
 6783SOL    HW231812   3.021   4.336  14.671  0.2280 -1.2379 -3.3785
 6784SOL     OW31813   1.200   2.057   5.592 -0.4919 -0.1978 -0.4847
 6784SOL    HW131814   1.134   2.103   5.644 -0.0505 -1.1801  0.9453
 6784SOL    HW231815   1.187   2.099   5.507  2.3710 -0.4778 -1.0710
 6785SOL     OW31816   2.948   3.058   7.882  0.0323 -0.6727 -0.2798
 6785SOL    HW131817   2.873   3.063   7.941 -1.0362  0.1399 -1.6939
 6785SOL    HW231818   3.006   2.992   7.920 -1.4249 -1.4873  0.5533
 6786SOL     OW31819   2.133   0.906  15.413 -0.2073  0.1083  0.5511
 6786SOL    HW131820   2.111   0.826  15.366  0.4226 -0.2925  0.9355
 6786SOL    HW231821   2.163   0.866  15.495 -1.7756  2.1728  2.1297
 6787SOL     OW31822   1.002   0.167   8.467 -0.0853  0.4641 -0.0762
 6787SOL    HW131823   1.059   0.243   8.454  1.9934 -0.9703  0.6299
 6787SOL    HW231824   1.039   0.139   8.551 -1.1386 -0.6005  0.0349
 6788SOL     OW31825   2.564   4.125  11.528 -0.0346  0.1745 -0.5007
 6788SOL    HW131826   2.501   4.088  11.465 -2.0326  0.0415  1.5832
 6788SOL    HW231827   2.589   4.209  11.488 -0.4565  0.3396 -0.4193
 6789SOL     OW31828   3.519   4.309  16.938 -0.3764 -0.6924 -0.1892
 6789SOL    HW131829   3.538   4.236  16.878  1.1612  0.1073 -0.6924
 6789SOL    HW231830   3.425   4.318  16.926 -0.1871  1.8293  0.2583
 6790SOL     OW31831   4.028   0.029   4.238  0.3251 -0.1579 -0.2025
 6790SOL    HW131832   3.954   4.699   4.214 -0.6238  1.4801 -1.0599
 6790SOL    HW231833   4.076   0.039   4.155  0.2513  1.3904 -0.0726
 6791SOL     OW31834   4.482   3.960  14.199 -0.6180 -0.0137  0.3491
 6791SOL    HW131835   4.508   3.893  14.135  2.8087  0.0346  1.7133
 6791SOL    HW231836   4.433   4.025  14.149 -1.3842 -0.3164  0.7068
 6792SOL     OW31837   1.548   3.700   6.118 -0.3631  0.1328 -0.0549
 6792SOL    HW131838   1.527   3.634   6.053 -0.1188 -0.2966  0.3079
 6792SOL    HW231839   1.460   3.734   6.136 -0.5575 -1.2040  1.4296
 6793SOL     OW31840   1.432   0.583  11.227 -0.0629  0.0029 -0.0712
 6793SOL    HW131841   1.429   0.487  11.226  0.5885 -0.0246  0.9398
 6793SOL    HW231842   1.341   0.611  11.234 -0.8350 -2.5317  0.1774
 6794SOL     OW31843   2.096   2.210  10.976  0.6542  0.2118  0.0159
 6794SOL    HW131844   2.063   2.233  10.889 -0.9291  0.5618  0.6982
 6794SOL    HW231845   2.191   2.208  10.969  0.7566  0.1835  1.4839
 6795SOL     OW31846   2.215   2.053   8.709  0.0748 -0.7150  0.0099
 6795SOL    HW131847   2.157   1.991   8.664 -1.3013  1.7385 -1.6053
 6795SOL    HW231848   2.222   2.013   8.796  3.8573 -0.4717 -0.1599
 6796SOL     OW31849   4.633   3.288   6.262  0.2144  0.2668  0.0851
 6796SOL    HW131850   4.638   3.327   6.175 -0.8521 -0.4144 -0.2826
 6796SOL    HW231851   4.681   3.206   6.248  0.1315 -0.0398  1.5374
 6797SOL     OW31852   3.726   4.490  11.433  0.2658 -0.1624 -0.1912
 6797SOL    HW131853   3.658   4.475  11.368 -1.8232  1.8623  1.5288
 6797SOL    HW231854   3.809   4.500  11.387  0.7537  0.2897  0.7753
 6798SOL     OW31855   1.740   2.116   8.681  0.0412 -0.5744 -0.1201
 6798SOL    HW131856   1.815   2.143   8.734  0.8637 -1.0737 -1.0098
 6798SOL    HW231857   1.737   2.023   8.704  1.2604 -0.4972  0.3357
 6799SOL     OW31858   1.249   3.439   5.468  0.0692  0.1465  0.0292
 6799SOL    HW131859   1.166   3.409   5.429  1.7828  0.3820 -3.8203
 6799SOL    HW231860   1.308   3.383   5.417  0.5359 -0.2492  1.0104
 6800SOL     OW31861   2.647   3.503   7.830 -0.1170 -0.4450 -0.2775
 6800SOL    HW131862   2.695   3.547   7.761 -0.5982  0.3040 -0.1387
 6800SOL    HW231863   2.689   3.418   7.822  0.4556 -0.1271 -0.5787
 6801SOL     OW31864   2.146   0.761   0.854  0.3257  0.2323 -0.6365
 6801SOL    HW131865   2.053   0.759   0.876  0.3645 -1.3376 -0.6097
 6801SOL    HW231866   2.182   0.746   0.941 -2.2613 -0.2924  0.3089
 6802SOL     OW31867   0.700   1.905   7.600 -0.0508  0.4801  0.4776
 6802SOL    HW131868   0.714   1.911   7.694  1.7105  2.7459  0.0796
 6802SOL    HW231869   0.610   1.872   7.593  1.1376 -2.2469 -1.8867
 6803SOL     OW31870   2.969   4.174   3.278 -0.3719 -0.9521 -0.0434
 6803SOL    HW131871   3.061   4.167   3.301 -0.1404 -0.7204 -0.8982
 6803SOL    HW231872   2.948   4.082   3.295  0.4625 -1.0986  0.1851
 6804SOL     OW31873   0.380   0.990  16.444  0.0698 -0.3526 -0.2610
 6804SOL    HW131874   0.454   0.990  16.384  0.2153  0.9541 -0.0961
 6804SOL    HW231875   0.417   1.013  16.530  2.7608  0.8747 -1.7587
 6805SOL     OW31876   4.202   4.214  12.829 -0.2645 -0.2004  0.1907
 6805SOL    HW131877   4.184   4.307  12.815 -1.1558 -0.2259  1.1574
 6805SOL    HW231878   4.157   4.172  12.755 -1.4594 -1.7476  1.8055
 6806SOL     OW31879   0.720   0.242   6.992  0.6528 -0.2970  0.2860
 6806SOL    HW131880   0.728   0.223   7.086  0.5660 -0.1919  0.3142
 6806SOL    HW231881   0.741   0.155   6.957 -0.4318  0.7395 -2.9393
 6807SOL     OW31882   2.057   2.274   3.077 -0.0054  0.4023 -0.5020
 6807SOL    HW131883   2.134   2.311   3.033  0.0758  1.4470  0.5216
 6807SOL    HW231884   2.017   2.351   3.116  0.7475  1.6006 -2.1346
 6808SOL     OW31885   1.871   0.974   3.865  0.0220  0.0178  0.3914
 6808SOL    HW131886   1.847   0.891   3.907  1.6197 -0.3555  0.5690
 6808SOL    HW231887   1.862   1.027   3.944  0.5917  1.2056 -0.3393
 6809SOL     OW31888   3.683   2.651   4.521  0.2572 -0.0553 -0.2112
 6809SOL    HW131889   3.752   2.683   4.463  1.3299  1.6793  2.0360
 6809SOL    HW231890   3.642   2.580   4.471 -2.8317  0.7337  1.1709
 6810SOL     OW31891   3.088   0.294  14.201 -0.0581  0.4832  0.0548
 6810SOL    HW131892   3.088   0.330  14.290 -0.9152 -1.8096  0.9637
 6810SOL    HW231893   3.145   0.361  14.162  1.5324 -0.7663  0.2500
 6811SOL     OW31894   2.559   2.074   1.402  0.3368 -0.1836 -0.0490
 6811SOL    HW131895   2.500   2.145   1.427  0.2475 -0.1901 -0.2429
 6811SOL    HW231896   2.505   1.997   1.417  1.3406 -0.8459  0.1819
 6812SOL     OW31897   1.725   0.615   1.024 -0.2110 -1.0424 -0.3584
 6812SOL    HW131898   1.660   0.667   1.070  1.4599 -0.7828  1.7333
 6812SOL    HW231899   1.802   0.658   1.062 -0.4242 -1.2924  0.3572
 6813SOL     OW31900   2.841   4.051   7.558  0.5705 -0.4154  0.2775
 6813SOL    HW131901   2.800   4.035   7.643 -3.3067 -2.1067 -1.8633
 6813SOL    HW231902   2.798   4.130   7.525  0.7620 -1.4465 -2.4431
 6814SOL     OW31903   3.390   1.249   1.281  0.1739  0.1507  0.1049
 6814SOL    HW131904   3.398   1.320   1.217  1.1157  1.1803  1.3636
 6814SOL    HW231905   3.361   1.174   1.228 -0.5294  2.0424 -2.1956
 6815SOL     OW31906   1.975   1.355  11.463  0.3108  0.2325 -0.5584
 6815SOL    HW131907   1.881   1.373  11.469  0.2392 -0.0781 -0.7368
 6815SOL    HW231908   1.982   1.269  11.504  0.6697  0.0144 -1.0826
 6816SOL     OW31909   0.709   0.665   4.831  0.1534  0.2652 -0.4585
 6816SOL    HW131910   0.757   0.721   4.893  0.6683 -1.0016  0.2894
 6816SOL    HW231911   0.772   0.609   4.786 -1.8539 -2.5178  0.1626
 6817SOL     OW31912   3.306   0.572   3.911  0.0612  0.3079 -0.0261
 6817SOL    HW131913   3.356   0.627   3.971 -0.6771 -0.0532  0.9170
 6817SOL    HW231914   3.231   0.629   3.894  0.7355  1.2693  0.2480
 6818SOL     OW31915   2.365   1.451  16.987 -0.1503 -0.5714 -0.2596
 6818SOL    HW131916   2.315   1.461  17.068  0.5188  1.8199 -0.1422
 6818SOL    HW231917   2.299   1.410  16.930 -0.0899 -1.4630  0.3093
 6819SOL     OW31918   2.476   0.973   6.035  0.2319  0.2704 -0.5081
 6819SOL    HW131919   2.492   0.955   6.127  0.7507 -0.4115 -0.7317
 6819SOL    HW231920   2.404   0.912   6.020  1.5766 -2.1500  2.8084
 6820SOL     OW31921   1.087   2.001   9.427 -0.4792 -0.5475 -0.0445
 6820SOL    HW131922   1.052   1.940   9.492  1.9670 -1.8673  0.0283
 6820SOL    HW231923   1.181   1.989   9.444 -0.4054 -0.7835 -0.6274
 6821SOL     OW31924   2.294   3.931  14.193  0.4643 -0.1780  0.3254
 6821SOL    HW131925   2.217   3.943  14.137  0.4848 -1.8997 -0.0726
 6821SOL    HW231926   2.359   3.900  14.130  1.1605  0.4363  0.7480
 6822SOL     OW31927   0.365   1.651   4.685 -0.2491  0.1923 -0.3143
 6822SOL    HW131928   0.413   1.642   4.602 -1.1058 -0.0951 -0.7753
 6822SOL    HW231929   0.297   1.705   4.645 -1.1388  1.8193  3.4463
 6823SOL     OW31930   2.494   2.314   3.856  0.0705  0.5254  0.0802
 6823SOL    HW131931   2.484   2.295   3.949  2.5053  0.5290  0.3661
 6823SOL    HW231932   2.405   2.326   3.825  0.6609 -0.4738 -2.0010
 6824SOL     OW31933   0.194   1.687   2.680  0.0277  0.2733 -0.3445
 6824SOL    HW131934   0.156   1.675   2.593 -2.1336  3.2914  0.2239
 6824SOL    HW231935   0.245   1.605   2.684  0.3689  0.5498  0.9327
 6825SOL     OW31936   1.657   3.213  10.659 -0.1204  0.2258 -0.5856
 6825SOL    HW131937   1.648   3.144  10.594  1.6701 -0.6411  0.0804
 6825SOL    HW231938   1.751   3.234  10.663  0.1313 -0.9087 -0.6107
 6826SOL     OW31939   4.552   4.430  15.284 -0.5545  0.1843 -0.5597
 6826SOL    HW131940   4.632   4.380  15.268 -1.4205 -1.3632  0.0745
 6826SOL    HW231941   4.521   4.365  15.346 -1.5695  1.4776  0.2730
 6827SOL     OW31942   3.248   1.216   3.386  0.0886  0.2446 -0.3366
 6827SOL    HW131943   3.231   1.148   3.320  1.2163 -0.1492 -0.2238
 6827SOL    HW231944   3.187   1.287   3.365 -0.3120 -0.2076 -0.7013
 6828SOL     OW31945   1.626   0.368  10.948  0.5027 -0.1378 -0.3171
 6828SOL    HW131946   1.638   0.363  10.854 -1.0476  0.0640 -0.5395
 6828SOL    HW231947   1.603   0.279  10.975  1.4881 -0.9184 -2.1111
 6829SOL     OW31948   3.398   0.101  13.257  0.1636 -0.0484  0.6912
 6829SOL    HW131949   3.426   0.142  13.338  0.1442  0.9876  0.1663
 6829SOL    HW231950   3.374   0.177  13.204 -0.2137 -1.3263 -0.9703
 6830SOL     OW31951   1.231   0.635   8.940  0.4005  0.4103 -0.1631
 6830SOL    HW131952   1.324   0.611   8.936  0.1957 -0.5444  0.9252
 6830SOL    HW231953   1.206   0.579   9.014  0.3383  0.4439 -0.1595
 6831SOL     OW31954   4.294   1.249   0.895 -0.3198 -0.1411  0.4126
 6831SOL    HW131955   4.366   1.200   0.935  1.3390  1.4120 -0.6849
 6831SOL    HW231956   4.228   1.180   0.910  0.7757 -1.5778 -1.3723
 6832SOL     OW31957   1.331   1.092   7.279  0.0282 -0.0839  0.2320
 6832SOL    HW131958   1.257   1.149   7.256  0.9021  1.8476  2.1265
 6832SOL    HW231959   1.393   1.108   7.208 -0.1756 -2.0501 -0.3773
 6833SOL     OW31960   1.113   1.650   6.102 -0.5522  0.5167 -0.2654
 6833SOL    HW131961   1.170   1.649   6.025 -0.7667 -0.7917 -0.3985
 6833SOL    HW231962   1.168   1.674   6.176  0.8361 -2.1841 -0.4465
 6834SOL     OW31963   3.426   4.392   3.164  0.2229 -0.1941 -0.7254
 6834SOL    HW131964   3.401   4.484   3.173  3.2239  0.6342 -0.9042
 6834SOL    HW231965   3.381   4.359   3.086 -1.6511 -2.8484  1.4481
 6835SOL     OW31966   3.215   1.223   7.391  0.4557  0.3496 -0.2296
 6835SOL    HW131967   3.291   1.233   7.333  0.3670  0.2968 -0.3549
 6835SOL    HW231968   3.199   1.316   7.406  0.1367  0.0296  1.3547
 6836SOL     OW31969   3.955   2.350   4.054 -0.0797  0.6665  0.1449
 6836SOL    HW131970   3.973   2.406   3.979  0.2272 -1.0546 -1.0813
 6836SOL    HW231971   3.871   2.391   4.074 -1.4980 -1.5360 -1.3542
 6837SOL     OW31972   2.714   1.076   8.037  0.3518  0.2873 -0.6302
 6837SOL    HW131973   2.758   1.099   7.955  1.9813  1.0481  0.4484
 6837SOL    HW231974   2.744   0.990   8.065  2.2001  0.7976 -1.0678
 6838SOL     OW31975   3.808   0.607   1.637 -0.1672  0.3131  0.5674
 6838SOL    HW131976   3.891   0.651   1.618  1.4244 -2.3149  1.4421
 6838SOL    HW231977   3.759   0.625   1.557  0.8430  1.2817  0.1778
 6839SOL     OW31978   3.442   0.241  12.250  0.0782  0.8716 -0.1140
 6839SOL    HW131979   3.432   0.150  12.220  2.5246  1.1462 -1.7481
 6839SOL    HW231980   3.538   0.247  12.243  0.1638  1.2182  1.4634
 6840SOL     OW31981   0.289   1.147   6.694 -0.5568 -0.2892 -0.3035
 6840SOL    HW131982   0.380   1.154   6.724 -0.2052 -1.0344 -1.1934
 6840SOL    HW231983   0.292   1.074   6.632  4.0891 -1.8784  1.7732
 6841SOL     OW31984   3.785   1.760   9.873  0.1918 -0.1928  0.3231
 6841SOL    HW131985   3.862   1.787   9.824  1.3365 -1.7819  1.2336
 6841SOL    HW231986   3.787   1.666   9.854 -0.4758  0.1245 -1.3844
 6842SOL     OW31987   4.600   2.306   7.229  0.2285  0.5208  0.1529
 6842SOL    HW131988   4.575   2.301   7.137 -0.8926  0.1150  0.4811
 6842SOL    HW231989   4.623   2.399   7.236  1.8111  0.1268  0.2920
 6843SOL     OW31990   4.183   2.250   5.159  0.8107 -0.1316 -0.4337
 6843SOL    HW131991   4.256   2.261   5.221  0.5134  1.1505 -0.3163
 6843SOL    HW231992   4.129   2.328   5.172  1.6813  0.4594 -0.3068
 6844SOL     OW31993   4.478   1.482  12.005  0.1801 -0.1765  0.0153
 6844SOL    HW131994   4.439   1.411  12.057  0.0739  0.1137  0.3374
 6844SOL    HW231995   4.537   1.445  11.940 -0.2267 -1.9663  0.6665
 6845SOL     OW31996   2.968   3.273  15.111  0.3030  0.5269 -0.5691
 6845SOL    HW131997   2.889   3.221  15.092  2.1292 -1.5003 -2.7439
 6845SOL    HW231998   2.938   3.363  15.101 -2.2552 -0.4644 -1.7502
 6846SOL     OW31999   2.205   2.165   9.959  0.2584  0.2826 -0.3691
 6846SOL    HW132000   2.215   2.168  10.054 -1.4946 -2.6575 -0.0664
 6846SOL    HW232001   2.294   2.188   9.933  0.6695  0.5560  1.2473
 6847SOL     OW32002   2.057   4.058   1.648  0.2345 -0.0645  0.6989
 6847SOL    HW132003   1.973   4.087   1.612  0.3753  2.4130  2.3668
 6847SOL    HW232004   2.117   4.133   1.646  1.1457 -0.8444 -0.9763
 6848SOL     OW32005   1.748   4.535  16.985  0.0887 -0.4244 -0.0884
 6848SOL    HW132006   1.708   4.565  16.903  1.6298  0.6162 -0.4549
 6848SOL    HW232007   1.836   4.525  16.950 -0.3227 -1.7806 -0.7224
 6849SOL     OW32008   1.581   4.507  14.242 -0.3109  0.2212 -0.0387
 6849SOL    HW132009   1.675   4.509  14.259  0.0609 -0.0203 -2.0465
 6849SOL    HW232010   1.554   4.502  14.334  3.3246  0.1028  1.0278
 6850SOL     OW32011   4.335   0.595   1.976  0.0356 -0.2697 -0.4588
 6850SOL    HW132012   4.420   0.605   1.934  0.4735 -1.2840  0.1815
 6850SOL    HW232013   4.313   0.688   1.985  2.5170  0.3014 -0.4759
 6851SOL     OW32014   3.263   3.596   7.815 -0.4796  0.4687  0.0728
 6851SOL    HW132015   3.286   3.664   7.752  1.1276 -1.9000 -1.8816
 6851SOL    HW232016   3.266   3.643   7.899  1.1591  0.5896 -0.0614
 6852SOL     OW32017   4.546   0.562   9.055 -0.3267 -0.3148  0.3416
 6852SOL    HW132018   4.561   0.480   9.008 -0.4292  0.9825 -1.9502
 6852SOL    HW232019   4.622   0.569   9.113 -0.2864 -2.8737  0.6181
 6853SOL     OW32020   2.076   0.202  15.446  0.2272  0.5604  0.1856
 6853SOL    HW132021   2.000   0.151  15.419  0.9138 -0.7215  0.6568
 6853SOL    HW232022   2.102   0.250  15.367  2.1081  1.6037  1.4499
 6854SOL     OW32023   4.037   3.523   0.154 -0.1743  0.6065 -0.4941
 6854SOL    HW132024   4.079   3.446   0.117 -1.0337 -0.9839  1.8291
 6854SOL    HW232025   4.111   3.574   0.186 -0.4156  0.3280  0.5333
 6855SOL     OW32026   4.502   1.887  16.164 -0.0943  0.2102 -0.0789
 6855SOL    HW132027   4.476   1.863  16.253  0.7485 -1.8799 -0.4147
 6855SOL    HW232028   4.424   1.871  16.110 -2.5967  3.5721  2.5526
 6856SOL     OW32029   3.193   3.457  11.959 -0.0893  0.3664 -0.7479
 6856SOL    HW132030   3.135   3.519  11.915 -1.0844  1.9406  2.8216
 6856SOL    HW232031   3.221   3.410  11.880 -0.4952  0.4074 -0.9145
 6857SOL     OW32032   1.875   0.038  15.352 -0.1485  0.3921  0.9197
 6857SOL    HW132033   1.860   4.672  15.378 -0.7770  0.2528  0.0842
 6857SOL    HW232034   1.837   0.040  15.264 -0.8476 -1.8577  1.1675
 6858SOL     OW32035   2.226   4.188   6.558 -0.0731 -0.1745  0.5778
 6858SOL    HW132036   2.301   4.231   6.516 -1.0879  2.2200  1.2015
 6858SOL    HW232037   2.180   4.259   6.604 -0.9215 -0.3978  0.0834
 6859SOL     OW32038   0.647   1.152   8.084 -0.6326 -0.1567 -0.8781
 6859SOL    HW132039   0.653   1.209   8.007 -0.8262  1.5729  0.3860
 6859SOL    HW232040   0.670   1.222   8.145 -0.0812 -1.0763 -0.0301
 6860SOL     OW32041   1.665   3.602   7.866  0.2240  0.0974 -0.3972
 6860SOL    HW132042   1.729   3.662   7.905  2.0201 -2.6475  0.9152
 6860SOL    HW232043   1.603   3.663   7.827 -2.0640 -1.4012  0.9110
 6861SOL     OW32044   4.472   0.519   1.734 -0.1182 -0.5424 -0.5081
 6861SOL    HW132045   4.521   0.451   1.779  2.4190  1.0485 -0.8589
 6861SOL    HW232046   4.541   0.548   1.674  1.7824 -2.4911  0.7478
 6862SOL     OW32047   1.637   1.572   0.593 -0.4603 -0.2237 -0.1045
 6862SOL    HW132048   1.723   1.541   0.564  0.2073  2.8235 -1.4292
 6862SOL    HW232049   1.656   1.636   0.661 -1.0548 -0.1537 -0.0030
 6863SOL     OW32050   1.733   1.413  13.537 -0.6752  0.1461  0.0204
 6863SOL    HW132051   1.730   1.479  13.468  0.2057 -0.8542 -0.9709
 6863SOL    HW232052   1.653   1.366  13.518  0.4303 -0.4285 -3.1926
 6864SOL     OW32053   2.313   3.272   4.887 -0.7435  0.0177  0.1425
 6864SOL    HW132054   2.372   3.347   4.880 -1.4528  0.5315 -0.2706
 6864SOL    HW232055   2.374   3.199   4.902  0.7970  1.4403  0.7854
 6865SOL     OW32056   2.027   1.578   1.851 -0.0694  0.8758 -0.0350
 6865SOL    HW132057   2.100   1.629   1.817  0.2628  1.2706  1.2661
 6865SOL    HW232058   1.974   1.564   1.772  2.2688 -0.8799 -1.2872
 6866SOL     OW32059   3.104   2.559   7.617  0.0776 -0.1446  0.4602
 6866SOL    HW132060   3.084   2.472   7.650 -0.5276  0.7233  2.3416
 6866SOL    HW232061   3.037   2.608   7.664  0.3366  0.7104 -0.0678
 6867SOL     OW32062   0.309   2.983  17.240 -0.2069  0.0927  0.4425
 6867SOL    HW132063   0.370   3.000  17.168  1.0584  0.3270  1.5676
 6867SOL    HW232064   0.282   3.072  17.265 -2.3702 -0.3199 -0.3804
 6868SOL     OW32065   1.677   1.063  17.397  0.4859 -0.2147  0.2494
 6868SOL    HW132066   1.590   1.022  17.406  0.0827  1.2579  2.9069
 6868SOL    HW232067   1.697   1.093  17.485 -0.1486  0.3257  0.2148
 6869SOL     OW32068   1.734   0.458  16.353  0.2644  0.4993  0.0580
 6869SOL    HW132069   1.696   0.457  16.441  2.0124 -0.8017  0.8180
 6869SOL    HW232070   1.661   0.490  16.302  0.9993 -1.1498 -2.0135
 6870SOL     OW32071   3.634   4.631   9.289  0.3139 -0.2226 -0.6134
 6870SOL    HW132072   3.611   4.666   9.204  0.3028 -0.7739 -0.8387
 6870SOL    HW232073   3.555   4.659   9.336 -0.7391 -1.3882 -1.6904
 6871SOL     OW32074   0.609   0.074   2.427 -0.1302 -0.0823  0.2812
 6871SOL    HW132075   0.656   0.124   2.361 -2.1803  2.6812  0.9129
 6871SOL    HW232076   0.666   0.070   2.503  0.6010 -0.6768 -0.3005
 6872SOL     OW32077   2.036   2.770  16.060 -0.4811 -0.2341 -0.1558
 6872SOL    HW132078   2.092   2.754  16.135 -1.2991 -1.9099  0.0918
 6872SOL    HW232079   2.101   2.743  15.995  1.2063 -0.1371  1.4902
 6873SOL     OW32080   1.624   1.915   8.282  0.1316  0.1550 -0.7481
 6873SOL    HW132081   1.622   1.822   8.306  1.5218  0.2390 -0.3055
 6873SOL    HW232082   1.532   1.936   8.294  0.4689 -0.0829  2.3224
 6874SOL     OW32083   3.147   0.330   5.754  0.6903  0.0300 -0.0998
 6874SOL    HW132084   3.135   0.257   5.815  1.4626 -0.8679 -1.0262
 6874SOL    HW232085   3.242   0.325   5.742  0.8963  1.9363  0.8713
 6875SOL     OW32086   0.104   3.145  17.390 -0.1847 -0.3424 -0.4313
 6875SOL    HW132087   0.194   3.166  17.363 -0.4041  2.6306  1.2118
 6875SOL    HW232088   0.111   3.165  17.484  0.7430 -1.0899 -0.3366
 6876SOL     OW32089   1.903   1.834  13.815  0.5216 -0.1981  0.1275
 6876SOL    HW132090   1.992   1.849  13.785  0.2326  0.2295 -0.5127
 6876SOL    HW232091   1.910   1.847  13.910  1.1290 -0.0385  0.0589
 6877SOL     OW32092   3.129   2.584  14.687 -0.5211 -0.4574  0.4073
 6877SOL    HW132093   3.070   2.629  14.626 -0.6837  0.2435  1.0907
 6877SOL    HW232094   3.132   2.651  14.755 -1.1645 -0.7624  0.7436
 6878SOL     OW32095   2.409   1.472   2.420 -0.2834 -0.0602 -0.4103
 6878SOL    HW132096   2.410   1.377   2.413 -2.4253 -0.0056 -1.4589
 6878SOL    HW232097   2.499   1.491   2.444 -0.8538 -0.8758  2.4322
 6879SOL     OW32098   2.049   0.541  11.179 -0.9938 -0.4077 -0.3705
 6879SOL    HW132099   1.974   0.483  11.193 -3.5593  2.2418 -3.0915
 6879SOL    HW232100   2.091   0.492  11.108 -1.5585  0.2168 -1.1334
 6880SOL     OW32101   3.749   3.034   7.784 -0.3758 -0.0473 -0.1233
 6880SOL    HW132102   3.726   3.069   7.698 -0.3489 -1.1458 -0.5732
 6880SOL    HW232103   3.842   3.023   7.765 -0.2622 -0.1390  0.4725
 6881SOL     OW32104   0.508   3.632  10.263 -1.0104 -0.4194  0.0763
 6881SOL    HW132105   0.431   3.657  10.211 -0.5172  0.8609 -0.0363
 6881SOL    HW232106   0.498   3.690  10.338 -1.1031  0.2098 -0.4194
 6882SOL     OW32107   0.886   4.001   6.295  0.2634  0.2285  0.2677
 6882SOL    HW132108   0.857   4.021   6.384  0.6822 -0.0222  0.4650
 6882SOL    HW232109   0.966   4.053   6.292 -1.6697  3.0670 -1.3976
 6883SOL     OW32110   1.117   3.229   4.585 -0.7464  0.1695 -0.0850
 6883SOL    HW132111   1.140   3.320   4.602 -1.6503  0.7673 -2.0492
 6883SOL    HW232112   1.053   3.215   4.655 -0.2211 -2.4768 -0.1426
 6884SOL     OW32113   1.145   1.777  17.410 -0.2153  0.1948  0.4294
 6884SOL    HW132114   1.138   1.682  17.420  0.7588  0.1900  0.9559
 6884SOL    HW232115   1.204   1.791  17.336 -0.1246 -0.2468  0.4182
 6885SOL     OW32116   2.718   3.943   5.777  0.1708  0.3227  0.3131
 6885SOL    HW132117   2.628   3.923   5.805  0.5507 -0.9825  0.6025
 6885SOL    HW232118   2.699   3.970   5.688  0.6555 -0.2299  0.0414
 6886SOL     OW32119   3.256   1.796  10.909  0.3144 -0.0841  0.0416
 6886SOL    HW132120   3.238   1.857  10.980  1.0662  1.5477 -1.1847
 6886SOL    HW232121   3.168   1.777  10.876  0.4777  0.1259 -0.5144
 6887SOL     OW32122   2.979   1.907   8.659 -0.6920  0.0211  0.5071
 6887SOL    HW132123   2.972   1.812   8.654 -0.9077  0.1595 -1.5731
 6887SOL    HW232124   3.054   1.923   8.602 -1.3565 -1.4208 -0.7708
 6888SOL     OW32125   4.197   1.083   6.493 -0.0206 -0.0276 -0.2474
 6888SOL    HW132126   4.126   1.062   6.554  0.7329 -0.9029  0.3317
 6888SOL    HW232127   4.202   1.169   6.534  0.2570 -1.1431  2.0810
 6889SOL     OW32128   3.920   1.436   5.109 -0.3935  0.1500 -0.8195
 6889SOL    HW132129   3.970   1.499   5.160 -0.6804 -1.3381  1.3391
 6889SOL    HW232130   3.991   1.398   5.058  1.3014  0.3524  1.4107
 6890SOL     OW32131   4.304   0.132  11.146 -0.1114 -0.2366  0.0108
 6890SOL    HW132132   4.222   0.116  11.193  0.3495 -1.2918  0.4582
 6890SOL    HW232133   4.280   0.214  11.103 -1.8032 -1.0487 -0.5740
 6891SOL     OW32134   1.254   1.554  15.008 -0.2584  0.4696  0.1519
 6891SOL    HW132135   1.260   1.472  14.959 -0.3563  0.9904 -0.7321
 6891SOL    HW232136   1.189   1.528  15.074  0.7707 -2.9549 -0.2139
 6892SOL     OW32137   4.039   2.587   6.807  0.0383  0.2571  0.6309
 6892SOL    HW132138   4.041   2.682   6.823  0.0496  0.4644 -0.5401
 6892SOL    HW232139   4.004   2.558   6.891 -0.2942 -1.2984 -0.0543
 6893SOL     OW32140   4.472   1.704   9.879 -0.3058  0.1736  0.0578
 6893SOL    HW132141   4.393   1.699   9.825 -0.5770 -0.7355  0.5443
 6893SOL    HW232142   4.472   1.619   9.923  1.5414 -1.0468 -2.2900
 6894SOL     OW32143   3.940   0.875   6.168  0.4127  0.3027  0.2287
 6894SOL    HW132144   3.946   0.843   6.078 -0.6022  1.2030 -0.1612
 6894SOL    HW232145   4.014   0.935   6.179  0.9038  0.0276 -1.5805
 6895SOL     OW32146   1.125   3.108   6.054  0.5296  0.3262  0.3604
 6895SOL    HW132147   1.186   3.108   5.981  1.1461 -1.6767  0.8863
 6895SOL    HW232148   1.078   3.189   6.031 -0.9876 -0.0282  2.2499
 6896SOL     OW32149   2.436   1.675   5.572  0.1161  0.1765  0.1739
 6896SOL    HW132150   2.377   1.600   5.570  0.0985  0.1785  0.6416
 6896SOL    HW232151   2.482   1.667   5.489  1.7711 -2.3860  1.3398
 6897SOL     OW32152   3.528   3.682   7.955  0.3762  0.0321 -0.4701
 6897SOL    HW132153   3.623   3.678   7.967  0.1019 -0.6489  1.4776
 6897SOL    HW232154   3.512   3.693   7.862 -0.3599 -0.6516 -0.4193
 6898SOL     OW32155   2.128   4.609   3.805 -0.6015  0.1177 -0.8126
 6898SOL    HW132156   2.123   4.548   3.732  0.4129  2.5051 -2.8743
 6898SOL    HW232157   2.045   4.596   3.851  0.2842  1.7290  1.2610
 6899SOL     OW32158   4.063   3.565  10.784 -0.1383 -0.4251  0.3209
 6899SOL    HW132159   3.985   3.594  10.829 -0.3318 -0.2987 -0.0979
 6899SOL    HW232160   4.060   3.477  10.822  2.9560 -0.4211  0.5810
 6900SOL     OW32161   3.762   3.532  14.311 -0.0575 -0.9169  0.6123
 6900SOL    HW132162   3.723   3.480  14.241  0.7025 -1.3748  0.5394
 6900SOL    HW232163   3.823   3.463  14.336 -0.2770 -2.0547 -2.0171
 6901SOL     OW32164   3.533   3.619  11.404  0.2600 -0.0711 -0.1060
 6901SOL    HW132165   3.518   3.551  11.338  3.5812 -0.0145 -0.9482
 6901SOL    HW232166   3.446   3.647  11.433 -0.1275 -2.2628  0.8239
 6902SOL     OW32167   0.561   3.310  12.220 -0.0800 -0.0420 -0.2801
 6902SOL    HW132168   0.567   3.298  12.314  3.7805 -3.2819 -0.9503
 6902SOL    HW232169   0.468   3.332  12.210  0.0106 -0.5653 -2.4665
 6903SOL     OW32170   1.402   4.117   7.177  0.0575 -0.3444  0.1591
 6903SOL    HW132171   1.345   4.045   7.204  1.3319 -0.9404  1.3129
 6903SOL    HW232172   1.428   4.089   7.089  1.2724 -0.9569  0.7026
 6904SOL     OW32173   3.508   3.720   5.134 -0.2572  0.5305 -0.2952
 6904SOL    HW132174   3.536   3.703   5.224  0.7400 -0.3114 -0.7739
 6904SOL    HW232175   3.555   3.646   5.096 -1.2970 -0.4258  0.2632
 6905SOL     OW32176   3.237   2.086   3.454 -0.2757 -0.2111 -0.5792
 6905SOL    HW132177   3.325   2.047   3.453  0.9526  2.4591  0.9496
 6905SOL    HW232178   3.204   2.062   3.368  0.8653 -2.4038 -0.3927
 6906SOL     OW32179   1.877   0.971  16.854  0.1884 -0.0378  0.1239
 6906SOL    HW132180   1.787   0.939  16.864 -0.2929  0.7121 -1.8055
 6906SOL    HW232181   1.888   0.970  16.759  0.7932 -0.1333  0.1911
 6907SOL     OW32182   1.784   3.560   2.971  0.2062  0.1564 -0.2890
 6907SOL    HW132183   1.848   3.540   2.903  3.0999 -0.6276  2.6791
 6907SOL    HW232184   1.830   3.527   3.048  0.5777  2.0763  0.3004
 6908SOL     OW32185   1.294   3.235  14.187  0.5394 -0.4151  0.3360
 6908SOL    HW132186   1.229   3.305  14.185 -0.9491 -1.7941  1.3586
 6908SOL    HW232187   1.332   3.261  14.271  2.5624 -3.8224  0.4495
 6909SOL     OW32188   1.514   4.531   5.104 -0.1018  0.1927  0.1730
 6909SOL    HW132189   1.457   4.454   5.104 -2.6734  2.0808  0.5545
 6909SOL    HW232190   1.495   4.556   5.194 -1.3543 -0.6739  0.1526
 6910SOL     OW32191   0.491   3.017  17.025  0.4103 -0.2331 -0.7064
 6910SOL    HW132192   0.471   2.958  16.953  1.5850 -0.1779 -1.0788
 6910SOL    HW232193   0.551   3.085  16.994  0.8697 -0.1278  0.3999
 6911SOL     OW32194   1.847   3.449  16.810 -0.0350 -0.2829 -0.2809
 6911SOL    HW132195   1.828   3.370  16.860 -0.0929 -0.5603 -0.7462
 6911SOL    HW232196   1.787   3.435  16.737  0.3443  1.0644 -0.8571
 6912SOL     OW32197   1.528   2.742   0.192  0.0841  0.0874 -0.1648
 6912SOL    HW132198   1.527   2.828   0.234  0.8186  1.7245 -3.4925
 6912SOL    HW232199   1.471   2.756   0.116  0.0222 -2.0627 -0.5128
 6913SOL     OW32200   3.754   2.893   7.333  0.3457 -0.2436 -0.0508
 6913SOL    HW132201   3.823   2.855   7.279 -1.4673 -1.5954 -1.4149
 6913SOL    HW232202   3.679   2.908   7.274 -0.1356  0.3382  0.7090
 6914SOL     OW32203   3.971   3.376   3.479 -0.1745  0.0625  0.5300
 6914SOL    HW132204   4.047   3.405   3.429  1.8559 -0.4470  3.3164
 6914SOL    HW232205   3.899   3.426   3.441 -0.0696  0.8372  1.3448
 6915SOL     OW32206   0.038   0.877   3.972  0.5664 -0.2036 -0.7060
 6915SOL    HW132207   0.054   0.916   4.058  0.3736 -1.0611 -0.2831
 6915SOL    HW232208   0.119   0.827   3.961  1.5105  0.8333  1.6283
 6916SOL     OW32209   4.190   3.511  13.672  0.2979  0.5374  0.0489
 6916SOL    HW132210   4.103   3.552  13.672  1.2029  2.4693 -1.2923
 6916SOL    HW232211   4.202   3.505  13.578  0.7676  1.6552  0.0302
 6917SOL     OW32212   3.192   4.055  14.274  0.2952 -0.0573  0.1914
 6917SOL    HW132213   3.225   4.022  14.190 -0.6234  0.9645 -0.5713
 6917SOL    HW232214   3.271   4.102  14.303  0.3786  1.4721 -2.4908
 6918SOL     OW32215   4.071   3.787  12.355  0.4995 -0.9149 -0.0569
 6918SOL    HW132216   4.056   3.701  12.317 -1.6439 -0.3930 -0.3872
 6918SOL    HW232217   4.092   3.831  12.273  1.8295  0.3928  0.9744
 6919SOL     OW32218   2.396   0.243   5.122 -0.0386 -0.1218  0.0679
 6919SOL    HW132219   2.448   0.254   5.201 -0.2702  1.6889 -0.0306
 6919SOL    HW232220   2.454   0.193   5.064 -0.4215  0.5310 -0.8717
 6920SOL     OW32221   4.010   2.773  15.661  0.4729 -0.6532  0.3927
 6920SOL    HW132222   4.071   2.763  15.587  2.0801  2.9157  1.2215
 6920SOL    HW232223   3.939   2.806  15.607  0.2106  0.0722  1.1940
 6921SOL     OW32224   0.109   1.609   7.202 -0.0322  0.0489  0.2880
 6921SOL    HW132225   0.154   1.525   7.199  0.9260  0.6118 -1.0909
 6921SOL    HW232226   0.022   1.575   7.222  0.3851 -2.0683 -1.5077
 6922SOL     OW32227   3.949   0.402  12.320 -0.4453  0.1606  0.4830
 6922SOL    HW132228   4.022   0.347  12.291 -1.6878 -2.2214  1.8568
 6922SOL    HW232229   3.996   0.483  12.340  1.5861 -1.3350  1.7899
 6923SOL     OW32230   3.152   1.939   6.546  0.1436  0.3682 -0.2665
 6923SOL    HW132231   3.239   1.915   6.579 -1.0835 -0.1146  2.6398
 6923SOL    HW232232   3.171   2.024   6.507 -1.8595  1.0774  0.2951
 6924SOL     OW32233   3.911   3.142   2.102  0.2398 -0.2065 -0.6551
 6924SOL    HW132234   3.993   3.091   2.099  1.7037  2.3076 -2.7419
 6924SOL    HW232235   3.944   3.231   2.092 -0.1496  0.1920  1.6170
 6925SOL     OW32236   2.139   4.320   4.291 -0.0761  0.0470  0.5454
 6925SOL    HW132237   2.131   4.384   4.362 -0.2350 -0.6265  1.1354
 6925SOL    HW232238   2.090   4.246   4.324 -1.0062  0.8218  0.9030
 6926SOL     OW32239   4.182   1.100   4.796  0.4726 -0.1058  0.1337
 6926SOL    HW132240   4.092   1.080   4.770  0.2013  0.2508  0.7881
 6926SOL    HW232241   4.211   1.156   4.724  1.5529  0.0544  0.6948
 6927SOL     OW32242   4.642   1.803   7.946  0.0020  0.2899  0.2673
 6927SOL    HW132243   4.592   1.747   7.886 -0.4087  0.1425  0.7437
 6927SOL    HW232244   4.713   1.826   7.887  1.4791  0.6539  2.2155
 6928SOL     OW32245   3.571   4.007   5.393  0.5748  0.3389 -0.0636
 6928SOL    HW132246   3.534   3.935   5.342  1.9488 -0.8431  0.5904
 6928SOL    HW232247   3.667   3.997   5.390  0.4954 -0.6598  0.7019
 6929SOL     OW32248   4.374   3.985  16.938 -0.0105 -0.0815  0.8255
 6929SOL    HW132249   4.408   3.920  16.877 -0.5564 -0.2201  0.6701
 6929SOL    HW232250   4.343   3.928  17.009 -2.6654  1.4878  0.9204
 6930SOL     OW32251   3.280   1.450  13.922  0.2419  0.4037  0.5641
 6930SOL    HW132252   3.331   1.428  14.000 -1.7492 -1.9156  1.2210
 6930SOL    HW232253   3.275   1.546  13.922 -0.6530  0.3534  1.2166
 6931SOL     OW32254   3.715   0.248   8.872 -0.3082 -0.1768 -0.2574
 6931SOL    HW132255   3.637   0.286   8.911  0.4420  0.5757  0.4949
 6931SOL    HW232256   3.779   0.301   8.919  0.8609 -2.8802  1.2347
 6932SOL     OW32257   0.462   2.090   1.883 -0.1039 -0.1935  0.1101
 6932SOL    HW132258   0.423   2.113   1.799 -0.7770 -1.8048 -0.0216
 6932SOL    HW232259   0.462   2.180   1.915 -2.3287  0.1104 -0.6919
 6933SOL     OW32260   1.829   2.736  14.189 -0.2572 -0.3451 -0.4903
 6933SOL    HW132261   1.793   2.680  14.259  1.0381 -0.6775 -0.0930
 6933SOL    HW232262   1.775   2.706  14.116  0.5705 -0.3748 -1.0785
 6934SOL     OW32263   0.529   1.235   0.392  0.1784  0.0480 -0.6162
 6934SOL    HW132264   0.495   1.187   0.316  0.9793 -0.1640 -0.8457
 6934SOL    HW232265   0.469   1.194   0.454 -0.3217  0.2377 -0.9795
 6935SOL     OW32266   1.180   0.052   9.019  0.2705 -0.3150  0.0383
 6935SOL    HW132267   1.129   4.697   9.021 -0.8069  0.3673  0.1699
 6935SOL    HW232268   1.107   0.113   9.027 -0.9429 -2.0682  2.2114
 6936SOL     OW32269   2.787   0.534  12.874  0.1154 -0.9322 -0.0689
 6936SOL    HW132270   2.712   0.576  12.915  1.3799  0.8246  0.4177
 6936SOL    HW232271   2.783   0.548  12.779 -2.1724 -0.4757  0.0863
 6937SOL     OW32272   3.675   0.735   4.939  0.2613 -0.4552  0.1696
 6937SOL    HW132273   3.628   0.772   4.865 -1.1222  1.5312  2.0451
 6937SOL    HW232274   3.662   0.804   5.004 -4.5044 -1.7238  0.5030
 6938SOL     OW32275   0.625   0.261   1.281 -0.4127  0.1271  0.0093
 6938SOL    HW132276   0.546   0.233   1.235  1.7369 -0.3074 -3.3474
 6938SOL    HW232277   0.633   0.351   1.252  0.5169  0.2794  0.7414
 6939SOL     OW32278   2.127   1.782   6.183  0.4192  0.2626  0.3118
 6939SOL    HW132279   2.082   1.844   6.241  0.2812 -0.8733  1.4228
 6939SOL    HW232280   2.069   1.715   6.149  0.9658  0.5581 -1.1910
 6940SOL     OW32281   1.972   2.775   5.711 -0.1100 -0.1179 -0.1797
 6940SOL    HW132282   2.002   2.794   5.622 -1.6520 -4.4762 -1.6027
 6940SOL    HW232283   1.949   2.865   5.737  0.1287 -0.4232  1.0728
 6941SOL     OW32284   3.540   1.249   5.683  0.2597 -0.5339  0.3816
 6941SOL    HW132285   3.623   1.293   5.702  0.1044  0.5177 -1.2536
 6941SOL    HW232286   3.539   1.184   5.752  0.6374  0.0994  0.9836
 6942SOL     OW32287   0.833   4.213   3.167 -0.2791  0.0841 -0.1777
 6942SOL    HW132288   0.829   4.262   3.249 -2.6125 -0.3030 -0.0617
 6942SOL    HW232289   0.900   4.146   3.181  1.0311  0.8382 -2.9516
 6943SOL     OW32290   4.702   3.583  13.594 -0.2780 -0.7425 -0.1199
 6943SOL    HW132291   4.721   3.543  13.679  1.0007  0.9997  0.3972
 6943SOL    HW232292   4.658   3.662  13.626 -0.7361 -0.8313 -0.5318
 6944SOL     OW32293   1.315   2.503   9.382  0.9092 -0.0244 -0.3806
 6944SOL    HW132294   1.263   2.424   9.399  0.6242  0.5499  1.4714
 6944SOL    HW232295   1.360   2.522   9.464  0.1130 -3.1968  0.8103
 6945SOL     OW32296   3.320   3.284   0.022 -0.1634  0.6395  0.1660
 6945SOL    HW132297   3.243   3.335   0.051 -1.4200 -0.6752 -0.8750
 6945SOL    HW232298   3.308   3.272  17.630  1.9356  1.5410 -0.2241
 6946SOL     OW32299   2.481   4.664   3.335  0.1969  0.1394 -0.7630
 6946SOL    HW132300   2.567   4.689   3.302 -1.7579  3.1070 -3.5334
 6946SOL    HW232301   2.432   4.704   3.264 -2.0550  1.1835  1.3828
 6947SOL     OW32302   2.221   0.245   6.470  0.1116  0.0207 -0.2045
 6947SOL    HW132303   2.271   0.289   6.538  1.1915 -0.1701 -0.8737
 6947SOL    HW232304   2.215   0.311   6.401  3.8494  0.0620 -0.4841
 6948SOL     OW32305   4.115   0.277   0.798  0.6018  0.0221  0.2757
 6948SOL    HW132306   4.173   0.267   0.873  0.0287  1.5274  0.9152
 6948SOL    HW232307   4.161   0.339   0.741 -0.8379  0.4904 -0.3776
 6949SOL     OW32308   2.084   0.729   2.722  0.1357  0.5254  0.2583
 6949SOL    HW132309   2.007   0.688   2.761 -0.8074  0.8366 -1.2359
 6949SOL    HW232310   2.043   0.773   2.647  0.8403  0.3547 -0.2261
 6950SOL     OW32311   3.996   1.636  12.264 -0.2872  0.3680  0.0081
 6950SOL    HW132312   4.085   1.619  12.232 -0.5368 -0.6918 -0.1225
 6950SOL    HW232313   3.968   1.669  12.178 -0.0595 -3.0603 -1.3732
 6951SOL     OW32314   0.730   2.154  14.500  0.0405  0.0219  0.2177
 6951SOL    HW132315   0.667   2.131  14.431 -0.5927 -2.2147  1.5358
 6951SOL    HW232316   0.781   2.214  14.446 -0.4846 -0.9833 -1.3919
 6952SOL     OW32317   2.202   2.954  16.657 -0.0662  0.3921 -0.1781
 6952SOL    HW132318   2.138   2.888  16.683  0.8148 -0.1521  0.6262
 6952SOL    HW232319   2.182   3.023  16.720 -0.0400 -0.0606  0.3180
 6953SOL     OW32320   0.535   1.033   2.500 -0.0357  0.1504  0.1495
 6953SOL    HW132321   0.475   1.102   2.473  0.2047  0.7536  1.1801
 6953SOL    HW232322   0.544   1.053   2.593 -0.9498  1.1737  0.0118
 6954SOL     OW32323   4.375   3.043   2.741 -0.2236 -0.1569  0.0420
 6954SOL    HW132324   4.307   2.982   2.713  0.5185 -1.6159  1.4073
 6954SOL    HW232325   4.375   3.102   2.666  0.0648  0.5180  0.5758
 6955SOL     OW32326   3.834   1.072   2.572  0.1240  0.9787  0.4247
 6955SOL    HW132327   3.911   1.049   2.522 -1.2032 -2.5458 -0.0095
 6955SOL    HW232328   3.786   0.989   2.561 -1.6075  1.7903  1.7986
 6956SOL     OW32329   1.077   3.590   4.279  0.2297 -0.2409 -0.7079
 6956SOL    HW132330   1.014   3.632   4.338  0.1039 -0.8006 -0.4473
 6956SOL    HW232331   1.014   3.559   4.213 -1.5324  1.1499  0.3172
 6957SOL     OW32332   4.386   0.807   3.146 -0.2495 -0.2349  0.2356
 6957SOL    HW132333   4.330   0.823   3.071  1.6033 -2.6358 -1.6499
 6957SOL    HW232334   4.328   0.806   3.223 -1.3760 -2.0959 -0.6287
 6958SOL     OW32335   1.558   4.321   2.062  0.0335  0.1775  0.3833
 6958SOL    HW132336   1.504   4.274   2.126 -1.3987  1.2726 -0.0266
 6958SOL    HW232337   1.513   4.304   1.978 -1.5428  0.9132  1.0825
 6959SOL     OW32338   4.249   4.287   0.157 -0.6516  0.3803  0.0492
 6959SOL    HW132339   4.196   4.268   0.079 -0.2327 -1.1298  0.1232
 6959SOL    HW232340   4.317   4.221   0.147 -1.6871 -0.6083 -0.4769
 6960SOL     OW32341   4.591   3.588   1.552  0.2986  0.1448  0.3168
 6960SOL    HW132342   4.500   3.581   1.581  0.5256 -0.2537  0.9243
 6960SOL    HW232343   4.582   3.671   1.505 -0.0465 -2.2221 -3.8407
 6961SOL     OW32344   2.846   0.237  10.096  0.9046 -0.1384  0.2315
 6961SOL    HW132345   2.765   0.246  10.045  0.2417 -1.1851  1.1117
 6961SOL    HW232346   2.825   0.248  10.189 -0.0751  2.8681 -0.3273
 6962SOL     OW32347   2.629   2.655   7.751 -0.1853  0.1237  0.3522
 6962SOL    HW132348   2.546   2.651   7.705  1.3488 -5.3464 -1.9464
 6962SOL    HW232349   2.635   2.569   7.794 -0.7719 -0.1213 -0.0551
 6963SOL     OW32350   3.644   4.199   5.029  0.5234 -0.4998 -0.0201
 6963SOL    HW132351   3.721   4.192   4.972  0.5607  0.2487 -0.0642
 6963SOL    HW232352   3.591   4.124   5.001 -0.5664  0.5026 -0.6178
 6964SOL     OW32353   3.547   0.300   2.503 -0.1005 -0.4965 -0.1110
 6964SOL    HW132354   3.603   0.238   2.549  0.6998 -0.2146 -0.6985
 6964SOL    HW232355   3.515   0.239   2.436 -0.8753  2.2279 -2.2391
 6965SOL     OW32356   4.188   3.585   3.873  0.4538 -0.4980  1.0107
 6965SOL    HW132357   4.221   3.495   3.877 -2.2906 -1.5712 -0.5157
 6965SOL    HW232358   4.128   3.583   3.798  2.0303 -3.4568 -0.1793
 6966SOL     OW32359   4.239   3.958   6.459  0.5278  0.4707 -0.0139
 6966SOL    HW132360   4.279   3.986   6.541 -0.2014  1.6516 -0.0598
 6966SOL    HW232361   4.192   3.881   6.493  2.0121 -0.6976 -0.6083
 6967SOL     OW32362   1.918   2.454   3.235  0.1967 -0.4815 -0.0692
 6967SOL    HW132363   1.960   2.536   3.263  0.4731 -0.7387  0.2679
 6967SOL    HW232364   1.913   2.409   3.319 -1.0300 -0.6918 -0.2656
 6968SOL     OW32365   1.988   4.696  16.434 -0.7284 -0.6290  0.2516
 6968SOL    HW132366   1.984   0.062  16.406  1.5060 -0.1387  1.5658
 6968SOL    HW232367   1.952   4.659  16.353  0.7868 -3.7893  1.0277
 6969SOL     OW32368   2.546   0.721  14.811 -0.0512  0.2029 -0.0490
 6969SOL    HW132369   2.505   0.781  14.873 -0.4237  1.5465 -1.5930
 6969SOL    HW232370   2.481   0.708  14.742 -0.6954  3.0133  0.0423
 6970SOL     OW32371   4.608   2.174   1.435  0.1016 -0.0679  0.2625
 6970SOL    HW132372   4.609   2.154   1.341 -1.3604 -0.7917  0.4003
 6970SOL    HW232373   4.513   2.180   1.448 -0.3853 -1.0437 -2.8281
 6971SOL     OW32374   1.749   2.587   5.835 -0.2483 -0.3489  0.0450
 6971SOL    HW132375   1.824   2.645   5.825  0.8276 -1.4741  1.5774
 6971SOL    HW232376   1.736   2.558   5.745 -0.2358  0.2120 -0.1339
 6972SOL     OW32377   2.687   2.107   3.722 -0.4839  0.3549 -0.1745
 6972SOL    HW132378   2.630   2.093   3.647  0.0683 -0.0266 -0.5241
 6972SOL    HW232379   2.627   2.158   3.777  2.1467  2.7160  0.5391
 6973SOL     OW32380   0.631   0.885   0.308 -0.6138  0.0303  0.6092
 6973SOL    HW132381   0.566   0.835   0.358 -0.1013 -2.2006 -0.9319
 6973SOL    HW232382   0.708   0.887   0.365  0.0724  2.0115 -0.3922
 6974SOL     OW32383   1.848   1.652   8.051 -0.2998 -0.7653 -0.3448
 6974SOL    HW132384   1.847   1.582   7.986  1.9113  0.5841 -1.8394
 6974SOL    HW232385   1.806   1.723   8.003  1.0827 -0.5749 -1.2704
 6975SOL     OW32386   0.937   4.583  10.234  0.5413 -0.4653 -1.2068
 6975SOL    HW132387   0.913   4.505  10.284  1.2097  0.8772  1.2109
 6975SOL    HW232388   0.869   4.581  10.167  2.1591  1.1358 -2.9179
 6976SOL     OW32389   2.839   1.969  11.029  0.0653 -0.4195  0.3381
 6976SOL    HW132390   2.846   1.933  11.117 -0.2592 -0.1694  0.4667
 6976SOL    HW232391   2.878   1.897  10.979  2.1899  0.0345  1.3571
 6977SOL     OW32392   4.252   2.530   1.995  0.4586 -0.0547  0.6122
 6977SOL    HW132393   4.287   2.601   2.049  1.4895 -0.4227  0.4278
 6977SOL    HW232394   4.181   2.510   2.055  0.7725 -1.2109  0.5977
 6978SOL     OW32395   4.247   2.316   6.876 -0.5282 -0.1060 -0.1013
 6978SOL    HW132396   4.261   2.318   6.971  0.4958 -0.6045 -0.2409
 6978SOL    HW232397   4.309   2.383   6.850 -0.9029  0.6755  1.0110
 6979SOL     OW32398   1.655   0.160   9.259  0.8104 -0.2591 -0.6065
 6979SOL    HW132399   1.654   0.107   9.339  0.5879  0.4002 -0.1719
 6979SOL    HW232400   1.666   0.248   9.296  0.5493  0.1862 -1.5832
 6980SOL     OW32401   4.098   2.522   8.276  0.4467 -0.3788  0.2670
 6980SOL    HW132402   4.120   2.473   8.197  2.9935  1.2709 -0.0406
 6980SOL    HW232403   4.110   2.451   8.339 -1.4111 -1.0724 -0.1577
 6981SOL     OW32404   0.805   2.715   4.398  0.2785  0.1096 -0.0586
 6981SOL    HW132405   0.813   2.620   4.398 -1.3520 -0.0160 -0.0983
 6981SOL    HW232406   0.714   2.735   4.418  0.9311  1.8249  1.2654
 6982SOL     OW32407   4.653   1.568  13.941  0.1833 -0.0219 -0.2628
 6982SOL    HW132408   4.724   1.621  13.905 -0.6107 -0.0557 -1.8891
 6982SOL    HW232409   4.648   1.503  13.871 -1.0394  3.9832 -3.8821
 6983SOL     OW32410   1.496   2.349   2.786 -0.4325  0.5727 -0.0187
 6983SOL    HW132411   1.452   2.267   2.807 -0.5603  1.0083  1.4315
 6983SOL    HW232412   1.582   2.330   2.747 -0.5787 -0.8564  0.3583
 6984SOL     OW32413   1.715   2.258   4.007 -0.2527 -0.1391  0.5489
 6984SOL    HW132414   1.629   2.217   4.005 -0.3109  0.0042  0.0704
 6984SOL    HW232415   1.710   2.315   3.930 -0.4976 -0.1864  0.5301
 6985SOL     OW32416   4.724   0.653   5.765 -0.1663  0.2145  0.2778
 6985SOL    HW132417   4.707   0.626   5.675  2.0636 -1.1318  0.2531
 6985SOL    HW232418   0.093   0.671   5.771 -0.5710  2.5048 -0.1609
 6986SOL     OW32419   1.179   4.430  15.149 -0.0298  0.4270 -0.1133
 6986SOL    HW132420   1.091   4.399  15.129 -0.2948  1.7902 -1.0481
 6986SOL    HW232421   1.219   4.425  15.062 -1.8843 -1.6073 -0.8495
 6987SOL     OW32422   1.960   0.725   1.153 -0.0038  0.3718  0.5489
 6987SOL    HW132423   1.927   0.672   1.226 -1.0283 -0.9881 -0.8927
 6987SOL    HW232424   2.029   0.663   1.131  0.5587  1.7414 -1.4715
 6988SOL     OW32425   0.741   4.458   2.825  0.6380 -0.0440 -0.0072
 6988SOL    HW132426   0.759   4.365   2.830 -0.3117  0.1147  5.4257
 6988SOL    HW232427   0.655   4.467   2.865  0.3154  0.3124 -0.7614
 6989SOL     OW32428   3.860   4.412   6.933 -0.0691  0.0181 -1.0004
 6989SOL    HW132429   3.913   4.414   6.853  0.2737 -1.1441 -0.8043
 6989SOL    HW232430   3.819   4.498   6.934 -0.1390 -0.0347  0.3946
 6990SOL     OW32431   0.347   4.220   4.057  0.2134 -0.1934  0.4509
 6990SOL    HW132432   0.361   4.299   4.109  1.0418 -0.9342  1.3552
 6990SOL    HW232433   0.278   4.169   4.099 -0.9846  0.3415 -0.8880
 6991SOL     OW32434   1.596   0.991   3.057 -0.4718 -0.0087  0.3264
 6991SOL    HW132435   1.679   0.950   3.034 -1.1186 -1.0618 -0.1128
 6991SOL    HW232436   1.569   0.967   3.145 -0.2202  0.8071  0.6287
 6992SOL     OW32437   3.094   3.911  10.168 -0.1035  0.1710  0.2816
 6992SOL    HW132438   3.076   3.990  10.116 -0.5863 -0.6385 -0.7771
 6992SOL    HW232439   3.135   3.946  10.247 -2.0241  0.7480  1.0243
 6993SOL     OW32440   1.821   2.152   9.054  0.0211 -0.3636 -0.7380
 6993SOL    HW132441   1.872   2.179   8.978 -0.1801  2.8362  0.2618
 6993SOL    HW232442   1.753   2.219   9.062  0.1520 -0.4893  1.3028
 6994SOL     OW32443   0.359   4.542   7.572  0.0635 -0.6609 -0.2829
 6994SOL    HW132444   0.295   4.595   7.525  0.5208 -1.2380 -1.5573
 6994SOL    HW232445   0.431   4.605   7.564 -1.2647  0.8493 -0.3823
 6995SOL     OW32446   1.087   4.117   6.577  0.5393  0.2421 -0.1877
 6995SOL    HW132447   1.094   4.049   6.645  0.2955  1.9612  1.5790
 6995SOL    HW232448   1.064   4.190   6.634  0.0921 -0.4228  0.4863
 6996SOL     OW32449   2.568   4.449   6.822  0.0152  0.5127  0.1314
 6996SOL    HW132450   2.571   4.509   6.896  0.3639  0.0554  0.4840
 6996SOL    HW232451   2.658   4.469   6.794 -0.5579  0.6593 -1.6238
 6997SOL     OW32452   0.110   4.086  12.613 -0.0809  0.0770 -0.0541
 6997SOL    HW132453   0.057   4.057  12.687 -0.3681  1.1057  0.1329
 6997SOL    HW232454   0.066   4.166  12.585 -0.4098 -0.2916 -0.5971
 6998SOL     OW32455   0.793   0.744  11.705 -0.0717 -0.2522 -0.0895
 6998SOL    HW132456   0.842   0.681  11.757  1.9189  0.8248 -0.6386
 6998SOL    HW232457   0.710   0.738  11.752  0.2671 -1.1451  0.3914
 6999SOL     OW32458   2.599   1.551   8.986  0.1175  0.5142 -0.4381
 6999SOL    HW132459   2.553   1.476   8.949  3.3049 -1.2715 -0.7151
 6999SOL    HW232460   2.692   1.540   8.967  0.1030  0.5956 -0.5596
 7000SOL     OW32461   3.740   0.047   8.290 -0.2870  0.1781 -0.3510
 7000SOL    HW132462   3.671   0.111   8.302  1.7783  2.3428 -0.0591
 7000SOL    HW232463   3.800   0.062   8.363  0.1716  1.1352 -0.9373
 7001SOL     OW32464   1.380   2.614   1.913 -0.2289  0.1008  0.6254
 7001SOL    HW132465   1.410   2.687   1.859 -0.8488 -1.2368 -1.4882
 7001SOL    HW232466   1.457   2.607   1.970  0.0463  0.3815  0.2855
 7002SOL     OW32467   2.364   0.935   7.238  0.4306 -0.2152  0.0629
 7002SOL    HW132468   2.319   0.965   7.160 -0.8689 -1.1954  0.4301
 7002SOL    HW232469   2.428   0.883   7.189  1.1971  1.0079 -0.2348
 7003SOL     OW32470   1.843   1.585   1.383  0.0647  0.2959  0.4650
 7003SOL    HW132471   1.870   1.558   1.471  0.6559 -1.8129 -0.3580
 7003SOL    HW232472   1.885   1.525   1.322 -0.3299  0.6673 -0.1691
 7004SOL     OW32473   2.258   1.239   4.827 -0.0747  0.4182  0.4426
 7004SOL    HW132474   2.307   1.157   4.829 -1.7745 -0.5725  1.2162
 7004SOL    HW232475   2.296   1.281   4.750 -1.6875  1.1811  0.0649
 7005SOL     OW32476   0.796   4.178   2.892  0.1581  0.2501  0.8362
 7005SOL    HW132477   0.862   4.108   2.897 -2.1549 -1.9028  1.2538
 7005SOL    HW232478   0.799   4.203   2.984  0.8612  1.6063  0.4357
 7006SOL     OW32479   3.906   1.791   2.224 -0.1884  0.3456  0.5829
 7006SOL    HW132480   3.936   1.874   2.260 -0.4569  0.7003 -0.0099
 7006SOL    HW232481   3.888   1.741   2.304  0.1525  0.2433  0.5951
 7007SOL     OW32482   1.862   2.005  17.695  0.3816 -0.7152  0.0501
 7007SOL    HW132483   1.919   2.080   0.012  1.8142 -2.1127  1.1784
 7007SOL    HW232484   1.794   2.052  17.647  0.1804 -3.8541 -2.7429
 7008SOL     OW32485   1.784   3.717   5.933  0.0348  0.2937  0.0848
 7008SOL    HW132486   1.722   3.696   5.863 -0.1732 -1.3768  0.7852
 7008SOL    HW232487   1.807   3.628   5.960  2.5125  0.9268  0.0616
 7009SOL     OW32488   0.306   2.095   1.644 -0.4566  0.0214 -0.5167
 7009SOL    HW132489   0.235   2.057   1.593 -1.6333 -0.4477  1.4959
 7009SOL    HW232490   0.378   2.043   1.608 -0.2989 -0.5380  0.6230
 7010SOL     OW32491   4.331   1.814   6.070 -0.6286 -0.4093  0.4655
 7010SOL    HW132492   4.296   1.904   6.065 -1.0232 -0.5299  1.0161
 7010SOL    HW232493   4.253   1.758   6.067  0.4901 -1.9941  1.0513
 7011SOL     OW32494   0.454   4.262   7.833  0.8159 -0.2671  0.4430
 7011SOL    HW132495   0.375   4.313   7.813 -0.9686 -3.9540 -2.0482
 7011SOL    HW232496   0.483   4.297   7.917  1.3408 -0.0277  0.1618
 7012SOL     OW32497   2.518   2.827   5.472 -0.5534 -0.1879 -0.4928
 7012SOL    HW132498   2.479   2.820   5.385 -0.2295 -3.1444 -0.4087
 7012SOL    HW232499   2.438   2.813   5.524 -1.0152  0.9524 -0.9155
 7013SOL     OW32500   3.300   1.634   6.473  0.1692 -0.0272 -0.0055
 7013SOL    HW132501   3.375   1.674   6.516  0.5394 -0.1492 -0.5337
 7013SOL    HW232502   3.352   1.576   6.417 -1.3009 -0.4572 -0.9445
 7014SOL     OW32503   0.230   2.813  12.199  0.4721 -0.4012  0.1129
 7014SOL    HW132504   0.202   2.845  12.285  0.5704 -0.3198  0.1146
 7014SOL    HW232505   0.316   2.786  12.231  1.2571  2.3291  0.2907
 7015SOL     OW32506   0.682   1.227   8.788 -0.3940 -0.1001 -0.4577
 7015SOL    HW132507   0.596   1.186   8.786  0.1462 -1.2215 -0.6498
 7015SOL    HW232508   0.733   1.163   8.739  0.1461 -0.4572  0.5796
 7016SOL     OW32509   1.440   3.407  15.905 -0.5184 -0.3300 -0.2342
 7016SOL    HW132510   1.451   3.463  15.828  1.2037  2.0520  1.7362
 7016SOL    HW232511   1.428   3.475  15.972 -0.0508 -1.8155  1.3696
 7017SOL     OW32512   2.260   4.282  13.793  0.5464 -0.0153 -0.1688
 7017SOL    HW132513   2.170   4.299  13.819  0.4171 -0.2662 -0.4496
 7017SOL    HW232514   2.274   4.335  13.714 -1.1719  0.9786  0.2002
 7018SOL     OW32515   2.986   2.495   1.643 -0.0068 -0.9768 -0.5951
 7018SOL    HW132516   2.898   2.486   1.679  0.2727  0.3689  0.3934
 7018SOL    HW232517   3.011   2.402   1.638 -1.1254 -1.3128  0.1870
 7019SOL     OW32518   0.008   1.576  13.196  0.2931  0.2398  0.6433
 7019SOL    HW132519   4.714   1.608  13.108  3.7551 -0.5636 -0.4453
 7019SOL    HW232520   4.687   1.646  13.241  1.4739  0.1283  2.0490
 7020SOL     OW32521   2.252   4.260   7.337 -0.4326 -0.4927 -0.2188
 7020SOL    HW132522   2.170   4.214   7.318 -0.4402  0.0112 -1.4196
 7020SOL    HW232523   2.313   4.192   7.365 -1.3390 -1.2389 -0.0696
 7021SOL     OW32524   1.977   1.067   1.502  0.3775 -0.0263  0.5642
 7021SOL    HW132525   2.015   1.154   1.515  1.5230 -0.3663 -0.4839
 7021SOL    HW232526   2.049   1.019   1.462  0.5577  0.7370 -0.0447
 7022SOL     OW32527   4.392   1.542  10.204 -0.1325 -0.5978 -0.2880
 7022SOL    HW132528   4.446   1.476  10.248  1.8387  0.7941 -0.6306
 7022SOL    HW232529   4.455   1.614  10.206 -0.6873  0.0059 -3.6193
 7023SOL     OW32530   2.902   1.880   4.288 -0.5728 -0.2326  0.1579
 7023SOL    HW132531   2.895   1.961   4.237 -1.0458  1.1826  2.5062
 7023SOL    HW232532   2.933   1.829   4.212 -0.1432  1.4797 -0.8283
 7024SOL     OW32533   3.161   1.960   7.550 -0.3303 -0.7058 -0.1647
 7024SOL    HW132534   3.160   1.947   7.456  2.3299  0.7371 -0.3979
 7024SOL    HW232535   3.101   1.889   7.572 -0.5002 -1.2632 -2.4891
 7025SOL     OW32536   2.875   3.050   9.068 -0.3391  0.2024  0.3107
 7025SOL    HW132537   2.879   3.079   9.159  0.6468 -0.2086  0.3993
 7025SOL    HW232538   2.780   3.046   9.059 -0.2276 -0.4603 -0.6236
 7026SOL     OW32539   1.957   3.635  16.578  0.4304  0.1014  0.3499
 7026SOL    HW132540   1.880   3.677  16.539 -1.4358 -0.2858  3.6247
 7026SOL    HW232541   1.929   3.558  16.627 -1.2852 -0.6185 -1.7479
 7027SOL     OW32542   2.164   1.595   2.447 -0.1114 -0.2520  0.3052
 7027SOL    HW132543   2.153   1.620   2.356 -2.5505 -2.1464  0.0903
 7027SOL    HW232544   2.258   1.579   2.452 -0.0962 -0.8874 -1.9877
 7028SOL     OW32545   0.247   2.997   6.089  0.0984 -0.2570  0.7876
 7028SOL    HW132546   0.212   2.989   6.000  1.6306  0.9989  0.0618
 7028SOL    HW232547   0.309   3.068   6.073  0.2325 -0.2760  1.2150
 7029SOL     OW32548   2.226   3.656  10.402  0.3504 -0.2034 -0.3279
 7029SOL    HW132549   2.281   3.734  10.411 -0.6767  0.2707  1.7598
 7029SOL    HW232550   2.186   3.679  10.318  0.8762 -1.0490 -0.8144
 7030SOL     OW32551   4.709   3.346   3.085  0.0284 -0.0796 -0.1327
 7030SOL    HW132552   0.067   3.353   3.037 -0.0597  2.2655  0.0627
 7030SOL    HW232553   0.015   3.341   3.175 -1.0046 -3.9957  0.0199
 7031SOL     OW32554   2.198   3.877   2.610 -0.0253 -0.1623  0.1473
 7031SOL    HW132555   2.128   3.877   2.545 -1.3322 -1.4027  1.5642
 7031SOL    HW232556   2.218   3.788   2.641 -1.1322  0.3320  2.3370
 7032SOL     OW32557   4.247   0.272   5.277  0.0583 -0.7052  0.6271
 7032SOL    HW132558   4.214   0.253   5.189 -2.5152  0.9509  1.2281
 7032SOL    HW232559   4.342   0.271   5.260  0.0280  1.5294  0.2953
 7033SOL     OW32560   0.450   3.153   5.850  0.0814  0.5259  0.4331
 7033SOL    HW132561   0.521   3.131   5.789  0.6782 -0.1623  1.3836
 7033SOL    HW232562   0.507   3.138   5.925 -1.6582  1.5525  1.9615
 7034SOL     OW32563   4.367   1.416   5.307  0.0340  0.3956 -0.1152
 7034SOL    HW132564   4.325   1.447   5.387 -1.1137  1.6206 -1.1853
 7034SOL    HW232565   4.437   1.359   5.337  1.3309  3.5087  2.8363
 7035SOL     OW32566   4.120   0.529   7.840  0.0503 -0.1754  0.4835
 7035SOL    HW132567   4.152   0.445   7.873  2.3644  0.0294 -1.2630
 7035SOL    HW232568   4.036   0.531   7.886 -0.8304  0.8613 -1.1664
 7036SOL     OW32569   3.514   2.010   9.288  0.0955  0.0587 -0.1385
 7036SOL    HW132570   3.582   1.955   9.327 -0.0318  0.9823  1.3513
 7036SOL    HW232571   3.541   2.099   9.307  1.2193 -0.5988  1.3496
 7037SOL     OW32572   0.526   0.065   4.777 -0.0057  0.5112 -0.1080
 7037SOL    HW132573   0.443   0.103   4.748 -0.5950 -0.8253 -0.1391
 7037SOL    HW232574   0.584   0.140   4.791  0.2822 -0.1097  2.0320
 7038SOL     OW32575   2.611   1.768   7.274  0.5277 -0.2868 -0.0522
 7038SOL    HW132576   2.700   1.756   7.243  1.6430  0.0661  3.0263
 7038SOL    HW232577   2.583   1.682   7.306  0.7157 -0.2967  0.0806
 7039SOL     OW32578   1.022   2.664   6.177  0.1436 -0.1459 -0.2277
 7039SOL    HW132579   1.116   2.680   6.165  0.2539  0.6450  1.7055
 7039SOL    HW232580   1.027   2.574   6.208 -1.6376  0.0105  0.5228
 7040SOL     OW32581   2.549   0.538   9.146 -0.0021  0.3994 -0.3677
 7040SOL    HW132582   2.621   0.568   9.201  0.1367  0.2796 -0.4838
 7040SOL    HW232583   2.478   0.564   9.204  0.8374  1.6388  0.0949
 7041SOL     OW32584   4.105   3.454   7.246  0.8591  0.1436 -0.4537
 7041SOL    HW132585   4.028   3.457   7.190  1.7841  1.3752 -1.6752
 7041SOL    HW232586   4.071   3.487   7.330  0.0515  0.4375 -0.9012
 7042SOL     OW32587   4.374   4.447   4.797 -0.1784  0.5636  0.2954
 7042SOL    HW132588   4.447   4.508   4.788 -0.0338  0.2871 -0.3926
 7042SOL    HW232589   4.309   4.507   4.833 -0.4908  1.6733 -2.1206
 7043SOL     OW32590   2.961   1.680   9.172 -0.3765  0.5555  0.1440
 7043SOL    HW132591   2.940   1.608   9.112 -0.0877  0.2730  0.3876
 7043SOL    HW232592   3.023   1.719   9.111 -0.9913  0.2294 -0.6915
 7044SOL     OW32593   3.047   3.944   2.407 -0.3845  0.2811 -0.2297
 7044SOL    HW132594   2.957   3.975   2.400 -0.9501 -1.1792  0.7306
 7044SOL    HW232595   3.046   3.849   2.422  0.1943  0.0061 -1.8415
 7045SOL     OW32596   1.534   3.005  14.076 -0.1224  0.6267 -0.2401
 7045SOL    HW132597   1.455   2.951  14.066  0.2895 -0.1082  0.4273
 7045SOL    HW232598   1.564   3.010  13.985  2.7434 -0.9871  0.6173
 7046SOL     OW32599   1.826   3.032   2.546  0.2537  0.0436  0.4090
 7046SOL    HW132600   1.823   2.968   2.475  0.4379  0.2854  0.1855
 7046SOL    HW232601   1.816   2.979   2.625  0.1393 -0.3496  0.1287
 7047SOL     OW32602   4.087   2.076   8.549 -0.2718 -0.0154  0.4713
 7047SOL    HW132603   4.091   1.981   8.536  1.0823 -0.0252  0.9613
 7047SOL    HW232604   4.014   2.078   8.611 -0.9676  0.4253 -0.3640
 7048SOL     OW32605   4.275   0.775   6.836  0.4458  0.3031  0.2333
 7048SOL    HW132606   4.266   0.837   6.763  0.8982 -0.8181 -0.7884
 7048SOL    HW232607   4.267   0.686   6.801 -1.6437  0.5281  0.1224
 7049SOL     OW32608   1.931   4.370   8.438  0.3633  0.0202 -0.6373
 7049SOL    HW132609   1.858   4.413   8.481 -0.6780  0.4404 -2.7994
 7049SOL    HW232610   1.901   4.280   8.449  1.9118 -0.2188  1.5116
 7050SOL     OW32611   0.509   2.456   7.420 -0.1246  0.0720  0.8507
 7050SOL    HW132612   0.513   2.550   7.433  0.4739  0.1129  0.3535
 7050SOL    HW232613   0.432   2.434   7.472 -0.8600  0.9955  0.1642
 7051SOL     OW32614   2.253   2.621   2.362 -0.2334  1.0528  0.1786
 7051SOL    HW132615   2.205   2.544   2.330 -0.1342  1.1957 -0.3243
 7051SOL    HW232616   2.310   2.590   2.432 -0.3189 -1.1050 -0.7093
 7052SOL     OW32617   0.605   3.826   5.162 -0.6168  0.1228  0.2951
 7052SOL    HW132618   0.518   3.809   5.125 -0.2337  0.5837 -0.8200
 7052SOL    HW232619   0.607   3.793   5.252 -1.4113 -1.0191 -0.1099
 7053SOL     OW32620   1.817   1.065  13.130  0.1329  0.7308  0.0233
 7053SOL    HW132621   1.756   1.068  13.056  1.2599  0.9945 -0.9009
 7053SOL    HW232622   1.758   1.093  13.199  1.7646  1.4942  1.0977
 7054SOL     OW32623   3.396   2.400   9.451  0.5578 -0.0425  0.3675
 7054SOL    HW132624   3.429   2.341   9.383  0.7568  0.6364 -0.1287
 7054SOL    HW232625   3.476   2.444   9.477  1.0930 -1.4215  1.0437
 7055SOL     OW32626   1.013   4.515   2.675  0.3292 -0.6106  0.5935
 7055SOL    HW132627   0.920   4.516   2.696  0.6442  1.5384  1.8874
 7055SOL    HW232628   1.046   4.533   2.763  2.8282  1.0350 -0.6598
 7056SOL     OW32629   1.114   4.173   7.778 -0.2311  0.4529 -0.7987
 7056SOL    HW132630   1.073   4.219   7.851  1.9061  0.0631  0.6428
 7056SOL    HW232631   1.169   4.104   7.814 -0.7116 -1.0794 -3.0056
 7057SOL     OW32632   3.773   2.253   9.108  0.0847  0.0970 -0.2102
 7057SOL    HW132633   3.712   2.196   9.062  0.9281  0.3986 -1.7118
 7057SOL    HW232634   3.838   2.189   9.138 -1.2611 -1.4955 -0.7124
 7058SOL     OW32635   1.070   0.851   9.432 -0.0391 -0.0176  0.0894
 7058SOL    HW132636   1.159   0.837   9.401 -1.6105 -1.8250 -3.6516
 7058SOL    HW232637   1.086   0.927   9.488 -1.9987 -0.8050  1.7156
 7059SOL     OW32638   1.072   2.611  11.716  0.5214 -0.4162  0.4524
 7059SOL    HW132639   1.137   2.602  11.647  0.2178  0.2516  0.0860
 7059SOL    HW232640   1.033   2.694  11.690  0.0338 -0.7799  0.0329
 7060SOL     OW32641   1.079   2.467  13.074  0.2457 -0.5781  0.1177
 7060SOL    HW132642   1.098   2.528  13.145 -3.1872 -1.6625  1.9550
 7060SOL    HW232643   0.988   2.492  13.054  0.5911  1.3028  0.8860
 7061SOL     OW32644   2.981   0.504  11.299 -0.2998  0.2579 -0.4185
 7061SOL    HW132645   2.964   0.598  11.292 -0.1843  0.2827 -0.3615
 7061SOL    HW232646   3.047   0.506  11.368 -1.0398 -0.9598  0.3233
 7062SOL     OW32647   2.981   4.549   4.792  0.2607 -0.3568  0.3599
 7062SOL    HW132648   3.001   4.465   4.832 -0.3821  0.5434  2.6021
 7062SOL    HW232649   3.016   4.531   4.705  1.5551 -0.9109  1.0083
 7063SOL     OW32650   4.659   0.042   8.514  0.1848  0.2790  0.0140
 7063SOL    HW132651   0.001   4.701   8.504  1.3992  1.6761 -1.1050
 7063SOL    HW232652   4.611   0.000   8.586 -0.3867 -1.2706 -1.2801
 7064SOL     OW32653   1.586   3.895   7.650  0.1835 -0.5518 -0.2572
 7064SOL    HW132654   1.547   3.972   7.607 -0.7008 -0.2292  1.1175
 7064SOL    HW232655   1.679   3.917   7.650 -0.3563  1.7397 -1.2928
 7065SOL     OW32656   0.719   3.137   7.701  0.4220 -0.2924  0.3875
 7065SOL    HW132657   0.761   3.176   7.625 -0.6464  0.3357  0.1051
 7065SOL    HW232658   0.788   3.134   7.768 -1.0036  3.5212  2.0714
 7066SOL     OW32659   2.433   2.871   7.581  0.1018 -0.1080 -0.3514
 7066SOL    HW132660   2.341   2.881   7.556 -0.3204  0.4786  1.3834
 7066SOL    HW232661   2.427   2.791   7.634 -0.4441 -1.0309 -1.8259
 7067SOL     OW32662   0.704   2.904   8.497  0.2783 -0.4859  0.0359
 7067SOL    HW132663   0.742   2.833   8.446 -1.8292 -2.3415  1.0725
 7067SOL    HW232664   0.613   2.883   8.479  0.4775 -2.2826  1.1291
 7068SOL     OW32665   2.407   4.574   3.969 -0.2874 -0.1254  0.2336
 7068SOL    HW132666   2.335   4.524   4.006 -1.1764 -0.3907 -1.8918
 7068SOL    HW232667   2.362   4.656   3.991  2.9127  1.4145  1.1239
 7069SOL     OW32668   1.638   2.531  13.382 -0.4272  0.0919  0.1105
 7069SOL    HW132669   1.620   2.501  13.293  1.7074 -1.1641  0.0918
 7069SOL    HW232670   1.563   2.501  13.433 -0.1029 -0.4700  0.2664
 7070SOL     OW32671   4.010   1.159   5.360 -0.1784 -0.4863 -0.5536
 7070SOL    HW132672   4.105   1.158   5.345 -0.1221 -4.5535  0.1708
 7070SOL    HW232673   3.997   1.239   5.411  2.0925 -0.5530  0.1474
 7071SOL     OW32674   1.972   4.264  11.676  0.1765 -0.4359  0.5341
 7071SOL    HW132675   1.909   4.315  11.728  0.5942  1.2498 -0.5868
 7071SOL    HW232676   2.048   4.321  11.690 -1.1340  1.1757  1.1552
 7072SOL     OW32677   1.170   1.834  15.233  0.0333  0.3099  0.6621
 7072SOL    HW132678   1.108   1.844  15.160 -0.9251 -1.1994  1.2547
 7072SOL    HW232679   1.208   1.921  15.246  0.1260  0.3318  0.2465
 7073SOL     OW32680   1.431   2.259   9.609  0.6320  0.1378 -0.2925
 7073SOL    HW132681   1.524   2.284   9.603  0.7426 -0.8143 -2.5164
 7073SOL    HW232682   1.387   2.343   9.623 -0.9688 -0.9071  0.8615
 7074SOL     OW32683   2.939   1.487   8.345 -0.2280  0.2584  0.0273
 7074SOL    HW132684   3.004   1.553   8.369 -1.4360  1.6693 -0.6142
 7074SOL    HW232685   3.000   1.422   8.309 -1.2305 -0.4842 -0.3513
 7075SOL     OW32686   3.421   2.678   3.498 -0.2801 -0.1334  0.0309
 7075SOL    HW132687   3.411   2.633   3.414  0.3523  0.8713 -0.5823
 7075SOL    HW232688   3.383   2.617   3.561 -1.9387  0.7209 -0.1335
 7076SOL     OW32689   1.235   1.683  14.089  0.3055  0.1124  0.1077
 7076SOL    HW132690   1.217   1.691  14.183  0.2226  0.3043  0.0758
 7076SOL    HW232691   1.231   1.587  14.085  0.4435  0.0767  0.8003
 7077SOL     OW32692   4.675   2.033   4.702 -0.0833 -0.0095 -0.2635
 7077SOL    HW132693   4.722   2.094   4.758 -2.2189  1.1417  0.2651
 7077SOL    HW232694   4.669   1.956   4.759 -3.1689  1.3888  1.3271
 7078SOL     OW32695   0.066   3.323   2.198  0.2113  0.2844  0.2797
 7078SOL    HW132696   0.136   3.295   2.140 -0.7957  1.3937 -1.4490
 7078SOL    HW232697   0.094   3.414   2.210 -0.8219  0.3700  2.1723
 7079SOL     OW32698   0.463   3.002  15.262  0.1443 -0.4397 -0.2841
 7079SOL    HW132699   0.432   2.988  15.173  0.6300 -0.1482 -0.4953
 7079SOL    HW232700   0.453   3.097  15.269  0.0096 -0.3325 -2.0528
 7080SOL     OW32701   4.653   1.561  15.358  0.6100 -0.4138 -0.0961
 7080SOL    HW132702   4.633   1.655  15.357  1.9024 -0.1380 -0.7130
 7080SOL    HW232703   4.596   1.542  15.432  1.0445 -2.5842 -0.3208
 7081SOL     OW32704   3.101   2.344   6.648 -0.4768  0.1128 -0.1095
 7081SOL    HW132705   3.133   2.423   6.691 -0.6504  0.1549 -0.0577
 7081SOL    HW232706   3.021   2.372   6.604 -0.8878  0.0627  0.6013
 7082SOL     OW32707   1.589   1.664  13.551 -0.4911 -0.4051 -0.2802
 7082SOL    HW132708   1.589   1.656  13.456 -0.3278 -1.1037 -0.2204
 7082SOL    HW232709   1.517   1.604  13.571 -0.7219 -0.5824 -1.6408
 7083SOL     OW32710   0.807   0.512   3.967  0.6778  0.0050 -0.2651
 7083SOL    HW132711   0.784   0.432   3.919  2.9637 -0.1484 -1.0862
 7083SOL    HW232712   0.880   0.543   3.913  1.1043  0.6333  0.6825
 7084SOL     OW32713   2.468   4.438  14.792 -0.1546 -0.3642 -0.6643
 7084SOL    HW132714   2.404   4.510  14.787 -0.3577 -0.5227 -0.3606
 7084SOL    HW232715   2.495   4.440  14.884 -0.0591 -0.8997 -0.6803
 7085SOL     OW32716   2.350   3.265   5.349  0.1341  0.2636 -0.1698
 7085SOL    HW132717   2.400   3.233   5.424 -1.2472 -2.0222 -0.2272
 7085SOL    HW232718   2.310   3.183   5.321  3.7590 -1.4405 -0.3420
 7086SOL     OW32719   1.875   0.751   0.848  0.6941 -0.2851  0.5750
 7086SOL    HW132720   1.820   0.692   0.901  0.4579 -0.8487 -0.2992
 7086SOL    HW232721   1.813   0.795   0.790 -1.6326 -0.4856  2.8707
 7087SOL     OW32722   0.174   3.832   0.181 -0.2599 -0.5514  0.4312
 7087SOL    HW132723   0.201   3.849   0.272 -0.3403  0.2321  0.3044
 7087SOL    HW232724   0.103   3.778   0.216 -0.8760 -0.0095  0.0262
 7088SOL     OW32725   1.265   2.005   8.975  0.4632 -0.3197 -0.0531
 7088SOL    HW132726   1.359   1.993   8.961  0.8486  1.0630  1.4108
 7088SOL    HW232727   1.266   1.974   9.065  1.0049  1.6503  0.6345
 7089SOL     OW32728   0.134   2.265  16.284 -0.6241  0.1718 -0.2778
 7089SOL    HW132729   0.119   2.325  16.211  0.9681 -0.4302 -1.1076
 7089SOL    HW232730   0.132   2.182  16.237 -1.0475  1.1291 -1.9230
 7090SOL     OW32731   3.265   1.144   5.353 -0.0034 -0.2596  0.2204
 7090SOL    HW132732   3.360   1.136   5.358  0.3380  2.9599 -1.1867
 7090SOL    HW232733   3.252   1.167   5.261  0.6366 -0.1464  0.1582
 7091SOL     OW32734   2.362   0.462   1.949  0.0468 -0.3736 -0.2594
 7091SOL    HW132735   2.366   0.505   2.034 -0.1308  1.2855 -1.0838
 7091SOL    HW232736   2.298   0.393   1.964  0.4919 -0.1021  2.7962
 7092SOL     OW32737   3.769   1.145   6.200 -0.4259  0.2320 -0.1894
 7092SOL    HW132738   3.688   1.095   6.197  0.6008 -1.4497 -0.0240
 7092SOL    HW232739   3.798   1.097   6.278 -2.3206  0.5286  0.6849
 7093SOL     OW32740   0.985   0.998  12.014 -0.0482 -0.2090 -0.0006
 7093SOL    HW132741   0.909   0.943  12.030  1.0798 -0.8419  3.0482
 7093SOL    HW232742   0.950   1.069  11.960 -0.4538  0.0411  0.5961
 7094SOL     OW32743   2.113   1.071  13.564  0.5025  0.4070 -0.1978
 7094SOL    HW132744   2.101   1.104  13.475 -3.0472  0.0156  0.1592
 7094SOL    HW232745   2.036   1.098  13.613  0.5054 -1.9445  1.1202
 7095SOL     OW32746   2.813   3.521  12.028  0.4103  0.4547  0.0252
 7095SOL    HW132747   2.812   3.528  11.933  0.2668  1.2327  0.0810
 7095SOL    HW232748   2.887   3.466  12.053 -2.0136 -2.1557  1.5083
 7096SOL     OW32749   3.562   2.347   3.990  0.5951 -0.1481  0.0204
 7096SOL    HW132750   3.579   2.272   4.047  1.5403 -0.5753 -0.8115
 7096SOL    HW232751   3.468   2.363   3.999  0.5346 -1.2847  1.3652
 7097SOL     OW32752   1.101   0.731   2.755  0.4142 -0.0132 -0.2193
 7097SOL    HW132753   1.030   0.736   2.691  0.1098  1.1619  0.2237
 7097SOL    HW232754   1.123   0.641   2.731 -2.4770 -0.2322 -2.0615
 7098SOL     OW32755   3.420   4.188   4.569 -0.7660 -0.0179 -0.3041
 7098SOL    HW132756   3.327   4.174   4.586 -0.5712 -0.7666  0.1373
 7098SOL    HW232757   3.413   4.254   4.500 -0.1262 -0.0159 -0.3660
 7099SOL     OW32758   4.096   1.611   8.063 -0.2042 -1.0508 -0.5586
 7099SOL    HW132759   4.072   1.581   7.975  0.8922  0.1415 -1.2724
 7099SOL    HW232760   4.033   1.563   8.117  0.8310 -2.8853 -1.0130
 7100SOL     OW32761   2.789   0.847   6.133  0.0538  0.0333 -0.4850
 7100SOL    HW132762   2.756   0.797   6.208  0.3427 -0.0229 -0.3946
 7100SOL    HW232763   2.720   0.821   6.073  0.5417 -0.5269 -0.8042
 7101SOL     OW32764   0.051   0.600   4.866 -0.0913 -1.1458 -0.1021
 7101SOL    HW132765   0.007   0.522   4.832 -0.0531 -0.9084 -0.6931
 7101SOL    HW232766   0.099   0.637   4.792 -0.6947 -1.7397 -0.7808
 7102SOL     OW32767   1.505   1.910   8.954 -0.6769  0.0234 -0.0616
 7102SOL    HW132768   1.564   1.891   8.882 -5.0821  0.6481 -3.8684
 7102SOL    HW232769   1.541   1.845   9.014 -2.4397 -1.1777 -0.2911
 7103SOL     OW32770   2.004   0.575   7.835  0.0947 -0.6034  0.1085
 7103SOL    HW132771   1.982   0.484   7.817  0.2731 -0.7699  0.7180
 7103SOL    HW232772   2.096   0.565   7.809  0.2255 -2.2441  1.2121
 7104SOL     OW32773   1.732   2.434  17.634 -0.8537  0.5763  0.3757
 7104SOL    HW132774   1.764   2.376  17.565 -0.5850 -0.9079  1.7418
 7104SOL    HW232775   1.791   2.507  17.615 -0.9654  0.5293 -0.1495
 7105SOL     OW32776   0.819   4.636   7.962  0.1775  0.3099  0.1758
 7105SOL    HW132777   0.821   4.622   8.057 -4.6490  0.3322  0.2741
 7105SOL    HW232778   0.858   4.554   7.931 -1.4471  0.0869 -1.3180
 7106SOL     OW32779   2.299   0.518  14.833 -0.4116  0.0247 -0.2872
 7106SOL    HW132780   2.338   0.517  14.746 -0.6659  1.3688 -0.4236
 7106SOL    HW232781   2.365   0.475  14.887 -1.6777 -2.5554 -0.8092
 7107SOL     OW32782   1.697   4.326   5.515 -0.3037  0.2431  0.0015
 7107SOL    HW132783   1.649   4.402   5.481  2.2271  2.1144  0.6680
 7107SOL    HW232784   1.658   4.320   5.602  1.5628  1.3835  0.9060
 7108SOL     OW32785   3.299   3.319  12.834 -0.2256 -0.3301 -0.1119
 7108SOL    HW132786   3.267   3.398  12.790  0.0163 -1.2197 -1.8836
 7108SOL    HW232787   3.389   3.348  12.851  0.0241 -1.3534  0.3115
 7109SOL     OW32788   4.490   1.546  14.520  0.4165 -0.9023 -0.7566
 7109SOL    HW132789   4.429   1.557  14.446 -0.0971  2.0138  0.1174
 7109SOL    HW232790   4.542   1.473  14.487  3.3297  0.3476  1.1015
 7110SOL     OW32791   0.053   0.109   4.201 -0.2585  0.3903 -0.2428
 7110SOL    HW132792   0.034   0.197   4.167  1.5386  1.1481  0.7108
 7110SOL    HW232793   4.707   0.094   4.263  0.4341  0.0849  0.4844
 7111SOL     OW32794   0.384   0.272  15.024 -0.5381 -0.5847 -0.2903
 7111SOL    HW132795   0.310   0.318  14.983  0.3556  1.0573 -0.0665
 7111SOL    HW232796   0.334   0.201  15.064 -0.9767 -0.1016  0.0273
 7112SOL     OW32797   0.642   3.517  10.884  0.1552  0.3942 -0.4007
 7112SOL    HW132798   0.581   3.443  10.893 -1.0908  1.3204 -1.1775
 7112SOL    HW232799   0.632   3.561  10.968 -5.0614 -1.2576 -0.1606
 7113SOL     OW32800   4.500   1.111  10.048 -0.2018 -0.0108 -0.1616
 7113SOL    HW132801   4.440   1.184  10.058  1.3454  1.0918  1.0158
 7113SOL    HW232802   4.546   1.105  10.132 -2.1978 -1.1121  0.8531
 7114SOL     OW32803   1.315   1.320   5.942 -0.2778  0.6934 -0.2636
 7114SOL    HW132804   1.266   1.342   5.862 -0.8457 -0.0613 -0.1186
 7114SOL    HW232805   1.360   1.243   5.907  0.8571  1.2057  0.0528
 7115SOL     OW32806   1.557   3.701   3.137 -0.0636  0.4427  0.2492
 7115SOL    HW132807   1.619   3.636   3.106 -0.0868  0.6811 -0.3021
 7115SOL    HW232808   1.599   3.784   3.114  2.5274 -1.1004 -0.4932
 7116SOL     OW32809   0.041   1.031  15.531 -0.2370  0.2767  0.5403
 7116SOL    HW132810   0.020   1.094  15.462  1.6197  1.5499  1.1402
 7116SOL    HW232811   0.018   1.086  15.605 -0.5988  0.7437  0.0819
 7117SOL     OW32812   3.065   0.091   4.597  0.2097 -0.3254  0.1251
 7117SOL    HW132813   3.041   0.005   4.630 -1.1420 -0.1537 -0.4282
 7117SOL    HW232814   2.987   0.145   4.603 -0.4861 -1.0590 -2.5331
 7118SOL     OW32815   0.555   4.004  11.541  0.1514 -0.3381 -0.2064
 7118SOL    HW132816   0.582   4.094  11.526  0.4222  0.2170  3.6666
 7118SOL    HW232817   0.466   4.019  11.573 -0.1260 -0.8721 -0.7117
 7119SOL     OW32818   0.895   1.441  15.695  0.3028 -0.1218 -0.8969
 7119SOL    HW132819   0.921   1.367  15.641 -0.0836 -1.8012  1.2034
 7119SOL    HW232820   0.860   1.402  15.775 -0.7694  3.3326  0.3294
 7120SOL     OW32821   4.310   3.669   7.512 -0.0242  0.1956 -0.0919
 7120SOL    HW132822   4.273   3.734   7.572 -0.5396  0.1765 -0.3954
 7120SOL    HW232823   4.254   3.592   7.520 -1.1838  1.0487 -0.1504
 7121SOL     OW32824   4.105   2.566   7.126  0.0516 -0.1720 -0.5914
 7121SOL    HW132825   4.194   2.555   7.093  0.4638  1.7163 -0.1108
 7121SOL    HW232826   4.096   2.490   7.183  3.6476 -2.5163 -3.1594
 7122SOL     OW32827   1.163   2.757   0.502  0.4201  0.2936 -0.3784
 7122SOL    HW132828   1.144   2.666   0.481 -1.1383  0.5615 -0.1601
 7122SOL    HW232829   1.088   2.775   0.560  1.0805  0.8408  0.3111
 7123SOL     OW32830   2.247   2.701   3.968  0.5097  0.2839  0.2568
 7123SOL    HW132831   2.340   2.684   3.982  0.5825  0.3987 -0.1028
 7123SOL    HW232832   2.251   2.792   3.939  0.1226  0.4337  0.6714
 7124SOL     OW32833   3.092   1.999   2.369  0.3170 -0.0960  0.2034
 7124SOL    HW132834   3.128   2.046   2.444 -1.9834  0.0299  1.2135
 7124SOL    HW232835   3.118   1.908   2.386 -2.0449 -1.1648 -1.9127
 7125SOL     OW32836   1.976   3.466   1.448 -0.3455 -0.3434  1.1611
 7125SOL    HW132837   1.986   3.535   1.383 -0.5336  1.3353  2.8917
 7125SOL    HW232838   1.928   3.505   1.521 -1.6040  3.9016 -1.9602
 7126SOL     OW32839   1.953   3.032   2.028 -0.4871 -0.1600 -0.4301
 7126SOL    HW132840   1.901   3.110   2.046  1.9244  1.3578  0.0453
 7126SOL    HW232841   1.904   2.957   2.061 -1.6853  1.2811  1.0143
 7127SOL     OW32842   2.457   4.313   8.408  0.1577 -0.4062  0.6712
 7127SOL    HW132843   2.364   4.296   8.421 -0.3091  3.1701  2.0204
 7127SOL    HW232844   2.501   4.312   8.494  0.7817  2.2632  0.3983
 7128SOL     OW32845   4.299   1.352   8.304 -0.8152  0.0253  0.0114
 7128SOL    HW132846   4.233   1.291   8.339 -0.6366 -0.3206 -0.2543
 7128SOL    HW232847   4.238   1.423   8.286  2.3953  2.3283 -1.6489
 7129SOL     OW32848   0.846   2.675   4.702  0.0739 -0.3137 -0.2708
 7129SOL    HW132849   0.812   2.757   4.666  1.8088 -0.4515 -2.2393
 7129SOL    HW232850   0.942   2.684   4.697  0.2849 -2.4457 -0.1542
 7130SOL     OW32851   2.829   1.623  11.214 -0.3411 -0.1121  0.6380
 7130SOL    HW132852   2.826   1.598  11.306 -0.3413 -0.1564  0.6262
 7130SOL    HW232853   2.771   1.699  11.219  0.2675  0.3006  1.4104
 7131SOL     OW32854   0.830   0.553   7.212  0.2124 -0.2112 -0.2813
 7131SOL    HW132855   0.900   0.535   7.275 -1.1903  0.6181  1.5029
 7131SOL    HW232856   0.786   0.624   7.258  0.6022  0.1173 -0.4188
 7132SOL     OW32857   0.985   0.734   5.372  0.0613  0.4226 -0.8898
 7132SOL    HW132858   1.022   0.820   5.393  1.3935 -1.1032  3.0690
 7132SOL    HW232859   0.989   0.681   5.452 -3.8083  2.4682  0.6404
 7133SOL     OW32860   3.679   1.597   8.979  0.2550 -0.0762 -0.1904
 7133SOL    HW132861   3.717   1.564   9.061 -1.5491  0.8445  0.9992
 7133SOL    HW232862   3.591   1.565   8.995 -1.2242  2.9256 -2.3937
 7134SOL     OW32863   2.535   0.005   5.598  0.2058  0.3730  0.4261
 7134SOL    HW132864   2.624   0.032   5.577 -0.9356  2.9833 -1.0903
 7134SOL    HW232865   2.516   0.039   5.686  1.1320  1.1946  0.3158
 7135SOL     OW32866   3.422   0.904   3.702 -0.1729  0.4727 -0.3249
 7135SOL    HW132867   3.476   0.825   3.707  0.9277  1.3056  0.9800
 7135SOL    HW232868   3.431   0.932   3.611 -0.7071  1.6202 -0.0206
 7136SOL     OW32869   3.307   2.701   4.355 -0.4541  0.7343  0.1880
 7136SOL    HW132870   3.329   2.780   4.305 -1.8119  2.2867  2.0493
 7136SOL    HW232871   3.211   2.699   4.354 -0.4725  1.9184 -0.3375
 7137SOL     OW32872   1.091   0.811  14.854  0.1034  0.2868 -0.2322
 7137SOL    HW132873   1.165   0.862  14.889 -0.5241 -0.6668  2.4761
 7137SOL    HW232874   1.115   0.806  14.761 -0.9070 -0.0507 -0.4725
 7138SOL     OW32875   2.630   2.391   4.499 -0.7047 -0.6377 -0.2083
 7138SOL    HW132876   2.554   2.427   4.545  1.0222  0.9486  1.4074
 7138SOL    HW232877   2.697   2.438   4.548  0.1023 -0.6405 -1.3004
 7139SOL     OW32878   1.219   2.448   8.819  0.2002 -0.1687  0.5205
 7139SOL    HW132879   1.260   2.425   8.903 -1.4088 -0.8874  1.1085
 7139SOL    HW232880   1.208   2.542   8.830 -0.7425 -0.1712 -0.4080
 7140SOL     OW32881   3.461   2.173   5.516 -0.7546 -0.0980 -0.4225
 7140SOL    HW132882   3.553   2.151   5.532 -0.3527  2.1335  0.3801
 7140SOL    HW232883   3.460   2.198   5.424  3.4049 -0.6830 -0.6393
 7141SOL     OW32884   2.325   1.780  11.486  0.1830 -0.1299 -0.0507
 7141SOL    HW132885   2.238   1.741  11.496 -0.6120  1.9159  1.2225
 7141SOL    HW232886   2.321   1.852  11.549 -1.4822 -0.7493  0.5656
 7142SOL     OW32887   0.773   1.359   5.511 -0.1809 -0.3393 -0.1693
 7142SOL    HW132888   0.738   1.327   5.427  0.5972 -0.1009 -0.5838
 7142SOL    HW232889   0.696   1.401   5.549  0.4647 -0.5492  1.3693
 7143SOL     OW32890   1.370   4.225  13.558  0.1999 -0.4976  0.4695
 7143SOL    HW132891   1.436   4.287  13.526 -1.3076  0.2637 -1.1194
 7143SOL    HW232892   1.379   4.239  13.653 -1.1820  0.1968  0.4975
 7144SOL     OW32893   1.165   2.651   5.187  0.2200  0.0318  0.1244
 7144SOL    HW132894   1.157   2.706   5.109 -0.3371 -2.1023 -1.3253
 7144SOL    HW232895   1.204   2.711   5.251  1.1900 -0.6999  0.2172
 7145SOL     OW32896   3.992   0.507   7.589  0.6568 -0.2220  0.4642
 7145SOL    HW132897   4.032   0.566   7.653 -0.6088  0.5529  0.5399
 7145SOL    HW232898   3.978   0.418   7.619  0.2404  0.0189  0.9739
 7146SOL     OW32899   2.329   4.233   1.956  0.0134  0.2185 -0.0408
 7146SOL    HW132900   2.282   4.164   1.908  1.1769 -1.0940  0.7158
 7146SOL    HW232901   2.398   4.191   2.008 -0.8548 -0.4811  0.5448
 7147SOL     OW32902   0.891   2.818   7.901  0.1305 -0.4044 -0.5151
 7147SOL    HW132903   0.876   2.889   7.964  2.0882  0.0039 -0.4973
 7147SOL    HW232904   0.948   2.761   7.952  0.8542 -0.1730 -1.0614
 7148SOL     OW32905   1.405   3.033   5.479  0.0405  0.6053 -0.5117
 7148SOL    HW132906   1.468   3.066   5.543  0.6152  0.8536 -1.2038
 7148SOL    HW232907   1.374   3.111   5.433 -0.6812  1.1796  0.9733
 7149SOL     OW32908   2.140   1.982   9.767 -0.3905  0.4161  0.1288
 7149SOL    HW132909   2.069   1.960   9.828 -1.5440 -1.3874 -1.8508
 7149SOL    HW232910   2.186   2.052   9.813  0.9136  0.2459 -0.9349
 7150SOL     OW32911   0.427   4.394  11.650  0.0582 -0.5699 -0.0199
 7150SOL    HW132912   0.517   4.372  11.673  0.5082  0.9189 -0.3401
 7150SOL    HW232913   0.436   4.396  11.555 -0.6362  1.0721 -0.0535
 7151SOL     OW32914   4.019   3.835   3.061  0.1032  0.0252  0.4819
 7151SOL    HW132915   4.010   3.885   2.980 -0.2900  0.1939  0.6360
 7151SOL    HW232916   3.987   3.746   3.043  1.5966 -0.1676 -1.2555
 7152SOL     OW32917   1.689   4.100   9.533  0.1195 -0.0146 -0.1702
 7152SOL    HW132918   1.762   4.152   9.566  1.0620 -0.5111 -1.4980
 7152SOL    HW232919   1.632   4.085   9.609 -0.8795  0.7193 -0.7748
 7153SOL     OW32920   4.693   3.807  17.206 -0.5450 -0.2937  0.0759
 7153SOL    HW132921   0.008   3.801  17.293 -1.0945  0.4181  0.3755
 7153SOL    HW232922   4.704   3.718  17.173  0.6749  0.0536 -0.4305
 7154SOL     OW32923   1.570   1.267   6.169  0.1217 -0.0325  0.2038
 7154SOL    HW132924   1.487   1.305   6.198  0.8843  0.2364  2.0679
 7154SOL    HW232925   1.617   1.349   6.155 -0.0339  0.0728  0.2908
 7155SOL     OW32926   4.020   0.459   0.403  0.7089 -0.3402  0.6564
 7155SOL    HW132927   4.102   0.414   0.422  0.0342 -2.5231 -1.7003
 7155SOL    HW232928   3.985   0.467   0.492  0.6378 -2.5208  0.8140
 7156SOL     OW32929   0.754   1.331  15.975  0.2753  0.0798 -0.3104
 7156SOL    HW132930   0.831   1.354  16.026 -1.9730  0.7391  2.7773
 7156SOL    HW232931   0.685   1.379  16.020 -0.4890 -0.6001 -0.7543
 7157SOL     OW32932   0.738   0.876   4.303 -0.7043 -0.1385  0.2769
 7157SOL    HW132933   0.777   0.963   4.303 -0.5724 -0.1972  2.4289
 7157SOL    HW232934   0.648   0.908   4.290 -0.4281  0.2766 -0.6102
 7158SOL     OW32935   1.823   2.150  13.941 -0.4787  0.4247  0.0233
 7158SOL    HW132936   1.749   2.148  13.880 -0.0413 -0.7993 -0.4551
 7158SOL    HW232937   1.895   2.154  13.878 -2.2985 -3.4874 -2.3196
 7159SOL     OW32938   3.524   3.374   7.794 -0.2848  0.1850  0.6566
 7159SOL    HW132939   3.482   3.291   7.773  2.4614 -1.1654  0.5045
 7159SOL    HW232940   3.503   3.381   7.888  0.4169  0.2831  0.8060
 7160SOL     OW32941   1.147   3.755   0.346  0.2864 -0.6095 -0.0308
 7160SOL    HW132942   1.098   3.746   0.427  0.1413  2.2159  0.2059
 7160SOL    HW232943   1.106   3.698   0.281 -0.2110 -1.6371  1.2054
 7161SOL     OW32944   4.011   0.145   2.870 -0.7332 -0.1825  0.3754
 7161SOL    HW132945   3.997   0.179   2.782  0.7638  1.3216  0.7176
 7161SOL    HW232946   4.092   0.093   2.863 -0.0152  0.7810  1.4761
 7162SOL     OW32947   2.380   0.066   4.247 -0.3308  0.7329  0.7393
 7162SOL    HW132948   2.460   0.112   4.222  0.0716  0.0208  0.7230
 7162SOL    HW232949   2.420   0.007   4.312  0.1703  1.8642  1.4504
 7163SOL     OW32950   3.957   2.876  10.322 -0.4589  0.1219  0.2442
 7163SOL    HW132951   3.881   2.823  10.347 -0.6628  0.7652  0.9777
 7163SOL    HW232952   4.006   2.885  10.404 -0.3620  0.4430  0.1512
 7164SOL     OW32953   3.913   0.942   3.280 -0.4438 -0.0609 -0.0621
 7164SOL    HW132954   3.861   0.863   3.266 -1.2367  0.9448 -2.8407
 7164SOL    HW232955   3.882   1.002   3.212  4.7904  2.7354  0.0091
 7165SOL     OW32956   4.109   0.702   3.614  0.3575 -0.0621  0.5044
 7165SOL    HW132957   4.080   0.664   3.697  0.9184 -1.4931  0.0348
 7165SOL    HW232958   4.023   0.730   3.580  0.3628 -2.0028 -1.0996
 7166SOL     OW32959   2.229   0.382   4.421 -0.5173  0.1066  0.3648
 7166SOL    HW132960   2.316   0.343   4.406 -0.3571  0.6207 -0.0430
 7166SOL    HW232961   2.243   0.393   4.515 -1.6658 -0.2514  0.5720
 7167SOL     OW32962   2.496   3.791   5.439  0.0004 -0.1752  0.4405
 7167SOL    HW132963   2.418   3.826   5.482 -0.9354 -0.0357 -1.3468
 7167SOL    HW232964   2.557   3.861   5.462 -0.8760  1.7175 -2.8414
 7168SOL     OW32965   4.494   4.471  14.979 -0.3431  0.0095 -0.8779
 7168SOL    HW132966   4.580   4.470  15.020 -0.8617 -1.5319  0.1525
 7168SOL    HW232967   4.439   4.451  15.055 -0.8707  0.5374 -1.1154
 7169SOL     OW32968   0.231   1.837   4.549  0.6300  0.0062 -0.1071
 7169SOL    HW132969   0.257   1.924   4.518  2.9455 -0.5894  0.2132
 7169SOL    HW232970   0.225   1.787   4.468  0.0334  0.3394 -0.2679
 7170SOL     OW32971   2.764   1.360   3.727 -0.1918 -0.0792  0.2256
 7170SOL    HW132972   2.801   1.401   3.649  0.9015  1.3553  1.5013
 7170SOL    HW232973   2.669   1.378   3.728 -0.1424  0.0930  1.8984
 7171SOL     OW32974   2.651   3.315   1.222 -0.5089 -0.1356 -0.0767
 7171SOL    HW132975   2.607   3.288   1.303  4.0637 -2.1825  1.7088
 7171SOL    HW232976   2.604   3.397   1.211 -0.4814 -0.4072 -2.2665
 7172SOL     OW32977   2.890   0.310  12.285  0.3353 -0.4684  0.2318
 7172SOL    HW132978   2.855   0.262  12.360  1.7582 -1.4725  0.2463
 7172SOL    HW232979   2.957   0.248  12.256  0.3046  0.0938 -1.0181
 7173SOL     OW32980   1.732   3.872   4.065 -0.6754 -0.4641 -0.5538
 7173SOL    HW132981   1.713   3.779   4.058 -1.6594 -0.2613 -0.6232
 7173SOL    HW232982   1.730   3.872   4.161  1.8440 -2.5990 -0.4790
 7174SOL     OW32983   0.040   0.786   7.124 -0.6381 -0.2004  0.4172
 7174SOL    HW132984   4.712   0.846   7.071 -2.8461  1.1939  4.2041
 7174SOL    HW232985   0.117   0.792   7.067 -2.4816 -0.3934 -2.1218
 7175SOL     OW32986   4.457   1.551  16.097  0.1796 -0.1126  0.0467
 7175SOL    HW132987   4.362   1.560  16.092  0.1616 -0.1448  0.3373
 7175SOL    HW232988   4.466   1.459  16.122  1.9933  0.2933  0.8995
 7176SOL     OW32989   2.704   2.781   9.502  0.1784  0.0252 -0.0916
 7176SOL    HW132990   2.682   2.694   9.537 -0.3454  0.1527 -0.1007
 7176SOL    HW232991   2.773   2.804   9.564 -1.7136  1.7798  1.3617
 7177SOL     OW32992   2.328   1.064   9.037  0.4954  0.4567  0.4131
 7177SOL    HW132993   2.262   1.127   9.007 -1.5747 -1.3431  1.2658
 7177SOL    HW232994   2.361   1.097   9.121 -0.9000  1.5314  0.5364
 7178SOL     OW32995   1.620   1.753   6.031  0.1900  0.2405 -0.5466
 7178SOL    HW132996   1.625   1.737   5.937  0.4073  3.2145 -1.0222
 7178SOL    HW232997   1.543   1.809   6.032  0.3262  0.3735  2.1230
 7179SOL     OW32998   4.708   4.162  11.590  0.4268 -0.9218 -0.3810
 7179SOL    HW132999   4.654   4.149  11.668  2.0137 -1.4519  0.6248
 7179SOL    HW233000   0.066   4.188  11.629 -0.1565  1.9295 -1.0002
 7180SOL     OW33001   4.523   4.405  11.604  0.2630  0.1037  0.4153
 7180SOL    HW133002   4.578   4.335  11.569  0.9347  0.4677  0.7461
 7180SOL    HW233003   4.583   4.477  11.624 -1.1040  1.4281 -0.2623
 7181SOL     OW33004   4.128   4.149  16.837 -0.0502 -0.0666  0.1849
 7181SOL    HW133005   4.134   4.109  16.750  0.0812  2.7626 -1.1116
 7181SOL    HW233006   4.198   4.103  16.884  0.4882  1.7665  1.1651
 7182SOL     OW33007   3.329   0.339   5.207  0.3662 -0.5127  0.7328
 7182SOL    HW133008   3.301   0.309   5.294  0.9941 -0.4662  0.9506
 7182SOL    HW233009   3.285   0.423   5.203 -0.6714 -1.1982 -2.0029
 7183SOL     OW33010   1.268   4.351   2.658  0.1253  0.6372 -0.0774
 7183SOL    HW133011   1.213   4.427   2.638 -3.1963 -2.0965 -1.1874
 7183SOL    HW233012   1.235   4.297   2.587  1.7141  0.6602 -0.8350
 7184SOL     OW33013   1.802   2.625   2.866 -0.2062  0.7433 -0.3723
 7184SOL    HW133014   1.790   2.578   2.949 -1.5016  1.3177 -0.2341
 7184SOL    HW233015   1.732   2.590   2.811 -0.9697 -1.0753  1.7490
 7185SOL     OW33016   0.150   4.673   7.352  0.2445  0.0096 -0.1095
 7185SOL    HW133017   0.089   4.647   7.421  0.2646 -1.8414 -0.7803
 7185SOL    HW233018   0.131   0.041   7.341  0.5532 -0.0232 -0.8883
 7186SOL     OW33019   2.801   1.565   7.485  0.5767  0.0887  0.8420
 7186SOL    HW133020   2.836   1.651   7.460 -1.3486  0.4280 -0.6927
 7186SOL    HW233021   2.813   1.563   7.580  2.8161 -1.7010  0.5078
 7187SOL     OW33022   2.681   1.323  16.790 -0.1622  0.8702 -0.1174
 7187SOL    HW133023   2.711   1.381  16.860  0.5349  0.9919 -0.5228
 7187SOL    HW233024   2.713   1.357  16.707  0.1365 -2.1416 -1.2214
 7188SOL     OW33025   3.373   1.475  16.886  0.7865  0.1664 -0.5247
 7188SOL    HW133026   3.362   1.504  16.795 -1.7421 -1.6085 -0.7924
 7188SOL    HW233027   3.468   1.468  16.886  0.6615 -1.5550  1.0948
 7189SOL     OW33028   0.384   1.434   6.644  0.2920 -0.1439  0.0806
 7189SOL    HW133029   0.341   1.354   6.614 -0.8765 -0.1700  1.7563
 7189SOL    HW233030   0.304   1.482   6.666  0.1768 -0.4124  0.2547
 7190SOL     OW33031   0.525   3.700   5.422 -0.5481  0.1497  0.1261
 7190SOL    HW133032   0.554   3.745   5.502 -0.0274 -0.0190  0.0352
 7190SOL    HW233033   0.432   3.696   5.443 -0.2095  0.6135  1.7390
 7191SOL     OW33034   4.519   2.470  14.249 -0.0340  0.1982  0.0174
 7191SOL    HW133035   4.463   2.475  14.327  2.1203  1.2336  1.5218
 7191SOL    HW233036   4.596   2.440  14.298  0.4404  0.9465 -0.2807
 7192SOL     OW33037   3.837   2.598   3.651  0.3613  0.1343 -0.3192
 7192SOL    HW133038   3.807   2.628   3.565 -0.0020 -0.3590 -0.3659
 7192SOL    HW233039   3.758   2.565   3.693  1.2605 -0.4198  0.9235
 7193SOL     OW33040   0.823   2.257   0.069  0.0391  0.1601 -0.0662
 7193SOL    HW133041   0.896   2.317   0.053 -0.3496  0.7979  0.5535
 7193SOL    HW233042   0.848   2.170   0.036 -0.6063 -0.0391 -0.0360
 7194SOL     OW33043   4.288   4.356   3.927 -0.1391 -0.2097  0.0218
 7194SOL    HW133044   4.280   4.261   3.933  0.3650 -0.4853 -3.5867
 7194SOL    HW233045   4.361   4.371   3.987 -0.1890  2.2604 -0.5426
 7195SOL     OW33046   0.466   3.655   8.499  0.2703  0.0985 -0.3316
 7195SOL    HW133047   0.518   3.724   8.541 -0.0292  0.0196  0.1668
 7195SOL    HW233048   0.493   3.589   8.563  0.7074  1.9794  1.4506
 7196SOL     OW33049   2.751   2.552   4.736  0.0380  0.2316  0.2437
 7196SOL    HW133050   2.823   2.508   4.781  1.6678  2.5032 -0.0998
 7196SOL    HW233051   2.799   2.599   4.667 -1.3768  0.3742 -0.6295
 7197SOL     OW33052   4.521   0.629   8.746  0.4011  0.0119 -0.3085
 7197SOL    HW133053   4.455   0.681   8.699 -0.5779 -1.5870 -0.6759
 7197SOL    HW233054   4.494   0.637   8.837  2.0893  0.2999  0.1720
 7198SOL     OW33055   1.844   4.352   3.195  0.0726 -0.4148  0.4055
 7198SOL    HW133056   1.928   4.361   3.151  0.6297  1.1327  1.8006
 7198SOL    HW233057   1.804   4.438   3.208 -0.3458 -0.4257 -0.7975
 7199SOL     OW33058   4.420   4.270   7.374  0.2270 -0.0345  0.2368
 7199SOL    HW133059   4.359   4.290   7.445 -0.7959 -0.9950 -0.3582
 7199SOL    HW233060   4.365   4.269   7.296  1.3451  1.9677 -0.5841
 7200SOL     OW33061   2.145   0.583  15.364  0.2385  0.3569 -0.8317
 7200SOL    HW133062   2.104   0.566  15.448  2.8131 -1.6493  0.0274
 7200SOL    HW233063   2.110   0.508  15.315 -0.7584 -0.1220  0.6236
 7201SOL     OW33064   2.296   2.293   4.077  0.4139  1.0946  0.0024
 7201SOL    HW133065   2.229   2.317   4.013 -0.4809 -1.1190  0.1021
 7201SOL    HW233066   2.240   2.269   4.151 -1.4087 -1.3855 -2.1700
 7202SOL     OW33067   2.459   3.941  14.520  0.3356 -0.1141 -0.2265
 7202SOL    HW133068   2.467   4.009  14.453  1.4493 -1.7062 -1.7124
 7202SOL    HW233069   2.546   3.951  14.558 -0.9971 -0.0703  2.8075
 7203SOL     OW33070   3.228   4.233   4.044 -0.0885 -0.3603 -0.1611
 7203SOL    HW133071   3.146   4.281   4.054  0.0771 -0.0759 -0.1794
 7203SOL    HW233072   3.249   4.199   4.131  2.1903 -1.7605 -1.2353
 7204SOL     OW33073   3.838   3.651   8.761  0.2556 -0.2990  0.3143
 7204SOL    HW133074   3.750   3.682   8.780 -0.1318 -1.0374 -0.2824
 7204SOL    HW233075   3.815   3.559   8.778  1.1904 -0.4672  0.6798
 7205SOL     OW33076   0.322   2.784   1.926  0.0098  0.2773 -0.1354
 7205SOL    HW133077   0.415   2.769   1.906 -0.6382 -0.2663 -2.7679
 7205SOL    HW233078   0.305   2.691   1.946 -0.9065 -0.0951 -2.5875
 7206SOL     OW33079   3.117   1.860   8.411  0.0340  0.0403  0.0687
 7206SOL    HW133080   3.131   1.824   8.323 -0.2209  0.1286 -0.0077
 7206SOL    HW233081   3.200   1.890   8.447 -0.9467  0.3744  2.0259
 7207SOL     OW33082   3.833   3.635   4.535 -0.1728 -0.1357  0.3910
 7207SOL    HW133083   3.874   3.669   4.456 -0.1118  0.9326  0.8938
 7207SOL    HW233084   3.775   3.568   4.498  0.2011  0.7228 -1.7604
 7208SOL     OW33085   0.514   2.954   4.054  0.5101  0.2901 -0.2631
 7208SOL    HW133086   0.585   2.975   4.115  0.1029  0.7460  0.0518
 7208SOL    HW233087   0.493   2.866   4.086 -2.5221  1.4218  0.9068
 7209SOL     OW33088   2.660   4.064   4.430  0.2769  1.0287  0.1726
 7209SOL    HW133089   2.567   4.072   4.451 -0.3914  0.7843 -2.6592
 7209SOL    HW233090   2.664   3.968   4.435  0.1176  1.0671  1.0464
 7210SOL     OW33091   1.209   0.647   8.147  0.4733 -0.0786  0.9447
 7210SOL    HW133092   1.215   0.611   8.058  0.2281 -1.4804  1.4818
 7210SOL    HW233093   1.119   0.679   8.155 -0.1605 -1.1544 -1.7535
 7211SOL     OW33094   1.861   1.483   7.770 -0.4740 -0.7395  0.0966
 7211SOL    HW133095   1.849   1.422   7.843  0.7772  0.0635  0.9772
 7211SOL    HW233096   1.777   1.489   7.725 -1.9843 -1.0116  2.8510
 7212SOL     OW33097   1.451   0.510   2.256 -0.6952  0.2476 -0.6921
 7212SOL    HW133098   1.366   0.489   2.216  0.5535 -0.4028 -3.0180
 7212SOL    HW233099   1.452   0.443   2.324  0.5103  0.1201 -0.8540
 7213SOL     OW33100   2.373   0.752   9.274  0.1592  0.3848  1.1839
 7213SOL    HW133101   2.425   0.785   9.347  2.5359  1.6964 -1.0983
 7213SOL    HW233102   2.287   0.757   9.316 -0.1099 -0.2501  0.7099
 7214SOL     OW33103   2.303   2.945   0.783 -0.4602 -0.4065 -0.0556
 7214SOL    HW133104   2.331   2.853   0.783  0.5732 -0.0955 -0.6882
 7214SOL    HW233105   2.379   2.991   0.748 -1.1861  0.7211 -0.1273
 7215SOL     OW33106   1.469   1.018   7.846 -0.2214  0.3997 -0.6030
 7215SOL    HW133107   1.558   1.055   7.842  0.4088 -1.2789 -2.1608
 7215SOL    HW233108   1.484   0.926   7.824 -0.3315  0.2820 -0.1951
 7216SOL     OW33109   1.244   2.877   1.409  0.0469 -0.3977  0.2227
 7216SOL    HW133110   1.331   2.842   1.389 -0.3744 -1.0532 -0.4973
 7216SOL    HW233111   1.255   2.961   1.363 -1.4457  0.0724  0.7528
 7217SOL     OW33112   2.147   1.333  16.303 -0.0831  0.0473 -0.0971
 7217SOL    HW133113   2.238   1.359  16.314  0.1888 -0.5203 -1.0941
 7217SOL    HW233114   2.141   1.320  16.209  3.0399 -0.6995 -0.1705
 7218SOL     OW33115   2.173   2.048   8.993 -0.3848 -0.4328  0.5960
 7218SOL    HW133116   2.217   2.032   9.077  0.6075  1.7411  0.4880
 7218SOL    HW233117   2.100   1.988   9.009 -0.1443 -0.3026  2.1786
 7219SOL     OW33118   0.084   2.786   8.278 -0.7750 -0.4258  0.1878
 7219SOL    HW133119   0.152   2.847   8.250 -0.3771 -1.3427 -0.8440
 7219SOL    HW233120   0.088   2.730   8.200  0.6876 -1.7541  1.2340
 7220SOL     OW33121   3.935   2.642  15.261 -0.1815 -0.2832 -0.1124
 7220SOL    HW133122   4.008   2.655  15.201  1.0727 -0.4942  1.3566
 7220SOL    HW233123   3.926   2.548  15.247  1.1389 -0.2491 -1.2415
 7221SOL     OW33124   3.071   2.595   7.344 -0.1572 -0.4672 -0.0385
 7221SOL    HW133125   3.101   2.523   7.289  0.9642 -1.8869  2.4183
 7221SOL    HW233126   3.080   2.565   7.435  1.6970  0.0733 -0.0394
 7222SOL     OW33127   2.886   2.529  13.595 -0.0256  0.0123 -0.3293
 7222SOL    HW133128   2.804   2.497  13.631 -0.5246  2.7120  0.9581
 7222SOL    HW233129   2.950   2.459  13.602 -1.1517 -0.9547  0.2953
 7223SOL     OW33130   2.927   4.275   5.216 -0.2231  0.5101  0.4765
 7223SOL    HW133131   2.892   4.231   5.293 -0.5195 -1.6644 -0.8965
 7223SOL    HW233132   2.987   4.336   5.258  0.5487  1.0530 -1.3953
 7224SOL     OW33133   2.941   0.062  10.458  0.5190  0.1432 -0.4074
 7224SOL    HW133134   2.978   4.722  10.398  1.1653 -0.0043  0.1426
 7224SOL    HW233135   3.024   0.104  10.483  1.2717 -0.5994 -1.6516
 7225SOL     OW33136   2.266   3.893  11.555 -0.0740  0.3224  0.2269
 7225SOL    HW133137   2.312   3.954  11.498 -0.2886  0.3207  0.0503
 7225SOL    HW233138   2.244   3.957  11.622 -2.1706 -0.3106  0.1445
 7226SOL     OW33139   3.094   3.688   8.971  0.5629 -0.6218  0.2038
 7226SOL    HW133140   3.101   3.773   8.927 -0.4040 -1.7055 -2.0277
 7226SOL    HW233141   3.051   3.715   9.053 -0.9168  2.4357 -1.5642
 7227SOL     OW33142   1.897   2.985  16.175 -0.2147  0.5272  0.5581
 7227SOL    HW133143   1.867   3.038  16.101 -2.4045  0.0084  1.0815
 7227SOL    HW233144   1.944   2.908  16.143  0.7568  1.1108  0.5583
 7228SOL     OW33145   4.581   2.081   9.747  0.3129  0.2553  0.2792
 7228SOL    HW133146   4.670   2.116   9.756  0.4749  0.2129 -1.1856
 7228SOL    HW233147   4.600   1.991   9.773  0.6587  0.4521  0.7117
 7229SOL     OW33148   3.345   3.958   2.735 -0.1938 -0.0656  0.6070
 7229SOL    HW133149   3.345   3.870   2.698  0.0763 -0.4927  1.6129
 7229SOL    HW233150   3.420   3.964   2.794 -0.2126  0.4846  0.5741
 7230SOL     OW33151   0.521   1.218   4.494 -0.1826 -0.1354 -0.1908
 7230SOL    HW133152   0.565   1.295   4.460  2.3431 -1.2848  0.4619
 7230SOL    HW233153   0.587   1.167   4.542 -1.3047 -0.4336  1.0446
 7231SOL     OW33154   1.164   4.549  13.713  0.1663  0.1101  0.2644
 7231SOL    HW133155   1.258   4.563  13.697  0.4485 -0.1712  1.6796
 7231SOL    HW233156   1.174   4.486  13.784  2.3645  0.1077 -0.0223
 7232SOL     OW33157   4.483   2.908   1.886 -0.5205 -0.1937 -0.1389
 7232SOL    HW133158   4.481   2.984   1.828 -2.1008 -0.7847 -0.8546
 7232SOL    HW233159   4.422   2.856   1.833  2.5411 -3.9271 -0.0459
 7233SOL     OW33160   2.163   4.131   3.919 -0.5802 -0.8020  0.2150
 7233SOL    HW133161   2.172   4.092   4.006 -1.5505  2.3270  1.6802
 7233SOL    HW233162   2.070   4.139   3.901 -0.2236  2.0715 -0.3287
 7234SOL     OW33163   3.285   0.867   4.625 -0.7826  0.0631  0.3866
 7234SOL    HW133164   3.279   0.865   4.529 -0.5550  1.5049  0.3398
 7234SOL    HW233165   3.345   0.941   4.635 -0.5991  0.3608 -2.8043
 7235SOL     OW33166   3.337   2.131   9.881 -0.1501 -0.5127  0.0607
 7235SOL    HW133167   3.323   2.203   9.942  1.1012 -1.7469  1.7896
 7235SOL    HW233168   3.297   2.162   9.799 -1.3621  2.8420  1.9066
 7236SOL     OW33169   3.802   0.313   1.599 -0.3684 -0.0441  0.4040
 7236SOL    HW133170   3.867   0.294   1.532 -1.8775 -4.1329  0.1051
 7236SOL    HW233171   3.816   0.408   1.603  3.3732 -0.5779 -0.2228
 7237SOL     OW33172   0.901   4.381   6.200  0.5023  0.0938  0.2059
 7237SOL    HW133173   0.865   4.433   6.273  0.0445 -0.6172  0.4914
 7237SOL    HW233174   0.961   4.330   6.254 -0.3738 -0.4605  0.6546
 7238SOL     OW33175   1.422   0.315   2.441 -0.0515 -0.2031  0.2629
 7238SOL    HW133176   1.417   0.225   2.407 -2.9759  1.5311 -3.8489
 7238SOL    HW233177   1.328   0.332   2.447  0.1453  1.5360 -2.0672
 7239SOL     OW33178   1.590   2.521   3.909 -0.4437  0.6249  0.1880
 7239SOL    HW133179   1.628   2.523   3.997  1.3366  1.2237 -0.5940
 7239SOL    HW233180   1.545   2.606   3.904 -2.8939 -0.7015 -0.4848
 7240SOL     OW33181   2.913   4.715   4.352 -0.3136 -0.8306 -0.3249
 7240SOL    HW133182   2.966   0.066   4.376 -0.6229 -0.3158 -1.2687
 7240SOL    HW233183   2.904   4.720   4.257  3.9471 -1.1343 -0.7394
 7241SOL     OW33184   1.934   2.161   8.446 -0.0136 -0.2207  0.5707
 7241SOL    HW133185   1.844   2.168   8.478  0.7648  0.4062  2.6789
 7241SOL    HW233186   1.922   2.087   8.387 -0.8393 -0.0745  0.5603
 7242SOL     OW33187   0.611   0.028   6.109 -0.1457 -0.4988  0.6182
 7242SOL    HW133188   0.528   0.068   6.135 -0.5789 -0.2445 -1.1463
 7242SOL    HW233189   0.632   4.694   6.181  0.4980 -0.2667  0.6186
 7243SOL     OW33190   1.004   4.296   4.191  0.2482 -0.1083  0.1234
 7243SOL    HW133191   1.098   4.313   4.193  0.3362 -0.4253 -1.5527
 7243SOL    HW233192   0.996   4.222   4.131  1.7493 -0.4361  0.3248
 7244SOL     OW33193   3.394   1.816  14.938  0.2900  0.2703 -0.0124
 7244SOL    HW133194   3.448   1.831  14.861  0.7209 -3.4872 -0.4570
 7244SOL    HW233195   3.328   1.759  14.897 -0.4215  1.5525 -0.6428
 7245SOL     OW33196   0.177   1.647  15.264 -0.2831  0.5590  0.1165
 7245SOL    HW133197   0.234   1.634  15.340 -0.9869 -0.7908  0.4108
 7245SOL    HW233198   0.088   1.634  15.296  0.1304  1.1624  1.5109
 7246SOL     OW33199   4.504   4.675   4.872  0.2599 -0.3678 -0.2400
 7246SOL    HW133200   4.556   4.700   4.949 -1.2634  1.8640  0.0778
 7246SOL    HW233201   4.530   0.013   4.805 -1.0335 -0.1717 -0.5544
 7247SOL     OW33202   0.025   0.341  10.719 -0.3989 -0.3207 -0.0955
 7247SOL    HW133203   4.659   0.312  10.726 -0.8495  0.4406 -2.5580
 7247SOL    HW233204   0.062   0.273  10.663 -2.5484 -1.2226 -0.4309
 7248SOL     OW33205   4.004   1.777   3.814  0.4819 -0.1101 -0.4287
 7248SOL    HW133206   4.088   1.787   3.859  0.8135 -2.1645 -0.6123
 7248SOL    HW233207   3.947   1.805   3.886  1.2439  0.5635 -0.0862
 7249SOL     OW33208   1.810   0.092   8.700  0.3425  0.7581  0.5377
 7249SOL    HW133209   1.756   0.125   8.772  1.9636  1.8190  1.2592
 7249SOL    HW233210   1.851   0.017   8.742 -1.3529 -0.3467  0.2091
 7250SOL     OW33211   1.088   0.598   4.248  0.0519  0.0268  0.3775
 7250SOL    HW133212   1.075   0.692   4.235  0.7474  0.2936  1.5877
 7250SOL    HW233213   1.160   0.568   4.193  1.3738  2.0556  0.9791
 7251SOL     OW33214   2.989   0.922   5.513 -0.0283  0.2790 -0.4385
 7251SOL    HW133215   2.985   0.906   5.607  0.0574 -0.8521 -0.6272
 7251SOL    HW233216   2.959   1.013   5.505  0.9454  0.7880  1.6930
 7252SOL     OW33217   2.280   2.424   9.450 -0.7412 -0.1043  0.2197
 7252SOL    HW133218   2.329   2.381   9.379  0.9760  0.3832  1.0951
 7252SOL    HW233219   2.300   2.512   9.418 -0.1081 -0.3056  0.0580
 7253SOL     OW33220   2.542   1.827  15.086 -0.3232  0.5345  0.3760
 7253SOL    HW133221   2.455   1.830  15.127 -0.8873  0.3407 -0.8015
 7253SOL    HW233222   2.570   1.919  15.088  1.4222 -0.0165  0.6326
 7254SOL     OW33223   2.714   0.538   8.099 -0.1920 -0.2058 -0.1874
 7254SOL    HW133224   2.662   0.472   8.145 -0.7201  0.5576  0.3026
 7254SOL    HW233225   2.790   0.485   8.076 -0.0212 -0.9119  2.0283
 7255SOL     OW33226   1.311   2.007   9.551  0.1515 -0.0708 -0.2124
 7255SOL    HW133227   1.331   2.087   9.601 -1.0444 -0.2939  0.6312
 7255SOL    HW233228   1.357   1.940   9.601 -1.6542  0.6049  2.3955
 7256SOL     OW33229   1.132   1.924   5.042  0.2933 -0.6414  0.1725
 7256SOL    HW133230   1.065   1.990   5.057 -0.7712 -1.9753  1.3889
 7256SOL    HW233231   1.207   1.983   5.037 -0.9716  1.0869  1.5889
 7257SOL     OW33232   2.065   1.941   7.816 -0.5844 -0.0969 -0.5363
 7257SOL    HW133233   2.086   1.997   7.741  1.1515  0.1687  0.1522
 7257SOL    HW233234   2.049   1.858   7.773 -0.8614 -0.8004  0.9043
 7258SOL     OW33235   2.025   0.178   3.517 -0.7416 -0.3399  0.0343
 7258SOL    HW133236   2.047   0.230   3.439 -3.0722  2.1574  1.0223
 7258SOL    HW233237   2.064   0.092   3.502  1.8743  0.4648  2.2850
 7259SOL     OW33238   3.756   0.389  10.936 -0.3173 -0.2381  0.3962
 7259SOL    HW133239   3.711   0.304  10.946  0.2739 -0.5383  0.5151
 7259SOL    HW233240   3.700   0.429  10.871 -0.0582 -0.9828 -0.2866
 7260SOL     OW33241   1.325   0.738   5.892 -0.0676 -0.1850  0.3705
 7260SOL    HW133242   1.328   0.688   5.811  2.9843 -2.6048  1.9705
 7260SOL    HW233243   1.399   0.717   5.949  2.2768  2.6703 -1.6462
 7261SOL     OW33244   3.376   1.778   7.215  0.0197 -0.0367  0.3558
 7261SOL    HW133245   3.342   1.689   7.201  0.1899 -0.3128  1.6804
 7261SOL    HW233246   3.439   1.760   7.285 -0.0423  1.0026  0.6733
 7262SOL     OW33247   0.845   2.123  17.085  0.0215  0.4435 -0.8196
 7262SOL    HW133248   0.903   2.091  17.154  1.7310  3.9987 -0.6177
 7262SOL    HW233249   0.908   2.173  17.033  1.8682 -0.0866  0.9076
 7263SOL     OW33250   4.095   2.241   5.730 -0.3103 -0.2706  0.9555
 7263SOL    HW133251   4.113   2.182   5.657  0.4577 -1.9635  2.5269
 7263SOL    HW233252   4.009   2.269   5.698  1.0070  0.5197 -1.8858
 7264SOL     OW33253   4.310   2.259   7.410  0.1801 -0.1535 -0.5662
 7264SOL    HW133254   4.233   2.303   7.445 -0.7186  0.2797 -3.1162
 7264SOL    HW233255   4.281   2.169   7.419  2.0935 -0.9202 -1.9625
 7265SOL     OW33256   2.808   2.940   4.858  0.2804 -0.1391  0.0515
 7265SOL    HW133257   2.752   2.937   4.781 -0.4938  0.2498  0.5917
 7265SOL    HW233258   2.851   3.026   4.862  0.2092 -0.2016  2.1009
 7266SOL     OW33259   3.222   0.198  13.581  0.4917  0.3754 -0.0652
 7266SOL    HW133260   3.304   0.228  13.542  0.7711  0.4573  0.5885
 7266SOL    HW233261   3.163   0.181  13.508 -3.1721  2.3926  2.4250
 7267SOL     OW33262   0.379   2.975   5.368  0.0487  0.4366  0.0389
 7267SOL    HW133263   0.327   2.895   5.368  1.7906 -0.6816 -3.2651
 7267SOL    HW233264   0.458   2.950   5.320  0.2145  0.0664  0.5015
 7268SOL     OW33265   4.628   4.339   2.245  0.5732  0.1291 -0.3322
 7268SOL    HW133266   4.631   4.257   2.295  2.4843  1.1190  1.1621
 7268SOL    HW233267   4.684   4.323   2.169 -0.5852 -1.0920 -0.9281
 7269SOL     OW33268   2.405   1.732  11.981 -0.4716  0.4845  0.0547
 7269SOL    HW133269   2.398   1.825  11.958 -0.2897  0.2225 -1.0657
 7269SOL    HW233270   2.313   1.708  11.978 -1.4568  4.5044 -1.8652
 7270SOL     OW33271   3.584   1.980  14.338  0.1537 -0.0508  0.3817
 7270SOL    HW133272   3.622   2.023  14.415 -1.5711  1.2964  0.4562
 7270SOL    HW233273   3.583   2.047  14.269 -0.9766 -0.3896  0.0652
 7271SOL     OW33274   1.196   2.187   6.411 -0.2495 -0.1406  0.2589
 7271SOL    HW133275   1.124   2.151   6.359  0.9549  0.9950 -2.1918
 7271SOL    HW233276   1.231   2.110   6.454  1.2074  0.9177  0.9410
 7272SOL     OW33277   0.276   2.599  16.452  1.0673  0.0318 -0.3704
 7272SOL    HW133278   0.243   2.520  16.494 -0.0405  1.1089  0.7729
 7272SOL    HW233279   0.237   2.590  16.365 -1.7602 -0.6943  0.9925
 7273SOL     OW33280   3.609   2.143   3.613 -0.4573 -0.5639 -0.6142
 7273SOL    HW133281   3.690   2.093   3.616  0.3254  0.7542  0.1015
 7273SOL    HW233282   3.583   2.129   3.522  0.2284  1.6291 -1.1345
 7274SOL     OW33283   2.545   0.339   6.843 -0.4720  0.1253 -0.3683
 7274SOL    HW133284   2.512   0.279   6.910 -0.2865  0.8748  0.4082
 7274SOL    HW233285   2.480   0.334   6.774 -0.9829  1.0653  0.0372
 7275SOL     OW33286   2.230   4.680  11.164 -0.0031 -0.0218  0.2911
 7275SOL    HW133287   2.322   4.667  11.186  0.5907  1.0490 -1.5352
 7275SOL    HW233288   2.231   0.049  11.144 -1.6329 -0.1173 -0.2808
 7276SOL     OW33289   2.658   3.735   8.701  0.5545  0.1343  0.5268
 7276SOL    HW133290   2.626   3.780   8.779 -0.8437 -0.4897  0.3169
 7276SOL    HW233291   2.730   3.786   8.666 -0.1468 -0.4969 -1.8854
 7277SOL     OW33292   2.708   0.678   3.214  0.1508  0.6895  0.2165
 7277SOL    HW133293   2.721   0.737   3.289 -2.1112  0.4984  0.7759
 7277SOL    HW233294   2.659   0.726   3.147  0.0188  0.5934  0.2438
 7278SOL     OW33295   2.039   2.784   2.288 -0.0418  0.0749 -0.1659
 7278SOL    HW133296   2.087   2.866   2.291 -0.3831  0.3676 -2.7440
 7278SOL    HW233297   2.109   2.719   2.298 -0.9024 -0.9030 -0.4084
 7279SOL     OW33298   2.344   1.211   9.269 -0.0580  0.0964  0.1570
 7279SOL    HW133299   2.417   1.272   9.264 -0.5624  0.5838 -1.2489
 7279SOL    HW233300   2.368   1.159   9.345 -0.5190 -0.5435 -0.1289
 7280SOL     OW33301   4.154   0.714   8.345 -0.7265 -0.0549 -0.1352
 7280SOL    HW133302   4.123   0.625   8.325 -2.0620  1.0095 -2.7137
 7280SOL    HW233303   4.070   0.759   8.358 -0.2608  0.0497  2.6647
 7281SOL     OW33304   3.442   3.395   6.299  0.1544  0.2624  0.2405
 7281SOL    HW133305   3.531   3.381   6.266  0.7705 -0.0199  2.0641
 7281SOL    HW233306   3.442   3.489   6.314  0.6955  0.2661  0.2081
 7282SOL     OW33307   3.222   3.763   0.534 -0.5365 -0.2578 -0.0630
 7282SOL    HW133308   3.271   3.822   0.477 -1.0977  0.1330 -0.1418
 7282SOL    HW233309   3.131   3.790   0.524 -0.5146  1.0454  3.2665
 7283SOL     OW33310   3.153   1.321   4.273  0.4946 -0.0315 -0.3595
 7283SOL    HW133311   3.243   1.348   4.292  0.1692  0.5594  0.3376
 7283SOL    HW233312   3.154   1.317   4.177  2.3128 -0.7867 -0.3198
 7284SOL     OW33313   3.226   1.750   6.251 -0.1923  0.7466  0.2013
 7284SOL    HW133314   3.266   1.837   6.257 -0.2147  0.5120  3.6811
 7284SOL    HW233315   3.223   1.712   6.338 -1.5293  0.0466 -0.1433
 7285SOL     OW33316   2.004   1.725   5.842  0.0346 -0.2475 -0.2589
 7285SOL    HW133317   2.020   1.813   5.811  0.5886 -0.4850 -0.6402
 7285SOL    HW233318   2.094   1.700   5.862  0.0585  1.3865  1.7138
 7286SOL     OW33319   4.131   0.027  12.054 -0.0334  0.1287  0.1085
 7286SOL    HW133320   4.117   4.664  12.089 -1.4545 -0.0529 -0.9321
 7286SOL    HW233321   4.140   0.084  12.131 -0.9207  1.8712 -1.0580
 7287SOL     OW33322   2.487   2.412   1.748 -0.0630  0.5635 -0.9740
 7287SOL    HW133323   2.439   2.444   1.824 -0.1371 -3.3801  0.6337
 7287SOL    HW233324   2.469   2.318   1.757 -0.0293  0.8232  1.5297
 7288SOL     OW33325   3.880   2.644   8.773 -0.0596  0.1775  0.2886
 7288SOL    HW133326   3.795   2.641   8.815 -0.4824 -1.7777 -0.6953
 7288SOL    HW233327   3.936   2.678   8.843 -1.4532 -0.8816  1.8949
 7289SOL     OW33328   0.340   3.669   4.257  0.2526  0.1077 -0.4680
 7289SOL    HW133329   0.351   3.734   4.327 -2.8921 -0.4260  0.5451
 7289SOL    HW233330   0.362   3.724   4.181 -0.6002 -0.5428 -1.1888
 7290SOL     OW33331   3.164   0.227   8.164 -0.6969 -0.1258 -0.1429
 7290SOL    HW133332   3.260   0.235   8.165 -0.5434 -1.8605 -1.3837
 7290SOL    HW233333   3.163   0.133   8.148  0.3238 -0.3570  1.1744
 7291SOL     OW33334   4.136   1.098   2.867 -0.5169 -0.4397  0.3286
 7291SOL    HW133335   4.132   1.137   2.780 -0.9178  1.6316  1.2645
 7291SOL    HW233336   4.058   1.127   2.915 -0.6786 -0.9689  0.3767
 7292SOL     OW33337   4.219   4.346   4.277 -0.2029 -0.7086 -0.0744
 7292SOL    HW133338   4.272   4.400   4.219  0.7089 -1.2969  0.2041
 7292SOL    HW233339   4.275   4.268   4.287 -0.3373 -0.5163  2.2398
 7293SOL     OW33340   3.430   2.416   2.854 -0.5759  0.3988 -0.2434
 7293SOL    HW133341   3.458   2.382   2.939 -0.7348 -1.6190 -0.9739
 7293SOL    HW233342   3.385   2.334   2.834 -1.6085  0.6703  0.9578
 7294SOL     OW33343   1.177   2.124   5.323  0.5980  0.0464 -0.5133
 7294SOL    HW133344   1.089   2.088   5.334  0.6461  0.8167  2.2455
 7294SOL    HW233345   1.154   2.198   5.265 -0.1301 -1.2134 -1.8360
 7295SOL     OW33346   2.013   2.711   7.159 -0.1752 -0.2336 -0.1810
 7295SOL    HW133347   1.991   2.798   7.126  0.7982 -0.5115 -1.6068
 7295SOL    HW233348   1.969   2.720   7.243  1.2390 -1.8676  0.7370
 7296SOL     OW33349   2.606   3.582  13.144  0.7870 -0.2201  0.0739
 7296SOL    HW133350   2.595   3.502  13.091  0.3336 -1.0578  1.4416
 7296SOL    HW233351   2.633   3.646  13.078 -1.4290  1.6537  0.9767
 7297SOL     OW33352   0.741   2.795  17.257  0.1209 -0.7125  0.0282
 7297SOL    HW133353   0.697   2.784  17.173  1.9505  0.7576 -1.1375
 7297SOL    HW233354   0.829   2.761  17.237  0.1754 -0.4797 -0.1362
 7298SOL     OW33355   1.684   0.978   4.936  0.1541 -0.4634  0.6283
 7298SOL    HW133356   1.717   1.042   4.999  1.5183  0.5423 -1.0897
 7298SOL    HW233357   1.590   0.995   4.945 -0.3884 -1.9332 -2.3124
 7299SOL     OW33358   0.230   3.679  17.062 -0.0574  0.1276 -0.3228
 7299SOL    HW133359   0.174   3.710  16.991 -1.0293  0.3244  0.5295
 7299SOL    HW233360   0.282   3.619  17.009  0.2763  1.8309 -1.9154
 7300SOL     OW33361   2.266   0.677   5.319 -0.9434 -0.3309 -0.4566
 7300SOL    HW133362   2.212   0.730   5.261  0.5559  0.7118 -0.8977
 7300SOL    HW233363   2.340   0.737   5.331  0.2083 -2.1998  1.9353
 7301SOL     OW33364   1.345   1.918   9.251 -0.7005 -0.1746  0.2373
 7301SOL    HW133365   1.345   1.858   9.325  0.0518 -1.1159 -0.5196
 7301SOL    HW233366   1.350   1.994   9.309  0.1636 -0.1968  0.1845
 7302SOL     OW33367   2.130   3.550   4.411 -0.2351 -0.6222 -0.2684
 7302SOL    HW133368   2.076   3.561   4.333 -1.0875 -0.6436  0.3202
 7302SOL    HW233369   2.065   3.512   4.470 -2.0262  1.1452 -1.1413
 7303SOL     OW33370   3.793   3.046   4.729 -0.1177  0.3107  0.6289
 7303SOL    HW133371   3.802   3.139   4.709 -1.0107  0.0594 -0.9956
 7303SOL    HW233372   3.862   3.008   4.674  0.0175 -0.2506  1.1819
 7304SOL     OW33373   0.370   0.380   3.373 -0.1526 -0.2162 -0.1546
 7304SOL    HW133374   0.295   0.332   3.407  0.2060 -0.2367  0.6100
 7304SOL    HW233375   0.327   0.420   3.297  0.8606  2.0943  0.5013
 7305SOL     OW33376   0.882   4.666   1.122 -0.1376  0.1099  0.1795
 7305SOL    HW133377   0.977   4.665   1.122 -0.1430  0.6886  2.5955
 7305SOL    HW233378   0.867   4.700   1.033 -2.1048 -0.0669  0.4365
 7306SOL     OW33379   3.226   3.484   3.761  0.1645  0.4569  0.2441
 7306SOL    HW133380   3.175   3.421   3.811  1.1071 -0.5523 -0.0829
 7306SOL    HW233381   3.159   3.554   3.759  0.1182  0.4511  1.7034
 7307SOL     OW33382   1.899   0.078   6.719 -0.1154  0.0448  0.3433
 7307SOL    HW133383   1.991   0.068   6.698 -0.2687  0.5359 -0.5504
 7307SOL    HW233384   1.854   0.096   6.636 -0.6341  2.1115  1.0639
 7308SOL     OW33385   1.243   1.970   7.178  0.4595  0.3313 -0.4439
 7308SOL    HW133386   1.314   1.943   7.120  2.2555  0.8627  1.5138
 7308SOL    HW233387   1.171   1.982   7.115  1.3102  0.2272 -1.4363
 7309SOL     OW33388   3.847   4.545   4.158 -0.5142  0.5969  0.0004
 7309SOL    HW133389   3.849   4.505   4.245 -0.6028  3.1557  1.1577
 7309SOL    HW233390   3.914   4.487   4.121  0.3799  0.1863  2.2633
 7310SOL     OW33391   3.416   2.230   8.120 -0.2972 -0.1506  0.3836
 7310SOL    HW133392   3.369   2.214   8.038  0.7397  2.3576 -0.6970
 7310SOL    HW233393   3.370   2.298   8.169  2.1110  2.6657 -1.2738
 7311SOL     OW33394   1.242   3.178  16.377 -0.3308  0.0678 -0.1603
 7311SOL    HW133395   1.308   3.236  16.340 -0.3601 -1.3654 -2.4549
 7311SOL    HW233396   1.300   3.108  16.409  0.6241  1.8890  2.0836
 7312SOL     OW33397   2.895   1.714  10.951  0.2181 -0.0009  0.4505
 7312SOL    HW133398   2.959   1.650  10.982  0.8000  1.4886  2.3361
 7312SOL    HW233399   2.824   1.698  11.013  0.5083  1.0077  1.0437
 7313SOL     OW33400   2.748   3.090   8.395 -0.2126 -0.2269  0.5497
 7313SOL    HW133401   2.672   3.114   8.342  0.6692  1.6822  0.1258
 7313SOL    HW233402   2.814   3.141   8.347  1.5250 -3.6071 -0.6456
 7314SOL     OW33403   3.200   2.362  15.710 -0.0138  0.0277 -0.4990
 7314SOL    HW133404   3.131   2.313  15.665 -0.6730 -1.5493  2.2793
 7314SOL    HW233405   3.251   2.388  15.633 -0.7397  3.4266  0.1387
 7315SOL     OW33406   3.247   2.783   3.925  0.0308  0.4561 -0.3863
 7315SOL    HW133407   3.331   2.737   3.918 -1.3114 -2.0822 -0.0959
 7315SOL    HW233408   3.247   2.824   3.838 -0.1772 -1.8322 -1.4693
 7316SOL     OW33409   3.137   1.493   1.066  0.5596 -0.7983  0.0388
 7316SOL    HW133410   3.126   1.587   1.083  0.4593 -0.6527 -0.8215
 7316SOL    HW233411   3.197   1.487   0.991 -0.9355  1.6874 -1.3738
 7317SOL     OW33412   3.523   0.828  10.715  0.1339 -0.6313 -0.3083
 7317SOL    HW133413   3.605   0.876  10.701 -1.4309  1.4444 -2.2051
 7317SOL    HW233414   3.513   0.771  10.639 -1.6483 -0.0449 -0.4981
 7318SOL     OW33415   0.340   0.214   4.016 -0.7710 -0.2585 -0.5713
 7318SOL    HW133416   0.253   0.235   4.052 -0.8137 -0.4063 -0.5883
 7318SOL    HW233417   0.324   0.142   3.955 -1.2500 -0.0440 -0.7081
 7319SOL     OW33418   2.984   0.301   5.522 -0.4259 -0.2805  0.1080
 7319SOL    HW133419   3.013   0.221   5.480 -3.0370 -1.2377  0.1224
 7319SOL    HW233420   3.020   0.288   5.610  0.7537  0.5140 -0.2609
 7320SOL     OW33421   2.477   0.869   8.106 -0.1876 -0.0253 -0.2996
 7320SOL    HW133422   2.568   0.880   8.079  0.1196 -1.5816  0.0914
 7320SOL    HW233423   2.485   0.863   8.201  0.5483  0.5784 -0.3281
 7321SOL     OW33424   3.781   1.363   6.397  0.0672 -0.4310  0.1282
 7321SOL    HW133425   3.779   1.301   6.324 -1.0959  1.7237 -1.6586
 7321SOL    HW233426   3.793   1.302   6.470 -0.7287  0.3917  0.9558
 7322SOL     OW33427   1.961   2.239   8.831  0.2877  0.0242  0.6535
 7322SOL    HW133428   2.022   2.295   8.878  0.5287  1.5183 -1.4733
 7322SOL    HW233429   2.021   2.183   8.782 -0.2888 -0.6303  0.6904
 7323SOL     OW33430   2.705   3.419   1.994  0.2513 -0.5602 -0.2640
 7323SOL    HW133431   2.612   3.431   1.974 -0.6638 -2.4352  2.9002
 7323SOL    HW233432   2.706   3.450   2.085 -1.3853  0.1920 -0.4989
 7324SOL     OW33433   3.678   3.891   4.059 -0.4497  0.5813  0.1051
 7324SOL    HW133434   3.726   3.973   4.045 -0.6718  1.0556  2.1622
 7324SOL    HW233435   3.635   3.884   3.974  0.6897 -0.7032 -0.3657
 7325SOL     OW33436   3.202   0.994   3.915 -0.2732  0.0463  0.7756
 7325SOL    HW133437   3.293   1.024   3.912  0.2575 -1.6740 -0.6611
 7325SOL    HW233438   3.160   1.079   3.924  1.2947  1.0727 -1.5522
 7326SOL     OW33439   3.919   0.079   0.695 -0.0451 -0.4240  0.2626
 7326SOL    HW133440   3.887   0.088   0.605 -2.2006  0.8366  1.1631
 7326SOL    HW233441   3.986   0.147   0.700  3.0035 -3.5945  2.2628
 7327SOL     OW33442   4.021   4.274  11.651 -0.4899  0.3673  0.1721
 7327SOL    HW133443   4.112   4.262  11.626  0.3536  0.4039  3.2146
 7327SOL    HW233444   3.976   4.245  11.571 -0.2380  0.9613 -0.1802
 7328SOL     OW33445   3.318   2.485   3.664  0.6357  0.1978 -0.1081
 7328SOL    HW133446   3.237   2.444   3.633  1.0817  0.3784 -1.5249
 7328SOL    HW233447   3.330   2.488   3.759  2.1629 -0.8080 -0.2789
 7329SOL     OW33448   0.687   0.227  11.076 -0.1916  0.2548  0.0094
 7329SOL    HW133449   0.606   0.217  11.027  1.1780  0.3980 -2.2841
 7329SOL    HW233450   0.703   0.321  11.065  1.2110  0.0191  0.0723
 7330SOL     OW33451   4.508   2.467   1.994  0.0932  0.0557  0.5061
 7330SOL    HW133452   4.482   2.414   2.069  0.6671  0.4676  0.9934
 7330SOL    HW233453   4.418   2.491   1.970 -0.1721  0.6791  2.1812
 7331SOL     OW33454   0.567   0.799   5.957 -0.2303 -0.3174  0.2235
 7331SOL    HW133455   0.568   0.763   6.046  0.7768  0.9959  0.7591
 7331SOL    HW233456   0.483   0.844   5.963  1.4300  2.8241  0.2261
 7332SOL     OW33457   1.749   1.163   3.694  0.0278  0.4400 -0.2365
 7332SOL    HW133458   1.824   1.109   3.721  1.3927  1.2697 -2.3665
 7332SOL    HW233459   1.708   1.169   3.780  1.6835  0.6822  0.5456
 7333SOL     OW33460   2.557   1.687   6.450  0.7179 -0.0450  0.4388
 7333SOL    HW133461   2.573   1.757   6.387  1.7262 -0.8625 -0.2016
 7333SOL    HW233462   2.464   1.679   6.427  1.5874 -2.2852 -2.1708
 7334SOL     OW33463   3.533   3.435   3.204 -0.8364  0.4472  0.2198
 7334SOL    HW133464   3.546   3.516   3.253 -1.0654  0.0096  1.0125
 7334SOL    HW233465   3.620   3.425   3.166 -0.6907  1.0281  0.4082
 7335SOL     OW33466   3.841   0.709  12.588 -0.3049 -0.9875  0.4198
 7335SOL    HW133467   3.765   0.654  12.607 -1.7621  1.3766  1.3451
 7335SOL    HW233468   3.798   0.785  12.548  1.5028 -0.2932 -0.1888
 7336SOL     OW33469   2.050   2.351   3.969  0.7458  0.1180 -0.0028
 7336SOL    HW133470   1.997   2.340   3.890  4.3655 -2.4003 -2.0741
 7336SOL    HW233471   2.037   2.439   4.004  1.7781  0.6330 -0.9159
 7337SOL     OW33472   2.875   3.322   8.071  0.2574  0.4208 -0.6577
 7337SOL    HW133473   2.787   3.355   8.085  0.5659  1.1917 -0.5641
 7337SOL    HW233474   2.867   3.266   7.994 -0.5177  4.6147 -3.6156
 7338SOL     OW33475   3.404   1.031   2.085  0.3250 -0.3830 -0.2964
 7338SOL    HW133476   3.441   1.056   2.170  1.5599  0.2909 -1.0426
 7338SOL    HW233477   3.310   1.031   2.102  0.6709  1.3813  1.6522
 7339SOL     OW33478   3.794   3.096   2.827 -0.6348 -0.1288 -0.4124
 7339SOL    HW133479   3.734   3.072   2.757 -0.8330  1.0593 -0.6405
 7339SOL    HW233480   3.745   3.056   2.899  1.1962 -1.1268  0.2984
 7340SOL     OW33481   0.401   0.873   8.774  0.5374  0.3571 -0.3866
 7340SOL    HW133482   0.425   0.965   8.779  1.5029  0.1807 -1.5646
 7340SOL    HW233483   0.383   0.862   8.680  2.6899 -1.8012 -0.5390
 7341SOL     OW33484   1.682   0.015  12.858  0.1895  0.0506 -0.7295
 7341SOL    HW133485   1.656   0.107  12.851 -1.2080 -0.1495  1.9588
 7341SOL    HW233486   1.773   0.016  12.887  0.1171 -0.9479 -0.4515
 7342SOL     OW33487   3.931   1.354   4.696 -0.4978 -0.2732  0.4130
 7342SOL    HW133488   3.865   1.317   4.754  0.2146  0.2474  1.5451
 7342SOL    HW233489   3.978   1.403   4.763 -1.1050  0.1536  0.5223
 7343SOL     OW33490   2.053   3.606  16.983  0.6135 -0.6524 -0.4721
 7343SOL    HW133491   2.066   3.700  16.968  0.1466 -0.3632  0.9497
 7343SOL    HW233492   2.040   3.580  16.892  1.0631 -0.5896 -0.5523
 7344SOL     OW33493   1.545   2.461  13.764 -0.0895  0.0216  0.6060
 7344SOL    HW133494   1.574   2.371  13.746 -2.8771 -0.5661 -0.9357
 7344SOL    HW233495   1.470   2.467  13.705  0.3420  1.4099  0.1921
 7345SOL     OW33496   0.435   0.469  10.708 -0.0681  0.1927  0.6176
 7345SOL    HW133497   0.405   0.457  10.798 -0.5802  0.4374  0.4791
 7345SOL    HW233498   0.418   0.388  10.659  3.8317  0.5950 -1.4169
 7346SOL     OW33499   0.540   1.639   2.911  0.1820 -0.2439  0.1044
 7346SOL    HW133500   0.496   1.593   2.840 -0.4521  0.0068  0.3377
 7346SOL    HW233501   0.537   1.731   2.886  0.0508 -0.2565  0.0731
 7347SOL     OW33502   0.767   2.532  13.052  0.3062  1.0583  0.5735
 7347SOL    HW133503   0.735   2.599  13.112 -3.1020  1.2571 -1.4688
 7347SOL    HW233504   0.700   2.516  12.985 -0.8058  2.1303  1.4223
 7348SOL     OW33505   3.195   4.150   5.434 -0.4464  0.1543  0.4601
 7348SOL    HW133506   3.185   4.105   5.350  1.6081 -0.7465  0.6967
 7348SOL    HW233507   3.258   4.089   5.471  1.4312  1.8324  0.0718
 7349SOL     OW33508   4.081   4.000   4.893 -0.5609  0.1865 -0.1770
 7349SOL    HW133509   4.132   4.017   4.973  0.1443 -1.5404 -0.2615
 7349SOL    HW233510   4.138   4.037   4.826 -0.2271  0.2028  0.1135
 7350SOL     OW33511   4.698   3.197   2.667  0.0709  0.0878 -0.2343
 7350SOL    HW133512   4.669   3.116   2.708  2.8932 -1.0433 -0.4565
 7350SOL    HW233513   4.659   3.190   2.580  0.6031  1.0180 -0.5498
 7351SOL     OW33514   2.425   3.303   8.013 -0.0534 -0.7587 -0.0664
 7351SOL    HW133515   2.471   3.386   8.030  0.9428 -1.5014  0.8472
 7351SOL    HW233516   2.444   3.284   7.921  1.1941  1.0018 -0.1768
 7352SOL     OW33517   2.224   1.768   4.241  0.1824 -0.0577  0.2323
 7352SOL    HW133518   2.161   1.788   4.310  0.1036 -0.4933  0.2834
 7352SOL    HW233519   2.284   1.710   4.287  0.8082 -0.6045 -1.2809
 7353SOL     OW33520   3.592   2.337   2.178  0.1894 -0.1616  0.3733
 7353SOL    HW133521   3.524   2.272   2.161  1.2958 -1.5562  1.2748
 7353SOL    HW233522   3.572   2.401   2.110  1.9720 -0.6354 -0.5933
 7354SOL     OW33523   3.278   3.711   2.608  0.2705  0.3529 -0.1639
 7354SOL    HW133524   3.289   3.709   2.513  1.8567  1.4549 -0.0118
 7354SOL    HW233525   3.195   3.668   2.626 -0.9228  2.7613  0.0297
 7355SOL     OW33526   4.632   0.933   6.931  0.2989 -0.1430 -0.1674
 7355SOL    HW133527   4.700   1.001   6.931  1.5826 -1.4411  0.0846
 7355SOL    HW233528   4.548   0.979   6.935  1.0392  1.0837  1.2340
 7356SOL     OW33529   4.596   3.910   8.132 -0.3072 -0.2138  0.4479
 7356SOL    HW133530   4.675   3.890   8.182 -0.4886 -1.2944  0.3108
 7356SOL    HW233531   4.627   3.918   8.042 -3.0265 -0.7366 -0.5315
 7357SOL     OW33532   2.625   0.263   3.821 -0.2311 -0.0937 -0.5791
 7357SOL    HW133533   2.682   0.211   3.877  1.1817  1.0854 -0.8986
 7357SOL    HW233534   2.621   0.212   3.740 -1.7611  0.1563 -0.6517
 7358SOL     OW33535   3.029   4.276   4.804  0.0917  0.2752 -0.0233
 7358SOL    HW133536   2.969   4.229   4.863 -3.5136  2.0677 -2.3299
 7358SOL    HW233537   2.970   4.288   4.730  1.3283 -0.7921 -1.1922
 7359SOL     OW33538   1.947   4.008   8.275 -0.1923  0.4694  0.4150
 7359SOL    HW133539   1.883   4.046   8.335  0.1462  1.1251  0.3616
 7359SOL    HW233540   1.915   3.918   8.267 -0.1728  0.5265 -0.3536
 7360SOL     OW33541   2.595   4.334   1.284  0.3563  0.7287 -0.0197
 7360SOL    HW133542   2.538   4.280   1.229 -1.4815  0.0144  2.5902
 7360SOL    HW233543   2.586   4.284   1.365 -0.7351 -0.9534 -1.1846
 7361SOL     OW33544   2.737   1.456  16.523 -0.1362 -0.6850  0.2918
 7361SOL    HW133545   2.689   1.512  16.461  0.2572  1.4175  1.8687
 7361SOL    HW233546   2.778   1.391  16.465  1.2712 -0.6597  1.2487
 7362SOL     OW33547   1.456   3.868  11.614  0.1827 -0.3378 -0.6978
 7362SOL    HW133548   1.446   3.946  11.669  0.2946 -1.0083  0.2555
 7362SOL    HW233549   1.457   3.799  11.680  2.5619 -1.0373 -1.4633
 7363SOL     OW33550   1.664   1.849   7.277 -0.0394 -0.5225 -0.2248
 7363SOL    HW133551   1.751   1.886   7.288 -0.5052  0.6351 -0.4001
 7363SOL    HW233552   1.676   1.755   7.263 -1.1298 -0.7172  0.1078
 7364SOL     OW33553   0.258   3.105   5.572 -0.0619  0.4228  0.1096
 7364SOL    HW133554   0.322   3.110   5.643 -1.9497  1.7914  1.7071
 7364SOL    HW233555   0.299   3.078   5.489 -1.8365  0.6776 -0.8615
 7365SOL     OW33556   3.020   0.001   9.075  0.4777 -0.2954  0.8079
 7365SOL    HW133557   3.097   4.670   9.086  0.4634 -0.3376  0.6974
 7365SOL    HW233558   2.992   0.017   9.165  2.7683 -0.6645  1.5794
 7366SOL     OW33559   0.916   1.157   8.404 -0.0919 -0.2470 -0.0206
 7366SOL    HW133560   0.896   1.122   8.491  2.0543 -0.8565  0.2435
 7366SOL    HW233561   0.911   1.077   8.352 -0.4407  0.4385 -1.0308
 7367SOL     OW33562   4.460   0.755  13.488 -0.2798  0.1402  0.4820
 7367SOL    HW133563   4.416   0.802  13.559  0.4951 -0.2656  1.2251
 7367SOL    HW233564   4.465   0.830  13.428 -1.5607  0.4543  0.7735
 7368SOL     OW33565   1.620   3.465  14.133 -0.4316  0.3672 -0.6223
 7368SOL    HW133566   1.563   3.440  14.060  3.2795 -2.3739 -2.5857
 7368SOL    HW233567   1.663   3.385  14.163 -0.8178 -0.1083 -1.3608
 7369SOL     OW33568   3.349   1.572  15.115 -0.0296  0.3198  0.7999
 7369SOL    HW133569   3.369   1.502  15.053 -0.5947  0.3542  0.5751
 7369SOL    HW233570   3.318   1.640  15.054  0.9666 -0.0820 -0.1495
 7370SOL     OW33571   3.488   2.669   3.147  0.0120  0.2316 -0.5462
 7370SOL    HW133572   3.414   2.729   3.144 -1.7325 -1.7538  1.8152
 7370SOL    HW233573   3.532   2.706   3.224  2.7190 -0.9068 -1.5497
 7371SOL     OW33574   3.455   0.100   2.329  0.4726 -0.0659  0.1714
 7371SOL    HW133575   3.503   0.020   2.348  1.7645  1.0960  1.7400
 7371SOL    HW233576   3.364   0.073   2.345  0.4906  1.2794  2.5158
 7372SOL     OW33577   0.528   3.513   8.714  0.0725 -0.0724  0.0640
 7372SOL    HW133578   0.473   3.436   8.729 -1.6020  1.3719  1.3794
 7372SOL    HW233579   0.538   3.541   8.805 -0.1646 -2.5185  0.8556
 7373SOL     OW33580   2.946   1.921   2.981  0.0855  0.0473  0.5482
 7373SOL    HW133581   2.915   1.831   2.983 -1.7198  0.5810 -2.9641
 7373SOL    HW233582   2.952   1.925   2.885 -4.0843 -0.0793  0.2821
 7374SOL     OW33583   4.594   0.526  13.629  0.5415  0.2138 -0.6644
 7374SOL    HW133584   4.688   0.509  13.620  0.4135  0.7767 -3.0273
 7374SOL    HW233585   4.580   0.605  13.577 -0.7005  0.8824  0.6947
 7375SOL     OW33586   3.008   3.300   3.281  0.1775 -1.1803  0.0717
 7375SOL    HW133587   3.088   3.351   3.292  0.9086 -2.3178  0.0741
 7375SOL    HW233588   3.008   3.278   3.374 -3.2120  1.2684  0.6685
 7376SOL     OW33589   2.625   2.656  12.758  0.2147 -0.2825  0.3148
 7376SOL    HW133590   2.672   2.600  12.819 -0.3480 -0.4871  0.5610
 7376SOL    HW233591   2.563   2.593  12.721 -1.7885  1.3568  0.9015
 7377SOL     OW33592   0.329   4.068  15.324  0.0764  0.2349 -0.1206
 7377SOL    HW133593   0.387   3.996  15.298 -0.0818  0.2995 -0.6515
 7377SOL    HW233594   0.249   4.016  15.332  0.5338  0.0528  3.1817
 7378SOL     OW33595   1.079   4.504   3.914 -0.1005  0.4127  0.0341
 7378SOL    HW133596   1.038   4.418   3.921  1.5445 -0.3047  0.8131
 7378SOL    HW233597   1.120   4.497   3.828  1.6473 -1.5569  1.0322
 7379SOL     OW33598   1.817   0.998   5.981 -0.1685  0.4256  0.2659
 7379SOL    HW133599   1.791   1.081   5.940  0.5490  0.8256  0.6180
 7379SOL    HW233600   1.883   0.973   5.915 -1.2449  0.5768 -0.8697
 7380SOL     OW33601   1.777   0.741   3.991  0.2049  0.0532  0.1848
 7380SOL    HW133602   1.739   0.711   4.073 -1.5893 -0.6778 -0.9220
 7380SOL    HW233603   1.755   0.671   3.930  0.7624  0.5425 -0.5794
 7381SOL     OW33604   1.362   4.149   5.303  0.0586  0.4766 -0.2306
 7381SOL    HW133605   1.267   4.140   5.318 -0.0049  2.8726  0.8692
 7381SOL    HW233606   1.368   4.230   5.252  0.6187  1.1963  0.9696
 7382SOL     OW33607   4.203   3.872   2.610  0.1604 -0.2898  0.2548
 7382SOL    HW133608   4.256   3.931   2.556 -0.8777 -0.5504 -1.0422
 7382SOL    HW233609   4.219   3.786   2.572  1.1400  0.1470 -0.3356
 7383SOL     OW33610   1.821   3.039   7.667  0.5999 -0.0909  0.1313
 7383SOL    HW133611   1.876   3.055   7.590  0.3617 -1.3470 -0.3049
 7383SOL    HW233612   1.858   2.963   7.712 -0.8909 -1.0291 -0.2535
 7384SOL     OW33613   3.840   2.160   2.024 -0.4388  0.4907 -0.1893
 7384SOL    HW133614   3.799   2.176   1.939 -1.0899 -3.2654 -0.5860
 7384SOL    HW233615   3.818   2.243   2.067  0.4728 -0.6995  2.5587
 7385SOL     OW33616   3.350   0.532   8.710  0.1667 -0.7550 -1.2271
 7385SOL    HW133617   3.342   0.627   8.717  2.4123 -0.7129  0.5616
 7385SOL    HW233618   3.330   0.512   8.618 -0.6829  0.2142 -1.2576
 7386SOL     OW33619   1.931   3.627   6.799 -0.2316 -0.0387  0.5836
 7386SOL    HW133620   2.008   3.658   6.750 -1.8776  1.4185 -1.0835
 7386SOL    HW233621   1.913   3.546   6.752  0.4937 -0.4786  1.0669
 7387SOL     OW33622   2.540   4.007   2.462  0.0059 -0.2603 -0.3956
 7387SOL    HW133623   2.536   4.026   2.556 -2.0079  0.8881 -0.7241
 7387SOL    HW233624   2.481   4.070   2.421  0.0913  1.7391  2.4776
 7388SOL     OW33625   1.496   1.856   3.040  0.0468 -0.0558  0.5394
 7388SOL    HW133626   1.426   1.901   3.086 -0.6770  0.5578 -1.1632
 7388SOL    HW233627   1.485   1.765   3.067  2.5060 -0.6756 -0.5212
 7389SOL     OW33628   2.373   3.544   7.697  0.0938 -0.2692  0.3617
 7389SOL    HW133629   2.328   3.580   7.773 -1.1678  2.8590 -1.8867
 7389SOL    HW233630   2.464   3.561   7.723 -0.4182  0.7920  1.4432
 7390SOL     OW33631   1.962   0.434   9.605 -0.2036  0.0660 -1.3172
 7390SOL    HW133632   2.015   0.366   9.647  2.1413  2.8375  0.3197
 7390SOL    HW233633   2.011   0.507   9.644  1.0787 -1.5136  0.0666
 7391SOL     OW33634   1.683   0.945   4.680 -0.5031 -0.4008 -0.5544
 7391SOL    HW133635   1.673   0.934   4.774 -0.6184 -1.6892 -0.7221
 7391SOL    HW233636   1.633   0.870   4.647  0.3978 -1.4628  0.5152
 7392SOL     OW33637   0.865   4.630   8.915  0.3041  0.0442 -0.1434
 7392SOL    HW133638   0.937   4.583   8.957  0.6124  0.1820 -0.5122
 7392SOL    HW233639   0.859   4.588   8.829 -1.7738 -1.4510  0.7512
 7393SOL     OW33640   2.940   4.398   0.549 -0.2985  0.2113 -0.6107
 7393SOL    HW133641   2.911   4.428   0.635 -0.0867  0.2427 -0.5505
 7393SOL    HW233642   2.868   4.337   0.532  0.9646 -1.7445  1.2232
 7394SOL     OW33643   0.829   1.921   4.709 -0.4602 -0.0681 -0.1172
 7394SOL    HW133644   0.828   1.879   4.623  1.8083  0.1741 -0.2715
 7394SOL    HW233645   0.922   1.911   4.731 -0.8042 -1.2606  0.8074
 7395SOL     OW33646   2.698   2.780   8.903 -0.3258  0.0251  0.2369
 7395SOL    HW133647   2.663   2.859   8.944  0.6092  0.1684  0.7510
 7395SOL    HW233648   2.742   2.817   8.826 -0.8664  0.1723 -0.0027
 7396SOL     OW33649   0.324   2.625   5.636  0.3835 -0.5913  0.3442
 7396SOL    HW133650   0.408   2.633   5.591 -0.7827 -0.1795 -1.7262
 7396SOL    HW233651   0.340   2.689   5.706  0.4758 -0.0426 -0.1807
 7397SOL     OW33652   1.631   4.371   4.685 -0.3327  0.3075  0.1732
 7397SOL    HW133653   1.607   4.457   4.722 -1.6940  0.9139 -2.0922
 7397SOL    HW233654   1.542   4.347   4.658 -0.7823  0.5522  1.4455
 7398SOL     OW33655   4.135   1.615   5.990  0.6507 -0.1643  0.0576
 7398SOL    HW133656   4.066   1.601   5.925 -0.5578 -0.3223  1.3802
 7398SOL    HW233657   4.201   1.553   5.956 -1.1314 -2.1461  0.2018
 7399SOL     OW33658   3.968   3.812   3.414  0.5723 -0.0731  0.7515
 7399SOL    HW133659   3.933   3.726   3.438  0.7643 -0.3491  0.0273
 7399SOL    HW233660   4.004   3.853   3.493  3.6178 -1.6659  0.2087
 7400SOL     OW33661   2.444   1.299   5.557 -0.4006  0.7682 -0.1815
 7400SOL    HW133662   2.412   1.356   5.626  1.0176 -1.1665  2.1039
 7400SOL    HW233663   2.406   1.337   5.478 -2.1514 -0.7181 -0.0445
 7401SOL     OW33664   1.657   1.807   7.756 -0.7606  0.0387  0.0466
 7401SOL    HW133665   1.630   1.839   7.670 -0.5428  1.4468  0.5067
 7401SOL    HW233666   1.740   1.853   7.767  0.9014 -3.1286  0.5365
 7402SOL     OW33667   2.025   0.103   6.308 -0.7149  0.7717  0.1945
 7402SOL    HW133668   2.052   0.150   6.229  0.4332 -0.5254 -0.1770
 7402SOL    HW233669   2.066   0.166   6.368  0.2764 -1.5767  1.9546
 7403SOL     OW33670   3.372   1.808  11.236  0.3655  0.0942  0.0535
 7403SOL    HW133671   3.403   1.896  11.219 -1.1423  0.9794  1.7797
 7403SOL    HW233672   3.455   1.762  11.238  1.0537  1.3251 -0.5287
 7404SOL     OW33673   3.260   1.804  16.729 -0.1521  0.0657  0.2743
 7404SOL    HW133674   3.334   1.750  16.704 -0.2004  0.4101 -0.5978
 7404SOL    HW233675   3.201   1.735  16.699  2.3468 -2.0079  0.1202
 7405SOL     OW33676   0.020   0.568   3.634  0.3170  0.2673 -0.7002
 7405SOL    HW133677   0.085   0.505   3.664  0.4508  0.7718  0.0764
 7405SOL    HW233678   4.692   0.502   3.590  0.7742 -1.7985  1.8644
 7406SOL     OW33679   1.498   2.990  10.680 -0.6422  0.6785 -0.1633
 7406SOL    HW133680   1.556   3.054  10.721  0.8631 -0.2052 -0.8728
 7406SOL    HW233681   1.540   2.969  10.596  2.8716  2.1665  1.2295
 7407SOL     OW33682   0.948   1.999   5.387  0.1005 -0.2135  0.0330
 7407SOL    HW133683   0.909   1.977   5.471 -0.1714 -2.4961 -0.6921
 7407SOL    HW233684   0.928   1.916   5.343 -0.5889  0.0397 -0.1317
 7408SOL     OW33685   3.748   1.702   3.169 -0.2042 -0.3702  0.4926
 7408SOL    HW133686   3.718   1.772   3.111  0.5655  0.1264  0.6944
 7408SOL    HW233687   3.661   1.665   3.184 -0.6499  1.3986  2.3191
 7409SOL     OW33688   2.984   2.389  11.078 -0.3564 -0.2870 -0.0130
 7409SOL    HW133689   3.019   2.353  10.997 -0.7159 -1.6297  0.4278
 7409SOL    HW233690   3.021   2.477  11.083  1.2882 -0.9721  0.0596
 7410SOL     OW33691   0.803   0.430  15.228 -0.3561  0.0653  0.4840
 7410SOL    HW133692   0.866   0.363  15.254  1.4456  0.8692 -1.7682
 7410SOL    HW233693   0.719   0.385  15.240  0.3051 -0.8975  1.4278
 7411SOL     OW33694   4.664   1.130   7.550  0.0532 -0.1200 -0.6235
 7411SOL    HW133695   4.676   1.095   7.638 -0.8205 -0.5079 -0.6674
 7411SOL    HW233696   4.638   1.048   7.509 -1.4007 -0.2168  0.5194
 7412SOL     OW33697   2.103   2.865   6.588  0.1717 -0.1912  0.1183
 7412SOL    HW133698   2.127   2.956   6.572 -0.4770  0.4149  2.5333
 7412SOL    HW233699   2.040   2.851   6.518 -0.4670  1.0621  0.4371
 7413SOL     OW33700   1.022   4.313   8.397  1.0159  0.1141 -0.0061
 7413SOL    HW133701   1.073   4.301   8.476 -0.6632 -2.9214  0.6232
 7413SOL    HW233702   0.963   4.238   8.396  0.1288  0.7936  1.5540
 7414SOL     OW33703   4.192   2.086   5.512  0.0688 -0.3738  0.0592
 7414SOL    HW133704   4.179   2.001   5.472  3.1250 -1.0408  0.4648
 7414SOL    HW233705   4.208   2.150   5.443  0.3150  0.0149  0.4739
 7415SOL     OW33706   1.968   3.142   5.336  0.5185 -0.5299 -0.2847
 7415SOL    HW133707   1.984   3.203   5.264 -0.9097  0.7862  0.5117
 7415SOL    HW233708   1.930   3.200   5.401  0.4827  0.1532 -0.9107
 7416SOL     OW33709   0.601   4.053   3.195  0.2844 -0.5440  0.0400
 7416SOL    HW133710   0.686   4.091   3.172  0.5428 -0.1488  1.6172
 7416SOL    HW233711   0.550   4.102   3.130 -1.1914  0.3237  1.8553
 7417SOL     OW33712   1.368   3.514   1.450 -0.2859 -0.0500  0.0835
 7417SOL    HW133713   1.338   3.591   1.401  2.2853  1.8579  1.4916
 7417SOL    HW233714   1.335   3.450   1.388 -0.1892 -0.3303  0.3237
 7418SOL     OW33715   3.822   0.137   9.907  0.1560  0.6737  0.4253
 7418SOL    HW133716   3.893   0.085   9.870 -1.9119 -0.7665 -1.5273
 7418SOL    HW233717   3.767   0.063   9.932  1.1828 -0.0943  0.4035
 7419SOL     OW33718   3.877   3.944   1.458  0.4470 -0.2385  0.0789
 7419SOL    HW133719   3.949   4.006   1.464  1.0568 -0.8291 -1.1533
 7419SOL    HW233720   3.824   3.966   1.535  0.1499 -0.1472 -0.1495
 7420SOL     OW33721   0.788   2.703   3.207 -0.4424  0.3281 -0.0108
 7420SOL    HW133722   0.812   2.796   3.210 -2.3096  0.7023  3.6587
 7420SOL    HW233723   0.693   2.694   3.214 -0.4173  0.1173  0.0451
 7421SOL     OW33724   3.054   1.105  15.087  0.4440 -0.8509 -0.0976
 7421SOL    HW133725   3.085   1.126  14.999  0.4809 -2.0935 -0.3718
 7421SOL    HW233726   2.965   1.140  15.089  1.1411  0.8503  0.7636
 7422SOL     OW33727   2.245   3.747   4.046  0.1032  0.3027 -0.0255
 7422SOL    HW133728   2.217   3.825   4.093  0.8299  1.6532 -1.8773
 7422SOL    HW233729   2.324   3.777   4.002 -0.0500 -0.0486 -0.5431
 7423SOL     OW33730   3.124   2.218   4.366  0.1266 -0.2940 -0.7358
 7423SOL    HW133731   3.111   2.303   4.323 -0.3887  0.8812  1.7337
 7423SOL    HW233732   3.056   2.167   4.323 -1.2651  0.1933  0.8949
 7424SOL     OW33733   2.562   4.185  15.167 -0.5429  0.4752  0.3837
 7424SOL    HW133734   2.632   4.163  15.228 -1.0849  0.5437  1.0213
 7424SOL    HW233735   2.489   4.135  15.201 -0.4460 -0.6064 -0.9762
 7425SOL     OW33736   2.270   3.753   7.298  0.5519 -0.2364 -0.1829
 7425SOL    HW133737   2.293   3.781   7.386 -0.4514 -0.6265  0.2066
 7425SOL    HW233738   2.315   3.668   7.299 -0.1262 -0.5818  1.2007
 7426SOL     OW33739   2.888   0.350   8.233  0.1865 -0.1553 -0.8500
 7426SOL    HW133740   2.867   0.264   8.268  2.0430  0.8258  2.6694
 7426SOL    HW233741   2.942   0.324   8.158 -0.9471 -0.2650 -1.6315
 7427SOL     OW33742   2.739   4.096   7.829  0.5044  0.2470  0.6978
 7427SOL    HW133743   2.734   4.008   7.865 -1.0557 -0.2332 -0.7457
 7427SOL    HW233744   2.834   4.108   7.835  0.8468 -1.8947 -0.4170
 7428SOL     OW33745   0.287   0.099  14.043  0.1607 -0.4311  0.4468
 7428SOL    HW133746   0.196   0.100  14.075 -0.0719 -1.2814 -0.1810
 7428SOL    HW233747   0.302   0.006  14.060 -0.0926 -0.7965 -1.3034
 7429SOL     OW33748   3.583   2.665   6.368 -0.1483  0.1600 -0.0493
 7429SOL    HW133749   3.518   2.732   6.387  2.1024  2.8880 -1.9195
 7429SOL    HW233750   3.654   2.720   6.336  0.3539 -1.5325 -1.8655
 7430SOL     OW33751   0.907   3.576  15.256  0.6515  0.1166  0.3684
 7430SOL    HW133752   0.957   3.579  15.175 -1.4398  0.9875 -0.8805
 7430SOL    HW233753   0.914   3.665  15.291  2.2878  0.9144 -2.0124
 7431SOL     OW33754   1.966   0.890   6.226 -0.1949 -0.3150 -0.0554
 7431SOL    HW133755   1.887   0.893   6.280  0.7517 -0.4906  1.3483
 7431SOL    HW233756   1.998   0.980   6.228 -0.8113 -0.0483 -3.3774
 7432SOL     OW33757   0.614   0.693  16.231  0.4108 -0.3979  0.2960
 7432SOL    HW133758   0.525   0.664  16.209 -0.3373  3.3835 -1.7562
 7432SOL    HW233759   0.584   0.741  16.308 -0.9589 -0.8654  0.0625
 7433SOL     OW33760   2.343   3.063  12.816  0.8407  0.4703 -0.1432
 7433SOL    HW133761   2.425   3.108  12.795  1.6266 -0.6602  0.5250
 7433SOL    HW233762   2.363   2.983  12.767  2.2646  1.1536 -0.6698
 7434SOL     OW33763   2.552   1.931   5.670 -0.2731 -0.4888  0.2331
 7434SOL    HW133764   2.514   1.875   5.602 -1.5806  1.1877 -0.4056
 7434SOL    HW233765   2.495   2.008   5.671  2.2512  1.3982 -0.5386
 7435SOL     OW33766   3.799   1.763   6.697  0.2292 -0.6439 -0.4545
 7435SOL    HW133767   3.727   1.719   6.743 -1.3408  1.3799 -0.9461
 7435SOL    HW233768   3.834   1.828   6.758  0.9575 -0.7273 -0.7821
 7436SOL     OW33769   2.349   2.012   8.411 -0.0173  0.0253 -0.8022
 7436SOL    HW133770   2.321   1.962   8.488  1.7376  1.2481  0.6245
 7436SOL    HW233771   2.320   1.961   8.335  1.0720  0.3875 -1.4647
 7437SOL     OW33772   3.738   2.820   4.238  0.1962 -0.0982  0.2175
 7437SOL    HW133773   3.798   2.874   4.187 -0.8085  1.0665  0.2554
 7437SOL    HW233774   3.732   2.871   4.319  4.0530 -0.1333  0.5129
 7438SOL     OW33775   4.205   0.832  17.533 -0.3967 -0.1887 -0.6529
 7438SOL    HW133776   4.235   0.916  17.569  2.1692 -0.9728 -0.9332
 7438SOL    HW233777   4.132   0.857  17.478 -0.3254 -1.2093 -1.2143
 7439SOL     OW33778   2.008   0.104  15.039 -0.4448  0.3009 -0.0077
 7439SOL    HW133779   2.000   0.184  15.091 -0.2395  0.6660 -0.5399
 7439SOL    HW233780   2.059   0.130  14.962 -1.3196  5.4859  1.1958
 7440SOL     OW33781   3.565   0.502   3.022 -0.3278  0.1611  0.1675
 7440SOL    HW133782   3.606   0.451   3.091  0.1467 -2.2809 -1.9269
 7440SOL    HW233783   3.578   0.450   2.943  1.8216  0.1391  0.5445
 7441SOL     OW33784   1.772   3.173   3.511  0.1833  0.6173 -0.5491
 7441SOL    HW133785   1.801   3.241   3.572 -0.2020  1.6216 -1.4926
 7441SOL    HW233786   1.754   3.098   3.568  1.3078 -0.1599 -1.2251
 7442SOL     OW33787   0.487   4.486   3.605  0.2147  0.2888  0.1545
 7442SOL    HW133788   0.408   4.486   3.551  0.3730  0.0790 -0.0781
 7442SOL    HW233789   0.450   4.463   3.690 -2.5254 -0.6677 -1.3241
 7443SOL     OW33790   2.163   3.125   6.535  0.3682  0.3084  0.1348
 7443SOL    HW133791   2.096   3.159   6.476  0.5054  1.2291  0.5157
 7443SOL    HW233792   2.210   3.202   6.566  0.7022 -0.7668  2.2468
 7444SOL     OW33793   4.433   4.386  13.637  0.4740  0.6741  0.3291
 7444SOL    HW133794   4.515   4.432  13.655  0.2894  0.9322  0.5054
 7444SOL    HW233795   4.442   4.308  13.691  1.9303  0.3574 -0.3459
 7445SOL     OW33796   0.634   0.784   2.588  0.2127 -0.0628 -0.0885
 7445SOL    HW133797   0.560   0.727   2.570  0.3924  0.2621 -1.8026
 7445SOL    HW233798   0.607   0.871   2.561  0.3286  0.5171  1.6359
 7446SOL     OW33799   3.902   1.126   4.160 -0.2107  0.2864  0.0583
 7446SOL    HW133800   3.963   1.054   4.174  1.5992  1.8213 -0.0284
 7446SOL    HW233801   3.913   1.163   4.248 -0.7911 -0.9407  0.6451
 7447SOL     OW33802   0.240   3.110   3.785  0.0104  0.1839  0.0299
 7447SOL    HW133803   0.250   3.124   3.879  1.0185  0.3722 -0.0992
 7447SOL    HW233804   0.230   3.204   3.766 -1.5916 -0.0842 -0.4357
 7448SOL     OW33805   1.055   0.436   3.085  0.1831  0.3287  0.1673
 7448SOL    HW133806   1.041   0.530   3.074  3.3359  0.5899 -1.5411
 7448SOL    HW233807   0.962   0.412   3.089 -0.1149  1.5655  0.6663
 7449SOL     OW33808   3.489   0.540   5.002  0.4288  0.4600  0.1307
 7449SOL    HW133809   3.415   0.593   4.974 -0.4242 -0.2627  1.0434
 7449SOL    HW233810   3.561   0.587   4.960 -0.2590 -1.0931 -2.7893
 7450SOL     OW33811   1.998   2.276  10.270 -0.4301  0.5747 -0.5419
 7450SOL    HW133812   2.093   2.269  10.260 -0.3142 -0.6025  1.3263
 7450SOL    HW233813   1.994   2.346  10.206 -0.8891 -0.1483 -1.3023
 7451SOL     OW33814   2.058   1.413   6.850 -0.3499  0.1246 -0.3108
 7451SOL    HW133815   2.006   1.333   6.850  0.0965 -0.1750 -2.5417
 7451SOL    HW233816   2.063   1.432   6.944 -1.0079 -0.2121 -0.2095
 7452SOL     OW33817   0.766   2.307   2.956 -0.4187  0.0629  0.2274
 7452SOL    HW133818   0.725   2.327   3.041 -2.0482  2.4397 -1.1308
 7452SOL    HW233819   0.838   2.370   2.961 -1.4544  1.3361 -0.8632
 7453SOL     OW33820   3.930   3.330   4.951  0.6659 -0.1264 -0.6475
 7453SOL    HW133821   3.925   3.235   4.945  1.0528 -0.2033  0.2740
 7453SOL    HW233822   4.022   3.356   4.946  0.3440  0.7677 -2.1086
 7454SOL     OW33823   0.857   1.160   4.283  0.2161 -0.0533 -0.2385
 7454SOL    HW133824   0.922   1.158   4.213  1.0060  0.7116  0.4818
 7454SOL    HW233825   0.779   1.132   4.234 -0.4452  1.8883 -0.2807
 7455SOL     OW33826   1.332   4.398   7.959  0.6428  0.1805 -0.3275
 7455SOL    HW133827   1.354   4.305   7.965  0.4315  0.1951  0.6115
 7455SOL    HW233828   1.366   4.440   8.038 -2.7194  0.0816  1.1631
 7456SOL     OW33829   0.623   1.980   2.109  0.1175 -0.0691 -0.2256
 7456SOL    HW133830   0.632   2.063   2.155 -1.1634  0.2550 -0.5701
 7456SOL    HW233831   0.583   1.999   2.025  2.3412  2.1665 -0.7844
 7457SOL     OW33832   3.210   1.975   5.201  0.0509 -0.1050  0.2560
 7457SOL    HW133833   3.262   1.896   5.188 -2.1408 -1.4052 -0.5839
 7457SOL    HW233834   3.130   1.951   5.153 -0.9821 -0.7263  2.3051
 7458SOL     OW33835   0.722   0.910   3.952 -0.1715  0.1384  0.8434
 7458SOL    HW133836   0.705   0.856   4.029  1.1020 -0.1139  0.9493
 7458SOL    HW233837   0.790   0.969   3.986  2.4802 -1.3421 -1.8678
 7459SOL     OW33838   0.662   0.489  11.406 -0.4797 -0.1610  0.1747
 7459SOL    HW133839   0.597   0.558  11.393 -0.6209 -0.3227  0.0303
 7459SOL    HW233840   0.649   0.425  11.336 -2.1409  0.5321 -0.1480
 7460SOL     OW33841   0.399   2.506  10.703 -0.2173 -0.2518  0.2853
 7460SOL    HW133842   0.441   2.429  10.742 -5.0782 -3.5683 -0.9768
 7460SOL    HW233843   0.476   2.548  10.665 -0.8266  0.6580  0.0667
 7461SOL     OW33844   0.162   1.744  13.833  0.1099  0.1396  0.0390
 7461SOL    HW133845   0.246   1.736  13.878  0.0142 -2.6794 -0.2958
 7461SOL    HW233846   0.161   1.721  13.740 -1.0269  0.6828 -0.0902
 7462SOL     OW33847   3.139   1.765   3.357 -0.2621  0.1178  0.1484
 7462SOL    HW133848   3.216   1.818   3.335  1.1247 -1.6271  0.8119
 7462SOL    HW233849   3.132   1.712   3.277 -1.5511 -0.3552  0.5843
 7463SOL     OW33850   2.570   1.314  10.431 -0.0933 -0.1981 -0.3840
 7463SOL    HW133851   2.545   1.319  10.339  1.4800 -0.5044 -0.8264
 7463SOL    HW233852   2.532   1.230  10.456 -1.1588  0.0795 -1.0717
 7464SOL     OW33853   4.345   3.801   8.226 -0.2069  0.2230  0.8463
 7464SOL    HW133854   4.403   3.869   8.194  2.5129 -1.1215  2.8918
 7464SOL    HW233855   4.406   3.727   8.231 -0.3240  0.1847  1.8184
 7465SOL     OW33856   2.678   2.521   3.880  0.0133  0.0965  0.0052
 7465SOL    HW133857   2.638   2.438   3.854 -4.2973  2.0441  0.5680
 7465SOL    HW233858   2.614   2.565   3.935 -1.1638  1.3800 -2.3819
 7466SOL     OW33859   2.135   0.403   6.904  0.4738 -0.5307  0.1963
 7466SOL    HW133860   2.040   0.390   6.897  0.4668  0.4876 -1.4517
 7466SOL    HW233861   2.161   0.425   6.815  0.2773 -1.8982 -0.2098
 7467SOL     OW33862   2.449   3.939   4.779  0.1630 -0.1982 -0.2993
 7467SOL    HW133863   2.543   3.928   4.788 -0.0399 -1.1598  0.8195
 7467SOL    HW233864   2.422   3.850   4.754  0.0482  0.0632 -1.0928
 7468SOL     OW33865   2.919   1.273  15.403 -0.2327  0.2962  0.3446
 7468SOL    HW133866   2.997   1.307  15.359  0.4953 -0.1194  1.3006
 7468SOL    HW233867   2.848   1.336  15.389  0.5496  0.9164 -0.8116
 7469SOL     OW33868   3.855   4.120   4.305  0.5892  0.1775 -0.2290
 7469SOL    HW133869   3.906   4.057   4.356 -0.6265  1.5950  2.7260
 7469SOL    HW233870   3.820   4.165   4.381  2.3335 -0.5344  0.9986
 7470SOL     OW33871   1.086   3.597  12.697 -0.1699 -0.5418  0.4626
 7470SOL    HW133872   1.072   3.691  12.709  0.1041 -0.8858  3.4693
 7470SOL    HW233873   1.052   3.566  12.781  0.5042  0.9483  1.2720
 7471SOL     OW33874   0.734   0.166   8.404  0.2140 -0.2042  0.1270
 7471SOL    HW133875   0.829   0.179   8.411  0.2649 -0.1360 -0.6755
 7471SOL    HW233876   0.701   0.255   8.416  2.0741  0.7263 -1.5453
 7472SOL     OW33877   0.077   4.328   6.545  0.6158  0.4630  0.4528
 7472SOL    HW133878   0.170   4.345   6.528  0.0089  2.3069 -0.9266
 7472SOL    HW233879   0.046   4.278   6.470 -1.7716  1.4007  0.8332
 7473SOL     OW33880   4.383   2.309  16.018 -0.0696  0.2421 -0.0200
 7473SOL    HW133881   4.459   2.264  16.056  0.7406  2.0950  0.5152
 7473SOL    HW233882   4.325   2.283  16.090 -1.2973  0.1688 -1.0379
 7474SOL     OW33883   1.104   4.607  14.270  0.4434 -0.0187 -0.3073
 7474SOL    HW133884   1.159   4.606  14.348 -1.7638  2.5493  1.2779
 7474SOL    HW233885   1.117   4.697  14.240 -0.6522 -0.4806 -2.1495
 7475SOL     OW33886   0.776   4.391   1.128  0.1080  0.4228  0.0883
 7475SOL    HW133887   0.846   4.359   1.071  1.0126  1.6177  0.5153
 7475SOL    HW233888   0.763   4.473   1.081  0.4491  1.2129  1.3560
 7476SOL     OW33889   1.801   4.189  17.020 -0.1196  0.0866 -0.0480
 7476SOL    HW133890   1.852   4.204  17.100 -0.3479 -4.2613  0.8980
 7476SOL    HW233891   1.712   4.208  17.053 -0.1640 -1.1482  0.5712
 7477SOL     OW33892   2.771   1.509   5.210 -0.0734  0.5497 -0.2518
 7477SOL    HW133893   2.841   1.557   5.164  0.1806 -0.1954 -0.6497
 7477SOL    HW233894   2.783   1.426   5.164 -3.0468  0.2617 -0.5041
 7478SOL     OW33895   1.080   3.565   6.761 -0.3349  0.0872  0.3111
 7478SOL    HW133896   1.025   3.594   6.835  0.1829  2.1215 -0.1093
 7478SOL    HW233897   1.161   3.532   6.799 -2.0784 -3.0518  1.3700
 7479SOL     OW33898   4.558   1.848   0.288 -0.2549  0.6793 -0.0812
 7479SOL    HW133899   4.559   1.852   0.192 -0.0518  2.2300 -0.0194
 7479SOL    HW233900   4.641   1.885   0.318  0.1153  0.5008 -0.8811
 7480SOL     OW33901   0.716   1.680   6.346  0.3463  0.1810  0.3278
 7480SOL    HW133902   0.677   1.609   6.398  0.4179  2.6116  3.6395
 7480SOL    HW233903   0.641   1.740   6.345 -0.8730 -1.3418 -0.6601
 7481SOL     OW33904   2.375   0.282  15.019 -0.7059  0.0122 -0.3981
 7481SOL    HW133905   2.434   0.208  15.002 -0.7685 -0.3561  1.0287
 7481SOL    HW233906   2.324   0.286  14.938 -0.3628  2.2031 -0.5169
 7482SOL     OW33907   1.464   2.140   5.275  0.1490 -0.0583  0.1174
 7482SOL    HW133908   1.476   2.095   5.358  3.3642 -1.2560 -1.0056
 7482SOL    HW233909   1.369   2.152   5.281  0.0615 -1.6241  1.6722
 7483SOL     OW33910   3.106   1.613   3.117 -0.2365  0.8646  0.0197
 7483SOL    HW133911   3.103   1.602   3.022  1.1983  2.1797 -0.1724
 7483SOL    HW233912   3.017   1.584   3.138  0.3207 -0.2996  0.7253
 7484SOL     OW33913   1.046   3.196   5.269  0.4521 -0.4364 -0.2566
 7484SOL    HW133914   1.010   3.130   5.209  0.1957 -0.3438 -0.2055
 7484SOL    HW233915   1.007   3.161   5.349  0.3496  4.5870  1.9019
 7485SOL     OW33916   0.066   3.324   7.684  0.6183  0.0811  0.4819
 7485SOL    HW133917   0.153   3.287   7.670  0.8788 -0.0648  2.4193
 7485SOL    HW233918   0.049   3.352   7.594 -0.2182  0.9608  0.9145
 7486SOL     OW33919   3.829   3.929   5.375 -0.5961  0.3338  0.2262
 7486SOL    HW133920   3.867   3.873   5.443 -0.5682 -0.0046 -0.0689
 7486SOL    HW233921   3.844   3.869   5.303  2.5196  0.4462  0.7998
 7487SOL     OW33922   2.044   3.231  12.117  0.1556  0.0654  0.1521
 7487SOL    HW133923   2.098   3.299  12.158  0.4656 -0.9837  1.4666
 7487SOL    HW233924   1.960   3.273  12.135  0.3622  1.3678 -1.8995
 7488SOL     OW33925   0.781   1.074   5.563  0.5311 -0.5189 -0.9679
 7488SOL    HW133926   0.790   1.035   5.477  0.4871 -0.2537 -1.0915
 7488SOL    HW233927   0.796   1.166   5.541 -1.5624  0.0657 -0.0022
 7489SOL     OW33928   0.106   4.156   7.148  0.1084 -0.4686 -0.4090
 7489SOL    HW133929   0.117   4.246   7.179  1.5258 -0.7788 -0.0314
 7489SOL    HW233930   0.022   4.133   7.187  0.2189  1.2282  0.8115
 7490SOL     OW33931   3.973   3.832   2.404  0.0473  0.2403  0.7185
 7490SOL    HW133932   3.900   3.798   2.455  0.5109 -2.6816 -0.5288
 7490SOL    HW233933   3.998   3.915   2.444 -2.6768  1.2752  0.2310
 7491SOL     OW33934   3.368   3.516  13.677 -0.1318 -0.0744 -0.3415
 7491SOL    HW133935   3.445   3.568  13.654  2.2548 -2.9318  1.2660
 7491SOL    HW233936   3.378   3.440  13.620 -1.5494 -0.4928 -0.0496
 7492SOL     OW33937   2.175   0.279   9.740 -0.6767  0.0145  0.2411
 7492SOL    HW133938   2.152   0.319   9.824  3.2266  1.9308  0.3829
 7492SOL    HW233939   2.225   0.345   9.692  0.2554 -1.5178 -0.8782
 7493SOL     OW33940   1.824   2.205   5.637  0.2956  0.0406 -0.0321
 7493SOL    HW133941   1.828   2.290   5.593  0.3939  0.4453  0.7539
 7493SOL    HW233942   1.897   2.210   5.698  1.9653  1.4344 -2.1350
 7494SOL     OW33943   1.964   2.561  16.801  0.9519  0.3406 -0.0361
 7494SOL    HW133944   1.919   2.508  16.866 -0.2937 -0.3038 -1.4248
 7494SOL    HW233945   2.018   2.488  16.770  0.7380  0.3876 -0.5115
 7495SOL     OW33946   1.030   1.303   4.090 -0.5039  0.3681 -0.4535
 7495SOL    HW133947   1.089   1.308   4.165  0.1172  0.8034 -0.9724
 7495SOL    HW233948   1.073   1.375   4.045 -0.1532  0.7622  0.5206
 7496SOL     OW33949   1.843   4.287   4.025 -0.4177  0.0179 -0.2453
 7496SOL    HW133950   1.857   4.328   3.940 -0.4789  1.7907  0.6136
 7496SOL    HW233951   1.874   4.199   4.002 -2.2042 -0.1393 -1.9705
 7497SOL     OW33952   0.426   4.003   6.124 -0.8709  0.3981  0.2024
 7497SOL    HW133953   0.367   4.034   6.056 -1.4651 -2.1228 -0.4464
 7497SOL    HW233954   0.501   4.063   6.122  0.9341 -1.9327 -3.2095
 7498SOL     OW33955   4.481   3.339   9.466  0.0919 -0.0195  0.1840
 7498SOL    HW133956   4.437   3.254   9.470 -2.2283  1.2074  1.1437
 7498SOL    HW233957   4.474   3.362   9.558 -0.6379  1.9448 -0.3436
 7499SOL     OW33958   0.786   0.907   7.249  0.3388 -0.0572  0.0138
 7499SOL    HW133959   0.771   0.992   7.208  1.5860  0.1355 -0.0315
 7499SOL    HW233960   0.840   0.930   7.324 -0.1766  0.0370  0.3564
 7500SOL     OW33961   3.271   3.459  14.918 -0.0346  0.0096 -0.4601
 7500SOL    HW133962   3.331   3.385  14.914  1.1444  0.8067  2.2664
 7500SOL    HW233963   3.283   3.491  14.829  2.7922  1.0142  0.2794
 7501SOL     OW33964   3.976   0.143   7.144  0.3996 -0.1438 -0.5107
 7501SOL    HW133965   4.017   0.229   7.154  0.9287 -0.6146  1.3865
 7501SOL    HW233966   3.884   0.160   7.164  1.3598  1.7115  2.2774
 7502SOL     OW33967   3.815   4.627   1.817 -0.0771 -0.2189 -0.2931
 7502SOL    HW133968   3.731   4.671   1.830 -1.2793 -1.9837 -2.0985
 7502SOL    HW233969   3.877   4.682   1.865  0.2577 -1.1223  0.3105
 7503SOL     OW33970   2.614   0.081   2.502  0.4739 -0.2685  0.0067
 7503SOL    HW133971   2.529   0.125   2.496  0.5313 -0.2065 -0.3495
 7503SOL    HW233972   2.666   0.146   2.454  1.0919  0.5715  1.8146
 7504SOL     OW33973   1.687   4.634   7.520  0.1448  0.1716  0.0570
 7504SOL    HW133974   1.616   4.683   7.561  1.2398  2.3619 -0.6544
 7504SOL    HW233975   1.747   4.705   7.495  0.7470 -0.7620 -1.1469
 7505SOL     OW33976   0.547   2.792  12.780  0.1703 -0.6101 -0.6201
 7505SOL    HW133977   0.509   2.789  12.867 -1.7668 -0.7179 -1.4762
 7505SOL    HW233978   0.620   2.730  12.787  0.1346 -0.6554 -0.6441
 7506SOL     OW33979   2.435   0.329   2.253 -0.2795 -0.4494  0.5309
 7506SOL    HW133980   2.515   0.328   2.201 -0.9297 -1.9532 -0.4387
 7506SOL    HW233981   2.396   0.416   2.247  0.3970 -0.1849  0.0332
 7507SOL     OW33982   4.172   4.123   4.680 -0.7092 -0.4167  0.9806
 7507SOL    HW133983   4.189   4.080   4.596 -1.9095  3.4649 -1.2435
 7507SOL    HW233984   4.114   4.196   4.657  0.1815 -0.0186 -0.0011
 7508SOL     OW33985   1.430   0.288   4.025  0.3759 -0.1105  0.5208
 7508SOL    HW133986   1.457   0.208   4.070 -0.2044 -0.6846 -0.1466
 7508SOL    HW233987   1.500   0.348   4.049 -0.1580  0.5314  0.4581
 7509SOL     OW33988   0.964   2.143   5.017  0.1715  0.3727 -0.0158
 7509SOL    HW133989   0.893   2.080   5.008 -0.3256  1.2584 -2.3048
 7509SOL    HW233990   0.971   2.161   4.924  1.1359 -3.5566 -0.6652
 7510SOL     OW33991   0.990   2.550   4.214  0.0828  0.5835 -0.6999
 7510SOL    HW133992   0.929   2.478   4.195 -0.5121  1.1508 -0.9811
 7510SOL    HW233993   0.987   2.545   4.309  0.9110 -1.2795 -0.7669
 7511SOL     OW33994   4.510   3.151   7.340  0.1859 -0.1158 -0.3659
 7511SOL    HW133995   4.526   3.228   7.286  1.9944 -0.2540 -0.0079
 7511SOL    HW233996   4.417   3.130   7.328  0.0703  0.1981 -0.0174
 7512SOL     OW33997   4.362   0.243   9.947  0.4174 -0.1455  0.0894
 7512SOL    HW133998   4.323   0.192  10.018  0.7859 -1.4178 -0.6136
 7512SOL    HW233999   4.371   0.175   9.880 -0.4762  0.6419 -0.8485
 7513SOL     OW34000   3.587   2.545   2.675  0.1120  0.7421 -0.4149
 7513SOL    HW134001   3.537   2.506   2.746  1.4160  0.9351  0.5996
 7513SOL    HW234002   3.599   2.467   2.621 -0.1854 -3.0063  4.9474
 7514SOL     OW34003   1.188   0.954   1.058 -0.0047  0.0317 -0.0252
 7514SOL    HW134004   1.134   1.013   1.111  1.7018  0.4863  1.2181
 7514SOL    HW234005   1.125   0.894   1.018  0.7778 -0.2559 -0.8276
 7515SOL     OW34006   1.769   1.313   3.478  0.7032  0.3802  0.4429
 7515SOL    HW134007   1.708   1.377   3.514 -0.4395  1.7132 -3.9233
 7515SOL    HW234008   1.748   1.235   3.530 -1.3716  0.6079 -0.0727
 7516SOL     OW34009   3.352   2.029   3.051  0.3395 -0.4602 -0.8090
 7516SOL    HW134010   3.329   1.937   3.046 -2.7879  0.2159  0.8326
 7516SOL    HW234011   3.420   2.024   3.118 -1.1983  1.1273  0.8790
 7517SOL     OW34012   2.705   3.029   8.063 -0.4682 -0.4549  0.0222
 7517SOL    HW134013   2.610   3.029   8.069 -0.3392  1.9488  1.9967
 7517SOL    HW234014   2.734   2.939   8.080 -2.2941 -0.6322  2.0839
 7518SOL     OW34015   0.352   1.603   3.329 -0.1229 -0.5651 -0.2985
 7518SOL    HW134016   0.258   1.617   3.343 -0.5863 -3.2484 -0.7617
 7518SOL    HW234017   0.354   1.536   3.261 -0.0243 -0.9625  0.0991
 7519SOL     OW34018   0.521   4.419  15.507  0.5628  0.0639 -0.5334
 7519SOL    HW134019   0.587   4.469  15.459 -1.1346  1.0339 -1.8784
 7519SOL    HW234020   0.475   4.392  15.427 -0.4196 -0.5228  0.2256
 7520SOL     OW34021   3.853   4.251   2.866 -0.5095  0.3478  0.0655
 7520SOL    HW134022   3.874   4.178   2.924  0.2339 -1.2036 -2.1369
 7520SOL    HW234023   3.762   4.222   2.862  0.7732 -3.5570 -1.6247
 7521SOL     OW34024   2.892   2.235  10.789 -0.0241 -0.3490 -0.0006
 7521SOL    HW134025   2.843   2.170  10.739 -0.0116  1.4674 -2.3672
 7521SOL    HW234026   2.820   2.276  10.837  1.9085 -1.0063  3.5074
 7522SOL     OW34027   1.983   0.631  16.626  0.0195  0.0563 -0.0809
 7522SOL    HW134028   2.038   0.679  16.688 -0.0155  1.0252 -0.7995
 7522SOL    HW234029   2.022   0.545  16.643  1.3257  0.3458 -1.6109
 7523SOL     OW34030   2.502   0.769  10.536 -0.2595 -0.6892 -0.0937
 7523SOL    HW134031   2.565   0.839  10.519 -0.7346 -0.3192 -0.3578
 7523SOL    HW234032   2.443   0.812  10.598 -0.7395 -2.1376  0.4428
 7524SOL     OW34033   3.952   3.056   1.812 -0.2013  0.1187 -0.3615
 7524SOL    HW134034   3.928   3.086   1.725 -1.3723  0.8345  0.2073
 7524SOL    HW234035   3.870   3.068   1.861  0.9819  3.5012  0.7341
 7525SOL     OW34036   2.530   0.591   1.775  0.5459  0.1928  0.4214
 7525SOL    HW134037   2.479   0.531   1.830 -0.3304  1.0514  0.5282
 7525SOL    HW234038   2.572   0.642   1.844  1.6154 -0.9153  0.6050
 7526SOL     OW34039   0.889   4.506  14.418 -0.3345  0.0507  0.2132
 7526SOL    HW134040   0.877   4.465  14.332  1.8936 -0.4575  0.1626
 7526SOL    HW234041   0.955   4.567  14.385  0.4867 -0.7962  0.3187
 7527SOL     OW34042   4.036   4.247  10.540 -0.1823  0.5712  0.6579
 7527SOL    HW134043   4.084   4.198  10.606 -0.3033 -1.4999 -0.7983
 7527SOL    HW234044   3.972   4.283  10.601 -0.6931 -2.3271  1.7885
 7528SOL     OW34045   3.728   1.977   3.872  0.2829  0.2321  0.1440
 7528SOL    HW134046   3.787   1.994   3.946 -1.2706 -0.8944  1.6243
 7528SOL    HW234047   3.790   1.990   3.800  1.1953  1.5941  1.1588
 7529SOL     OW34048   0.298   2.220   5.536  0.2827  0.0826 -0.4862
 7529SOL    HW134049   0.264   2.137   5.570  0.5468  0.1765  0.0018
 7529SOL    HW234050   0.368   2.187   5.479 -0.8750 -0.9011 -1.3332
 7530SOL     OW34051   3.903   0.584   1.286  0.0252 -0.0978 -0.0406
 7530SOL    HW134052   3.898   0.524   1.212 -1.2631 -0.7188  0.5577
 7530SOL    HW234053   3.811   0.601   1.304  0.5984  1.4141  1.4305
 7531SOL     OW34054   2.076   1.556   1.204  0.3159 -0.2903  0.0346
 7531SOL    HW134055   2.030   1.615   1.145  1.9508 -0.2612 -1.1999
 7531SOL    HW234056   2.126   1.503   1.142 -1.2301  0.2254 -1.6277
 7532SOL     OW34057   3.674   1.017  17.479 -0.1332 -0.0631 -0.1377
 7532SOL    HW134058   3.625   1.096  17.500 -1.2452 -0.2947 -1.9014
 7532SOL    HW234059   3.619   0.984  17.408 -1.1425  0.1944  0.5409
 7533SOL     OW34060   2.393   2.148   2.353  0.0590  0.3081  0.3187
 7533SOL    HW134061   2.303   2.175   2.371 -0.1461  0.6533 -1.2271
 7533SOL    HW234062   2.421   2.159   2.444 -1.7392 -0.1467  0.9166
 7534SOL     OW34063   3.743   0.581  13.687 -0.1762 -0.9294  0.7031
 7534SOL    HW134064   3.681   0.608  13.620 -1.0572  0.3726  2.0590
 7534SOL    HW234065   3.783   0.508  13.640 -1.1263 -1.6281  0.9774
 7535SOL     OW34066   3.557   1.770   6.438  0.0592  0.3850  0.1349
 7535SOL    HW134067   3.635   1.821   6.415 -1.0338  2.8057  1.8286
 7535SOL    HW234068   3.526   1.735   6.354  0.6577 -1.2033  0.5623
 7536SOL     OW34069   1.413   1.884   0.993  0.3050  0.2861 -0.7015
 7536SOL    HW134070   1.333   1.910   1.040  0.7050  0.4283 -0.0873
 7536SOL    HW234071   1.392   1.793   0.973 -1.4903  1.1154 -2.5040
 7537SOL     OW34072   4.129   2.457   9.016 -0.2014  0.6116  0.3784
 7537SOL    HW134073   4.150   2.458   9.110  2.6351  1.7701 -0.3056
 7537SOL    HW234074   4.095   2.545   9.001 -0.1510  0.8096  1.3798
 7538SOL     OW34075   3.494   2.015   3.297 -0.2904  0.0150  0.1022
 7538SOL    HW134076   3.578   2.059   3.285 -0.1859  0.4429  2.3494
 7538SOL    HW234077   3.523   1.935   3.341  0.0295 -1.0437 -2.0275
 7539SOL     OW34078   1.344   2.480   1.410 -0.0342 -0.1674  0.0073
 7539SOL    HW134079   1.272   2.523   1.364 -1.6547 -0.7377  2.0318
 7539SOL    HW234080   1.292   2.426   1.469 -2.6011  1.1492 -1.0812
 7540SOL     OW34081   2.268   1.014   4.248 -0.3309  0.3205 -0.1655
 7540SOL    HW134082   2.354   0.974   4.236  0.0147  0.9207  0.3834
 7540SOL    HW234083   2.290   1.103   4.221  1.0237  0.5083  1.5858
 7541SOL     OW34084   1.731   1.273  12.787 -0.4225  0.4067  0.2834
 7541SOL    HW134085   1.820   1.261  12.820 -0.3274  1.8211  0.5263
 7541SOL    HW234086   1.713   1.362  12.817 -2.4848  0.9763 -2.7364
 7542SOL     OW34087   2.799   0.177   6.542  0.0103  0.3585 -0.1016
 7542SOL    HW134088   2.825   0.244   6.605 -0.7417  0.4375  0.1346
 7542SOL    HW234089   2.747   0.234   6.485  0.4096  1.6268  0.7898
 7543SOL     OW34090   2.246   1.037  16.639  0.4542 -0.8705  0.5335
 7543SOL    HW134091   2.157   1.009  16.619  0.0515  0.3789  0.6188
 7543SOL    HW234092   2.242   1.122  16.683  1.4669  0.0083 -1.0685
 7544SOL     OW34093   2.382   3.602   3.368  0.5010 -0.0580 -0.1481
 7544SOL    HW134094   2.381   3.507   3.375 -0.0076 -0.1694 -1.8235
 7544SOL    HW234095   2.307   3.622   3.311  0.8658  0.5756 -0.4086
 7545SOL     OW34096   2.089   4.530   4.551  0.3385 -0.2673 -0.4666
 7545SOL    HW134097   2.147   4.600   4.521 -0.9066  0.9006 -0.1321
 7545SOL    HW234098   2.028   4.575   4.609 -0.8047  0.2306 -2.0559
 7546SOL     OW34099   4.377   1.517   8.559 -0.6598  0.3451 -0.1544
 7546SOL    HW134100   4.453   1.476   8.600 -0.2050 -1.3197 -2.6537
 7546SOL    HW234101   4.364   1.454   8.488  2.2148 -1.3898  0.8622
 7547SOL     OW34102   2.406   4.021   7.390 -0.4118  0.5807 -0.3152
 7547SOL    HW134103   2.420   3.953   7.324 -0.9625  0.3774 -0.2248
 7547SOL    HW234104   2.399   3.950   7.453 -2.6195 -0.7403 -2.0340
 7548SOL     OW34105   0.731   4.490   5.678  0.2646  0.0485 -0.0843
 7548SOL    HW134106   0.795   4.423   5.654  0.5660  0.2067  0.2821
 7548SOL    HW234107   0.726   4.534   5.593 -0.3496 -1.4452 -0.8252
 7549SOL     OW34108   2.611   4.369  10.043  0.3022  0.2011  0.2315
 7549SOL    HW134109   2.686   4.309  10.046  0.9995  1.1069  1.0985
 7549SOL    HW234110   2.533   4.315  10.049  1.3669 -1.2953  0.5981
 7550SOL     OW34111   0.182   1.087  14.644 -0.0014  0.4343 -0.6345
 7550SOL    HW134112   0.269   1.083  14.684 -1.6683 -2.4395  2.7411
 7550SOL    HW234113   0.175   0.998  14.610 -0.0504  0.0884  0.2712
 7551SOL     OW34114   3.616   3.730   1.705  0.4434 -0.2300 -0.1548
 7551SOL    HW134115   3.583   3.717   1.616  0.7159  3.1435 -0.7310
 7551SOL    HW234116   3.709   3.715   1.692  0.5911  1.1782 -0.6340
 7552SOL     OW34117   2.132   4.047  13.965 -0.4569  0.0604  0.0245
 7552SOL    HW134118   2.145   4.108  13.892 -0.4547  0.0490  0.0154
 7552SOL    HW234119   2.100   4.103  14.036 -0.0850 -0.2733  0.4509
 7553SOL     OW34120   2.190   4.178   3.542  0.0666  0.1519  0.5627
 7553SOL    HW134121   2.232   4.265   3.543  1.3404 -0.4459 -0.9714
 7553SOL    HW234122   2.172   4.161   3.450  0.2689 -4.2351  1.3395
 7554SOL     OW34123   1.429   4.692  17.373 -0.0080 -0.4601 -0.1403
 7554SOL    HW134124   1.405   4.641  17.296  0.9931 -0.6931 -0.2895
 7554SOL    HW234125   1.429   4.626  17.442  3.0039  0.7659  1.0024
 7555SOL     OW34126   1.063   4.091  12.609 -0.5025  0.4883  0.4748
 7555SOL    HW134127   0.977   4.129  12.594 -0.6667 -0.1085 -0.1078
 7555SOL    HW234128   1.109   4.168  12.642 -1.0465  0.7421  0.6382
 7556SOL     OW34129   3.645   0.363   5.790  0.0757  0.0685 -0.0633
 7556SOL    HW134130   3.685   0.450   5.787  0.7952 -0.2515  0.0786
 7556SOL    HW234131   3.721   0.306   5.776 -0.1962 -0.0314 -1.1181
 7557SOL     OW34132   1.115   4.114   4.746 -0.4206 -0.1665 -0.1265
 7557SOL    HW134133   1.173   4.047   4.710 -0.9594 -1.0603  0.6655
 7557SOL    HW234134   1.047   4.127   4.680 -1.0267  0.0179  0.5329
 7558SOL     OW34135   0.424   4.567  15.726  0.0375 -0.0250  0.0419
 7558SOL    HW134136   0.343   4.517  15.735  1.0102 -1.8445 -1.4510
 7558SOL    HW234137   0.446   4.542  15.637  1.1922 -0.1497  0.3616
 7559SOL     OW34138   1.959   2.377   6.060  0.3781  0.2585  0.6092
 7559SOL    HW134139   1.972   2.299   6.005  1.9098 -0.1796  1.5766
 7559SOL    HW234140   1.962   2.445   5.992 -0.1906  0.2823  0.6116
 7560SOL     OW34141   0.049   0.561   2.922  0.2999  0.3665  0.0537
 7560SOL    HW134142   4.704   0.556   2.857  2.2657  1.7909 -2.1576
 7560SOL    HW234143   4.724   0.612   2.986  0.0975  0.5877 -0.2806
 7561SOL     OW34144   1.857   3.258   5.550 -0.5822  0.2246 -0.4745
 7561SOL    HW134145   1.773   3.289   5.584 -0.8180  0.5378 -1.3529
 7561SOL    HW234146   1.898   3.228   5.631 -1.2864  0.3898 -0.0593
 7562SOL     OW34147   0.854   4.170   7.655 -0.0859 -0.0022 -0.6896
 7562SOL    HW134148   0.906   4.212   7.724  0.3192 -1.3151 -0.1915
 7562SOL    HW234149   0.891   4.082   7.657 -0.3212 -0.0737  0.8115
 7563SOL     OW34150   2.191   1.867  13.715  0.3818 -1.0905 -0.0783
 7563SOL    HW134151   2.221   1.956  13.735  1.1418 -0.7398 -2.7676
 7563SOL    HW234152   2.201   1.827  13.802  0.1811 -0.4742  0.2260
 7564SOL     OW34153   0.552   3.998   7.145 -0.2518  0.2637  0.0340
 7564SOL    HW134154   0.579   3.947   7.221  0.0298  3.4853  2.1328
 7564SOL    HW234155   0.460   4.012   7.170 -0.1098 -2.6110  2.1009
 7565SOL     OW34156   4.114   2.548   3.470  0.2803  0.1153  0.3229
 7565SOL    HW134157   4.048   2.535   3.402 -0.2952  0.5173  0.8006
 7565SOL    HW234158   4.051   2.578   3.535 -0.3535  0.2182 -0.3300
 7566SOL     OW34159   4.003   4.320   5.025 -0.2796  0.3858 -0.3232
 7566SOL    HW134160   3.952   4.280   4.955  0.9271 -0.5943 -0.6481
 7566SOL    HW234161   3.978   4.263   5.098 -0.6718  0.5087 -0.3617
 7567SOL     OW34162   2.417   2.299   5.410  0.0466  0.4663 -0.2790
 7567SOL    HW134163   2.403   2.373   5.350 -0.5906  0.8679  0.3749
 7567SOL    HW234164   2.430   2.325   5.501 -0.7864  0.2836 -0.1086
 7568SOL     OW34165   3.250   3.182  12.514 -0.4461 -0.2550 -0.0132
 7568SOL    HW134166   3.306   3.132  12.573 -1.7701 -1.3437  0.3050
 7568SOL    HW234167   3.170   3.132  12.504 -0.1933 -0.7200  0.2673
 7569SOL     OW34168   2.039   2.716   6.120  0.3153 -0.4738  0.4217
 7569SOL    HW134169   2.077   2.672   6.043  0.3764  2.5696 -1.3050
 7569SOL    HW234170   1.956   2.749   6.087 -0.2164  0.2773  2.4950
 7570SOL     OW34171   3.421   2.915   5.798 -0.0181 -0.0877  0.2830
 7570SOL    HW134172   3.349   2.883   5.852 -0.0007 -2.2586 -0.9831
 7570SOL    HW234173   3.477   2.952   5.866  1.1813 -0.6847 -0.3683
 7571SOL     OW34174   2.194   3.658  13.668 -0.0151  0.3529  0.5125
 7571SOL    HW134175   2.182   3.644  13.574  1.2029  2.5970  0.0287
 7571SOL    HW234176   2.283   3.692  13.669  0.3083 -0.4028 -3.2098
 7572SOL     OW34177   0.694   2.564  16.314  0.2789 -0.0768  0.6379
 7572SOL    HW134178   0.675   2.633  16.250 -0.4252  1.0067  2.0144
 7572SOL    HW234179   0.720   2.612  16.393  4.3948  2.0667 -1.9810
 7573SOL     OW34180   2.735   3.351   6.873 -0.3346 -0.0724  0.3594
 7573SOL    HW134181   2.727   3.260   6.902 -0.4714  0.1095  0.8998
 7573SOL    HW234182   2.807   3.381   6.928  0.2575  0.8499 -0.9310
 7574SOL     OW34183   1.905   4.352  17.634 -0.2095 -0.2859 -0.1603
 7574SOL    HW134184   1.862   4.392  17.559  1.8943 -0.3940 -1.4308
 7574SOL    HW234185   1.970   4.415  17.665 -2.0258  0.5501  1.9629
 7575SOL     OW34186   0.441   0.893  14.918 -0.2217 -0.0354 -0.0438
 7575SOL    HW134187   0.522   0.852  14.886 -0.3252  0.9919 -1.6076
 7575SOL    HW234188   0.389   0.817  14.941  3.0980 -1.9640  1.1795
 7576SOL     OW34189   0.983   3.589   8.304 -0.3020 -0.1330 -0.1179
 7576SOL    HW134190   1.015   3.510   8.260 -0.6520 -0.3662  0.0399
 7576SOL    HW234191   0.887   3.582   8.298 -0.3122 -0.1569  0.0719
 7577SOL     OW34192   0.083   1.219  13.147  0.1417  0.4558  0.1837
 7577SOL    HW134193   0.078   1.213  13.242  0.9501  0.7416  0.2452
 7577SOL    HW234194   0.150   1.286  13.134 -0.4381  1.0450  0.2103
 7578SOL     OW34195   2.343   1.505   8.268  0.5099 -1.0894  0.7927
 7578SOL    HW134196   2.251   1.514   8.244  0.7558  0.4658  0.4411
 7578SOL    HW234197   2.339   1.518   8.362 -1.7641  2.1579  0.2465
 7579SOL     OW34198   2.128   3.200   4.061 -0.1845  0.5995  0.0423
 7579SOL    HW134199   2.208   3.150   4.052  1.1534  2.4857  1.3734
 7579SOL    HW234200   2.162   3.289   4.049 -1.4268  0.8599 -1.5064
 7580SOL     OW34201   1.719   0.130   4.160 -0.1009  0.0409 -0.7653
 7580SOL    HW134202   1.774   0.156   4.233  0.0914  0.7862 -1.1777
 7580SOL    HW234203   1.654   0.078   4.208  0.3687 -0.7239 -0.9622
 7581SOL     OW34204   3.007   1.633  10.563 -0.1684 -0.8913 -0.4082
 7581SOL    HW134205   3.054   1.610  10.644  1.7451 -0.2770 -1.3447
 7581SOL    HW234206   2.940   1.690  10.600  0.8007 -0.7219  1.1133
 7582SOL     OW34207   0.171   4.598   4.830  0.1134  0.2673 -0.5375
 7582SOL    HW134208   0.143   4.522   4.779  1.9049 -0.5445 -0.3339
 7582SOL    HW234209   0.240   4.572   4.892 -0.5010  1.3138  0.5756
 7583SOL     OW34210   0.532   4.467   8.015  0.2085  0.1544  0.2932
 7583SOL    HW134211   0.476   4.537   7.980 -0.9797 -0.6333  0.6288
 7583SOL    HW234212   0.597   4.517   8.064 -0.0385  1.0329 -0.2699
 7584SOL     OW34213   3.774   3.155   4.178 -0.0438  0.1316  0.5983
 7584SOL    HW134214   3.808   3.228   4.126 -2.2922  1.8696  1.5573
 7584SOL    HW234215   3.851   3.100   4.184  0.3644  0.7022  0.6097
 7585SOL     OW34216   3.049   4.542   0.103  0.1496 -0.6049 -0.9573
 7585SOL    HW134217   3.015   4.559   0.191  0.5497  0.1053 -0.9455
 7585SOL    HW234218   3.124   4.484   0.119 -0.9066 -1.4512  1.0306
 7586SOL     OW34219   3.210   0.499   6.256  0.3211  0.2028  0.0186
 7586SOL    HW134220   3.165   0.576   6.289 -0.7911 -0.1705 -0.6390
 7586SOL    HW234221   3.298   0.535   6.244  0.3810  0.3656  0.9770
 7587SOL     OW34222   2.481   2.698  15.877  0.3538 -0.4496 -0.2636
 7587SOL    HW134223   2.509   2.785  15.850  1.2537 -1.2024 -1.8158
 7587SOL    HW234224   2.524   2.640  15.814  1.1315 -0.8072  0.6120
 7588SOL     OW34225   1.556   4.418   8.180 -0.3835 -0.1357  0.4068
 7588SOL    HW134226   1.578   4.508   8.204  0.3377 -0.9686  2.8424
 7588SOL    HW234227   1.567   4.380   8.267 -0.9916  0.7478  0.8759
 7589SOL     OW34228   0.943   2.521   3.014  0.2636  0.3008 -0.4436
 7589SOL    HW134229   0.895   2.574   3.077 -0.6675 -1.4589  0.3072
 7589SOL    HW234230   1.028   2.564   3.015  1.2537 -1.6713  0.5589
 7590SOL     OW34231   2.172   4.444   7.825  0.3022  0.0284 -0.2095
 7590SOL    HW134232   2.203   4.399   7.904  0.1306  0.0969 -0.1046
 7590SOL    HW234233   2.173   4.376   7.758 -0.0212  1.0763 -1.2626
 7591SOL     OW34234   0.955   2.613   7.455 -0.6239 -0.1368  0.9376
 7591SOL    HW134235   0.993   2.683   7.509  0.7872  0.2304 -0.5541
 7591SOL    HW234236   0.882   2.659   7.414 -0.9725 -0.2880  1.3857
 7592SOL     OW34237   0.880   2.552   3.671  0.5231  0.2013  0.0003
 7592SOL    HW134238   0.891   2.570   3.577 -1.4264  1.8633  0.0813
 7592SOL    HW234239   0.972   2.541   3.693  0.3705  1.7562  1.3574
 7593SOL     OW34240   4.681   3.292  14.823 -0.0816  0.1506 -0.4446
 7593SOL    HW134241   4.653   3.220  14.767  2.6691 -2.4301  1.5191
 7593SOL    HW234242   4.647   3.366  14.772 -0.6251 -0.0259 -0.3346
 7594SOL     OW34243   2.218   1.783   8.319 -0.2244 -0.4713 -0.4334
 7594SOL    HW134244   2.139   1.728   8.319 -0.2510 -0.4337  0.5917
 7594SOL    HW234245   2.265   1.755   8.398  1.9721  1.0269 -1.2040
 7595SOL     OW34246   3.445   3.191   9.489 -0.8597  0.0370 -0.1285
 7595SOL    HW134247   3.449   3.208   9.395  0.0386 -2.4151 -0.5252
 7595SOL    HW234248   3.480   3.103   9.495 -1.1105  0.1818  3.3620
 7596SOL     OW34249   2.066   2.010   2.601  0.0475  0.0661 -0.5937
 7596SOL    HW134250   1.975   1.983   2.596 -0.5903  2.0918  0.5353
 7596SOL    HW234251   2.078   2.031   2.693  1.3128 -0.7361 -0.5695
 7597SOL     OW34252   1.427   0.301   6.062 -0.5868  0.0816 -0.1171
 7597SOL    HW134253   1.491   0.350   6.010 -0.9507 -0.0441 -0.6898
 7597SOL    HW234254   1.428   0.212   6.026 -1.1117 -0.3197  0.8876
 7598SOL     OW34255   2.302   2.134   0.296  0.2129  0.2416  0.1151
 7598SOL    HW134256   2.301   2.199   0.366 -1.3702  2.4580 -1.9729
 7598SOL    HW234257   2.391   2.101   0.311 -0.6541 -2.7972 -1.4522
 7599SOL     OW34258   1.897   1.041  11.284  0.0480  0.8820 -0.2181
 7599SOL    HW134259   1.900   1.039  11.379 -1.0584 -1.2329 -0.2240
 7599SOL    HW234260   1.911   0.950  11.255  3.1919  0.5408  2.4023
 7600SOL     OW34261   2.275   0.315   5.679 -0.3019 -0.0591 -0.1629
 7600SOL    HW134262   2.274   0.386   5.742  1.4600 -0.1512 -0.0245
 7600SOL    HW234263   2.261   0.365   5.599  1.9391 -1.0878 -1.2090
 7601SOL     OW34264   1.906   1.013   9.325 -0.4689  0.4121 -0.3079
 7601SOL    HW134265   1.947   0.999   9.239 -1.0996  1.1918 -0.7364
 7601SOL    HW234266   1.979   1.043   9.379 -0.7200  0.6985 -0.1257
 7602SOL     OW34267   2.782   4.393   3.647  0.0386 -0.9678  0.0801
 7602SOL    HW134268   2.692   4.370   3.672  0.2459 -0.7975  0.9733
 7602SOL    HW234269   2.775   4.487   3.664  1.5683 -0.3850 -2.5086
 7603SOL     OW34270   4.553   2.361   2.820 -0.4014  0.1406 -0.5615
 7603SOL    HW134271   4.561   2.267   2.808  1.8103  0.3552 -0.8829
 7603SOL    HW234272   4.647   2.379   2.827 -0.4510  0.3608 -0.4485
 7604SOL     OW34273   2.688   2.818   5.172  0.2446 -0.4860 -0.2735
 7604SOL    HW134274   2.748   2.789   5.103  0.6680  1.2737 -0.6404
 7604SOL    HW234275   2.684   2.914   5.165  0.5472 -0.4494  0.0991
 7605SOL     OW34276   3.618   2.119   2.874 -0.3266  0.6031  0.4733
 7605SOL    HW134277   3.688   2.164   2.827 -1.7339  1.9944 -0.2815
 7605SOL    HW234278   3.604   2.177   2.949 -0.6135  1.2158 -0.0571
 7606SOL     OW34279   1.316   0.031  12.372 -0.4369  0.0883  0.4528
 7606SOL    HW134280   1.378   0.057  12.440 -0.0830  1.7393 -0.5263
 7606SOL    HW234281   1.363   0.078  12.304 -0.9091 -0.3253 -0.1517
 7607SOL     OW34282   1.328   1.064   4.551  0.2072  0.5595  0.6328
 7607SOL    HW134283   1.323   0.986   4.607  0.2567 -0.3072 -0.5843
 7607SOL    HW234284   1.321   1.035   4.461  0.3088  0.4471  0.6608
 7608SOL     OW34285   4.373   2.644  11.955 -0.4200  0.3559  0.4404
 7608SOL    HW134286   4.417   2.647  11.869 -0.5326 -1.5682  0.3102
 7608SOL    HW234287   4.435   2.597  12.010 -1.4814  1.6397  2.7213
 7609SOL     OW34288   4.305   4.234   8.204  0.0738 -0.1061 -0.0116
 7609SOL    HW134289   4.286   4.158   8.149  1.3517  0.0792 -0.7171
 7609SOL    HW234290   4.397   4.239   8.176  0.5728 -2.3506  1.1876
 7610SOL     OW34291   4.546   3.071   4.085 -0.6303 -0.5439 -0.5014
 7610SOL    HW134292   4.615   3.016   4.048  0.0619 -0.4441  0.6405
 7610SOL    HW234293   4.494   3.086   4.006 -0.6254 -1.9626 -0.7874
 7611SOL     OW34294   0.426   0.354   0.062 -0.2991 -1.1050  0.7088
 7611SOL    HW134295   0.359   0.390   0.120  0.8692  0.1181  1.3011
 7611SOL    HW234296   0.397   0.266   0.040  0.0603 -1.1101  0.2597
 7612SOL     OW34297   4.332   1.191   3.556  0.4347  0.2864  0.3761
 7612SOL    HW134298   4.402   1.224   3.500 -0.8576  0.0508 -1.3861
 7612SOL    HW234299   4.292   1.115   3.513  0.7620  1.5787 -2.2132
 7613SOL     OW34300   3.164   1.377   9.588 -0.2567 -0.0192 -0.2219
 7613SOL    HW134301   3.180   1.444   9.655  0.4545 -1.3081  0.8783
 7613SOL    HW234302   3.100   1.316   9.624  1.4591 -1.7119 -0.0387
 7614SOL     OW34303   2.593   4.438   7.638 -0.0726  0.2767  0.0410
 7614SOL    HW134304   2.595   4.388   7.720 -1.3125 -2.0002 -1.3320
 7614SOL    HW234305   2.646   4.382   7.581 -1.4689  1.0605 -2.0326
 7615SOL     OW34306   2.527   3.779   6.052  0.3614  0.5460 -0.2749
 7615SOL    HW134307   2.475   3.803   5.975  2.1540  2.0854 -0.9989
 7615SOL    HW234308   2.502   3.687   6.058 -1.1704  1.0573  1.0172
 7616SOL     OW34309   2.318   3.428   9.031 -0.2700 -0.1463  0.2980
 7616SOL    HW134310   2.289   3.459   9.117  0.2263 -0.6781  0.6584
 7616SOL    HW234311   2.402   3.390   9.059  0.1554  0.5440 -0.0512
 7617SOL     OW34312   1.704   3.709   4.488  0.1085  0.1273  0.1534
 7617SOL    HW134313   1.673   3.633   4.440  1.3003 -1.0354  1.2034
 7617SOL    HW234314   1.767   3.676   4.553  1.6540  2.5861 -0.0838
 7618SOL     OW34315   1.840   1.360   5.480 -0.4125  0.2837  0.4804
 7618SOL    HW134316   1.900   1.406   5.422 -0.9715  1.3206  0.7140
 7618SOL    HW234317   1.766   1.371   5.420 -0.4594 -0.0442  0.4775
 7619SOL     OW34318   1.695   0.635   7.454 -0.4170 -0.0532 -0.1418
 7619SOL    HW134319   1.716   0.615   7.546 -2.7689  0.9657  0.6156
 7619SOL    HW234320   1.634   0.707   7.467  1.0777  0.8460  2.0580
 7620SOL     OW34321   0.088   0.718   3.199  0.3718  0.0885  0.5811
 7620SOL    HW134322   0.065   0.807   3.172 -1.3676  0.6781  4.0488
 7620SOL    HW234323   0.182   0.726   3.217 -0.2700  3.3822  2.2781
 7621SOL     OW34324   3.848   0.154  12.803  0.0839 -0.0272 -0.4404
 7621SOL    HW134325   3.855   0.191  12.715  1.0511  0.3753 -0.1947
 7621SOL    HW234326   3.753   0.159  12.813  0.0554 -0.1185 -0.6600
 7622SOL     OW34327   4.579   2.260  15.817 -0.9496 -0.0713  0.6105
 7622SOL    HW134328   4.527   2.308  15.754 -0.7071 -0.5400  0.0538
 7622SOL    HW234329   4.518   2.229  15.883 -2.7859  0.9821 -0.6143
 7623SOL     OW34330   0.102   2.161  14.520  0.1809 -0.0655  0.5479
 7623SOL    HW134331   0.074   2.089  14.576 -0.2712 -0.9041 -0.7798
 7623SOL    HW234332   0.194   2.163  14.546  0.2712 -1.3697  0.2915
 7624SOL     OW34333   3.628   0.583   1.848  0.0277  0.6175 -0.2530
 7624SOL    HW134334   3.704   0.551   1.799  1.3138  1.2706  1.3038
 7624SOL    HW234335   3.650   0.674   1.828  2.5726 -0.4210 -2.2309
 7625SOL     OW34336   1.928   3.232   9.777  0.2551 -0.4623 -0.1210
 7625SOL    HW134337   2.000   3.177   9.745  1.5717  1.2531 -0.1235
 7625SOL    HW234338   1.903   3.267   9.692  3.2884 -0.1549 -0.8808
 7626SOL     OW34339   3.907   0.479   5.221  0.7864  0.6741  0.2292
 7626SOL    HW134340   3.847   0.546   5.254 -0.0601 -0.2726  0.6222
 7626SOL    HW234341   3.948   0.458   5.305 -0.5851  0.3420  0.8100
 7627SOL     OW34342   2.302   3.107   8.751  0.2022 -0.3037 -0.2223
 7627SOL    HW134343   2.233   3.172   8.758  1.1051  0.6569 -0.3327
 7627SOL    HW234344   2.356   3.136   8.677  0.7922  0.8635  0.6583
 7628SOL     OW34345   2.559   3.510   8.566 -0.0614  0.3362 -0.6412
 7628SOL    HW134346   2.609   3.577   8.612 -1.4587 -0.8317  2.5508
 7628SOL    HW234347   2.572   3.438   8.627  1.4791  1.7262  0.6697
 7629SOL     OW34348   4.268   1.330  10.041 -0.0116  0.1440  0.1815
 7629SOL    HW134349   4.322   1.373   9.975  0.4935  0.3785  0.7445
 7629SOL    HW234350   4.271   1.408  10.097 -0.9726 -0.9687  1.7509
 7630SOL     OW34351   2.901   0.829   9.099  0.4834 -0.1511  0.2100
 7630SOL    HW134352   2.893   0.750   9.154  0.4548 -0.1851  0.1575
 7630SOL    HW234353   2.967   0.878   9.148  0.1447 -1.0864  1.5891
 7631SOL     OW34354   3.086   0.550   5.050  0.2433 -0.1096  0.1199
 7631SOL    HW134355   3.036   0.509   5.120  1.5668 -0.1309  1.0582
 7631SOL    HW234356   3.138   0.613   5.101 -0.4102  1.0511 -0.6429
 7632SOL     OW34357   4.682   3.666   7.005 -0.0023 -0.4665  0.5666
 7632SOL    HW134358   4.710   3.640   7.093  0.8317  0.7246  0.6572
 7632SOL    HW234359   0.030   3.724   6.986 -1.5815  1.0707 -0.8006
 7633SOL     OW34360   3.037   0.431   8.494 -0.3654  0.3648  0.1580
 7633SOL    HW134361   2.986   0.398   8.420  0.1420  0.9844 -0.4676
 7633SOL    HW234362   2.970   0.480   8.541  0.5449  0.9830  0.8049
 7634SOL     OW34363   4.589   2.669   2.302  0.1851 -0.5167 -0.5857
 7634SOL    HW134364   4.619   2.709   2.220  1.3098 -0.0289  0.0729
 7634SOL    HW234365   4.605   2.745   2.357  0.2501 -0.5025 -0.6236
 7635SOL     OW34366   0.356   1.096   7.041  0.5957  0.7512 -0.4363
 7635SOL    HW134367   0.264   1.123   7.038  0.7059  0.9274 -2.8233
 7635SOL    HW234368   0.367   1.087   7.135  0.2958 -0.2181 -0.4901
 7636SOL     OW34369   1.819   4.723   2.071 -0.3860  0.1934 -0.8971
 7636SOL    HW134370   1.826   4.633   2.039  0.8564 -0.0259 -0.0143
 7636SOL    HW234371   1.729   0.013   2.042 -0.7850  0.4824  0.5078
 7637SOL     OW34372   2.674   1.336   7.438  0.0843 -0.3564  0.1711
 7637SOL    HW134373   2.711   1.424   7.448  0.6689 -0.4130 -1.4382
 7637SOL    HW234374   2.716   1.322   7.353 -1.9677  1.2626 -1.1143
 7638SOL     OW34375   2.438   4.326  16.714  0.0526 -0.9214  0.4390
 7638SOL    HW134376   2.517   4.375  16.737  0.6775 -0.6883 -2.1995
 7638SOL    HW234377   2.439   4.247  16.767 -1.8337 -1.6725 -0.6539
 7639SOL     OW34378   2.237   3.566   6.436  0.1540  0.1386  0.5327
 7639SOL    HW134379   2.257   3.625   6.509 -1.5678  2.3957 -0.7862
 7639SOL    HW234380   2.236   3.481   6.479  1.5536  0.3861  1.0223
 7640SOL     OW34381   3.534   0.389  11.194  0.1094 -0.4850  0.2872
 7640SOL    HW134382   3.584   0.443  11.133  0.0631 -2.4060 -1.4584
 7640SOL    HW234383   3.483   0.337  11.133 -0.3416  1.1710 -0.7415
 7641SOL     OW34384   0.580   1.189   4.090 -0.4004  0.3033 -0.0506
 7641SOL    HW134385   0.634   1.201   4.012 -0.1586 -1.3407 -0.1329
 7641SOL    HW234386   0.554   1.278   4.116 -0.6690 -0.3703  1.9794
 7642SOL     OW34387   4.022   4.204   7.076 -0.3890 -0.4215 -0.4502
 7642SOL    HW134388   3.958   4.152   7.126 -0.4384 -0.9872 -1.0851
 7642SOL    HW234389   3.975   4.270   7.025 -0.5213  0.0678  0.3196
 7643SOL     OW34390   1.415   2.393   4.386  0.0377  0.4408 -0.8893
 7643SOL    HW134391   1.452   2.410   4.299  0.0218 -0.2035 -1.0207
 7643SOL    HW234392   1.447   2.473   4.427  2.3863 -1.0277  0.1182
 7644SOL     OW34393   1.160   1.828   8.198 -0.0026 -0.0417 -0.1320
 7644SOL    HW134394   1.122   1.758   8.250 -2.2106  2.9280  2.2601
 7644SOL    HW234395   1.144   1.811   8.105  0.9209 -0.4883 -0.2108
 7645SOL     OW34396   3.753   0.627  10.746  0.7698  0.7362  0.0445
 7645SOL    HW134397   3.747   0.659  10.836  0.5517 -1.3091  0.7542
 7645SOL    HW234398   3.752   0.704  10.689 -0.4395  0.7613  0.0909
 7646SOL     OW34399   3.409   3.622   7.231 -0.5602  0.6212  0.2789
 7646SOL    HW134400   3.336   3.594   7.286 -0.2182 -0.2855  0.2779
 7646SOL    HW234401   3.392   3.715   7.215  0.0508  0.6581 -0.1715
 7647SOL     OW34402   1.337   3.974   1.209 -0.5242  0.6474 -0.0290
 7647SOL    HW134403   1.289   3.936   1.282  1.0888 -0.2031  0.5660
 7647SOL    HW234404   1.270   4.011   1.150 -1.4609 -1.2461 -0.1548
 7648SOL     OW34405   1.369   4.203   3.674  0.2822 -0.1388 -0.8069
 7648SOL    HW134406   1.444   4.188   3.732 -1.1693  1.1729  1.3793
 7648SOL    HW234407   1.419   4.193   3.592 -0.6733 -4.4820 -0.8782
 7649SOL     OW34408   0.575   3.369  10.226  0.6412 -0.0387  0.5501
 7649SOL    HW134409   0.538   3.455  10.246  2.8902  1.0218  0.1750
 7649SOL    HW234410   0.503   3.312  10.201 -0.3068  3.0234 -3.8273
 7650SOL     OW34411   4.398   1.228  17.474  0.2577  0.1297  0.0359
 7650SOL    HW134412   4.420   1.304  17.421 -1.6324  0.2860 -0.5102
 7650SOL    HW234413   4.430   1.275  17.551 -1.8838 -1.5924  2.0067
 7651SOL     OW34414   2.363   1.645   2.827 -0.2634 -0.3209 -0.1593
 7651SOL    HW134415   2.354   1.644   2.922 -1.3028 -0.0078 -0.2489
 7651SOL    HW234416   2.303   1.571   2.814  0.0021 -0.7839  1.2254
 7652SOL     OW34417   3.050   3.061   1.545 -0.5577 -0.2706  0.4274
 7652SOL    HW134418   3.074   3.154   1.545 -3.0425  0.3921  0.3287
 7652SOL    HW234419   3.120   3.025   1.492 -0.2646  0.2656  0.4461
 7653SOL     OW34420   4.124   3.175   5.152 -0.2640  0.1754  0.0699
 7653SOL    HW134421   4.161   3.103   5.102 -1.9858 -1.9265  1.8266
 7653SOL    HW234422   4.117   3.247   5.089 -0.8112 -0.4597 -0.5826
 7654SOL     OW34423   4.686   3.026   7.504 -0.6672 -0.1133  0.4903
 7654SOL    HW134424   4.723   3.101   7.551  0.6429  0.1025 -0.8717
 7654SOL    HW234425   4.635   3.073   7.439  1.4513  1.4223 -0.0750
 7655SOL     OW34426   3.326   2.287   1.774 -0.5287 -0.0332  0.4081
 7655SOL    HW134427   3.233   2.262   1.780 -0.6969  0.6223  0.5756
 7655SOL    HW234428   3.326   2.334   1.691 -0.4345 -0.4270  0.1826
 7656SOL     OW34429   1.956   4.029   9.730 -0.5084 -0.3348 -0.5845
 7656SOL    HW134430   1.900   3.973   9.784  0.0726 -0.5359 -0.1903
 7656SOL    HW234431   2.030   4.024   9.791 -1.0276 -2.8251 -0.1688
 7657SOL     OW34432   4.023   4.554  14.717 -0.5167  0.2638 -0.0956
 7657SOL    HW134433   3.997   4.553  14.625 -0.6824  1.8385 -0.0717
 7657SOL    HW234434   4.080   4.478  14.725 -0.3773  0.2777 -1.0383
 7658SOL     OW34435   0.059   3.438   0.724  0.6522 -0.3875  0.7804
 7658SOL    HW134436   0.016   3.357   0.697 -1.6917  1.2829 -0.4733
 7658SOL    HW234437   0.032   3.494   0.651  0.6150 -2.5932 -0.9001
 7659SOL     OW34438   1.626   1.751   6.788  0.0492  0.1717 -0.0216
 7659SOL    HW134439   1.697   1.690   6.765 -0.1127 -0.1492  0.3229
 7659SOL    HW234440   1.557   1.689   6.812 -0.8082  0.6756 -1.2271
 7660SOL     OW34441   3.312   1.722   5.193 -0.0546 -0.3949 -0.3167
 7660SOL    HW134442   3.248   1.670   5.243  2.1022  0.4385  3.3511
 7660SOL    HW234443   3.296   1.684   5.107  1.0330 -1.6416  0.0271
 7661SOL     OW34444   3.698   1.109  14.039  0.1618  0.4698  0.2145
 7661SOL    HW134445   3.702   1.027  14.088  1.8771  0.4809  0.0923
 7661SOL    HW234446   3.683   1.163  14.116  0.5977  1.4870 -0.4165
 7662SOL     OW34447   0.689   0.647  15.530  0.1442 -0.3183 -0.3356
 7662SOL    HW134448   0.678   0.678  15.440  3.2401  2.4047  0.2121
 7662SOL    HW234449   0.719   0.727  15.573  1.1230 -2.6523  3.3186
 7663SOL     OW34450   3.943   2.722   5.442  0.5706 -0.3315 -0.1710
 7663SOL    HW134451   3.881   2.743   5.372  0.7773  0.2685 -0.1734
 7663SOL    HW234452   3.918   2.630   5.450 -0.4987  0.0378  0.7885
 7664SOL     OW34453   4.473   1.435  16.650  0.3419 -0.4300  0.0721
 7664SOL    HW134454   4.524   1.355  16.660  0.4612 -0.2538  0.8504
 7664SOL    HW234455   4.499   1.459  16.561  1.3590 -0.3389  0.4011
 7665SOL     OW34456   1.028   2.313   8.070 -0.4953 -0.0623 -0.7905
 7665SOL    HW134457   0.977   2.236   8.095 -0.8134  0.1076 -0.9149
 7665SOL    HW234458   1.114   2.277   8.051 -0.3312 -0.6720  1.0788
 7666SOL     OW34459   3.095   0.102  13.965 -0.0938  0.2352  0.0500
 7666SOL    HW134460   3.089   0.192  13.933 -1.2762  0.4706  0.9389
 7666SOL    HW234461   3.154   0.118  14.039  1.0238 -0.0728 -0.7803
 7667SOL     OW34462   1.734   2.481   5.263 -0.0882  0.2236  0.2331
 7667SOL    HW134463   1.719   2.393   5.227  2.7010  0.1431 -0.6912
 7667SOL    HW234464   1.641   2.507   5.267  0.3405  1.3352  2.8060
 7668SOL     OW34465   2.908   1.669   9.672  0.1101 -0.0254  0.1106
 7668SOL    HW134466   2.892   1.758   9.704 -2.1716 -0.6268  0.6207
 7668SOL    HW234467   2.838   1.667   9.607 -0.2534  0.9655  0.4732
 7669SOL     OW34468   3.504   4.107   8.737 -0.0337  0.0887 -0.1095
 7669SOL    HW134469   3.458   4.056   8.671 -1.0339 -2.2722  2.3862
 7669SOL    HW234470   3.595   4.094   8.712  0.6032  0.6877  1.8930
 7670SOL     OW34471   2.772   1.372  14.813 -0.2721  0.2185 -0.0480
 7670SOL    HW134472   2.719   1.392  14.736 -0.3528  1.2115  0.2546
 7670SOL    HW234473   2.838   1.442  14.818  0.6042 -0.4868 -2.0341
 7671SOL     OW34474   3.633   0.320   5.231 -0.1216 -0.1978 -0.8934
 7671SOL    HW134475   3.705   0.361   5.182  0.1577 -0.9476 -1.1079
 7671SOL    HW234476   3.676   0.300   5.314  1.1135  0.4716 -1.3725
 7672SOL     OW34477   3.722   2.151   7.324 -0.4407 -0.4212 -0.3443
 7672SOL    HW134478   3.699   2.226   7.379 -2.4690 -0.4650 -1.1255
 7672SOL    HW234479   3.743   2.079   7.385  4.0289  0.6963 -0.5385
 7673SOL     OW34480   1.352   1.999   8.303  0.1832  0.1175  0.5879
 7673SOL    HW134481   1.305   2.028   8.381 -1.2654  1.3225 -0.7066
 7673SOL    HW234482   1.301   1.930   8.261 -1.6574  1.4763  0.5621
 7674SOL     OW34483   3.212   2.693   9.147  0.0265 -0.3795 -1.0747
 7674SOL    HW134484   3.131   2.684   9.097 -0.1910  1.5812 -1.0739
 7674SOL    HW234485   3.183   2.771   9.194  0.1776 -1.1912  0.3782
 7675SOL     OW34486   3.453   3.418   9.647 -0.2288  0.5488  0.1370
 7675SOL    HW134487   3.449   3.334   9.601  1.6461 -1.0366  2.8321
 7675SOL    HW234488   3.546   3.433   9.634  0.4876 -1.9796  2.3362
 7676SOL     OW34489   2.336   4.460   3.466  0.0630 -0.2372 -0.2727
 7676SOL    HW134490   2.401   4.401   3.428  0.9027 -0.6309  1.7890
 7676SOL    HW234491   2.374   4.544   3.441 -2.3177  1.0159  0.2853
 7677SOL     OW34492   0.012   0.778   2.207  0.1844  0.7961  0.7359
 7677SOL    HW134493   0.060   0.705   2.245 -0.5142 -0.1160 -0.1187
 7677SOL    HW234494   4.694   0.807   2.287 -1.7150 -2.7905  1.0359
 7678SOL     OW34495   4.311   2.969   6.398  0.1633  0.3392  0.0448
 7678SOL    HW134496   4.283   2.983   6.488  0.0541 -1.6499  0.3174
 7678SOL    HW234497   4.302   3.062   6.374  1.0219  0.7556  1.3480
 7679SOL     OW34498   0.595   0.904   3.266  0.1446  0.1278 -0.4230
 7679SOL    HW134499   0.582   0.809   3.265  0.5441  0.0731 -1.3468
 7679SOL    HW234500   0.684   0.907   3.231  0.3400  0.2155  0.0855
 7680SOL     OW34501   4.540   1.984   3.830 -0.1108 -0.3002  0.3346
 7680SOL    HW134502   4.570   1.977   3.740  2.4588 -1.2658  1.2509
 7680SOL    HW234503   4.458   2.033   3.826 -2.1692 -3.7177  0.1468
 7681SOL     OW34504   4.507   2.295  11.483 -0.1762 -0.5931 -0.2791
 7681SOL    HW134505   4.460   2.358  11.537  1.0202  1.7492 -1.9928
 7681SOL    HW234506   4.441   2.226  11.478  0.4945 -1.2382 -0.1915
 7682SOL     OW34507   3.414   2.286   7.226  0.2171  0.2373  0.2199
 7682SOL    HW134508   3.489   2.331   7.267  1.4314 -1.7901  0.2299
 7682SOL    HW234509   3.394   2.216   7.288 -0.8847 -1.4046 -1.9937
 7683SOL     OW34510   3.428   3.849   1.203 -0.4469  0.0128  0.3362
 7683SOL    HW134511   3.399   3.856   1.295 -1.0802 -0.8394  0.2097
 7683SOL    HW234512   3.353   3.822   1.149  0.8627 -3.9067  0.5067
 7684SOL     OW34513   2.622   1.927   2.151 -0.4996  0.1006  0.1071
 7684SOL    HW134514   2.632   2.017   2.120  0.0174  0.1985  0.5535
 7684SOL    HW234515   2.709   1.910   2.187 -1.1306  1.5966  2.3136
 7685SOL     OW34516   4.317   3.688   4.119  0.2682  0.1738  0.0618
 7685SOL    HW134517   4.362   3.604   4.126  0.4112  0.3000  0.5979
 7685SOL    HW234518   4.270   3.668   4.038 -1.6730 -2.4218  1.8487
 7686SOL     OW34519   0.528   4.408   1.264  0.0485  0.1449 -0.6535
 7686SOL    HW134520   0.459   4.436   1.204  0.4579  2.9359  0.1781
 7686SOL    HW234521   0.587   4.375   1.197  0.8581  0.2781  0.0024
 7687SOL     OW34522   2.693   3.445   7.363 -0.2535  0.1612 -0.4742
 7687SOL    HW134523   2.715   3.450   7.456  2.6104  0.3101 -1.1619
 7687SOL    HW234524   2.756   3.382   7.329  0.1756 -0.7240  1.9758
 7688SOL     OW34525   3.367   2.163   2.827 -0.4012  0.5069 -0.4519
 7688SOL    HW134526   3.345   2.113   2.905 -0.2265 -0.2119 -0.8665
 7688SOL    HW234527   3.460   2.141   2.825 -0.6122 -0.5173  0.8794
 7689SOL     OW34528   3.717   3.107   7.519  0.2906  0.7121 -0.0866
 7689SOL    HW134529   3.635   3.132   7.475  0.1601 -3.0993 -1.9456
 7689SOL    HW234530   3.747   3.039   7.459 -1.1188  0.3294 -0.3606
 7690SOL     OW34531   0.557   0.362  15.281 -0.1967 -0.3285 -0.4839
 7690SOL    HW134532   0.497   0.437  15.279  0.9353  0.6206  1.5059
 7690SOL    HW234533   0.496   0.307  15.233 -1.2477  0.2251  0.2019
 7691SOL     OW34534   1.908   1.286   6.187  0.2949 -0.1348 -0.1426
 7691SOL    HW134535   1.949   1.356   6.238 -0.8452 -0.7305  1.5806
 7691SOL    HW234536   1.837   1.319   6.132  1.8481  0.5715 -1.6850
 7692SOL     OW34537   2.566   2.547   8.710  0.2144  0.0087 -0.4439
 7692SOL    HW134538   2.612   2.470   8.676  0.8711 -0.1122  0.7290
 7692SOL    HW234539   2.643   2.596   8.739  1.3381 -0.7648 -2.1133
 7693SOL     OW34540   2.555   3.684   0.654  0.0796  0.4580 -0.0078
 7693SOL    HW134541   2.466   3.653   0.639  1.1039 -2.4944 -0.0356
 7693SOL    HW234542   2.596   3.602   0.680 -1.3148 -0.1028  0.4076
 7694SOL     OW34543   1.835   3.511   0.276  0.8464  0.2904 -0.0138
 7694SOL    HW134544   1.841   3.457   0.355  3.1318  0.8938  0.2194
 7694SOL    HW234545   1.752   3.466   0.260  1.0366 -0.1126  0.1253
 7695SOL     OW34546   0.753   3.828  14.105 -0.2235 -0.5820 -0.1611
 7695SOL    HW134547   0.717   3.746  14.070 -0.3320 -1.4084  1.9228
 7695SOL    HW234548   0.752   3.882  14.026 -0.9402  1.4918  1.2619
 7696SOL     OW34549   2.415   4.351   6.459 -0.6417  0.5688 -0.4549
 7696SOL    HW134550   2.494   4.301   6.439 -2.1161 -1.2489 -1.7887
 7696SOL    HW234551   2.453   4.438   6.475  0.8183  0.0542 -1.0634
 7697SOL     OW34552   1.080   0.802   0.311 -0.0669 -0.2734 -0.2216
 7697SOL    HW134553   1.169   0.834   0.323 -0.7242  0.9826  1.4224
 7697SOL    HW234554   1.087   0.712   0.343 -0.3270 -0.7150 -1.4268
 7698SOL     OW34555   3.093   4.524   6.930  0.3227 -0.1880 -0.0382
 7698SOL    HW134556   3.148   4.451   6.903 -0.5590 -0.4871 -0.9978
 7698SOL    HW234557   3.155   4.596   6.922 -0.8390  1.0563  2.1995
 7699SOL     OW34558   2.501   0.689   7.865  0.0101  0.7355 -0.1413
 7699SOL    HW134559   2.485   0.763   7.923  0.1492  0.3584  0.3877
 7699SOL    HW234560   2.578   0.725   7.821 -0.1911  1.7835  0.3776
 7700SOL     OW34561   1.313   0.368   0.925  0.0026  0.7993 -0.5098
 7700SOL    HW134562   1.307   0.459   0.954 -0.8585  1.0885 -1.5691
 7700SOL    HW234563   1.315   0.372   0.829 -1.4864 -0.4186 -0.6012
 7701SOL     OW34564   0.421   3.018  13.112 -0.4620  0.0694 -0.2808
 7701SOL    HW134565   0.396   3.104  13.146 -2.9421 -0.8624  0.2376
 7701SOL    HW234566   0.402   3.043  13.022  0.5397 -0.4511 -0.6424
 7702SOL     OW34567   3.281   4.306  11.442  0.3163  0.4034 -0.2091
 7702SOL    HW134568   3.281   4.387  11.391 -1.4680  0.4327 -0.1645
 7702SOL    HW234569   3.250   4.334  11.529  2.6104 -0.8690  1.0115
 7703SOL     OW34570   4.558   4.687   6.606  0.0570 -0.0333  0.1646
 7703SOL    HW134571   4.595   4.599   6.616  0.3105 -0.1120 -1.6038
 7703SOL    HW234572   4.611   0.006   6.672  0.2112 -1.1834  0.8222
 7704SOL     OW34573   2.764   0.237   3.420  0.5686 -0.3397  0.1376
 7704SOL    HW134574   2.686   0.242   3.476  0.7666 -2.3765  0.6252
 7704SOL    HW234575   2.776   0.319   3.373 -1.7106 -0.0683  0.0258
 7705SOL     OW34576   2.295   2.459  12.680  0.2861 -0.1145 -0.1300
 7705SOL    HW134577   2.291   2.401  12.756 -0.4716  0.0425 -0.0512
 7705SOL    HW234578   2.358   2.426  12.615  0.9053  1.9111 -0.5528
 7706SOL     OW34579   1.709   3.553  12.395  0.0963 -0.1121  0.0127
 7706SOL    HW134580   1.692   3.620  12.461  0.6286 -0.4113  0.4623
 7706SOL    HW234581   1.658   3.587  12.322 -1.4426 -0.1828  1.0502
 7707SOL     OW34582   3.844   3.269  14.381 -0.4436  0.5196  0.5475
 7707SOL    HW134583   3.838   3.244  14.472 -1.1316 -1.1436  0.0319
 7707SOL    HW234584   3.923   3.233  14.341 -1.4639 -1.1642  0.0679
 7708SOL     OW34585   0.288   2.261   2.166 -0.2604  0.0688  0.5565
 7708SOL    HW134586   0.213   2.315   2.190 -0.3989  0.0204  0.2231
 7708SOL    HW234587   0.297   2.281   2.073 -0.2612 -0.9675  0.3270
 7709SOL     OW34588   4.363   3.696   3.519 -0.0978 -0.4998  0.1819
 7709SOL    HW134589   4.378   3.729   3.430  2.1354 -0.7121  0.4705
 7709SOL    HW234590   4.440   3.638   3.518  1.3447  1.4523 -1.6281
 7710SOL     OW34591   4.390   4.699   0.748 -0.2187  0.1378  0.1880
 7710SOL    HW134592   4.311   4.650   0.768 -0.5808  0.8226  0.4313
 7710SOL    HW234593   4.360   0.014   0.666 -1.1383 -1.4030 -0.2208
 7711SOL     OW34594   1.800   2.562  17.221 -0.1362  0.2854  0.2047
 7711SOL    HW134595   1.858   2.625  17.266 -0.6431  1.4544 -0.7899
 7711SOL    HW234596   1.720   2.613  17.210  0.3594  0.4083 -2.7790
 7712SOL     OW34597   2.843   0.620   6.301  0.1285  0.2165  0.7407
 7712SOL    HW134598   2.797   0.558   6.245  1.2462  1.5905 -1.6877
 7712SOL    HW234599   2.875   0.569   6.376  2.2233 -0.1573 -0.4110
 7713SOL     OW34600   4.562   0.690   4.079  0.0947 -0.7239 -0.3211
 7713SOL    HW134601   4.533   0.670   4.168 -0.4810 -0.0110 -0.3471
 7713SOL    HW234602   4.641   0.741   4.095 -0.3479 -0.1791  0.1451
 7714SOL     OW34603   1.478   1.640  12.193 -0.1369 -0.1668  0.1146
 7714SOL    HW134604   1.393   1.674  12.222 -0.0829  0.4348 -0.4506
 7714SOL    HW234605   1.479   1.565  12.253 -3.3602  0.0456  0.4400
 7715SOL     OW34606   1.115   1.556  15.271 -0.1919  0.4484 -0.0692
 7715SOL    HW134607   1.209   1.551  15.291 -0.5072 -2.6197  0.7611
 7715SOL    HW234608   1.107   1.651  15.264 -0.7718  0.3358 -0.9660
 7716SOL     OW34609   3.762   0.009  11.560  0.0532 -0.4484  0.2693
 7716SOL    HW134610   3.823   4.715  11.630  0.3301 -1.6456 -0.2957
 7716SOL    HW234611   3.725   4.647  11.544 -2.1650  0.6618 -0.7368
 7717SOL     OW34612   0.309   3.065  16.557  0.5471 -0.2243 -0.5655
 7717SOL    HW134613   0.244   3.119  16.601 -0.2339 -0.3320 -1.5794
 7717SOL    HW234614   0.279   2.978  16.584  0.3860 -0.6224 -2.0080
 7718SOL     OW34615   1.400   1.037   5.514 -0.1396  0.0181  0.1999
 7718SOL    HW134616   1.415   1.127   5.543 -0.6370  0.4807 -0.9722
 7718SOL    HW234617   1.491   1.008   5.504  0.2607  1.1412  0.6100
 7719SOL     OW34618   2.703   4.682   3.617  0.1925  0.4058 -0.4546
 7719SOL    HW134619   2.694   4.685   3.712 -2.4259  0.6208 -0.7266
 7719SOL    HW234620   2.635   0.013   3.580  2.2951  2.8879 -0.5305
 7720SOL     OW34621   0.845   2.524   9.560  0.0680  0.1186  0.4660
 7720SOL    HW134622   0.786   2.600   9.563  0.7757  0.7255 -1.1199
 7720SOL    HW234623   0.922   2.562   9.602  0.2460  0.4748 -0.1910
 7721SOL     OW34624   1.795   0.669   5.465  0.3645  0.5009 -0.3812
 7721SOL    HW134625   1.868   0.704   5.413  0.0787  1.5505 -0.0856
 7721SOL    HW234626   1.799   0.575   5.446 -1.3306  0.6018 -1.2090
 7722SOL     OW34627   1.663   1.214   5.832 -0.2862  0.1306 -0.1018
 7722SOL    HW134628   1.639   1.299   5.868  0.1425  0.6748 -1.0785
 7722SOL    HW234629   1.608   1.153   5.881 -0.6013 -0.3029 -0.9912
 7723SOL     OW34630   0.032   0.651   9.205 -0.3163 -0.3467  0.4024
 7723SOL    HW134631   0.090   0.598   9.260 -0.8413 -1.5695 -0.2179
 7723SOL    HW234632   0.079   0.667   9.123 -1.4937  1.5998  0.1061
 7724SOL     OW34633   0.663   1.399   4.323 -0.3394 -0.0655 -0.2473
 7724SOL    HW134634   0.719   1.474   4.302 -0.4284  0.2707  0.7305
 7724SOL    HW234635   0.729   1.338   4.359  0.1111  0.2229 -0.5831
 7725SOL     OW34636   3.566   1.737   8.750  0.2116  0.1576 -0.2187
 7725SOL    HW134637   3.636   1.708   8.809  1.0480 -0.4406 -1.5080
 7725SOL    HW234638   3.596   1.826   8.731 -0.7901  0.1766 -1.6594
 7726SOL     OW34639   2.647   2.959  11.885  0.2539  0.0187  0.1329
 7726SOL    HW134640   2.695   3.027  11.932  0.3816  0.0255 -0.0074
 7726SOL    HW234641   2.573   2.953  11.945 -1.2685 -2.2959 -1.9476
 7727SOL     OW34642   0.876   0.356   4.559 -0.4831  0.4940  0.2289
 7727SOL    HW134643   0.830   0.357   4.643  2.9279 -2.1223  2.1447
 7727SOL    HW234644   0.907   0.267   4.545 -0.7906  0.2277  1.2326
 7728SOL     OW34645   2.666   3.727   2.393  0.2118  0.4469  0.0875
 7728SOL    HW134646   2.644   3.657   2.454 -2.1872  1.9731  0.9940
 7728SOL    HW234647   2.588   3.781   2.384  0.6089  0.8279 -1.0276
 7729SOL     OW34648   3.419   0.233   7.167 -0.3940 -0.5626  0.2073
 7729SOL    HW134649   3.504   0.239   7.122 -1.0607  0.2531 -0.9537
 7729SOL    HW234650   3.366   0.290   7.111 -1.3692 -1.8627 -0.1679
 7730SOL     OW34651   4.043   3.506   5.628 -0.2478  0.0420  0.1432
 7730SOL    HW134652   3.953   3.474   5.626 -0.3229  0.0769  2.9926
 7730SOL    HW234653   4.074   3.448   5.559  1.2703  1.7860 -0.6299
 7731SOL     OW34654   2.511   1.360  10.181  0.1219 -0.5712 -0.0156
 7731SOL    HW134655   2.539   1.408  10.104  1.2891 -2.0526 -0.5092
 7731SOL    HW234656   2.450   1.297  10.144 -1.4200  1.2659 -0.5788
 7732SOL     OW34657   3.423   1.410  17.304  0.2498 -0.0500  1.1903
 7732SOL    HW134658   3.451   1.497  17.276 -0.8122 -0.2331 -0.4832
 7732SOL    HW234659   3.472   1.402  17.385 -0.5431  2.0544  1.8736
 7733SOL     OW34660   0.880   2.597   8.792 -0.0594 -0.3311  0.4284
 7733SOL    HW134661   0.790   2.626   8.780 -0.1315 -1.2182 -1.0417
 7733SOL    HW234662   0.901   2.581   8.700  0.1719  2.3536 -0.0052
 7734SOL     OW34663   3.938   4.386   4.380 -0.6674 -1.1876  0.4116
 7734SOL    HW134664   4.028   4.368   4.352 -0.5120  0.7923 -0.4028
 7734SOL    HW234665   3.948   4.377   4.475  1.5050  1.5001  0.4534
 7735SOL     OW34666   1.740   1.415   4.633  0.0784  0.1919  0.6973
 7735SOL    HW134667   1.825   1.391   4.670 -0.3845  0.7964  2.1758
 7735SOL    HW234668   1.689   1.336   4.619  1.7494 -0.7897  0.0753
 7736SOL     OW34669   1.624   0.846   1.112  0.1637  0.4287  0.0731
 7736SOL    HW134670   1.558   0.906   1.078  2.1933  2.8367  0.3685
 7736SOL    HW234671   1.639   0.888   1.197 -1.2713  0.9412  0.0735
 7737SOL     OW34672   0.215   4.540  15.398 -0.1997  0.4807 -0.2465
 7737SOL    HW134673   0.303   4.575  15.389 -0.1351  1.1833  3.0584
 7737SOL    HW234674   0.242   4.459  15.355 -2.6471 -0.9994  0.9722
 7738SOL     OW34675   2.725   1.425   2.729 -0.4275  0.3925  0.1682
 7738SOL    HW134676   2.724   1.338   2.689 -1.9683  1.5201 -2.2379
 7738SOL    HW234677   2.683   1.397   2.810 -0.2014 -1.4199 -0.3495
 7739SOL     OW34678   3.004   4.458   5.510 -0.4435  0.1471 -0.5253
 7739SOL    HW134679   2.967   4.533   5.463 -2.4992 -0.1756  0.5699
 7739SOL    HW234680   3.094   4.454   5.479 -0.2654  0.2102 -0.0108
 7740SOL     OW34681   0.616   1.617   8.795 -0.5863 -0.1501 -0.2154
 7740SOL    HW134682   0.650   1.706   8.808  0.1284 -0.6952  1.6579
 7740SOL    HW234683   0.666   1.586   8.720 -1.3866  1.0766 -1.2644
 7741SOL     OW34684   3.311   0.663   8.979 -0.2961 -0.1278 -0.3391
 7741SOL    HW134685   3.255   0.627   9.048  0.2497  0.7967  0.5804
 7741SOL    HW234686   3.371   0.725   9.020  0.9763 -2.1352  0.7974
 7742SOL     OW34687   2.596   4.345   4.024 -0.4700  0.4207  0.8732
 7742SOL    HW134688   2.635   4.405   4.088 -1.1891  0.5048  1.2284
 7742SOL    HW234689   2.566   4.403   3.955  1.7734 -0.6539 -1.0091
 7743SOL     OW34690   3.359   1.610   5.568 -0.2834 -0.0747  0.0293
 7743SOL    HW134691   3.290   1.578   5.509 -0.1894 -2.5485  1.2517
 7743SOL    HW234692   3.341   1.703   5.577  0.1675  0.1844 -1.7310
 7744SOL     OW34693   2.145   0.382  15.844 -0.5307  0.0794 -0.7607
 7744SOL    HW134694   2.229   0.340  15.823 -0.4344 -0.8495  1.4338
 7744SOL    HW234695   2.109   0.397  15.757 -0.7643 -1.3092 -0.9047
 7745SOL     OW34696   2.315   4.664   6.788  0.2357 -0.1265  0.2177
 7745SOL    HW134697   2.410   4.650   6.792  0.0795 -1.1852  0.1614
 7745SOL    HW234698   2.282   4.610   6.860  2.3359 -0.3088  1.0411
 7746SOL     OW34699   0.865   4.434  10.563 -0.0901  0.3521 -0.0317
 7746SOL    HW134700   0.894   4.355  10.518 -2.1314 -0.6873  0.4633
 7746SOL    HW234701   0.931   4.446  10.631  0.4206 -2.2914 -0.0526
 7747SOL     OW34702   0.383   3.282  13.171  0.2756  0.1867 -0.0329
 7747SOL    HW134703   0.355   3.267  13.261 -0.8356 -0.0825 -0.4247
 7747SOL    HW234704   0.316   3.340  13.134 -1.8088 -0.6491  2.4274
 7748SOL     OW34705   1.124   1.241   4.601 -0.6081 -0.7549  0.1128
 7748SOL    HW134706   1.187   1.173   4.576 -0.6450 -0.7833  0.0963
 7748SOL    HW234707   1.141   1.249   4.695 -1.4574 -1.3673  0.3238
 7749SOL     OW34708   2.378   1.562  10.599  0.3765  0.6359  0.4027
 7749SOL    HW134709   2.454   1.549  10.543 -0.0314 -0.5680  0.1177
 7749SOL    HW234710   2.329   1.495  10.551  0.9335 -0.2057  0.9868
 7750SOL     OW34711   1.555   0.910   3.307 -0.2438 -0.0630 -0.3243
 7750SOL    HW134712   1.639   0.955   3.316  0.0336 -0.0990 -2.7534
 7750SOL    HW234713   1.524   0.907   3.398  1.1199 -0.4199  0.1197
 7751SOL     OW34714   1.649   2.712   8.579  0.1837  0.3179  0.0551
 7751SOL    HW134715   1.726   2.711   8.522  0.7998  2.2287  0.8920
 7751SOL    HW234716   1.647   2.801   8.613  0.7004 -0.0548  1.0555
 7752SOL     OW34717   4.201   1.919   3.944  0.6532 -0.0666  0.2136
 7752SOL    HW134718   4.250   1.866   4.007 -0.3792 -0.7571  0.4388
 7752SOL    HW234719   4.135   1.942   4.009  0.0527 -2.3078  0.3910
 7753SOL     OW34720   2.661   1.045   0.894 -0.0289  0.1581  0.0237
 7753SOL    HW134721   2.615   1.088   0.822  0.3589 -0.2307 -0.4627
 7753SOL    HW234722   2.649   1.100   0.972  3.0862  1.1107 -0.1642
 7754SOL     OW34723   0.427   2.442   3.090  0.0523 -0.7554 -0.2769
 7754SOL    HW134724   0.485   2.503   3.043  2.6343 -1.9107  1.3592
 7754SOL    HW234725   0.491   2.392   3.141  0.0871  1.1903  1.6175
 7755SOL     OW34726   3.110   2.861  11.050  0.1682  0.2429 -0.1116
 7755SOL    HW134727   3.145   2.929  11.108  1.6905 -0.2360 -0.4774
 7755SOL    HW234728   3.018   2.887  11.041 -0.9306 -4.2270 -1.8769
 7756SOL     OW34729   2.091   1.353   4.063 -0.6337  0.0097  0.7966
 7756SOL    HW134730   2.115   1.444   4.077  1.0305 -0.4199  0.8599
 7756SOL    HW234731   2.167   1.319   4.014 -0.9711  0.1032  0.2053
 7757SOL     OW34732   0.107   1.368  14.038  0.9346 -0.2664 -0.0201
 7757SOL    HW134733   0.042   1.438  14.031  2.7464  1.2893 -1.4138
 7757SOL    HW234734   0.164   1.413  14.100  1.3882 -0.9105  0.0244
 7758SOL     OW34735   1.371   4.162   5.701  0.4649  0.1423  0.1289
 7758SOL    HW134736   1.433   4.107   5.654 -0.8736  0.9174 -2.6087
 7758SOL    HW234737   1.304   4.172   5.633  0.0618 -0.0011  0.5059
 7759SOL     OW34738   2.091   2.465  15.364  0.3033  0.3595  0.0815
 7759SOL    HW134739   2.095   2.461  15.268  0.2961  1.9400  0.0133
 7759SOL    HW234740   2.008   2.511  15.377  0.8651  0.8881  1.8523
 7760SOL     OW34741   4.467   3.999   8.694 -0.1481  0.0451  0.1278
 7760SOL    HW134742   4.382   3.955   8.689  0.5077 -1.3513  1.3625
 7760SOL    HW234743   4.483   3.981   8.787 -1.4502  1.2685  0.5930
 7761SOL     OW34744   0.864   0.166   9.414 -0.1927 -0.0944  0.1772
 7761SOL    HW134745   0.844   0.081   9.374 -0.0373 -0.4668  0.9006
 7761SOL    HW234746   0.806   0.167   9.490 -1.3562  0.0276 -0.7050
 7762SOL     OW34747   0.396   3.777  10.535  0.2569  0.5605  0.1543
 7762SOL    HW134748   0.371   3.869  10.528  0.4594  0.6161  0.1866
 7762SOL    HW234749   0.437   3.776  10.621  1.4830 -0.0660 -0.4400
 7763SOL     OW34750   2.149   3.837   8.950 -0.1557 -0.6982 -0.0900
 7763SOL    HW134751   2.063   3.795   8.953 -0.3163 -0.1929  2.1013
 7763SOL    HW234752   2.131   3.914   9.004  0.3996 -1.1502  0.7461
 7764SOL     OW34753   2.503   4.540   2.774 -0.1981 -0.3359  0.0934
 7764SOL    HW134754   2.479   4.515   2.864 -0.0345 -0.3217  0.1405
 7764SOL    HW234755   2.532   4.629   2.793  0.1675 -0.2066 -1.0551
 7765SOL     OW34756   3.741   3.476   8.082  0.1094  0.4051 -0.4154
 7765SOL    HW134757   3.653   3.445   8.098  0.6057 -0.7046  0.1299
 7765SOL    HW234758   3.765   3.495   8.172 -0.6388  0.1132 -0.1554
 7766SOL     OW34759   2.323   0.163  16.594  0.0316  0.7270 -0.4345
 7766SOL    HW134760   2.351   0.132  16.680  0.0774 -1.6919 -1.3184
 7766SOL    HW234761   2.386   0.105  16.550  1.3405  0.8023  1.3008
 7767SOL     OW34762   2.890   1.726   7.266 -0.9066 -0.1960 -0.2730
 7767SOL    HW134763   2.959   1.787   7.291 -0.6591 -0.4720 -0.2751
 7767SOL    HW234764   2.922   1.698   7.180  0.8524  1.6760 -0.2102
 7768SOL     OW34765   0.679   2.268   2.301 -0.7340 -0.1285  0.0090
 7768SOL    HW134766   0.645   2.345   2.346  0.7042  0.0582  0.7801
 7768SOL    HW234767   0.774   2.272   2.315 -0.7588  1.9978 -0.4945
 7769SOL     OW34768   2.870   1.273  11.750 -0.2322 -0.0153  0.0158
 7769SOL    HW134769   2.901   1.357  11.783  2.0315 -1.6284  1.9082
 7769SOL    HW234770   2.832   1.229  11.826  0.4906  0.5088  0.6681
 7770SOL     OW34771   3.144   2.885  12.932  0.2578 -0.0150  0.1684
 7770SOL    HW134772   3.125   2.975  12.906  1.6515 -0.6576 -3.1310
 7770SOL    HW234773   3.068   2.869  12.988  1.2066  0.8884  1.7089
 7771SOL     OW34774   0.222   0.776   4.726 -0.6004 -0.0350 -0.6483
 7771SOL    HW134775   0.317   0.792   4.722 -0.2861 -1.7308 -0.1053
 7771SOL    HW234776   0.199   0.859   4.686 -1.4464 -0.6947 -1.5192
 7772SOL     OW34777   3.579   0.277   3.540  0.0983 -0.2308 -0.1444
 7772SOL    HW134778   3.529   0.335   3.599 -0.5969  0.7003 -1.6450
 7772SOL    HW234779   3.552   0.190   3.568 -1.8849  1.2859  2.7597
 7773SOL     OW34780   4.474   0.381  13.296  0.0973 -0.3970  0.1766
 7773SOL    HW134781   4.394   0.429  13.316 -1.5279 -2.3165 -1.7319
 7773SOL    HW234782   4.537   0.453  13.306 -1.5363  0.6338  3.0190
 7774SOL     OW34783   4.006   3.929  12.937  0.2332 -0.2843  0.5851
 7774SOL    HW134784   4.021   3.993  13.006  1.3144  1.6815 -1.4649
 7774SOL    HW234785   3.935   3.874  12.967 -0.2772 -1.1780 -2.2125
 7775SOL     OW34786   4.562   1.276   3.432  0.0165 -0.6660 -0.3826
 7775SOL    HW134787   4.597   1.254   3.346  5.3760  1.3704  1.2502
 7775SOL    HW234788   4.620   1.227   3.491  2.3367  0.5546 -1.6274
 7776SOL     OW34789   4.431   0.945  13.707 -0.1786  0.0060 -0.3670
 7776SOL    HW134790   4.342   0.909  13.703 -0.2377  0.3001 -2.1406
 7776SOL    HW234791   4.419   1.039  13.696 -2.2534 -0.1591  0.4861
 7777SOL     OW34792   0.645   2.153  14.764  0.2377 -0.0168 -0.3577
 7777SOL    HW134793   0.677   2.239  14.794  0.4761 -0.1245 -0.3049
 7777SOL    HW234794   0.666   2.154  14.671  2.9337 -2.0422  0.2288
 7778SOL     OW34795   4.333   2.527  14.450  0.0778 -0.8723  0.3249
 7778SOL    HW134796   4.255   2.480  14.420  0.4976 -0.8863 -0.7495
 7778SOL    HW234797   4.288   2.611  14.446  1.0936 -0.4387 -2.0771
 7779SOL     OW34798   2.991   0.585  11.041 -0.3124  0.3021 -0.3408
 7779SOL    HW134799   2.984   0.548  11.129 -2.8231  1.1972 -0.1779
 7779SOL    HW234800   2.930   0.537  10.986 -0.8758  1.4716 -0.7531
 7780SOL     OW34801   0.998   2.869   4.280  0.2386 -0.4099  0.2771
 7780SOL    HW134802   0.920   2.833   4.324 -0.9728  2.6988  0.6814
 7780SOL    HW234803   0.988   2.964   4.287  2.6427 -0.0385 -1.2742
 7781SOL     OW34804   3.365   4.503   1.628  0.0986 -0.2582 -0.2371
 7781SOL    HW134805   3.377   4.435   1.562 -3.8410 -0.0734 -1.1594
 7781SOL    HW234806   3.379   4.583   1.576 -2.0243  0.5176  0.3683
 7782SOL     OW34807   1.005   1.642   6.904 -0.5281 -0.1101 -0.1117
 7782SOL    HW134808   1.067   1.702   6.863  1.2382  0.1083  2.8347
 7782SOL    HW234809   0.992   1.582   6.831 -1.1137  0.4337 -0.4530
 7783SOL     OW34810   4.525   2.409  12.015 -0.3422  0.3741 -0.0931
 7783SOL    HW134811   4.546   2.356  11.938  1.5440 -2.0826  2.0947
 7783SOL    HW234812   4.598   2.389  12.073 -0.3837  1.4137  0.3159
 7784SOL     OW34813   4.015   1.009   6.696 -0.1519  0.4761  0.5187
 7784SOL    HW134814   4.013   1.000   6.791  3.2879 -0.8633  0.4662
 7784SOL    HW234815   3.992   0.921   6.668  1.9405 -0.1172  0.6690
 7785SOL     OW34816   4.400   3.842   5.934  0.1859  0.3256 -0.2766
 7785SOL    HW134817   4.390   3.863   6.027 -0.0484 -0.3086 -0.1598
 7785SOL    HW234818   4.373   3.750   5.937 -0.2370  0.5174  1.5091
 7786SOL     OW34819   0.887   3.718   1.704 -0.4910  0.0256 -0.0199
 7786SOL    HW134820   0.842   3.689   1.784  0.6427  0.4617  0.7822
 7786SOL    HW234821   0.857   3.808   1.695 -1.9583 -0.4505  0.2258
 7787SOL     OW34822   1.482   4.175   6.884 -0.7760  0.3766 -0.2116
 7787SOL    HW134823   1.529   4.257   6.876 -0.8062  0.2541 -1.6991
 7787SOL    HW234824   1.458   4.153   6.794 -2.1142 -1.6466  0.6164
 7788SOL     OW34825   3.600   2.084   5.899 -0.6885 -0.0836  0.6795
 7788SOL    HW134826   3.572   2.063   5.810 -1.4014  2.6413  0.2336
 7788SOL    HW234827   3.643   2.005   5.929 -1.1106 -1.0637 -1.2986
 7789SOL     OW34828   1.956   2.028  10.054  0.4372 -0.1876 -0.2642
 7789SOL    HW134829   2.028   2.082  10.022  1.7155 -1.0656  1.1519
 7789SOL    HW234830   2.006   1.973  10.114 -0.3698  0.7191  1.2360
 7790SOL     OW34831   4.411   0.285  13.771 -0.5551 -0.1803 -0.3924
 7790SOL    HW134832   4.361   0.204  13.760 -1.1205  0.1293 -0.0985
 7790SOL    HW234833   4.459   0.290  13.688 -1.3740 -0.7168 -0.8900
 7791SOL     OW34834   2.961   3.376   6.974 -0.5035 -0.9208 -0.2469
 7791SOL    HW134835   3.038   3.330   6.939  0.4633  1.0187 -0.6272
 7791SOL    HW234836   3.006   3.446   7.020  0.9104 -1.1228 -1.3073
 7792SOL     OW34837   1.239   4.724   6.265  0.0002  0.1768 -0.4036
 7792SOL    HW134838   1.246   4.629   6.254  0.0683  0.0750  0.4900
 7792SOL    HW234839   1.238   0.037   6.177 -0.4527  0.8049 -0.1308
 7793SOL     OW34840   1.216   2.465   2.787  0.1822 -0.3384 -0.1993
 7793SOL    HW134841   1.311   2.454   2.780  0.0648 -1.4983  0.0942
 7793SOL    HW234842   1.215   2.529   2.857  0.0184 -0.8666  0.2808
 7794SOL     OW34843   2.853   0.310   5.834 -0.0764 -0.0846 -0.0774
 7794SOL    HW134844   2.944   0.332   5.852 -0.9527  2.8594  0.7112
 7794SOL    HW234845   2.857   0.215   5.819 -0.7242 -0.0405 -0.5225
 7795SOL     OW34846   3.804   3.996   6.214 -0.0564 -0.1095 -0.1518
 7795SOL    HW134847   3.726   4.047   6.236  0.3655 -0.4118  2.0577
 7795SOL    HW234848   3.821   4.042   6.132  2.0156  1.5285  1.1766
 7796SOL     OW34849   0.504   0.632   8.437 -0.1996  0.2982  0.4394
 7796SOL    HW134850   0.508   0.696   8.367  0.1965 -0.5869 -0.3430
 7796SOL    HW234851   0.412   0.656   8.452  0.4508  3.2989 -0.5281
 7797SOL     OW34852   2.910   2.184   6.244  0.1388  0.3626 -0.5495
 7797SOL    HW134853   2.918   2.150   6.333 -3.4874 -2.8115 -1.4435
 7797SOL    HW234854   2.998   2.160   6.214  0.1487  0.6541 -0.7510
 7798SOL     OW34855   3.411   0.287   1.668  0.5076 -0.6093 -0.2157
 7798SOL    HW134856   3.339   0.232   1.698  0.9957 -1.6605 -0.9894
 7798SOL    HW234857   3.481   0.223   1.679  1.3375  0.4784  0.9274
 7799SOL     OW34858   1.131   0.279   4.732  0.3909 -0.6603  0.8032
 7799SOL    HW134859   1.141   0.200   4.679 -0.2403 -1.1309  1.3737
 7799SOL    HW234860   1.222   0.306   4.741  0.5893 -1.3600  0.8793
 7800SOL     OW34861   0.799   0.051   0.899  0.5897 -0.3149  0.2157
 7800SOL    HW134862   0.790   0.146   0.894  1.2257 -0.4696 -3.9683
 7800SOL    HW234863   0.735   0.014   0.838 -0.2739  0.2774  0.7480
 7801SOL     OW34864   3.336   3.483   2.889 -0.6916  0.0253  0.3994
 7801SOL    HW134865   3.306   3.523   2.807 -2.6610 -2.9112 -0.3080
 7801SOL    HW234866   3.258   3.476   2.945 -0.9895 -0.8653 -0.1375
 7802SOL     OW34867   1.784   1.546   6.646 -0.0106  0.2433 -0.3261
 7802SOL    HW134868   1.777   1.455   6.675 -0.9727  0.1748 -0.7655
 7802SOL    HW234869   1.872   1.548   6.609 -0.6500  2.3973 -1.7634
 7803SOL     OW34870   2.962   2.060  14.877  0.2688 -0.5932 -0.0883
 7803SOL    HW134871   3.006   2.013  14.806  1.2212  0.8463 -0.4605
 7803SOL    HW234872   2.889   2.104  14.834  2.6030  2.4910 -0.9719
 7804SOL     OW34873   0.207   2.397  14.171  0.1775  0.0009  0.1011
 7804SOL    HW134874   0.156   2.358  14.100  0.2036  0.9939 -0.4608
 7804SOL    HW234875   0.290   2.410  14.124  1.3449 -3.1107  1.3081
 7805SOL     OW34876   4.066   3.898  12.095  0.1718  0.0959  0.4234
 7805SOL    HW134877   4.115   3.883  12.014 -0.0011 -0.0560  0.3460
 7805SOL    HW234878   3.983   3.852  12.081  1.0531 -1.7722  1.3587
 7806SOL     OW34879   1.552   0.110   3.241 -0.1543 -0.0147  0.5028
 7806SOL    HW134880   1.511   0.196   3.230  1.3529  0.5794 -0.5054
 7806SOL    HW234881   1.534   0.074   3.154 -0.6817 -1.5719  1.2607
 7807SOL     OW34882   1.079   0.670  15.496  0.0291  0.1420  0.0688
 7807SOL    HW134883   1.134   0.707  15.427 -0.7785  0.9590 -0.1358
 7807SOL    HW234884   1.015   0.640  15.432 -0.2046  0.1661  0.2911
 7808SOL     OW34885   2.140   3.667   3.256 -0.6889 -0.4223  0.1134
 7808SOL    HW134886   2.092   3.597   3.211 -0.5136 -0.1999 -0.4113
 7808SOL    HW234887   2.071   3.732   3.245 -0.7788 -0.2715  1.5402
 7809SOL     OW34888   3.849   2.895  15.151  0.2306 -0.2900  0.2462
 7809SOL    HW134889   3.825   2.865  15.064  1.5013  1.2604 -0.6417
 7809SOL    HW234890   3.876   2.822  15.207  0.3363 -1.3414 -1.1751
 7810SOL     OW34891   1.095   0.997   7.905  0.4049 -0.2775 -0.2942
 7810SOL    HW134892   1.088   1.086   7.937  2.5049  0.4018 -1.7028
 7810SOL    HW234893   1.003   0.975   7.892  0.0848  0.4418  0.8336
 7811SOL     OW34894   1.225   2.972  13.832 -0.0579  0.6289  0.2776
 7811SOL    HW134895   1.150   2.913  13.836 -0.7740  1.5479  0.3947
 7811SOL    HW234896   1.245   2.963  13.739 -1.8801  0.1697 -0.0724
 7812SOL     OW34897   1.838   2.243   6.283  0.5513  0.3270  0.2356
 7812SOL    HW134898   1.838   2.285   6.197  0.7792 -2.3486 -1.0645
 7812SOL    HW234899   1.925   2.268   6.313  1.3577 -2.1382 -0.0409
 7813SOL     OW34900   1.126   0.631  11.274 -0.1941  0.4721 -0.1441
 7813SOL    HW134901   1.100   0.590  11.356 -1.4307  0.9600 -0.2948
 7813SOL    HW234902   1.108   0.721  11.301 -1.0343 -0.5880  2.8375
 7814SOL     OW34903   0.578   0.702  15.859  0.7519  0.0728 -0.9292
 7814SOL    HW134904   0.582   0.611  15.889  0.6950  0.6415  0.8117
 7814SOL    HW234905   0.671   0.722  15.873  1.2206 -2.5260 -0.3615
 7815SOL     OW34906   2.395   1.850   9.149 -0.0898 -0.6830  0.8068
 7815SOL    HW134907   2.457   1.896   9.092 -0.4388  0.2607  1.1812
 7815SOL    HW234908   2.341   1.919   9.186 -1.9243 -0.8626 -1.5609
 7816SOL     OW34909   0.638   0.712   9.529  0.3436  0.5050  0.4665
 7816SOL    HW134910   0.728   0.679   9.531  0.1495 -0.0450  0.1807
 7816SOL    HW234911   0.650   0.803   9.500 -1.1553  0.1900 -1.1556
 7817SOL     OW34912   2.517   1.018   2.766 -0.4322 -0.5599 -0.3402
 7817SOL    HW134913   2.594   1.012   2.710 -1.0419 -2.6611 -0.9588
 7817SOL    HW234914   2.530   0.938   2.817  0.5748  1.8950  3.2243
 7818SOL     OW34915   0.240   0.867   0.222  0.2366  0.2148 -0.1884
 7818SOL    HW134916   0.236   0.775   0.251  1.8469  0.5596  1.0749
 7818SOL    HW234917   0.170   0.866   0.157 -1.4423  0.4080  1.5941
 7819SOL     OW34918   4.156   4.378   1.442  0.2819 -0.3607 -0.1852
 7819SOL    HW134919   4.147   4.458   1.390 -0.5041 -0.1794  0.2371
 7819SOL    HW234920   4.222   4.333   1.389 -0.9508 -2.9368  0.4413
 7820SOL     OW34921   0.571   1.193  17.334 -0.7024 -0.0401  0.5148
 7820SOL    HW134922   0.628   1.252  17.285 -0.8759 -0.3194 -0.0196
 7820SOL    HW234923   0.534   1.260  17.391  0.0189 -0.6263  1.6785
 7821SOL     OW34924   0.803   0.861   5.009 -0.3206 -0.2570  0.0201
 7821SOL    HW134925   0.787   0.817   5.093 -0.9917  2.4151  1.2720
 7821SOL    HW234926   0.896   0.879   5.025 -0.6281 -0.6395  2.2625
 7822SOL     OW34927   2.784   1.386   1.360  0.1793 -0.5830  0.0550
 7822SOL    HW134928   2.850   1.357   1.296  0.0329 -1.7820  0.4494
 7822SOL    HW234929   2.831   1.453   1.409 -2.0155  0.1605  1.1100
 7823SOL     OW34930   1.140   2.505  13.346  0.0609  0.0741 -0.0054
 7823SOL    HW134931   1.074   2.450  13.388 -1.4242  0.9115 -1.2606
 7823SOL    HW234932   1.191   2.546  13.416  0.6584  0.3743 -0.6235
 7824SOL     OW34933   3.761   3.068   2.352  0.0664 -0.5081  0.0305
 7824SOL    HW134934   3.772   3.090   2.260 -2.8033  0.8155 -0.0008
 7824SOL    HW234935   3.768   2.973   2.353 -0.3946 -0.5263  1.4243
 7825SOL     OW34936   0.294   0.149   2.442 -0.2981  0.2973 -1.0159
 7825SOL    HW134937   0.258   0.133   2.355 -1.9758  0.8740 -0.4327
 7825SOL    HW234938   0.382   0.116   2.425  1.1001  3.3483  0.3145
 7826SOL     OW34939   0.628   1.602   5.602 -0.5211  0.0027  0.2629
 7826SOL    HW134940   0.644   1.680   5.548 -0.7670  0.2600  0.5596
 7826SOL    HW234941   0.630   1.642   5.690  0.1310 -1.2026  0.7895
 7827SOL     OW34942   1.628   1.764  16.948  0.0289 -0.1728 -0.6686
 7827SOL    HW134943   1.704   1.755  16.892  0.9376  2.6229  0.1492
 7827SOL    HW234944   1.578   1.695  16.903 -1.6781 -0.9301  2.3169
 7828SOL     OW34945   0.413   3.875   2.968 -0.1787 -0.3348  0.5649
 7828SOL    HW134946   0.501   3.842   2.947  0.2693  0.8140  0.6266
 7828SOL    HW234947   0.371   3.818   2.904  1.1008  0.1726 -0.7352
 7829SOL     OW34948   0.703   2.890   4.637  0.5885 -0.4091 -0.1850
 7829SOL    HW134949   0.738   2.973   4.668 -2.8381  0.3944  1.5332
 7829SOL    HW234950   0.638   2.920   4.573 -1.4747  1.1895  2.6918
 7830SOL     OW34951   1.922   2.098   5.175  0.0848  0.0392 -0.1609
 7830SOL    HW134952   1.990   2.159   5.146  0.2798  0.3966  1.0472
 7830SOL    HW234953   1.948   2.098   5.268 -2.4303 -0.0903  0.5322
 7831SOL     OW34954   0.092   3.358   1.852  0.2244  0.1671 -0.3454
 7831SOL    HW134955   0.058   3.269   1.842 -0.7960  0.6260 -0.9086
 7831SOL    HW234956   0.164   3.345   1.914 -0.1309 -0.8508 -0.1466
 7832SOL     OW34957   3.333   4.135   7.778 -0.1965  0.0478 -0.0515
 7832SOL    HW134958   3.415   4.090   7.797  0.0956  0.6771  0.1911
 7832SOL    HW234959   3.354   4.222   7.813  0.1728  1.3575 -3.5694
 7833SOL     OW34960   1.298   0.688   5.628 -0.4620 -0.0845 -0.3337
 7833SOL    HW134961   1.389   0.676   5.604 -1.1071 -2.7251 -1.5043
 7833SOL    HW234962   1.261   0.615   5.578 -0.4237  0.2022 -0.7778
 7834SOL     OW34963   4.625   3.700   4.337  0.5705  0.9186 -0.6007
 7834SOL    HW134964   4.541   3.654   4.341  1.2415 -0.0956  2.0089
 7834SOL    HW234965   4.606   3.765   4.405  0.0389 -0.0284  0.1590
 7835SOL     OW34966   0.416   0.889   7.441 -0.0681  0.1293  0.0370
 7835SOL    HW134967   0.479   0.822   7.415 -0.1732  0.2789 -0.6162
 7835SOL    HW234968   0.333   0.843   7.449  0.3391 -0.9985 -2.1072
 7836SOL     OW34969   2.615   3.993   6.828 -0.0697 -0.0953 -0.0511
 7836SOL    HW134970   2.644   4.041   6.906 -0.7436  0.5364 -0.1910
 7836SOL    HW234971   2.584   4.069   6.779  0.1565 -0.0998 -0.2007
 7837SOL     OW34972   2.076   3.466   1.057  0.2887 -0.8877  0.8102
 7837SOL    HW134973   2.051   3.516   1.134 -0.2121  1.2160 -0.7302
 7837SOL    HW234974   2.128   3.396   1.098  2.2508 -0.9617 -1.7660
 7838SOL     OW34975   1.983   4.083   4.376 -0.5138 -0.0230  0.1409
 7838SOL    HW134976   1.889   4.063   4.376 -0.7089  0.8828 -0.1217
 7838SOL    HW234977   2.021   3.996   4.383  0.0568 -0.0785 -3.6683
 7839SOL     OW34978   1.938   3.116  12.359  0.1197  0.3708 -0.2320
 7839SOL    HW134979   1.950   3.159  12.275  0.9788  0.0397 -0.2695
 7839SOL    HW234980   1.877   3.177  12.401 -0.0485 -0.5688  0.9103
 7840SOL     OW34981   0.195   4.534   5.359  0.5019  0.4776  0.3227
 7840SOL    HW134982   0.167   4.512   5.270  0.8601  3.8176 -0.6335
 7840SOL    HW234983   0.272   4.588   5.344 -0.1251  1.1278 -0.5311
 7841SOL     OW34984   4.150   0.338   5.532 -0.2711 -0.1667  0.9306
 7841SOL    HW134985   4.210   0.322   5.459 -1.8427 -1.3241 -0.1099
 7841SOL    HW234986   4.109   0.252   5.538  1.7953 -1.1973  0.4164
 7842SOL     OW34987   4.060   2.424   4.331  0.0735  0.0533  0.8490
 7842SOL    HW134988   4.033   2.401   4.242 -0.2003  2.2338  0.3718
 7842SOL    HW234989   4.002   2.363   4.376  0.0883 -0.9416 -0.4920
 7843SOL     OW34990   1.466   2.266  15.925 -0.4671  0.1898  0.4858
 7843SOL    HW134991   1.501   2.352  15.950  1.8437 -0.5563 -0.2059
 7843SOL    HW234992   1.384   2.296  15.885  0.0068 -1.8518 -2.0050
 7844SOL     OW34993   4.167   3.835   8.430 -0.1071  0.4759  0.0013
 7844SOL    HW134994   4.223   3.836   8.508 -1.2284  0.6408  0.8093
 7844SOL    HW234995   4.228   3.839   8.357 -1.8450  0.8209 -1.4469
 7845SOL     OW34996   2.278   0.584  16.407  0.1859 -0.3781 -0.3062
 7845SOL    HW134997   2.288   0.679  16.417  0.2152 -0.2951 -1.1271
 7845SOL    HW234998   2.264   0.562  16.499  1.7248  0.8157  0.2046
 7846SOL     OW34999   0.562   4.054   4.140 -0.2439 -0.4930 -0.1111
 7846SOL    HW135000   0.623   4.093   4.077  0.1652  0.1533  0.6822
 7846SOL    HW235001   0.487   4.112   4.126 -0.3870 -1.1066 -1.9202
 7847SOL     OW35002   1.469   4.567   2.759 -0.9243 -0.3809 -0.0541
 7847SOL    HW135003   1.475   4.539   2.667 -0.2952  1.5869 -0.6038
 7847SOL    HW235004   1.405   4.510   2.803  0.1719 -0.8012  0.9712
 7848SOL     OW35005   1.119   2.242   0.653 -0.2241  0.4636 -0.1336
 7848SOL    HW135006   1.177   2.258   0.728  0.9305 -0.0896 -0.9006
 7848SOL    HW235007   1.052   2.192   0.700 -0.1293 -1.0042 -1.5573
 7849SOL     OW35008   1.822   2.407   7.773 -0.2145  0.1282 -0.4761
 7849SOL    HW135009   1.843   2.437   7.861  0.8276 -0.6528 -0.4590
 7849SOL    HW235010   1.758   2.474   7.750  1.3583  1.9950  0.5970
 7850SOL     OW35011   3.069   4.512  13.461  0.3748  0.4028  0.9112
 7850SOL    HW135012   3.157   4.542  13.482  0.0167  2.7720 -1.0268
 7850SOL    HW235013   3.053   4.436  13.517  0.0560  0.3392  0.7325
 7851SOL     OW35014   0.210   0.497   8.440  0.2799  0.2021 -0.2461
 7851SOL    HW135015   0.173   0.567   8.492  1.5946 -0.6513  1.8499
 7851SOL    HW235016   0.173   0.420   8.484 -1.9054  2.8230  2.4012
 7852SOL     OW35017   3.346   2.567   4.989  0.4682  0.4098  0.4218
 7852SOL    HW135018   3.391   2.577   4.905 -1.9555  0.0707 -0.9580
 7852SOL    HW235019   3.398   2.607   5.058 -0.6655 -1.0083  2.1180
 7853SOL     OW35020   3.925   1.521   8.255  0.2848 -0.8435 -0.0106
 7853SOL    HW135021   3.889   1.438   8.224 -0.5538 -0.6242  0.3841
 7853SOL    HW235022   3.935   1.504   8.349  1.9357 -0.1033 -0.0519
 7854SOL     OW35023   3.654   3.161   8.020  0.0411 -0.2106 -0.3940
 7854SOL    HW135024   3.707   3.115   7.954  1.1141 -0.9174  0.9630
 7854SOL    HW235025   3.725   3.205   8.066  1.7187 -2.2666 -0.9821
 7855SOL     OW35026   2.660   0.144   4.280 -0.5735  0.5491 -0.1172
 7855SOL    HW135027   2.718   0.106   4.346 -0.6552 -0.1394 -0.4439
 7855SOL    HW235028   2.718   0.153   4.205  0.6863 -0.4586  0.7220
 7856SOL     OW35029   3.586   0.567   2.135 -0.0224  0.6978  0.2902
 7856SOL    HW135030   3.640   0.491   2.156  0.0692  0.0713 -2.2142
 7856SOL    HW235031   3.604   0.558   2.041  0.4586  1.8000  0.2722
 7857SOL     OW35032   0.798   1.373  14.315  0.1222 -0.3297  0.2053
 7857SOL    HW135033   0.860   1.441  14.287  0.0060  0.6879  2.4292
 7857SOL    HW235034   0.851   1.327  14.380 -4.0370 -1.1157  3.0331
 7858SOL     OW35035   4.694   2.457   8.544 -0.8272  0.0366 -0.4376
 7858SOL    HW135036   4.714   2.365   8.562  0.0203 -0.2074 -2.6106
 7858SOL    HW235037   0.029   2.468   8.470 -0.5484  1.4540  0.0054
 7859SOL     OW35038   0.956   0.847  15.093  0.6541  0.4869  0.5471
 7859SOL    HW135039   0.936   0.935  15.125 -1.8799  0.6969 -1.6059
 7859SOL    HW235040   0.981   0.853  15.001 -1.2291  0.7580  0.0403
 7860SOL     OW35041   0.763   1.847  12.402 -0.0055  0.1699  0.1909
 7860SOL    HW135042   0.734   1.897  12.479 -1.3115  0.4734 -0.4920
 7860SOL    HW235043   0.748   1.899  12.323 -3.5470  1.9902  2.0381
 7861SOL     OW35044   3.983   1.088   7.178 -0.7645 -0.7121 -0.1845
 7861SOL    HW135045   4.066   1.130   7.197 -1.0737  0.4051 -1.2977
 7861SOL    HW235046   3.924   1.157   7.209 -0.7431 -0.7744 -0.0073
 7862SOL     OW35047   0.193   0.687   1.045 -0.5604 -0.8908 -0.3723
 7862SOL    HW135048   0.100   0.672   1.066 -0.7920  0.6350 -0.2954
 7862SOL    HW235049   0.225   0.603   1.013 -1.7485 -1.5164  0.0861
 7863SOL     OW35050   4.106   3.063  10.884  0.0858 -0.1286 -0.3253
 7863SOL    HW135051   4.161   2.991  10.854 -0.3347  0.1730 -1.8455
 7863SOL    HW235052   4.056   3.017  10.951  0.1214 -1.5026 -1.2375
 7864SOL     OW35053   0.567   3.022   5.637  0.0415 -0.3332 -0.1266
 7864SOL    HW135054   0.600   3.097   5.587 -1.6076  1.1600  1.0257
 7864SOL    HW235055   0.602   2.953   5.582 -1.2269 -0.6648 -0.5045
 7865SOL     OW35056   2.905   1.330   9.371  0.3508 -0.3365 -0.0536
 7865SOL    HW135057   2.991   1.295   9.344 -0.1893 -2.2356  0.6502
 7865SOL    HW235058   2.896   1.281   9.453  0.3638  0.1059  0.2105
 7866SOL     OW35059   1.745   4.295   6.954  0.4908 -0.7064 -0.1009
 7866SOL    HW135060   1.724   4.249   7.036 -1.6888  3.1429  1.4888
 7866SOL    HW235061   1.830   4.262   6.927  1.0483  0.6632  0.0217
 7867SOL     OW35062   4.263   2.947   1.680 -0.2170  0.1641 -0.5243
 7867SOL    HW135063   4.295   3.013   1.619  2.0147  0.3898  0.8725
 7867SOL    HW235064   4.169   2.951   1.666 -0.1833 -0.1233 -0.8287
 7868SOL     OW35065   2.842   0.966  13.507  0.0120 -0.0763  0.1959
 7868SOL    HW135066   2.850   1.050  13.462  0.9698 -0.6347 -0.6642
 7868SOL    HW235067   2.763   0.984  13.558 -1.5399 -0.1032 -2.2103
 7869SOL     OW35068   1.082   0.493   8.695 -0.0912  0.3070  0.0990
 7869SOL    HW135069   1.096   0.573   8.644  3.0222 -0.5923 -0.4460
 7869SOL    HW235070   1.174   0.473   8.712  0.0975  1.6644  0.6629
 7870SOL     OW35071   0.279   3.728   8.143  0.1758 -0.5727 -0.4172
 7870SOL    HW135072   0.222   3.804   8.127 -0.4398 -0.7091  1.1463
 7870SOL    HW235073   0.221   3.658   8.171 -1.2241  0.0619 -1.6903
 7871SOL     OW35074   1.928   1.775   6.544  0.4069 -0.6721  0.2980
 7871SOL    HW135075   1.992   1.834   6.583 -1.0412  0.9948  0.1775
 7871SOL    HW235076   1.852   1.817   6.585  0.7183 -0.4357  0.6324
 7872SOL     OW35077   1.818   4.535   2.288  0.3202  0.2416 -0.1328
 7872SOL    HW135078   1.847   4.615   2.244 -2.0038 -0.4495 -2.9055
 7872SOL    HW235079   1.726   4.557   2.299 -0.8719 -4.1796 -1.3108
 7873SOL     OW35080   1.292   2.743   3.594 -0.3466 -0.0072 -0.4604
 7873SOL    HW135081   1.236   2.691   3.651 -0.3709 -0.4954 -0.9244
 7873SOL    HW235082   1.230   2.803   3.553  1.6231  1.2769 -1.5858
 7874SOL     OW35083   1.616   2.636   2.033 -0.3812 -0.2295 -0.3852
 7874SOL    HW135084   1.689   2.588   1.993  0.0759  1.6730 -1.8559
 7874SOL    HW235085   1.661   2.714   2.066 -2.3746  0.0055  1.7387
 7875SOL     OW35086   1.220   3.430   8.510 -0.4490 -0.1823  0.1522
 7875SOL    HW135087   1.236   3.342   8.545 -0.2348 -0.0486  0.3931
 7875SOL    HW235088   1.275   3.413   8.434 -0.6581  3.1111 -0.7340
 7876SOL     OW35089   2.825   1.246  13.437  0.2351 -0.9627  0.1650
 7876SOL    HW135090   2.830   1.244  13.533  0.1669 -2.4478  0.1280
 7876SOL    HW235091   2.729   1.246  13.431  0.2458  0.1830 -0.0568
 7877SOL     OW35092   3.869   1.351  12.162  0.0653 -0.0260 -0.2774
 7877SOL    HW135093   3.876   1.402  12.242 -0.4708  0.0537 -0.2864
 7877SOL    HW235094   3.839   1.427  12.112  0.8989  1.6177  1.7485
 7878SOL     OW35095   3.227   3.012   2.535  0.8320  0.5277 -0.2901
 7878SOL    HW135096   3.307   2.962   2.522  0.0497 -0.4366 -1.4769
 7878SOL    HW235097   3.173   2.981   2.462  2.0832 -1.7574 -0.2355
 7879SOL     OW35098   3.282   3.635   4.813 -0.1074  0.3839  0.3228
 7879SOL    HW135099   3.360   3.659   4.762 -0.9207  1.2425 -0.5366
 7879SOL    HW235100   3.277   3.540   4.800  0.4964  0.8623 -3.4822
 7880SOL     OW35101   0.141   2.779   0.217 -0.0302 -0.0089  0.2655
 7880SOL    HW135102   0.205   2.736   0.274 -1.0998 -0.2301  1.3181
 7880SOL    HW235103   0.055   2.750   0.249 -0.0938 -0.5880 -0.4056
 7881SOL     OW35104   1.236   2.664   3.315 -0.2728  0.1998  0.3185
 7881SOL    HW135105   1.280   2.730   3.369  0.7566 -1.4853  1.5253
 7881SOL    HW235106   1.299   2.652   3.243 -0.2840 -1.2577  0.5555
 7882SOL     OW35107   0.379   2.590  13.480  0.3215 -0.4593  0.1878
 7882SOL    HW135108   0.402   2.680  13.504 -1.1418  0.1925 -0.8500
 7882SOL    HW235109   0.402   2.537  13.556 -1.5529  0.6196  1.5375
 7883SOL     OW35110   0.524   1.259  14.109 -0.5095  0.4113  0.4264
 7883SOL    HW135111   0.493   1.247  14.198  0.6714 -0.0347  0.7780
 7883SOL    HW235112   0.465   1.192  14.071 -0.0384 -0.4868  1.2833
 7884SOL     OW35113   3.226   4.466   1.238  0.7513  0.0255 -0.5120
 7884SOL    HW135114   3.196   4.465   1.147 -3.4341 -0.9048  0.8346
 7884SOL    HW235115   3.318   4.489   1.231  0.4943  0.7368 -1.5814
 7885SOL     OW35116   1.498   2.458  13.130 -0.4492 -0.6874 -0.3502
 7885SOL    HW135117   1.424   2.398  13.140  0.1446 -1.1993  0.9238
 7885SOL    HW235118   1.450   2.541  13.119  1.8331  0.8049  0.9870
 7886SOL     OW35119   1.448   0.181  12.647  0.0397  0.0886  0.2123
 7886SOL    HW135120   1.397   0.258  12.622 -1.2103 -0.2465  1.7606
 7886SOL    HW235121   1.505   0.207  12.719 -0.7798  0.6361  0.6601
 7887SOL     OW35122   3.531   2.656   2.371 -0.2621 -0.1272 -0.3019
 7887SOL    HW135123   3.464   2.587   2.378  0.5054 -0.5908  2.5561
 7887SOL    HW235124   3.597   2.636   2.437 -0.4392 -1.0651 -0.4164
 7888SOL     OW35125   2.832   1.312   6.928  0.1600 -0.1743 -0.0644
 7888SOL    HW135126   2.774   1.386   6.944  1.3265  0.4388  1.3446
 7888SOL    HW235127   2.830   1.270   7.014 -1.4289 -2.4613 -1.2265
 7889SOL     OW35128   1.298   3.343   1.227  0.2591  0.0154  0.1260
 7889SOL    HW135129   1.270   3.391   1.149 -0.6945 -0.9197 -0.1027
 7889SOL    HW235130   1.338   3.270   1.181  2.3511  1.3785 -0.2296
 7890SOL     OW35131   3.254   2.444  10.049  0.3963 -0.0880  0.2805
 7890SOL    HW135132   3.336   2.441  10.000  1.0930 -1.4332  1.5036
 7890SOL    HW235133   3.214   2.525  10.017 -0.3558 -0.1274  1.0889
 7891SOL     OW35134   3.151   3.070   9.191  0.3005 -0.5153 -0.2332
 7891SOL    HW135135   3.088   3.079   9.120  2.1419 -1.9629 -2.0806
 7891SOL    HW235136   3.229   3.024   9.160  0.5404 -0.6555  0.5691
 7892SOL     OW35137   2.645   1.906   3.104  0.3073 -0.0226 -0.3881
 7892SOL    HW135138   2.615   1.815   3.108  2.6101 -0.6933  1.5646
 7892SOL    HW235139   2.717   1.908   3.041 -1.5428  2.7096 -2.4443
 7893SOL     OW35140   4.090   4.539   5.944 -0.2166  0.1100 -0.3828
 7893SOL    HW135141   4.166   4.574   5.898  0.3661  0.5334  0.9123
 7893SOL    HW235142   4.126   4.453   5.964  0.7939  0.9587  1.4246
 7894SOL     OW35143   0.887   1.556   1.978  0.0203 -0.3426  0.2622
 7894SOL    HW135144   0.949   1.606   1.925 -0.0406 -0.2760  0.2542
 7894SOL    HW235145   0.801   1.589   1.955  0.2117  0.1160  0.2043
 7895SOL     OW35146   3.809   3.290   5.861 -0.2554  0.0917 -0.0914
 7895SOL    HW135147   3.826   3.211   5.913 -1.1494  0.1748  0.3195
 7895SOL    HW235148   3.826   3.362   5.922  1.0676  0.6102 -1.0679
 7896SOL     OW35149   0.090   2.470  11.424  0.1476 -0.2990  0.2123
 7896SOL    HW135150   0.185   2.479  11.428  0.1773 -1.0894  1.4156
 7896SOL    HW235151   0.068   2.453  11.515 -0.5806 -1.7828 -0.2435
 7897SOL     OW35152   0.699   1.048  14.687  0.3353  0.1674  0.1747
 7897SOL    HW135153   0.741   1.112  14.745 -2.7082  2.5066 -0.2041
 7897SOL    HW235154   0.770   1.001  14.642 -0.4844 -0.3633 -0.5603
 7898SOL     OW35155   2.216   2.841   1.566 -0.4438  0.2388  0.1349
 7898SOL    HW135156   2.157   2.865   1.637 -2.2266 -2.5950 -0.3468
 7898SOL    HW235157   2.198   2.908   1.501  0.5066  0.9409  0.6089
 7899SOL     OW35158   0.375   3.570   7.155  0.2852  0.0503  0.2369
 7899SOL    HW135159   0.426   3.628   7.212  1.1595  2.3417 -2.8640
 7899SOL    HW235160   0.295   3.572   7.207  0.6031 -0.9171  0.7607
 7900SOL     OW35161   0.383   3.765  13.237 -0.4570  0.8041 -0.0373
 7900SOL    HW135162   0.294   3.785  13.265 -0.6067  2.2524 -1.5291
 7900SOL    HW235163   0.400   3.859  13.222  1.2168  0.4292 -0.4958
 7901SOL     OW35164   3.564   3.805   2.119  0.1088  0.2584 -0.2481
 7901SOL    HW135165   3.583   3.807   2.213  3.1346 -1.5961 -0.8261
 7901SOL    HW235166   3.474   3.837   2.124  0.8164  1.8049  2.5519
 7902SOL     OW35167   1.600   0.694   2.754  0.4785  0.1593 -0.0186
 7902SOL    HW135168   1.560   0.780   2.768 -0.7770 -0.2679 -0.9430
 7902SOL    HW235169   1.521   0.640   2.751  1.7172 -1.6236 -0.1878
 7903SOL     OW35170   3.082   4.308   5.724 -0.1042 -0.4502  0.4213
 7903SOL    HW135171   3.044   4.381   5.675  1.3410  1.3322  1.9359
 7903SOL    HW235172   3.161   4.292   5.671  0.0534  0.7240  0.3102
 7904SOL     OW35173   3.362   0.084   8.599 -0.4443 -0.0635  0.0166
 7904SOL    HW135174   3.364   4.724   8.642 -0.7913  0.1288  0.4182
 7904SOL    HW235175   3.325   0.143   8.665 -0.2316  0.4596 -0.3324
 7905SOL     OW35176   4.155   1.017   6.222  0.1521 -0.2759 -0.2941
 7905SOL    HW135177   4.241   1.039   6.185 -0.0965 -1.8941 -1.8216
 7905SOL    HW235178   4.174   1.042   6.313  0.0060  1.8937 -0.8718
 7906SOL     OW35179   3.819   0.954   7.950 -0.0246 -0.4445 -0.2219
 7906SOL    HW135180   3.859   1.024   8.002 -3.1782  0.1207  1.4416
 7906SOL    HW235181   3.826   1.002   7.868  0.9868  0.0401  0.1471
 7907SOL     OW35182   3.569   0.049   2.924  0.2446 -0.5682 -0.1890
 7907SOL    HW135183   3.558   0.136   2.887 -1.3999 -0.9174 -0.5359
 7907SOL    HW235184   3.648   0.076   2.970 -0.1924  2.3617 -1.1759
 7908SOL     OW35185   0.205   1.974   5.618  0.1289  0.1714 -0.0612
 7908SOL    HW135186   0.243   1.888   5.602 -0.6905 -0.1087 -0.5548
 7908SOL    HW235187   0.182   1.953   5.708  0.4381 -0.1477 -0.0588
 7909SOL     OW35188   0.510   2.323   5.723 -0.2354  0.5644  0.6809
 7909SOL    HW135189   0.415   2.338   5.717 -0.1298  2.0339  2.6635
 7909SOL    HW235190   0.533   2.338   5.631  0.0917 -1.4139  0.4319
 7910SOL     OW35191   3.656   4.571   2.688  0.0472 -0.0949  0.2350
 7910SOL    HW135192   3.747   4.594   2.673 -0.1466 -0.2933 -1.2964
 7910SOL    HW235193   3.634   4.651   2.736  0.2556 -0.4261  0.8804
 7911SOL     OW35194   1.666   1.745   0.806 -0.0918  0.0675  0.2037
 7911SOL    HW135195   1.739   1.807   0.814  0.4218 -0.5557  0.3192
 7911SOL    HW235196   1.587   1.797   0.825  0.6146  1.9548 -2.1328
 7912SOL     OW35197   0.719   2.654  13.619 -0.2542 -0.3435 -0.2093
 7912SOL    HW135198   0.734   2.593  13.547  0.9695 -1.8664  1.3181
 7912SOL    HW235199   0.699   2.733  13.569 -0.8559 -0.7988 -0.6759
 7913SOL     OW35200   1.822   2.396   2.468  0.5849  0.2853 -0.5658
 7913SOL    HW135201   1.829   2.373   2.561  1.5322 -0.2143 -0.7694
 7913SOL    HW235202   1.744   2.345   2.446  0.1840  0.0987  1.2561
 7914SOL     OW35203   4.090   2.854   1.946 -0.4688 -0.0506 -0.9289
 7914SOL    HW135204   4.123   2.795   1.878 -3.3548  0.3725 -2.6542
 7914SOL    HW235205   4.042   2.919   1.895 -2.0514 -0.4273  0.0758
 7915SOL     OW35206   2.496   4.397   4.643 -0.1078 -0.0722  0.1473
 7915SOL    HW135207   2.566   4.370   4.703  1.2159  0.2739 -1.2519
 7915SOL    HW235208   2.432   4.329   4.664  0.3223 -0.1738  1.1528
 7916SOL     OW35209   1.151   4.278   1.399  0.7139 -0.1945  0.4129
 7916SOL    HW135210   1.111   4.204   1.352  1.8561  0.7938 -2.1416
 7916SOL    HW235211   1.081   4.343   1.394  0.3893 -0.4809  1.2251
 7917SOL     OW35212   3.926   1.667   4.953  0.2234 -0.0513 -0.8932
 7917SOL    HW135213   3.875   1.586   4.954 -1.2466  0.8883  1.0210
 7917SOL    HW235214   3.874   1.721   5.012 -0.6606 -1.8987 -0.0009
 7918SOL     OW35215   3.249   3.644   4.353 -0.8909  0.4117 -0.2405
 7918SOL    HW135216   3.222   3.724   4.308 -0.5946  0.1237 -0.9403
 7918SOL    HW235217   3.230   3.662   4.445  0.4978  1.4951 -0.1613
 7919SOL     OW35218   3.903   2.340   7.691 -0.3998  0.1190  0.6294
 7919SOL    HW135219   3.913   2.421   7.641  1.1107 -0.0876  0.5995
 7919SOL    HW235220   3.818   2.352   7.734 -0.5106 -0.1346  0.4770
 7920SOL     OW35221   3.144   1.478  17.268  0.2594  0.5244  0.0717
 7920SOL    HW135222   3.173   1.541  17.202  1.4027  0.8157  0.8522
 7920SOL    HW235223   3.232   1.448  17.294  1.2314  2.6462 -0.7537
 7921SOL     OW35224   3.513   3.919  13.338 -0.1338 -0.1986 -0.1487
 7921SOL    HW135225   3.474   3.948  13.255 -1.2790 -4.0583 -0.9979
 7921SOL    HW235226   3.504   3.823  13.336 -0.2268 -0.2074  0.9211
 7922SOL     OW35227   0.214   3.998  13.212 -0.0521 -0.3054  0.4638
 7922SOL    HW135228   0.186   4.035  13.295 -1.5649  1.6146 -0.9042
 7922SOL    HW235229   0.183   4.067  13.153 -1.9045 -2.3010 -0.8845
 7923SOL     OW35230   0.507   1.515   0.341  0.4208  0.0022 -0.1036
 7923SOL    HW135231   0.550   1.522   0.255  1.1019 -1.5592  0.1041
 7923SOL    HW235232   0.512   1.421   0.359  0.4637 -0.2394 -1.3536
 7924SOL     OW35233   0.086   0.152   5.632  0.7431  0.0340  0.8128
 7924SOL    HW135234   0.012   0.192   5.679 -0.5737 -3.1861  1.4897
 7924SOL    HW235235   0.044   0.074   5.594 -0.3078  1.2061 -0.4224
 7925SOL     OW35236   0.354   2.481  17.387 -0.3632  0.2224 -0.0892
 7925SOL    HW135237   0.377   2.415  17.322 -0.7539  0.6886 -0.7086
 7925SOL    HW235238   0.382   2.432  17.464  1.3400  0.5099 -0.5415
 7926SOL     OW35239   2.880   1.124   3.503  0.4113  0.3693 -0.6556
 7926SOL    HW135240   2.842   1.069   3.571  0.8354  0.1267 -0.6183
 7926SOL    HW235241   2.958   1.152   3.551 -0.3408  0.0316  0.7584
 7927SOL     OW35242   1.008   1.042   3.412  0.0496  0.3512 -0.1199
 7927SOL    HW135243   0.978   0.997   3.333  1.2416  0.2446 -0.5095
 7927SOL    HW235244   0.931   1.034   3.468  0.5209  0.3501  0.5310
 7928SOL     OW35245   1.136   2.598   0.211 -0.3721  0.3131 -0.2510
 7928SOL    HW135246   1.158   2.680   0.167 -1.3788  0.2492 -0.8601
 7928SOL    HW235247   1.129   2.618   0.305  2.1995 -1.5402  0.3546
 7929SOL     OW35248   1.350   0.576   7.689 -0.3374  0.1362  0.0622
 7929SOL    HW135249   1.370   0.630   7.613 -2.6223  0.0486 -0.6024
 7929SOL    HW235250   1.313   0.507   7.634  1.0255  0.9949 -1.9093
 7930SOL     OW35251   0.768   1.781   7.224  0.2762  0.3026 -0.0436
 7930SOL    HW135252   0.753   1.759   7.132  0.7005 -0.1053 -0.0120
 7930SOL    HW235253   0.713   1.859   7.230 -0.8669 -0.7350  2.6757
 7931SOL     OW35254   3.706   3.123   6.464  0.4793 -0.1489 -0.1504
 7931SOL    HW135255   3.611   3.122   6.474  0.6732 -0.4487  1.7490
 7931SOL    HW235256   3.713   3.178   6.386  1.0455  1.1164  0.7974
 7932SOL     OW35257   1.655   0.028  13.177 -0.5257  0.0654 -0.4976
 7932SOL    HW135258   1.724   0.027  13.111  0.4758  0.8637  0.5389
 7932SOL    HW235259   1.589   0.074  13.124 -0.2842 -1.3828 -2.0575
 7933SOL     OW35260   2.277   1.852  15.159 -0.5238 -0.8911 -0.2332
 7933SOL    HW135261   2.222   1.852  15.081  0.0227 -1.6735 -0.6301
 7933SOL    HW235262   2.226   1.823  15.235 -1.6218 -1.9538 -1.3807
 7934SOL     OW35263   1.104   1.226   9.273 -0.0967  0.1213  0.6677
 7934SOL    HW135264   1.146   1.180   9.200  0.5068  1.5955  0.0705
 7934SOL    HW235265   1.109   1.320   9.257  4.0667 -0.1416  0.4009
 7935SOL     OW35266   4.649   1.130   8.198 -0.2431  0.7915  0.0325
 7935SOL    HW135267   4.563   1.098   8.173  0.4719 -0.1971 -1.1681
 7935SOL    HW235268   4.638   1.214   8.243  0.5526  1.2414 -0.5915
 7936SOL     OW35269   1.285   1.139  14.204  0.3534 -0.3667  0.1646
 7936SOL    HW135270   1.275   1.044  14.215 -1.0436 -0.0308  1.7068
 7936SOL    HW235271   1.232   1.178  14.273 -2.2275 -0.2465 -1.8776
 7937SOL     OW35272   3.931   0.879  10.060  0.4371  0.5668 -0.3477
 7937SOL    HW135273   3.961   0.822  10.132  0.5482 -0.5844 -1.2964
 7937SOL    HW235274   3.933   0.965  10.101  0.4630  0.5419 -0.2975
 7938SOL     OW35275   0.713   2.273   7.439 -0.0010 -0.3661 -0.5885
 7938SOL    HW135276   0.674   2.234   7.517 -0.7616 -0.4203 -0.9993
 7938SOL    HW235277   0.661   2.353   7.432  0.3336 -0.0077  0.9905
 7939SOL     OW35278   1.135   0.533   4.588 -0.2672 -0.0367  0.2530
 7939SOL    HW135279   1.122   0.448   4.629 -0.4924 -1.6330 -3.1410
 7939SOL    HW235280   1.230   0.521   4.586 -0.2312  0.2464  0.2498
 7940SOL     OW35281   2.594   1.197   5.982 -0.1154 -0.1661  0.2455
 7940SOL    HW135282   2.538   1.258   6.031 -2.1028 -0.6911 -1.3722
 7940SOL    HW235283   2.554   1.112   5.998  0.5603 -0.4142  0.5817
 7941SOL     OW35284   1.171   4.345  16.807  0.2009 -0.2499 -0.3086
 7941SOL    HW135285   1.188   4.398  16.885  0.8802  0.5226 -0.9871
 7941SOL    HW235286   1.262   4.343  16.779  0.2980  0.0242 -0.0188
 7942SOL     OW35287   0.061   3.716  13.147 -0.0111 -0.0420  0.5061
 7942SOL    HW135288   4.700   3.677  13.164 -0.3017  0.8579  1.0984
 7942SOL    HW235289   0.035   3.807  13.130 -0.2614  0.1339  1.7929
 7943SOL     OW35290   1.267   1.526   4.062  0.1793 -0.1594 -0.1410
 7943SOL    HW135291   1.276   1.587   3.989  2.9109  3.5972  3.3526
 7943SOL    HW235292   1.321   1.555   4.136  1.0419 -0.4658 -0.6482
 7944SOL     OW35293   2.136   1.884  14.205 -0.7902 -0.0084  0.5908
 7944SOL    HW135294   2.144   1.977  14.183 -1.1776  0.5430  2.7516
 7944SOL    HW235295   2.046   1.878  14.173 -0.2701 -0.9149 -0.6965
 7945SOL     OW35296   1.885   3.961   6.761 -0.6608 -0.0951 -0.0130
 7945SOL    HW135297   1.922   3.922   6.682 -0.8818  0.2913 -0.3121
 7945SOL    HW235298   1.933   3.921   6.833 -0.2825  2.3520  1.0959
 7946SOL     OW35299   2.067   4.460   5.916  0.1017 -0.1772  0.1205
 7946SOL    HW135300   2.007   4.469   5.990 -0.6367  1.0933 -0.6325
 7946SOL    HW235301   2.031   4.521   5.852  2.9578  2.0283  0.6372
 7947SOL     OW35302   0.559   2.302   5.144  0.3768 -0.4333 -0.1557
 7947SOL    HW135303   0.498   2.270   5.078 -2.3952 -2.1616  3.2776
 7947SOL    HW235304   0.633   2.243   5.130 -0.2871 -2.0046  2.9639
 7948SOL     OW35305   0.172   2.643   9.625  0.0934  0.4076 -0.2268
 7948SOL    HW135306   0.178   2.729   9.668 -0.7354 -0.1928  1.0662
 7948SOL    HW235307   0.258   2.640   9.582  0.4670  0.7018  0.5144
 7949SOL     OW35308   2.987   4.550  13.185 -0.5924  0.3718  0.0385
 7949SOL    HW135309   3.067   4.591  13.153 -1.1126 -0.1889 -1.9823
 7949SOL    HW235310   3.012   4.543  13.277  1.1788 -0.1153 -0.4749
 7950SOL     OW35311   1.830   3.339  11.400 -0.0372 -0.3225  0.2238
 7950SOL    HW135312   1.758   3.278  11.385 -0.5238 -0.0663  1.5334
 7950SOL    HW235313   1.805   3.422  11.359  2.3945  0.2324 -0.0973
 7951SOL     OW35314   2.518   1.417   9.361  0.3167  0.4700  0.6157
 7951SOL    HW135315   2.452   1.458   9.417 -2.0533  0.0584 -1.8595
 7951SOL    HW235316   2.588   1.483   9.362 -1.1274  1.9665  2.9685
 7952SOL     OW35317   2.958   2.760   8.710 -0.9201  0.3511 -0.2230
 7952SOL    HW135318   2.989   2.749   8.800 -0.3416 -0.6319 -0.5464
 7952SOL    HW235319   3.027   2.714   8.663 -0.7834 -1.3968  1.6913
 7953SOL     OW35320   2.690   3.847   7.923 -0.0434  0.0676  0.1023
 7953SOL    HW135321   2.712   3.812   8.010 -0.0384  0.3208  0.2025
 7953SOL    HW235322   2.762   3.808   7.874  0.7310 -0.0637  1.3378
 7954SOL     OW35323   2.830   2.096   4.137  0.2117  0.5588 -0.2396
 7954SOL    HW135324   2.820   2.037   4.062  1.8474  1.6518 -1.3080
 7954SOL    HW235325   2.739   2.114   4.158 -0.2439 -1.3539 -0.5236
 7955SOL     OW35326   1.345   4.576   5.898 -0.0306  0.0522  0.0139
 7955SOL    HW135327   1.259   4.617   5.888 -0.3040  0.0606  2.4641
 7955SOL    HW235328   1.326   4.491   5.938  0.3886  0.7418  1.6591
 7956SOL     OW35329   1.999   1.912  12.235 -0.4735 -0.1644  0.4105
 7956SOL    HW135330   2.034   1.987  12.186 -3.0004 -0.2868 -1.5355
 7956SOL    HW235331   2.083   1.871  12.257  0.3629  0.5357 -1.4372
 7957SOL     OW35332   0.054   0.278  16.635 -0.1243  0.1150 -0.0792
 7957SOL    HW135333   4.716   0.308  16.700 -1.8527  0.1641 -1.7415
 7957SOL    HW235334   0.048   0.182  16.641 -1.1041  0.3446  2.4479
 7958SOL     OW35335   1.264   3.063   7.844 -0.4734  0.6649  0.0604
 7958SOL    HW135336   1.304   2.978   7.826 -0.9710  0.0180  2.0070
 7958SOL    HW235337   1.248   3.106   7.760 -1.2153 -1.8578 -1.0969
 7959SOL     OW35338   1.646   1.614   4.827 -0.0066 -0.4895 -0.2199
 7959SOL    HW135339   1.676   1.630   4.917  1.2606 -0.3961 -0.6623
 7959SOL    HW235340   1.715   1.567   4.781  2.1106  1.8870  0.5271
 7960SOL     OW35341   2.535   1.136   5.006 -0.6601 -0.0589 -0.5455
 7960SOL    HW135342   2.473   1.075   5.047 -1.5974  0.3357 -1.3724
 7960SOL    HW235343   2.590   1.148   5.083 -0.7319  0.2417 -0.5431
 7961SOL     OW35344   1.162   1.373   5.714  0.2518 -0.2036  0.2470
 7961SOL    HW135345   1.105   1.449   5.723  0.3399 -0.1819  0.6251
 7961SOL    HW235346   1.183   1.372   5.620 -0.0542  1.0452  0.1720
 7962SOL     OW35347   3.725   0.253  12.204  0.2667 -0.3191  0.3764
 7962SOL    HW135348   3.764   0.330  12.246  0.9168 -0.5960  0.2833
 7962SOL    HW235349   3.778   0.176  12.224  0.0469 -0.1675  1.5420
 7963SOL     OW35350   0.473   0.223  11.295 -0.1907  0.3413 -0.1742
 7963SOL    HW135351   0.552   0.208  11.243  0.8855  0.8293  1.3304
 7963SOL    HW235352   0.436   0.295  11.244  1.8819  1.5210 -0.0050
 7964SOL     OW35353   0.355   0.375   9.105  0.3494  0.4597 -0.8372
 7964SOL    HW135354   0.443   0.338   9.113 -0.1501 -0.4462  0.5354
 7964SOL    HW235355   0.333   0.403   9.194 -1.5382  1.4993 -1.6202
 7965SOL     OW35356   4.079   0.023   9.820 -0.1463 -0.3672  0.4710
 7965SOL    HW135357   4.159   0.070   9.794  1.0324 -0.9984  2.9600
 7965SOL    HW235358   4.121   4.675   9.864  0.2285 -0.5336 -0.1679
 7966SOL     OW35359   0.291   1.713   2.209  0.0321  0.1228 -0.1069
 7966SOL    HW135360   0.365   1.758   2.251  1.2769 -3.0982  1.1911
 7966SOL    HW235361   0.260   1.771   2.140  1.8806 -0.6863 -1.6364
 7967SOL     OW35362   4.087   2.027   3.518  0.1744  0.2411  0.1206
 7967SOL    HW135363   4.163   1.970   3.507  0.8660  1.3340 -0.8132
 7967SOL    HW235364   4.110   2.098   3.458 -0.2833  0.5241  0.2818
 7968SOL     OW35365   2.269   2.990   8.470  0.2246 -0.4012  0.1323
 7968SOL    HW135366   2.359   2.973   8.496  0.5640  2.6195  0.9288
 7968SOL    HW235367   2.288   2.993   8.376 -0.3504 -0.7022  0.0029
 7969SOL     OW35368   0.261   2.581   7.331  0.3437  0.1251  0.0614
 7969SOL    HW135369   0.277   2.672   7.356  4.9379 -0.8162  0.5943
 7969SOL    HW235370   0.168   2.589   7.311  0.1319 -0.7474  0.6805
 7970SOL     OW35371   2.480   1.786   9.406 -0.7162 -0.0715  0.3316
 7970SOL    HW135372   2.539   1.862   9.403  0.3661 -0.8715  1.1365
 7970SOL    HW235373   2.430   1.798   9.325 -1.0826  0.9880  0.7092
 7971SOL     OW35374   4.268   3.591  14.998  0.1281  0.0334 -0.7154
 7971SOL    HW135375   4.277   3.670  14.945  0.5307  1.3692  1.3376
 7971SOL    HW235376   4.173   3.585  14.990  0.2756 -2.6130 -0.6122
 7972SOL     OW35377   1.035   3.665  10.648 -0.0105  0.4150 -0.2567
 7972SOL    HW135378   1.027   3.652  10.553  0.1320  3.1424 -0.6418
 7972SOL    HW235379   0.998   3.586  10.687  0.7243  0.0378 -0.3302
 7973SOL     OW35380   2.857   3.751   6.460  0.3546  0.1637 -0.0922
 7973SOL    HW135381   2.811   3.834   6.455 -0.9369 -0.3670  2.6415
 7973SOL    HW235382   2.859   3.743   6.556  0.6656  1.1465 -0.0230
 7974SOL     OW35383   0.073   1.477   4.375 -0.3217 -0.4124 -0.2217
 7974SOL    HW135384   0.077   1.400   4.318  1.1682  0.4575 -1.2999
 7974SOL    HW235385   4.718   1.515   4.338 -0.5716 -0.3298  0.4025
 7975SOL     OW35386   0.917   4.532   3.600  0.1699 -0.3872  0.2521
 7975SOL    HW135387   0.952   4.538   3.512  1.0281 -1.6282  0.4982
 7975SOL    HW235388   0.998   4.515   3.648  1.2418 -2.1608 -2.2029
 7976SOL     OW35389   0.101   0.815   8.863  0.6300 -0.2002 -0.1293
 7976SOL    HW135390   0.183   0.846   8.901 -0.0474  0.9885  0.3909
 7976SOL    HW235391   0.037   0.880   8.893  0.3358  0.7144 -2.7444
 7977SOL     OW35392   0.420   1.844  16.963 -0.5086 -0.2439  0.3870
 7977SOL    HW135393   0.384   1.902  16.896 -1.7593 -1.0216  0.3711
 7977SOL    HW235394   0.486   1.894  17.010  0.6421 -0.2452 -1.2442
 7978SOL     OW35395   0.372   2.472  13.964 -0.3469 -0.1218  0.3508
 7978SOL    HW135396   0.282   2.489  13.938  0.7830  0.8943 -2.8716
 7978SOL    HW235397   0.424   2.498  13.888  0.6208 -0.9180  0.7322
 7979SOL     OW35398   3.873   1.738   9.532 -0.1925  0.2525  0.0005
 7979SOL    HW135399   3.916   1.755   9.616 -2.5456 -0.9039  1.4164
 7979SOL    HW235400   3.903   1.653   9.501  1.6866  0.7022  0.5501
 7980SOL     OW35401   2.344   1.183   2.515 -0.2835  0.3429 -0.3811
 7980SOL    HW135402   2.296   1.129   2.577  1.2432  0.6113  1.0357
 7980SOL    HW235403   2.428   1.137   2.525 -0.2033  0.9515  1.5731
 7981SOL     OW35404   1.408   3.714  10.552 -0.0742 -0.4085 -0.1362
 7981SOL    HW135405   1.470   3.784  10.533 -1.2634  0.5048 -0.6407
 7981SOL    HW235406   1.369   3.732  10.637  0.7618  1.5334 -0.1584
 7982SOL     OW35407   4.281   4.579   6.634  0.3558 -0.3664 -0.0116
 7982SOL    HW135408   4.283   4.488   6.605  2.8496 -0.2347 -0.2144
 7982SOL    HW235409   4.370   4.598   6.605 -0.0929 -0.3267 -1.3918
 7983SOL     OW35410   4.202   1.339  10.389 -0.0390 -0.2708  0.2169
 7983SOL    HW135411   4.257   1.312  10.315 -1.7767  0.3799 -1.3195
 7983SOL    HW235412   4.237   1.281  10.457 -0.8858 -1.6828 -0.5521
 7984SOL     OW35413   3.937   0.024   4.909 -0.7162 -0.3515  0.4972
 7984SOL    HW135414   3.883   0.047   4.834 -0.2168  1.9415  0.8426
 7984SOL    HW235415   3.925   0.100   4.966  2.0005 -0.1919  0.8607
 7985SOL     OW35416   3.481   3.066   7.380  0.2187  0.1673 -0.4193
 7985SOL    HW135417   3.411   3.127   7.358 -0.7575 -0.2652  1.5499
 7985SOL    HW235418   3.432   2.984   7.378 -1.0731  0.8983  1.5348
 7986SOL     OW35419   2.566   4.213   2.939 -0.4274  0.4282  0.1327
 7986SOL    HW135420   2.548   4.284   3.001 -0.9774 -0.2718  0.7697
 7986SOL    HW235421   2.629   4.162   2.989  1.4657  2.5313 -0.1129
 7987SOL     OW35422   0.043   2.344   3.618 -0.3283 -0.3223  0.2499
 7987SOL    HW135423   0.024   2.407   3.549 -1.2194  0.9234  1.6181
 7987SOL    HW235424   4.689   2.291   3.612  0.0291 -0.9317  0.9163
 7988SOL     OW35425   2.184   3.452  12.196 -0.1166 -0.1038  0.4496
 7988SOL    HW135426   2.146   3.540  12.193  0.7360  0.2575  0.2229
 7988SOL    HW235427   2.249   3.453  12.126  1.7099  3.2827  2.2220
 7989SOL     OW35428   4.217   3.553   8.665 -0.0055 -0.0596 -0.9400
 7989SOL    HW135429   4.296   3.565   8.613  0.1875  0.2604 -0.5764
 7989SOL    HW235430   4.216   3.460   8.688  1.6622 -0.3876 -2.1994
 7990SOL     OW35431   4.321   4.688   3.382  0.8720 -0.4389  0.4578
 7990SOL    HW135432   4.239   4.682   3.334  0.2357  2.4684  1.2414
 7990SOL    HW235433   4.351   0.045   3.344  1.0386 -0.9048 -0.4444
 7991SOL     OW35434   0.808   3.557  13.247 -0.1948  0.2897  0.4042
 7991SOL    HW135435   0.803   3.490  13.315  0.6061 -0.4705 -0.2839
 7991SOL    HW235436   0.716   3.558  13.223 -0.1124 -0.5562  0.0326
 7992SOL     OW35437   1.580   3.224  15.690  0.7624  0.2021  0.2000
 7992SOL    HW135438   1.527   3.265  15.758  1.4815  0.2134  0.7512
 7992SOL    HW235439   1.568   3.130  15.690  1.0393  0.1795  2.9513
 7993SOL     OW35440   1.666   4.333   1.340  0.0842  0.0144 -0.0044
 7993SOL    HW135441   1.643   4.250   1.300  4.0213 -1.3436  0.5980
 7993SOL    HW235442   1.578   4.366   1.361 -0.0902 -1.9371  2.4106
 7994SOL     OW35443   3.129   1.244   0.551  0.4696  0.3678  0.2504
 7994SOL    HW135444   3.182   1.168   0.527 -0.7971  0.3340 -2.3910
 7994SOL    HW235445   3.197   1.311   0.546  1.2085 -0.3147  1.1081
 7995SOL     OW35446   3.674   4.291   3.260 -0.5121 -0.8453 -0.5645
 7995SOL    HW135447   3.582   4.317   3.257 -0.5285 -0.9249 -0.8066
 7995SOL    HW235448   3.709   4.335   3.182 -1.9330  3.1620  1.0636
 7996SOL     OW35449   0.143   3.808   9.566 -0.1006 -0.1646  0.0358
 7996SOL    HW135450   0.078   3.878   9.561 -0.2041 -0.3564 -1.4097
 7996SOL    HW235451   0.080   3.738   9.585  0.4864 -0.6601  0.1232
 7997SOL     OW35452   0.851   1.611   2.364  0.0175 -0.5782  0.1260
 7997SOL    HW135453   0.857   1.594   2.458  1.4050  0.1536  0.1711
 7997SOL    HW235454   0.891   1.698   2.354 -1.1135  0.0383  0.9674
 7998SOL     OW35455   0.641   1.271   2.029  0.3812  0.1362  0.2582
 7998SOL    HW135456   0.567   1.214   2.052  0.1547  0.6577  0.8199
 7998SOL    HW235457   0.714   1.209   2.027  0.5875  0.4312 -0.8776
 7999SOL     OW35458   1.705   3.030   4.837 -0.0311  0.1233  0.0428
 7999SOL    HW135459   1.730   3.010   4.747  0.1614  2.0416 -0.3289
 7999SOL    HW235460   1.716   2.943   4.876 -1.6096  0.7743  1.9655
 8000SOL     OW35461   4.648   3.913   2.106 -0.0104 -0.7747 -0.0189
 8000SOL    HW135462   0.014   3.904   2.079  1.4447  0.7187  4.3987
 8000SOL    HW235463   4.623   3.821   2.100  1.2839 -1.1524  0.4399
 8001SOL     OW35464   2.225   3.839   8.517 -0.1824 -0.0970 -0.4017
 8001SOL    HW135465   2.273   3.818   8.597 -1.2980 -2.4781 -0.3585
 8001SOL    HW235466   2.167   3.765   8.500 -0.7518  0.5068 -1.1237
 8002SOL     OW35467   3.175   0.380   0.714  0.3801  0.0963  0.0942
 8002SOL    HW135468   3.086   0.415   0.721  0.3861  0.4878 -1.6967
 8002SOL    HW235469   3.196   0.364   0.806 -0.1460  2.3258  0.6039
 8003SOL     OW35470   2.205   3.990   4.161 -0.3590  0.4114  0.3467
 8003SOL    HW135471   2.296   4.019   4.163 -0.3357  0.5067 -2.6852
 8003SOL    HW235472   2.185   3.998   4.255 -1.7064 -0.4372  0.1384
 8004SOL     OW35473   4.430   4.413   5.347 -0.8613  0.2189 -0.4878
 8004SOL    HW135474   4.399   4.501   5.366 -3.3177 -0.7223 -0.1332
 8004SOL    HW235475   4.360   4.381   5.289 -0.1662 -2.4663  0.1252
 8005SOL     OW35476   2.534   2.610   1.951  0.3582 -0.2917 -0.3348
 8005SOL    HW135477   2.512   2.622   2.043 -2.0124  0.5096 -1.0024
 8005SOL    HW235478   2.606   2.674   1.956  0.8688 -0.7147 -2.3245
 8006SOL     OW35479   2.150   1.836   6.689  0.2715  0.6238  0.2543
 8006SOL    HW135480   2.087   1.860   6.758 -0.5176 -0.3448 -0.1278
 8006SOL    HW235481   2.191   1.762   6.733  2.7895  0.7003 -1.9862
 8007SOL     OW35482   1.877   1.486   1.651 -0.6061 -0.4280  0.1230
 8007SOL    HW135483   1.800   1.433   1.630 -1.1654  0.3141  0.2765
 8007SOL    HW235484   1.947   1.436   1.611 -0.0899 -1.6198  2.5722
 8008SOL     OW35485   2.625   0.995  13.665  0.0044  0.1609  0.5056
 8008SOL    HW135486   2.607   0.926  13.729  0.2397 -1.2170 -0.9097
 8008SOL    HW235487   2.544   1.005  13.615  1.6455  0.2187 -2.1842
 8009SOL     OW35488   3.412   3.016   9.090 -0.2029 -0.7989  0.1369
 8009SOL    HW135489   3.465   2.945   9.126  0.6507  0.0039  0.4549
 8009SOL    HW235490   3.411   2.992   8.998  1.6135 -2.3891  0.5478
 8010SOL     OW35491   3.540   0.771   2.310 -0.3233 -0.4612 -0.0019
 8010SOL    HW135492   3.569   0.693   2.264 -0.4196 -1.5263  1.7320
 8010SOL    HW235493   3.594   0.822   2.250 -0.7410 -0.8948 -0.7496
 8011SOL     OW35494   2.833   1.307  16.309 -0.0894 -0.1020  0.1150
 8011SOL    HW135495   2.819   1.326  16.216 -1.0998 -1.3686  0.0151
 8011SOL    HW235496   2.834   1.211  16.300 -0.6383 -0.2890  2.0911
 8012SOL     OW35497   2.704   2.394   8.278 -0.0247  0.6611  0.7264
 8012SOL    HW135498   2.769   2.385   8.347  0.6593 -0.4637 -0.0554
 8012SOL    HW235499   2.662   2.308   8.272 -0.7877  1.2084 -2.0243
 8013SOL     OW35500   2.881   2.945   2.428 -0.0616 -0.1782 -0.1624
 8013SOL    HW135501   2.936   2.953   2.350 -1.5250 -1.5003 -1.3065
 8013SOL    HW235502   2.819   2.886   2.385  2.5696 -0.9705 -2.8429
 8014SOL     OW35503   2.525   1.380  15.138  0.2682 -0.0090  0.7030
 8014SOL    HW135504   2.459   1.430  15.186  0.9433  1.1126  0.4751
 8014SOL    HW235505   2.474   1.329  15.076  0.9356 -0.5035  0.5547
 8015SOL     OW35506   2.709   0.418   8.486  0.8919 -0.3087 -0.4891
 8015SOL    HW135507   2.671   0.350   8.541  3.0065 -0.3842  0.9099
 8015SOL    HW235508   2.749   0.475   8.552 -1.2964 -1.2739  1.6530
 8016SOL     OW35509   1.100   4.717   5.866 -0.0300  0.4955 -0.3116
 8016SOL    HW135510   1.084   0.068   5.921  1.5802 -0.0956  0.9887
 8016SOL    HW235511   1.024   4.659   5.878  0.4307 -0.0349  0.0568
 8017SOL     OW35512   3.429   0.679   7.437 -0.3076  0.1700 -0.8840
 8017SOL    HW135513   3.413   0.613   7.504  0.2869 -0.5747 -1.4786
 8017SOL    HW235514   3.346   0.726   7.432 -0.0934  0.8798  1.8682
 8018SOL     OW35515   0.245   4.715   1.859 -0.2490  0.5781  0.4305
 8018SOL    HW135516   0.204   0.023   1.779  0.5228  0.5771  0.0271
 8018SOL    HW235517   0.232   4.620   1.860  1.8146  0.2499 -1.4035
 8019SOL     OW35518   3.584   1.820   5.189 -0.1628  0.3224 -0.3791
 8019SOL    HW135519   3.588   1.872   5.270  1.6045 -0.8806  0.3048
 8019SOL    HW235520   3.497   1.782   5.196 -0.4875  0.6399 -2.6647
 8020SOL     OW35521   3.509   2.477   4.336 -0.5621 -0.1215  0.6173
 8020SOL    HW135522   3.452   2.401   4.348  1.0143 -1.4879 -0.6192
 8020SOL    HW235523   3.459   2.554   4.363  0.3877  0.8394 -0.3174
 8021SOL     OW35524   0.094   0.244   8.810 -0.3038  0.1977  0.1746
 8021SOL    HW135525   0.084   0.271   8.901  0.3966 -0.3560  0.4073
 8021SOL    HW235526   0.141   0.162   8.822 -0.8477  0.1625  1.9748
 8022SOL     OW35527   3.203   0.111   1.713 -0.0769  0.0246  0.0215
 8022SOL    HW135528   3.216   0.024   1.677  0.4481 -0.3026  1.0113
 8022SOL    HW235529   3.119   0.140   1.677 -0.5968 -0.1184  1.1286
 8023SOL     OW35530   1.577   3.931   1.993  0.3744  0.0071 -0.1398
 8023SOL    HW135531   1.546   3.854   1.946  0.3840  1.1368 -1.9915
 8023SOL    HW235532   1.639   3.977   1.936  0.6361  1.1996  1.0866
 8024SOL     OW35533   2.792   1.795   2.355  0.0806 -0.0389  0.4366
 8024SOL    HW135534   2.723   1.763   2.413  2.3958 -1.2237  2.5431
 8024SOL    HW235535   2.871   1.753   2.387 -0.3948 -0.2080  1.3869
 8025SOL     OW35536   2.888   2.524  10.837 -0.0364 -0.5769 -0.1488
 8025SOL    HW135537   2.972   2.543  10.878 -1.1670  2.1587  0.9109
 8025SOL    HW235538   2.918   2.463  10.769  2.5664  0.6488 -0.0964
 8026SOL     OW35539   2.244   3.924   3.703 -0.4786  0.5016  0.1456
 8026SOL    HW135540   2.286   3.924   3.617  0.8613  1.7488  0.7912
 8026SOL    HW235541   2.226   4.015   3.726 -1.0542  0.3411  0.3110
 8027SOL     OW35542   2.090   1.572   2.741 -0.2274 -0.3532 -0.3186
 8027SOL    HW135543   1.999   1.554   2.763 -0.2787  0.6476  0.2873
 8027SOL    HW235544   2.086   1.593   2.648 -1.9124 -2.6574 -0.7735
 8028SOL     OW35545   0.679   4.536   6.727  0.5084  0.4065  0.5940
 8028SOL    HW135546   0.712   4.480   6.798  1.0981  2.8304  2.2213
 8028SOL    HW235547   0.706   4.620   6.764  0.1955  1.6639 -2.0614
 8029SOL     OW35548   3.366   3.610  10.548 -0.3334 -0.6987 -0.0571
 8029SOL    HW135549   3.459   3.588  10.543  0.6219  2.9177  1.7195
 8029SOL    HW235550   3.363   3.671  10.622  2.1532 -0.3016 -0.2881
 8030SOL     OW35551   0.674   1.676   5.901 -0.0561 -0.2253 -0.6325
 8030SOL    HW135552   0.614   1.633   5.962 -0.3711 -0.0399 -0.8123
 8030SOL    HW235553   0.738   1.707   5.965 -0.5264 -1.8961  0.6285
 8031SOL     OW35554   0.901   4.450   8.665 -0.3694  0.0286  0.1222
 8031SOL    HW135555   0.990   4.444   8.631 -1.0280 -0.7958 -1.4840
 8031SOL    HW235556   0.884   4.357   8.684  1.5483 -0.3492 -0.0571
 8032SOL     OW35557   1.546   2.327   6.744 -0.9434  0.5222  0.3593
 8032SOL    HW135558   1.557   2.260   6.811 -0.7571 -1.6037 -1.7785
 8032SOL    HW235559   1.574   2.276   6.668  0.4296  2.4488 -0.4470
 8033SOL     OW35560   4.180   3.145   1.998  0.1293  0.3496  0.2253
 8033SOL    HW135561   4.130   3.171   1.920 -0.3241  1.3072  0.8405
 8033SOL    HW235562   4.195   3.052   1.981  1.8940  0.7970 -0.7377
 8034SOL     OW35563   3.078   3.138  12.864 -0.8996 -0.5289 -0.1520
 8034SOL    HW135564   2.991   3.177  12.867 -0.6299  0.1204 -1.0846
 8034SOL    HW235565   3.135   3.213  12.849 -0.7941 -0.7372 -0.8097
 8035SOL     OW35566   2.725   3.577   5.398  0.4006 -0.0880 -0.4036
 8035SOL    HW135567   2.674   3.531   5.465  0.2574  1.6767  0.6987
 8035SOL    HW235568   2.787   3.613   5.461  0.4886  2.0207 -1.6947
 8036SOL     OW35569   1.544   3.015   5.178 -0.1196  0.0766 -0.4291
 8036SOL    HW135570   1.552   3.108   5.158 -0.7315 -0.2640 -2.2442
 8036SOL    HW235571   1.580   3.003   5.266 -4.0998  0.1489  1.2108
 8037SOL     OW35572   4.593   1.778  13.321 -0.2397 -0.3313 -0.0230
 8037SOL    HW135573   4.539   1.820  13.254 -2.1594 -2.1608  0.3876
 8037SOL    HW235574   4.654   1.851  13.337  1.9294 -2.5453  1.9379
 8038SOL     OW35575   1.635   0.336  15.943 -0.2088 -0.1936  0.2792
 8038SOL    HW135576   1.628   0.346  15.848 -1.3741 -0.5996  0.3252
 8038SOL    HW235577   1.556   0.286  15.959 -0.4161 -0.4313 -1.4478
 8039SOL     OW35578   2.704   0.608  12.604  0.0392 -0.1622 -0.4067
 8039SOL    HW135579   2.689   0.530  12.551  0.8852 -0.5653 -0.0473
 8039SOL    HW235580   2.729   0.671  12.537 -0.6245  0.4905 -0.0420
 8040SOL     OW35581   1.393   3.812   3.812  0.6247  0.1017 -0.1191
 8040SOL    HW135582   1.398   3.855   3.897  2.2486 -2.4431  1.0596
 8040SOL    HW235583   1.481   3.819   3.775  0.5047  2.9590  0.1664
 8041SOL     OW35584   0.628   1.756   8.048 -0.1103  0.0661  0.1413
 8041SOL    HW135585   0.690   1.728   8.116 -0.5093  1.4339  1.0793
 8041SOL    HW235586   0.567   1.683   8.052  0.2861 -0.2662  0.1385
 8042SOL     OW35587   2.217   1.986  17.635  0.1258 -0.3934 -0.1573
 8042SOL    HW135588   2.191   1.899  17.666 -1.5467  0.0751 -0.2517
 8042SOL    HW235589   2.164   2.043  17.691 -0.9032 -0.6288 -0.9051
 8043SOL     OW35590   0.494   3.301   8.972  0.4186 -0.1432  0.3404
 8043SOL    HW135591   0.589   3.288   8.967  0.8378  2.1332  2.6486
 8043SOL    HW235592   0.475   3.243   9.046  1.8663 -0.8670  0.1492
 8044SOL     OW35593   3.829   3.977  12.730 -0.3833  0.0924  0.6956
 8044SOL    HW135594   3.771   4.034  12.782 -0.3420  1.8863 -1.2102
 8044SOL    HW235595   3.897   3.963  12.795 -0.1384 -0.5942  0.2923
 8045SOL     OW35596   2.560   4.365   7.237 -0.5155 -0.5890 -0.1066
 8045SOL    HW135597   2.476   4.412   7.234 -0.0980  0.0754 -1.2029
 8045SOL    HW235598   2.614   4.411   7.173  0.0985  0.0258  0.8406
 8046SOL     OW35599   0.081   1.180   3.806  0.2101  1.0857  0.2052
 8046SOL    HW135600   0.098   1.166   3.713  0.3010  0.7347  0.2735
 8046SOL    HW235601   4.712   1.196   3.797  0.3157  2.3704  1.4542
 8047SOL     OW35602   2.734   3.516   1.543 -0.4373  0.3468 -1.0484
 8047SOL    HW135603   2.666   3.581   1.524 -1.0256 -0.0734 -0.3607
 8047SOL    HW235604   2.800   3.538   1.477 -0.2903  1.4217 -0.5485
 8048SOL     OW35605   2.394   1.290   3.116 -0.1390  0.2835  0.3051
 8048SOL    HW135606   2.343   1.264   3.194 -0.0595  1.0101  0.5984
 8048SOL    HW235607   2.345   1.241   3.049 -0.0025  0.6739 -0.0722
 8049SOL     OW35608   1.957   0.974   1.064  0.2039  0.7136 -0.4352
 8049SOL    HW135609   1.954   0.878   1.066 -1.8922  0.7292 -2.0752
 8049SOL    HW235610   1.871   0.995   1.028  0.1191  0.8392 -0.1604
 8050SOL     OW35611   3.037   1.007   6.985  0.6872 -0.4638 -0.2554
 8050SOL    HW135612   2.982   0.960   7.047  0.2822  0.7485  0.2967
 8050SOL    HW235613   3.085   1.061   7.048 -1.1959  0.7106  0.1524
 8051SOL     OW35614   3.711   0.216   7.918 -0.4662  0.0522  0.2648
 8051SOL    HW135615   3.777   0.155   7.884 -0.2733 -0.2613  1.2001
 8051SOL    HW235616   3.744   0.257   7.997 -0.3930 -0.8637  0.7133
 8052SOL     OW35617   1.557   0.053   1.971 -0.2668  0.0055  0.5055
 8052SOL    HW135618   1.488   0.011   2.022 -0.0891  0.1196  0.8378
 8052SOL    HW235619   1.537   0.143   1.998  0.7925  0.2280  0.5352
 8053SOL     OW35620   3.953   4.386   8.354 -0.9289 -0.1677 -0.2121
 8053SOL    HW135621   3.997   4.460   8.311  1.5728 -2.1467 -1.0252
 8053SOL    HW235622   4.032   4.356   8.399  0.7865  1.0570 -2.4185
 8054SOL     OW35623   3.274   3.130   7.729 -0.5201  0.6889 -1.0010
 8054SOL    HW135624   3.339   3.134   7.660 -0.0363 -1.4144 -0.6461
 8054SOL    HW235625   3.206   3.072   7.696 -0.5405  0.5367 -0.6960
 8055SOL     OW35626   2.279   3.809   6.359 -0.2643  0.6808  0.3913
 8055SOL    HW135627   2.200   3.824   6.308 -0.1159 -1.0484 -0.3526
 8055SOL    HW235628   2.264   3.716   6.379  2.1569  0.0320 -0.8303
 8056SOL     OW35629   2.548   0.658   7.049 -0.0545  0.4966 -0.1537
 8056SOL    HW135630   2.599   0.613   7.116 -0.6631 -0.5466 -0.3848
 8056SOL    HW235631   2.610   0.663   6.976 -0.9679 -2.1858 -1.1156
 8057SOL     OW35632   1.664   1.180   6.979 -0.8198 -0.0794  0.5341
 8057SOL    HW135633   1.600   1.116   7.007 -1.7154 -0.1040 -1.5576
 8057SOL    HW235634   1.618   1.226   6.909 -1.2174  0.9707  1.4774
 8058SOL     OW35635   0.255   0.993  17.622 -0.0070 -0.2324 -0.2864
 8058SOL    HW135636   0.181   1.039  17.582  0.9134  0.6354 -0.9931
 8058SOL    HW235637   0.208   0.917  17.655 -0.5828  1.5847  3.1803
 8059SOL     OW35638   3.386   3.307  17.304 -0.2958  0.1179  0.1673
 8059SOL    HW135639   3.470   3.344  17.277 -0.7916  0.2291 -1.2822
 8059SOL    HW235640   3.330   3.331  17.229  0.0848 -1.2268 -0.5384
 8060SOL     OW35641   0.152   0.118   5.045 -0.4566 -0.0892 -0.3942
 8060SOL    HW135642   0.217   0.188   5.054 -0.6020  0.0912 -0.7377
 8060SOL    HW235643   0.208   0.059   4.993  1.4647 -0.2304  1.8183
 8061SOL     OW35644   4.578   0.053   3.535 -0.0819  0.3253  0.4313
 8061SOL    HW135645   4.507   0.114   3.516 -0.4546  0.4725  2.3613
 8061SOL    HW235646   4.540   4.697   3.502 -0.4864  1.6147 -2.3068
 8062SOL     OW35647   0.048   2.990   1.334  0.3671 -0.1321 -0.2586
 8062SOL    HW135648   0.091   2.966   1.252 -1.1100 -0.3184 -0.9737
 8062SOL    HW235649   0.030   2.901   1.365 -0.1601  0.9348  2.5203
 8063SOL     OW35650   3.329   2.019   4.289 -0.5359  0.1118  0.5087
 8063SOL    HW135651   3.300   2.017   4.198  1.2735  0.6445 -0.0987
 8063SOL    HW235652   3.304   2.107   4.317  0.2389  0.3737  0.3786
 8064SOL     OW35653   1.096   3.859   8.755  0.1596  0.1295  0.5226
 8064SOL    HW135654   1.082   3.784   8.698  2.9193  0.3702 -0.4562
 8064SOL    HW235655   1.010   3.900   8.744  1.3897  3.0438  1.6161
 8065SOL     OW35656   2.518   2.147   4.418  0.2450 -0.0173  0.0403
 8065SOL    HW135657   2.510   2.155   4.322 -1.3101  0.4122  0.1973
 8065SOL    HW235658   2.538   2.235   4.449  0.0273  0.1460 -0.2761
 8066SOL     OW35659   1.493   1.535  16.855  0.1160 -0.6288 -0.4252
 8066SOL    HW135660   1.543   1.454  16.864 -0.0299 -0.7736 -0.9365
 8066SOL    HW235661   1.433   1.519  16.782  0.4691  0.5424 -0.9669
 8067SOL     OW35662   2.630   3.916   4.202 -0.1041  0.0518  0.0401
 8067SOL    HW135663   2.723   3.906   4.223  0.2952 -1.1189 -2.2636
 8067SOL    HW235664   2.624   3.827   4.166 -1.0477  0.1555 -0.0474
 8068SOL     OW35665   4.548   3.933  11.494  0.0159  0.7540 -0.6578
 8068SOL    HW135666   4.557   3.940  11.400 -1.6804 -0.4377 -0.9236
 8068SOL    HW235667   4.574   4.018  11.528 -1.4187  0.2915  1.6100
 8069SOL     OW35668   2.310   2.165   8.004 -0.0970  0.0556 -0.3981
 8069SOL    HW135669   2.248   2.228   7.967 -0.9650 -0.3983  0.2925
 8069SOL    HW235670   2.250   2.119   8.062  1.4110 -0.6795  0.5644
 8070SOL     OW35671   0.270   3.455   7.503  0.4990  0.0456 -0.1616
 8070SOL    HW135672   0.333   3.390   7.475 -0.4060 -0.0994 -1.8637
 8070SOL    HW235673   0.284   3.529   7.444 -0.7363  0.4932  0.1018
 8071SOL     OW35674   1.288   2.534   0.782 -0.3726  0.1410  0.7467
 8071SOL    HW135675   1.220   2.601   0.791 -1.4466 -0.7918 -0.5319
 8071SOL    HW235676   1.368   2.585   0.789  1.3710 -2.4643 -0.3881
 8072SOL     OW35677   1.130   2.998   5.690 -0.3083  0.1477  0.1174
 8072SOL    HW135678   1.176   2.922   5.654  0.8047  0.2380  1.3373
 8072SOL    HW235679   1.202   3.037   5.740 -2.7666  3.6143  0.9410
 8073SOL     OW35680   3.429   4.531   4.913 -0.3430  0.0507  0.1055
 8073SOL    HW135681   3.406   4.551   4.822 -0.8643 -2.5254 -0.3451
 8073SOL    HW235682   3.352   4.477   4.931  1.1307 -1.2617  2.4544
 8074SOL     OW35683   1.861   2.067   4.218 -0.1862 -0.1747 -0.4920
 8074SOL    HW135684   1.798   2.123   4.173  1.1187  1.2484 -0.5369
 8074SOL    HW235685   1.915   2.036   4.145  3.3489  1.1724  1.5187
 8075SOL     OW35686   0.015   1.256  15.362 -0.5831 -0.4606 -0.1828
 8075SOL    HW135687   4.689   1.282  15.286 -0.9011 -1.7385 -0.4069
 8075SOL    HW235688   0.038   1.341  15.399 -0.4953 -0.2537 -0.7138
 8076SOL     OW35689   1.108   0.818  15.739  0.0405  0.2419 -0.4260
 8076SOL    HW135690   1.141   0.759  15.807  1.2057 -0.7731 -1.8729
 8076SOL    HW235691   1.112   0.763  15.661 -3.1395  2.6516 -2.3004
 8077SOL     OW35692   1.092   1.095   2.023 -0.3219  0.2046 -0.1102
 8077SOL    HW135693   1.048   1.178   2.002  0.7413  0.7652 -0.1546
 8077SOL    HW235694   1.118   1.060   1.938  2.4482  1.7820  0.0748
 8078SOL     OW35695   0.331   0.530  17.185  0.6594  0.1545  0.2545
 8078SOL    HW135696   0.361   0.472  17.256 -0.4269  0.9624  1.3768
 8078SOL    HW235697   0.375   0.611  17.208  1.1196  0.1145 -0.4986
 8079SOL     OW35698   1.619   1.384   3.260 -0.0555  0.4152 -0.1122
 8079SOL    HW135699   1.540   1.337   3.284 -0.4370  1.4268  0.6365
 8079SOL    HW235700   1.677   1.373   3.336 -0.3132 -2.0680 -0.2811
 8080SOL     OW35701   3.675   0.301   0.732  0.1971  0.4287  0.3321
 8080SOL    HW135702   3.722   0.220   0.712  0.4285  0.7962 -0.6063
 8080SOL    HW235703   3.634   0.268   0.812  1.6125 -0.5794  0.6413
 8081SOL     OW35704   2.858   2.872   6.957  0.5409  0.5307  0.2465
 8081SOL    HW135705   2.949   2.893   6.940  0.2843 -1.0917 -3.1308
 8081SOL    HW235706   2.870   2.797   7.015 -1.2488  0.4155  0.4929
 8082SOL     OW35707   2.373   1.224   7.656 -0.6062 -0.0308 -0.3782
 8082SOL    HW135708   2.287   1.264   7.638 -1.0121  0.1941  2.0339
 8082SOL    HW235709   2.399   1.204   7.566 -0.4388 -0.7383 -0.1642
 8083SOL     OW35710   3.701   0.564   8.881  0.5321 -0.0165 -0.1773
 8083SOL    HW135711   3.629   0.510   8.913 -0.4564  1.4042 -0.0036
 8083SOL    HW235712   3.774   0.512   8.913 -0.6579 -1.2494  0.5182
 8084SOL     OW35713   3.350   0.999   8.085  0.0473 -0.1811  0.1427
 8084SOL    HW135714   3.391   0.978   8.001 -1.0943  0.0706 -0.4851
 8084SOL    HW235715   3.257   0.998   8.061  0.0558  1.9167 -0.0600
 8085SOL     OW35716   3.519   2.601   9.663 -0.0396 -0.1973  0.0107
 8085SOL    HW135717   3.444   2.659   9.652 -1.2115 -1.9808 -1.4520
 8085SOL    HW235718   3.499   2.541   9.735 -0.5329  0.1296  0.1427
 8086SOL     OW35719   0.907   0.079   5.418 -1.2454  0.4209  0.5583
 8086SOL    HW135720   0.823   0.038   5.438 -0.9170 -0.5331 -0.0085
 8086SOL    HW235721   0.880   0.149   5.358 -0.9755 -0.1251 -0.1979
 8087SOL     OW35722   2.801   4.362   3.095  0.1609 -0.0165 -0.3009
 8087SOL    HW135723   2.835   4.344   3.183 -0.8022  0.3894  0.1560
 8087SOL    HW235724   2.711   4.392   3.109 -0.0690 -0.9114  0.1220
 8088SOL     OW35725   3.021   1.283   5.952  0.0297 -0.1751 -0.2888
 8088SOL    HW135726   3.096   1.233   5.920  0.1270  0.7348 -1.4643
 8088SOL    HW235727   2.963   1.218   5.993 -1.9019  1.5369 -0.3103
 8089SOL     OW35728   0.797   4.255  12.953  0.2416 -0.5578 -0.0565
 8089SOL    HW135729   0.812   4.335  12.903 -2.7526  0.3450  0.4806
 8089SOL    HW235730   0.809   4.193  12.881 -0.7697 -0.9659  0.1129
 8090SOL     OW35731   2.886   0.564   8.677 -0.0567  0.0537  0.2567
 8090SOL    HW135732   2.956   0.630   8.682  0.2549 -0.2483 -0.1511
 8090SOL    HW235733   2.816   0.608   8.726 -0.9165  0.6037 -1.4400
 8091SOL     OW35734   2.201   4.351   8.526  0.4222  0.1932  0.3785
 8091SOL    HW135735   2.118   4.383   8.492  0.3417 -0.3456  0.0753
 8091SOL    HW235736   2.174   4.261   8.540 -0.2610  0.9914  4.0330
 8092SOL     OW35737   0.830   0.603   2.242 -0.4071 -0.5221 -0.1598
 8092SOL    HW135738   0.765   0.577   2.177  0.1923  0.6379 -1.2058
 8092SOL    HW235739   0.822   0.698   2.233  0.9277 -0.4499 -0.4973
 8093SOL     OW35740   4.097   1.401   6.205  0.5572  0.0119  0.3318
 8093SOL    HW135741   4.122   1.492   6.192 -0.9864 -0.0420 -2.9614
 8093SOL    HW235742   4.010   1.413   6.243  1.1871  1.8788  1.2219
 8094SOL     OW35743   4.403   1.014   8.195 -0.3033 -0.1949  0.5247
 8094SOL    HW135744   4.324   1.012   8.248 -0.8764 -1.1147 -0.3605
 8094SOL    HW235745   4.453   0.950   8.246 -0.8386 -0.3564  0.8478
 8095SOL     OW35746   2.769   3.831   7.023  0.3349 -0.3917  0.8605
 8095SOL    HW135747   2.791   3.923   7.037 -0.6304 -0.2132  1.1375
 8095SOL    HW235748   2.679   3.828   6.990  1.2025  1.0752 -1.6284
 8096SOL     OW35749   2.542   3.507  11.495 -0.1317  0.0671  0.1879
 8096SOL    HW135750   2.511   3.498  11.585  0.3595  0.0750  0.3548
 8096SOL    HW235751   2.458   3.542  11.465  0.3184 -0.9130 -2.2770
 8097SOL     OW35752   1.591   1.823   4.647  0.0948 -0.2315  0.0961
 8097SOL    HW135753   1.635   1.749   4.690  0.4849 -0.1922 -0.2387
 8097SOL    HW235754   1.570   1.798   4.557  2.0630 -0.8228 -0.1804
 8098SOL     OW35755   2.809   1.664  10.263 -0.0773 -0.2217  0.1613
 8098SOL    HW135756   2.828   1.669  10.169 -2.5916  0.0498 -0.3284
 8098SOL    HW235757   2.857   1.588  10.295 -1.3177 -1.7177 -1.5301
 8099SOL     OW35758   3.988   4.053   7.962  0.2245  0.3007  0.0074
 8099SOL    HW135759   3.915   4.093   7.915  0.8815 -0.7354 -1.8828
 8099SOL    HW235760   3.932   4.015   8.030  0.4505 -2.2045 -1.2314
 8100SOL     OW35761   0.714   4.589   6.298 -0.1717  0.1091  0.2120
 8100SOL    HW135762   0.751   4.524   6.359  1.8509  0.2485 -0.8548
 8100SOL    HW235763   0.735   4.667   6.350  1.8896  0.2078 -0.7518
 8101SOL     OW35764   2.010   3.834  16.800 -0.1643 -0.3795 -0.2851
 8101SOL    HW135765   2.075   3.902  16.782  2.8187 -2.6008  2.2165
 8101SOL    HW235766   2.009   3.794  16.713 -1.5483 -0.8955 -0.0305
 8102SOL     OW35767   3.805   4.394   9.783 -0.3176 -0.0199 -0.5963
 8102SOL    HW135768   3.777   4.479   9.817 -0.6108  0.2432 -1.4820
 8102SOL    HW235769   3.781   4.409   9.691 -1.6387 -0.3788 -0.3199
 8103SOL     OW35770   3.978   1.550   7.008  0.2853  0.6401  0.5774
 8103SOL    HW135771   3.907   1.575   7.066  0.1971  1.8430 -0.0596
 8103SOL    HW235772   4.051   1.522   7.064 -0.5159 -0.5647  1.0148
 8104SOL     OW35773   2.658   2.825   4.500  0.0517 -0.4108 -0.4224
 8104SOL    HW135774   2.738   2.779   4.527 -1.0402 -3.2092 -1.9064
 8104SOL    HW235775   2.598   2.751   4.490  1.9229 -2.0576  0.4194
 8105SOL     OW35776   1.543   0.219  16.394  0.1470  0.5095  0.0573
 8105SOL    HW135777   1.525   0.282  16.325  0.5555  0.0701 -0.4545
 8105SOL    HW235778   1.568   0.270  16.471  1.2763  2.5767 -1.7050
 8106SOL     OW35779   4.143   3.799  11.650 -0.1986 -0.1114  0.4886
 8106SOL    HW135780   4.153   3.717  11.602  0.9482  0.8827 -0.9726
 8106SOL    HW235781   4.077   3.761  11.707  0.2446  0.0608  1.1064
 8107SOL     OW35782   3.290   0.539   2.073  0.6236 -0.4298  0.0236
 8107SOL    HW135783   3.377   0.550   2.113 -0.2428  1.9541  1.2561
 8107SOL    HW235784   3.271   0.446   2.084  2.6461 -0.7963  0.5192
 8108SOL     OW35785   1.210   0.983   6.325  0.4591 -0.8280  0.2636
 8108SOL    HW135786   1.167   1.033   6.255 -0.5977 -2.0768  0.0178
 8108SOL    HW235787   1.216   0.896   6.287 -0.8022 -0.7462 -0.1392
 8109SOL     OW35788   1.987   1.268  12.880 -0.1822  0.1436 -0.3926
 8109SOL    HW135789   2.034   1.305  12.955  1.7782 -2.0891 -0.5203
 8109SOL    HW235790   2.061   1.251  12.821  0.6044 -1.0572  0.9409
 8110SOL     OW35791   0.306   4.142   8.730 -0.5833  0.1147 -0.0616
 8110SOL    HW135792   0.233   4.112   8.676 -0.9666 -0.1567  0.6021
 8110SOL    HW235793   0.262   4.127   8.814 -1.5316 -0.8993 -0.7326
 8111SOL     OW35794   3.707   3.220  16.137  0.2957  0.1294 -0.7863
 8111SOL    HW135795   3.674   3.292  16.084 -2.6418  0.0703  1.0030
 8111SOL    HW235796   3.643   3.213  16.207  1.8302  0.7309  0.6553
 8112SOL     OW35797   4.264   1.073  17.696  0.3527  0.0307  0.4313
 8112SOL    HW135798   4.346   1.122  17.693  0.5952 -0.4308 -0.3733
 8112SOL    HW235799   4.257   1.065   0.089 -0.3481  2.3028  0.5827
 8113SOL     OW35800   2.458   2.944  15.793 -0.2774 -0.2411 -0.3194
 8113SOL    HW135801   2.385   2.977  15.846 -1.3609  0.2950 -2.1117
 8113SOL    HW235802   2.494   3.021  15.748  0.6226 -0.3801  0.1817
 8114SOL     OW35803   3.825   4.425  11.956 -0.2545  0.3003 -0.2581
 8114SOL    HW135804   3.861   4.486  12.021 -2.0436 -0.6036  1.5805
 8114SOL    HW235805   3.735   4.451  11.976 -0.5283 -1.7210  1.1968
 8115SOL     OW35806   1.580   2.556   7.810  0.0484 -0.1421 -0.4410
 8115SOL    HW135807   1.500   2.505   7.813  1.2317 -1.8522  1.7969
 8115SOL    HW235808   1.568   2.626   7.875 -0.7552  0.5800 -1.3758
 8116SOL     OW35809   3.800   0.340   8.145  0.1118 -0.2984 -0.2947
 8116SOL    HW135810   3.890   0.311   8.163 -0.1040 -1.6061 -1.2563
 8116SOL    HW235811   3.747   0.329   8.223  2.2814  0.2681  1.2561
 8117SOL     OW35812   2.380   2.835  12.673 -0.0258  0.0336  0.2392
 8117SOL    HW135813   2.463   2.812  12.633  0.3476 -1.2895  1.7924
 8117SOL    HW235814   2.323   2.768  12.636  0.8271  0.4154 -1.7385
 8118SOL     OW35815   1.744   4.636   3.196  0.8296  0.3318 -0.1863
 8118SOL    HW135816   1.736   4.644   3.101  0.0148 -1.5131 -0.2644
 8118SOL    HW235817   1.701   4.710   3.237 -1.7448 -2.5414  2.2788
 8119SOL     OW35818   4.433   2.357   6.048  0.0542  0.4878 -0.8917
 8119SOL    HW135819   4.495   2.339   6.119 -0.4796  0.2183 -0.4975
 8119SOL    HW235820   4.431   2.276   5.997 -1.0051  0.5958 -1.0169
 8120SOL     OW35821   4.185   3.290   8.743  0.3745  0.1965 -0.2944
 8120SOL    HW135822   4.101   3.259   8.711 -0.0886 -0.2861  1.3895
 8120SOL    HW235823   4.224   3.210   8.778 -0.1349 -1.2000 -2.9492
 8121SOL     OW35824   1.457   0.212  17.471  0.1362  0.0086 -0.1843
 8121SOL    HW135825   1.435   0.126  17.437 -0.4684  0.0860  0.0096
 8121SOL    HW235826   1.396   0.272  17.429  1.3123  1.3707  0.0136
 8122SOL     OW35827   0.106   2.722   4.140  0.3710 -0.0101  0.3212
 8122SOL    HW135828   0.077   2.721   4.231 -1.3893 -0.2701 -0.2416
 8122SOL    HW235829   0.138   2.632   4.133  1.8143  0.6413 -1.5175
 8123SOL     OW35830   1.195   0.359   2.630  0.6735 -0.0823 -0.0364
 8123SOL    HW135831   1.185   0.264   2.620 -0.3081 -0.1620  1.7560
 8123SOL    HW235832   1.113   0.405   2.612  1.1018  0.7791  0.2334
 8124SOL     OW35833   2.452   0.961   7.805  0.3089  0.1006 -0.3135
 8124SOL    HW135834   2.435   0.995   7.893  3.5597  1.5546 -0.2475
 8124SOL    HW235835   2.439   1.038   7.749  2.8737  0.5383 -0.3189
 8125SOL     OW35836   0.376   0.767  16.066  0.2024 -0.0446 -0.3655
 8125SOL    HW135837   0.291   0.723  16.057  0.7382 -1.4128  1.3307
 8125SOL    HW235838   0.425   0.741  15.988 -0.8754 -0.6896 -0.8309
 8126SOL     OW35839   2.566   4.431  15.071  0.1806 -0.3308 -0.0709
 8126SOL    HW135840   2.568   4.336  15.085 -2.4715 -0.5110 -0.8738
 8126SOL    HW235841   2.655   4.462  15.087  0.0753 -0.3076  0.4697
 8127SOL     OW35842   2.562   1.167   8.339  0.5182  0.5312  0.3785
 8127SOL    HW135843   2.623   1.233   8.372  1.1337  0.4275 -0.5527
 8127SOL    HW235844   2.600   1.083   8.366  0.5453  0.6120  0.5907
 8128SOL     OW35845   1.196   3.777   8.236 -0.3141 -0.1160 -0.0143
 8128SOL    HW135846   1.261   3.760   8.304 -0.1242  1.4339  0.1971
 8128SOL    HW235847   1.124   3.714   8.249  0.4666 -1.5122 -2.3588
 8129SOL     OW35848   4.343   1.164   3.825  0.1253 -0.0481  0.1707
 8129SOL    HW135849   4.430   1.124   3.828  1.6996  3.2589 -0.9194
 8129SOL    HW235850   4.320   1.179   3.733 -0.3533 -1.1760  0.1073
 8130SOL     OW35851   3.699   3.857   6.695  0.6708 -0.5585 -0.0106
 8130SOL    HW135852   3.645   3.808   6.633 -0.9752 -0.7981  1.6083
 8130SOL    HW235853   3.681   3.948   6.674 -1.2992 -0.9823 -0.1305
 8131SOL     OW35854   3.503   3.247   9.239 -0.2126  0.1919  0.4463
 8131SOL    HW135855   3.457   3.173   9.199  0.2940 -1.2552  2.5744
 8131SOL    HW235856   3.543   3.279   9.158 -0.8634  0.6625  0.3036
 8132SOL     OW35857   3.808   1.908   8.658 -0.6845 -0.0606  0.6709
 8132SOL    HW135858   3.832   1.827   8.704  1.4624  0.4254  0.3876
 8132SOL    HW235859   3.807   1.891   8.564  2.6628 -1.2584  0.8429
 8133SOL     OW35860   4.125   2.036   0.649 -0.1344 -1.0495  0.4096
 8133SOL    HW135861   4.200   2.086   0.616 -1.2457 -0.7852 -1.6890
 8133SOL    HW235862   4.165   1.960   0.691 -1.6564 -1.7786  0.5228
 8134SOL     OW35863   3.748   1.537   9.218 -0.3220 -0.5396 -0.4473
 8134SOL    HW135864   3.695   1.490   9.283  1.1418 -1.2459  0.2187
 8134SOL    HW235865   3.829   1.552   9.265 -0.0785  0.0504 -1.0621
 8135SOL     OW35866   3.730   3.651   5.985 -0.0884 -0.2315 -1.0605
 8135SOL    HW135867   3.749   3.690   6.071 -1.1494 -0.8437 -0.5580
 8135SOL    HW235868   3.817   3.653   5.944 -0.4601  1.4863 -1.7857
 8136SOL     OW35869   2.285   1.271   8.616  0.1829 -0.3188  0.3058
 8136SOL    HW135870   2.263   1.354   8.575  0.2422 -0.4416  0.0289
 8136SOL    HW235871   2.257   1.209   8.549 -1.3357 -1.4189  1.9283
 8137SOL     OW35872   4.304   3.751   4.716 -0.5438  0.1613  0.3160
 8137SOL    HW135873   4.226   3.727   4.767  0.2714 -2.5137  0.2825
 8137SOL    HW235874   4.357   3.794   4.784 -1.8090 -2.0958  2.7493
 8138SOL     OW35875   2.749   2.792   2.253  0.1920 -0.1200  0.5238
 8138SOL    HW135876   2.788   2.736   2.186 -0.8708  0.4818 -0.5979
 8138SOL    HW235877   2.658   2.763   2.242 -0.1743  0.6161  1.5506
 8139SOL     OW35878   0.696   3.869  15.099 -0.1348 -0.0295  0.2231
 8139SOL    HW135879   0.693   3.776  15.074 -0.1342  0.2159 -0.6736
 8139SOL    HW235880   0.622   3.900  15.046 -0.3911 -0.5253  0.2872
 8140SOL     OW35881   0.979   2.337  13.509 -0.3202 -0.7271  0.5121
 8140SOL    HW135882   0.899   2.298  13.475  0.4073 -0.8094 -1.0953
 8140SOL    HW235883   1.033   2.261  13.486 -0.3874 -1.0673  1.4567
 8141SOL     OW35884   0.335   1.147   0.627  0.3586 -0.3457 -0.6243
 8141SOL    HW135885   0.382   1.182   0.703  2.4532 -0.4082 -1.8903
 8141SOL    HW235886   0.325   1.054   0.644 -1.2491  0.0889  0.7651
 8142SOL     OW35887   2.058   0.684   7.474 -0.1162 -0.2781 -0.0244
 8142SOL    HW135888   2.137   0.736   7.485  0.3640 -0.6901 -1.5724
 8142SOL    HW235889   2.019   0.713   7.557 -0.0452  3.2844 -1.2479
 8143SOL     OW35890   2.868   3.910   8.634 -0.1520  0.2732  0.2306
 8143SOL    HW135891   2.829   3.996   8.616 -1.6220 -0.4239  0.0804
 8143SOL    HW235892   2.945   3.936   8.684  1.2895  0.6684 -2.1882
 8144SOL     OW35893   0.374   4.674   8.689  0.3663  0.3460 -0.2247
 8144SOL    HW135894   0.456   4.716   8.665  1.0985  0.9163  3.3057
 8144SOL    HW235895   0.315   4.709   8.622  0.2799  2.0789  0.7513
 8145SOL     OW35896   1.669   0.388   6.276 -0.0256 -0.8531 -0.6208
 8145SOL    HW135897   1.721   0.441   6.216 -1.7953  1.3889 -0.1855
 8145SOL    HW235898   1.675   0.297   6.247  0.5648 -1.7289  2.2901
 8146SOL     OW35899   1.556   0.792  15.168 -0.0840  0.7269  0.5746
 8146SOL    HW135900   1.524   0.705  15.143 -1.1327  0.8485  1.5305
 8146SOL    HW235901   1.477   0.844  15.161 -0.5481  0.1775  1.7385
 8147SOL     OW35902   1.494   2.080   6.223 -0.1291  0.2175 -0.1703
 8147SOL    HW135903   1.402   2.081   6.197 -0.1138  0.9636 -0.1975
 8147SOL    HW235904   1.504   2.176   6.218 -2.2708  0.4462 -0.3525
 8148SOL     OW35905   2.884   4.369  15.025 -0.8247 -0.4387 -0.1502
 8148SOL    HW135906   2.968   4.340  14.988 -0.0613  0.9053  0.5430
 8148SOL    HW235907   2.853   4.433  14.960 -2.0425 -0.1991  0.6697
 8149SOL     OW35908   0.268   4.204   4.567 -0.1986  0.6076  0.2627
 8149SOL    HW135909   0.234   4.206   4.478  0.3183 -3.1379 -0.0455
 8149SOL    HW235910   0.192   4.159   4.604  0.6793 -0.9044  0.2620
 8150SOL     OW35911   4.433   3.598   7.980 -0.6567  0.0748 -0.0330
 8150SOL    HW135912   4.418   3.516   7.932  1.1584 -0.2379 -0.0506
 8150SOL    HW235913   4.506   3.641   7.937 -0.8075  1.1387  0.7587
 8151SOL     OW35914   1.433   1.531  11.944  0.6220 -0.1530 -0.0715
 8151SOL    HW135915   1.344   1.565  11.932 -0.4632 -2.3029  1.7494
 8151SOL    HW235916   1.470   1.585  12.014 -0.1184 -2.6172  2.2174
 8152SOL     OW35917   3.771   0.969   9.840 -0.6429 -0.6400 -0.4751
 8152SOL    HW135918   3.844   0.920   9.878 -0.3554 -0.5727 -0.9530
 8152SOL    HW235919   3.805   1.056   9.822 -2.3434 -0.0721 -0.9238
 8153SOL     OW35920   2.890   2.707   5.845 -0.0078 -0.7948  0.1339
 8153SOL    HW135921   2.907   2.722   5.752 -1.1533 -1.1548 -0.1291
 8153SOL    HW235922   2.956   2.640   5.864 -0.5111 -1.1657  0.5498
 8154SOL     OW35923   1.385   2.388   5.744  0.4401  0.1100  0.1969
 8154SOL    HW135924   1.323   2.408   5.814  0.9553 -0.9139  0.9505
 8154SOL    HW235925   1.407   2.471   5.702  1.6166 -1.5524 -2.4719
 8155SOL     OW35926   1.533   1.185   8.544  0.5115 -0.0303  0.0587
 8155SOL    HW135927   1.590   1.241   8.491  0.1783 -0.8416 -1.1754
 8155SOL    HW235928   1.571   1.099   8.560 -0.7351 -0.6935 -0.4888
 8156SOL     OW35929   4.666   0.480   5.121  0.0598  0.0648  0.6679
 8156SOL    HW135930   0.003   0.538   5.165  0.3382  0.4412 -0.2195
 8156SOL    HW235931   4.674   0.507   5.030 -0.2452  0.1329  0.6606
 8157SOL     OW35932   1.111   2.115   4.559 -0.2776  0.3697  0.2040
 8157SOL    HW135933   1.036   2.160   4.598  0.3229 -0.4233  2.2691
 8157SOL    HW235934   1.107   2.030   4.602  0.3978  0.8566  1.2554
 8158SOL     OW35935   4.714   1.900   8.331 -0.2363  0.1408 -0.2033
 8158SOL    HW135936   0.062   1.915   8.271 -0.8552 -2.3718 -1.5910
 8158SOL    HW235937   0.025   1.951   8.403  0.0974 -1.4069  0.7341
 8159SOL     OW35938   0.510   3.370   8.322 -0.1120 -0.1557 -0.2784
 8159SOL    HW135939   0.546   3.391   8.408  2.0885  1.0151 -1.4986
 8159SOL    HW235940   0.417   3.389   8.339 -0.0046  2.2242 -2.4857
 8160SOL     OW35941   0.526   4.644   4.501  0.0690  0.2928  0.4149
 8160SOL    HW135942   0.594   4.705   4.472  0.4648  0.1099  0.9601
 8160SOL    HW235943   0.462   4.713   4.520  0.0634  1.2759 -3.2094
 8161SOL     OW35944   1.412   3.450   6.099  0.0478 -0.0505 -0.1247
 8161SOL    HW135945   1.456   3.365   6.097 -1.6506 -0.8893 -1.7571
 8161SOL    HW235946   1.392   3.461   6.192  0.7903  0.6621 -0.0449
 8162SOL     OW35947   0.688   0.004   1.322  0.3076 -0.0266 -0.2301
 8162SOL    HW135948   0.690   0.095   1.293  1.0254 -0.5840 -1.9492
 8162SOL    HW235949   0.740   4.694   1.250  0.0165 -1.1191  0.0863
 8163SOL     OW35950   2.573   2.110  11.010  0.5476  0.0992  0.2168
 8163SOL    HW135951   2.652   2.100  11.062 -0.9733 -0.3228  2.4314
 8163SOL    HW235952   2.514   2.136  11.081 -1.1540 -1.3989 -0.6622
 8164SOL     OW35953   2.159   2.347   8.958 -0.1713  0.0079 -0.5367
 8164SOL    HW135954   2.252   2.365   8.975 -0.7861  0.7851  2.0016
 8164SOL    HW235955   2.149   2.260   8.997 -0.5424  1.7397  3.2308
 8165SOL     OW35956   0.859   2.294   6.117  0.5226  0.0117 -0.0360
 8165SOL    HW135957   0.790   2.230   6.097  0.1572  0.2586  0.4372
 8165SOL    HW235958   0.824   2.369   6.068 -2.5688 -0.1039  1.9513
 8166SOL     OW35959   0.857   2.464   2.529 -0.5887  0.6277  0.4816
 8166SOL    HW135960   0.796   2.522   2.485 -1.9870  0.0136  1.5906
 8166SOL    HW235961   0.882   2.514   2.607  0.0780  2.1376 -0.6956
 8167SOL     OW35962   2.396   1.351  13.128  0.2045  0.7909  0.0351
 8167SOL    HW135963   2.325   1.295  13.159  2.7103 -2.4353 -0.0530
 8167SOL    HW235964   2.413   1.420  13.192  2.7376 -1.6317  1.9183
 8168SOL     OW35965   0.678   0.945  17.351  0.3167 -0.4766  0.1656
 8168SOL    HW135966   0.642   1.034  17.345 -3.2338 -1.9444 -0.5323
 8168SOL    HW235967   0.601   0.900  17.386 -0.4639  0.3585 -0.4868
 8169SOL     OW35968   2.543   3.273   9.121  0.1317 -0.4162 -0.3722
 8169SOL    HW135969   2.529   3.252   9.213  0.2358 -3.4068 -1.0273
 8169SOL    HW235970   2.508   3.186   9.100 -0.8237  0.1819 -1.2670
 8170SOL     OW35971   0.816   0.347   2.495  0.5325 -0.1474  0.6146
 8170SOL    HW135972   0.826   0.329   2.589 -0.5601 -0.7944  0.6072
 8170SOL    HW235973   0.871   0.425   2.488 -0.4232  0.6432  1.7833
 8171SOL     OW35974   2.554   2.781  13.970 -0.4976 -0.3738 -0.2687
 8171SOL    HW135975   2.590   2.864  14.000 -1.0115 -0.2965  0.1311
 8171SOL    HW235976   2.475   2.779  14.025 -0.8407 -1.3105 -0.7950
 8172SOL     OW35977   2.016   3.215   0.934  0.0528  0.0443 -0.5618
 8172SOL    HW135978   2.007   3.304   0.966  1.5219  1.0647 -2.9525
 8172SOL    HW235979   1.993   3.162   1.010  0.4488 -1.5999 -1.5929
 8173SOL     OW35980   3.231   0.423   7.799  0.0464  0.6161  0.0692
 8173SOL    HW135981   3.253   0.383   7.715  2.4426  0.7589  0.6423
 8173SOL    HW235982   3.295   0.387   7.860  0.8934 -0.1948 -1.2898
 8174SOL     OW35983   3.203   1.569   9.813  0.2764  0.4262  0.4258
 8174SOL    HW135984   3.177   1.642   9.869 -0.0740 -0.5789  1.5685
 8174SOL    HW235985   3.295   1.558   9.838  0.8898  0.8599 -1.6339
 8175SOL     OW35986   0.627   4.301  11.469 -0.2300 -0.3209  0.0661
 8175SOL    HW135987   0.708   4.298  11.419 -0.6310 -2.1597 -0.4432
 8175SOL    HW235988   0.658   4.286  11.558  0.7203 -1.3277 -0.4481
 8176SOL     OW35989   1.759   4.132   4.631 -0.2310 -0.4471 -0.2963
 8176SOL    HW135990   1.743   4.090   4.547  0.2061  2.2152 -1.7103
 8176SOL    HW235991   1.710   4.214   4.624 -1.6723 -1.3445 -0.8813
 8177SOL     OW35992   3.041   1.151   8.859  0.4824  0.3743 -1.0117
 8177SOL    HW135993   2.976   1.203   8.907 -1.5811 -1.3190 -1.9700
 8177SOL    HW235994   2.986   1.095   8.804  0.0857  0.0811 -0.3328
 8178SOL     OW35995   3.936   0.650   9.414 -0.1366  0.2119 -0.4069
 8178SOL    HW135996   3.904   0.606   9.493  0.4200  0.3632 -0.0945
 8178SOL    HW235997   3.902   0.738   9.427 -1.8195 -0.5242  0.1908
 8179SOL     OW35998   2.848   2.604   1.171 -0.2567  0.1698  0.0350
 8179SOL    HW135999   2.811   2.533   1.224 -3.1454  1.0715 -0.7613
 8179SOL    HW236000   2.911   2.637   1.235 -0.7444  1.7738 -0.3298
 8180SOL     OW36001   3.336   1.259   1.770  0.2699  0.1686 -0.1813
 8180SOL    HW136002   3.309   1.299   1.687 -1.1030 -0.4157 -0.0308
 8180SOL    HW236003   3.285   1.178   1.771 -0.2604  0.4919 -0.7586
 8181SOL     OW36004   2.854   1.559   7.766 -0.0582 -0.3542 -0.2223
 8181SOL    HW136005   2.775   1.505   7.768 -1.3723  1.5062 -2.7462
 8181SOL    HW236006   2.884   1.544   7.856  0.7180  0.1042 -0.4141
 8182SOL     OW36007   1.257   0.973   3.253  0.0881 -0.2293  0.0783
 8182SOL    HW136008   1.243   0.906   3.320  0.7604  0.8263  1.2748
 8182SOL    HW236009   1.348   1.002   3.262  0.6676 -1.2879 -2.2137
 8183SOL     OW36010   3.293   1.519   7.186 -0.4552  0.1769  0.7263
 8183SOL    HW136011   3.360   1.457   7.213 -0.9125 -0.2715  0.8319
 8183SOL    HW236012   3.236   1.524   7.263 -1.4558  0.8261 -0.0544
 8184SOL     OW36013   0.698   3.854   6.160  0.2192  0.5255 -0.1442
 8184SOL    HW136014   0.765   3.909   6.200  0.3924  0.3768 -0.2295
 8184SOL    HW236015   0.641   3.920   6.121 -0.7950 -1.4925 -2.1131
 8185SOL     OW36016   2.644   3.661   7.209  0.2603  0.4046  0.4971
 8185SOL    HW136017   2.714   3.680   7.146 -2.1617 -1.5764 -2.8104
 8185SOL    HW236018   2.684   3.586   7.253 -0.8570 -1.7578 -2.0952
 8186SOL     OW36019   1.666   4.642   8.363 -0.4259 -0.2637 -0.0647
 8186SOL    HW136020   1.758   4.669   8.368  0.1519 -2.4876  1.4691
 8186SOL    HW236021   1.654   4.622   8.456  1.8708 -0.1576  0.2579
 8187SOL     OW36022   4.065   0.525   4.414  0.0545  0.7355 -0.0042
 8187SOL    HW136023   4.053   0.602   4.470  3.2477  2.1398 -1.2692
 8187SOL    HW236024   4.023   0.461   4.472 -0.1345  0.0690 -0.8766
 8188SOL     OW36025   3.744   4.313  12.600 -0.3058  0.0223  0.5386
 8188SOL    HW136026   3.662   4.272  12.569  0.3741  0.5369 -1.9754
 8188SOL    HW236027   3.786   4.237  12.639  1.5595  1.3105  0.9890
 8189SOL     OW36028   3.087   3.930   7.616 -0.3585 -0.5218 -0.5869
 8189SOL    HW136029   3.029   3.995   7.578 -0.1016  0.4109  0.5992
 8189SOL    HW236030   3.118   3.978   7.693 -0.4288 -0.0869 -0.8284
 8190SOL     OW36031   1.328   0.159   2.779 -0.2190 -0.1367 -0.0947
 8190SOL    HW136032   1.268   0.141   2.707 -0.3627 -1.6112  0.3844
 8190SOL    HW236033   1.415   0.151   2.741 -1.1122  2.1741 -2.5836
 8191SOL     OW36034   3.714   0.593   6.530 -0.4468  0.2940 -0.2188
 8191SOL    HW136035   3.771   0.588   6.453 -1.9873  1.5776 -1.4607
 8191SOL    HW236036   3.645   0.647   6.490  0.3264  1.6846  0.3164
 8192SOL     OW36037   4.507   3.284   2.170 -0.1632 -0.1989 -1.1053
 8192SOL    HW136038   4.513   3.197   2.210  0.3210  0.2043 -0.2891
 8192SOL    HW236039   4.597   3.316   2.171 -0.7678  1.4547  1.0904
 8193SOL     OW36040   4.598   4.198  17.612  0.4656 -0.0409 -0.0596
 8193SOL    HW136041   4.641   4.231  17.532 -0.0530  1.5572  0.3180
 8193SOL    HW236042   4.587   4.286  17.647 -0.7912 -0.8066  1.4693
 8194SOL     OW36043   0.988   0.650   0.609 -0.4233  0.3753 -0.3785
 8194SOL    HW136044   1.082   0.660   0.623 -0.4048 -0.8700  0.4348
 8194SOL    HW236045   0.983   0.589   0.535  1.4349 -2.2253  1.6185
 8195SOL     OW36046   0.490   0.960   4.234 -0.4982 -0.0803 -0.0112
 8195SOL    HW136047   0.503   1.040   4.182 -0.7507 -0.8138 -1.2227
 8195SOL    HW236048   0.432   0.996   4.301 -1.2488 -1.2904 -0.0171
 8196SOL     OW36049   3.918   3.805   8.282 -0.2495 -0.4426 -0.0524
 8196SOL    HW136050   4.005   3.804   8.323 -0.7321  0.3944  0.9824
 8196SOL    HW236051   3.904   3.899   8.275 -1.6114 -0.3589  3.8192
 8197SOL     OW36052   0.037   0.715   6.806 -0.1508 -0.1587 -0.2072
 8197SOL    HW136053   4.714   0.789   6.842 -1.6417 -1.6304  0.8545
 8197SOL    HW236054   0.126   0.741   6.828  0.2122 -2.2090  0.8102
 8198SOL     OW36055   3.764   3.172   9.858  0.6767  0.1427  0.4048
 8198SOL    HW136056   3.735   3.129   9.778  0.6570  0.8520  0.0319
 8198SOL    HW236057   3.714   3.131   9.928  0.5844 -1.3732 -0.5601
 8199SOL     OW36058   4.012   0.926  17.302  0.7905 -0.3956 -0.7334
 8199SOL    HW136059   3.966   0.844  17.285 -0.1818  0.0021  0.0143
 8199SOL    HW236060   4.006   0.951  17.210 -0.5918 -0.8365 -0.7628
 8200SOL     OW36061   2.642   4.201   7.429  0.1355 -0.4277 -0.4728
 8200SOL    HW136062   2.571   4.138   7.438  1.2403 -1.8557 -1.6602
 8200SOL    HW236063   2.605   4.255   7.360  1.1076  1.5332  0.5319
 8201SOL     OW36064   4.648   1.947   7.524  0.1544  0.0505  0.0660
 8201SOL    HW136065   4.595   2.003   7.580 -0.2378 -1.6013  1.3610
 8201SOL    HW236066   0.002   1.925   7.573 -0.2389  0.9790  1.1036
 8202SOL     OW36067   0.796   3.581  14.283 -0.3873  0.9184 -0.1326
 8202SOL    HW136068   0.868   3.605  14.225  0.1039 -0.9621 -0.2866
 8202SOL    HW236069   0.754   3.667  14.282 -2.3545 -0.0084  0.9283
 8203SOL     OW36070   4.044   3.636   6.944 -0.3783  0.0999  0.1240
 8203SOL    HW136071   3.996   3.622   6.862  0.8532  0.2982 -0.6231
 8203SOL    HW236072   3.989   3.586   7.004  0.0218 -0.9679 -0.3886
 8204SOL     OW36073   4.319   3.766   2.992  0.0487 -0.6994  0.1234
 8204SOL    HW136074   4.242   3.773   3.048 -1.1705  2.6502 -1.9920
 8204SOL    HW236075   4.380   3.728   3.055 -0.7684 -1.9723  0.1634
 8205SOL     OW36076   2.214   2.651   1.978  0.0319 -0.0016 -0.1161
 8205SOL    HW136077   2.230   2.745   1.980 -1.6444  0.2699  0.3847
 8205SOL    HW236078   2.259   2.629   1.896  0.0276 -3.6262  0.8552
 8206SOL     OW36079   1.963   2.609   9.399  0.3853 -0.0363  0.2498
 8206SOL    HW136080   2.024   2.670   9.441  2.1547 -0.0411 -2.2721
 8206SOL    HW236081   2.004   2.603   9.312 -0.3483 -0.8637 -0.0358
 8207SOL     OW36082   1.234   3.386   5.737 -0.2659  0.7480  0.0103
 8207SOL    HW136083   1.279   3.454   5.787 -1.2195  1.6067 -0.2931
 8207SOL    HW236084   1.239   3.433   5.653 -1.6572 -0.4910 -0.7580
 8208SOL     OW36085   2.374   3.207   3.102  0.6953  0.4278  0.0596
 8208SOL    HW136086   2.343   3.125   3.064  1.0627  0.4204 -0.2216
 8208SOL    HW236087   2.466   3.197   3.077  1.2002  0.4889  1.9015
 8209SOL     OW36088   2.762   4.120  14.788  0.2451  0.2339 -0.0094
 8209SOL    HW136089   2.806   4.194  14.747 -1.5019  0.0807 -2.1387
 8209SOL    HW236090   2.724   4.086  14.708 -0.7863 -0.5416  0.8121
 8210SOL     OW36091   2.537   1.625   8.113  0.4941 -0.7097 -0.0243
 8210SOL    HW136092   2.608   1.598   8.171 -0.9128  1.0823  2.5524
 8210SOL    HW236093   2.462   1.594   8.164 -0.2629  2.4270  0.7903
 8211SOL     OW36094   0.131   2.398   8.315 -0.0334 -0.3581 -0.1640
 8211SOL    HW136095   0.197   2.335   8.342  0.3562  0.3110  0.4229
 8211SOL    HW236096   0.160   2.427   8.228  0.4684  1.1416  0.5034
 8212SOL     OW36097   0.290   3.973  11.694  0.1803 -0.2863  0.3559
 8212SOL    HW136098   0.285   3.910  11.766 -2.5785 -2.2888 -1.5963
 8212SOL    HW236099   0.218   3.949  11.636 -0.4642 -1.0081  1.4730
 8213SOL     OW36100   3.371   3.044   5.008  0.5001  0.1180 -0.3478
 8213SOL    HW136101   3.305   2.977   5.028  0.5475  0.4258  0.7925
 8213SOL    HW236102   3.383   3.027   4.914 -1.2052 -0.0570 -0.5384
 8214SOL     OW36103   0.276   3.190   8.112  0.1816  0.1846 -0.1077
 8214SOL    HW136104   0.246   3.262   8.167  1.3692 -0.2687  1.1244
 8214SOL    HW236105   0.353   3.231   8.071 -0.5347 -0.5245 -2.1775
 8215SOL     OW36106   3.994   1.462   7.825 -0.4769  0.0474 -0.9083
 8215SOL    HW136107   4.053   1.401   7.781 -0.5492 -0.4449 -0.3180
 8215SOL    HW236108   3.989   1.535   7.763  1.2141  0.9713  0.0264
 8216SOL     OW36109   3.132   2.082  14.068 -0.6018  0.7659 -0.0037
 8216SOL    HW136110   3.107   2.147  14.134  2.2756 -0.2852  2.1312
 8216SOL    HW236111   3.066   2.014  14.084 -0.9682  1.3284  0.9014
 8217SOL     OW36112   0.607   2.499   1.264 -0.6649  0.3894  0.0019
 8217SOL    HW136113   0.650   2.570   1.313  1.0497 -0.5698 -0.1066
 8217SOL    HW236114   0.628   2.528   1.175 -1.1557 -0.7048 -0.4615
 8218SOL     OW36115   3.261   2.261   3.211  0.1626  0.0702  0.0206
 8218SOL    HW136116   3.205   2.263   3.133  0.6906  2.1493 -0.3014
 8218SOL    HW236117   3.270   2.166   3.212 -1.2953 -0.0812 -1.1249
 8219SOL     OW36118   2.535   3.693   1.484  0.6608  0.4307  0.2071
 8219SOL    HW136119   2.558   3.764   1.425 -3.1042  1.2492 -0.2666
 8219SOL    HW236120   2.445   3.672   1.459  1.1657 -0.6849 -0.6669
 8220SOL     OW36121   3.987   1.653   2.619  0.6054 -0.3721  0.1026
 8220SOL    HW136122   3.958   1.701   2.696  0.2779 -1.9522  0.9644
 8220SOL    HW236123   4.054   1.712   2.584  2.0250 -1.4633  0.9705
 8221SOL     OW36124   1.711   4.156   3.340  0.0181  0.2232 -0.0292
 8221SOL    HW136125   1.763   4.217   3.288  1.7637 -2.2004 -1.1015
 8221SOL    HW236126   1.766   4.146   3.417 -0.8766 -0.6236  0.5082
 8222SOL     OW36127   3.096   1.708   5.930  0.1691  0.4592  0.5812
 8222SOL    HW136128   3.106   1.621   5.892 -1.9864  1.1030 -1.4103
 8222SOL    HW236129   3.041   1.741   5.859  0.3078 -1.4491 -0.4227
 8223SOL     OW36130   3.911   4.028  11.767 -0.2895 -0.3541 -0.2026
 8223SOL    HW136131   3.912   3.932  11.774 -1.1268 -0.2987  0.6149
 8223SOL    HW236132   3.955   4.045  11.683 -1.3213 -0.4593 -0.7707
 8224SOL     OW36133   0.526   3.256   2.683 -0.1685  0.0398  0.4603
 8224SOL    HW136134   0.535   3.202   2.605 -0.5955  0.4080  0.1533
 8224SOL    HW236135   0.431   3.271   2.685  0.1186  1.8056  0.3933
 8225SOL     OW36136   4.005   3.012   8.939  0.1665 -0.3359 -0.5828
 8225SOL    HW136137   3.980   3.058   8.859 -3.1144  0.0534  0.6609
 8225SOL    HW236138   4.081   3.058   8.974 -1.4383  0.2324  2.1830
 8226SOL     OW36139   2.641   1.433   6.327  0.6715 -0.1466 -0.3603
 8226SOL    HW136140   2.621   1.474   6.411  0.1639  2.0105 -1.5160
 8226SOL    HW236141   2.651   1.340   6.346 -2.8531 -0.2344  1.0245
 8227SOL     OW36142   3.765   3.500  10.794  0.9361  0.3010  0.2400
 8227SOL    HW136143   3.786   3.587  10.828  2.0517 -0.3557  1.2275
 8227SOL    HW236144   3.681   3.488  10.840  0.3707  0.8236 -0.6617
 8228SOL     OW36145   4.158   0.840   9.379  0.1466  0.8581 -0.3614
 8228SOL    HW136146   4.159   0.867   9.471  1.3330  0.4644 -0.2565
 8228SOL    HW236147   4.251   0.820   9.364  0.1465  1.3557 -1.0000
 8229SOL     OW36148   3.014   3.000   7.625 -0.3594 -0.5876  0.0077
 8229SOL    HW136149   2.992   3.032   7.712 -2.4897 -1.8701 -0.0775
 8229SOL    HW236150   2.963   2.919   7.619 -2.1640  0.4403  1.8558
 8230SOL     OW36151   1.500   0.143   7.569 -0.3059 -0.3447 -0.3991
 8230SOL    HW136152   1.513   0.133   7.663 -1.9902  4.6610  0.3430
 8230SOL    HW236153   1.414   0.186   7.572  0.7185  1.5923  0.9036
 8231SOL     OW36154   2.288   2.438   2.117  0.7918 -0.1117 -0.6252
 8231SOL    HW136155   2.265   2.512   2.061 -0.5082 -0.5529 -0.6627
 8231SOL    HW236156   2.205   2.390   2.117 -0.8049  2.6718 -0.0408
 8232SOL     OW36157   2.746   4.418   5.628 -0.0783 -0.1631  0.2660
 8232SOL    HW136158   2.732   4.485   5.694 -0.6728 -0.6024  0.5893
 8232SOL    HW236159   2.826   4.444   5.582 -1.0206  2.1630 -0.0374
 8233SOL     OW36160   2.255   2.549  16.125 -0.0400  0.2604  0.0775
 8233SOL    HW136161   2.241   2.455  16.112  0.8880  0.1904 -0.3680
 8233SOL    HW236162   2.247   2.567  16.219  0.2967 -0.9675  0.3331
 8234SOL     OW36163   1.841   2.259   2.734 -0.2829  0.7196 -0.3374
 8234SOL    HW136164   1.936   2.267   2.741  0.0407 -2.5501 -0.7775
 8234SOL    HW236165   1.823   2.297   2.820  0.4127  1.7271 -0.6405
 8235SOL     OW36166   2.224   2.402   3.694  0.7926  0.4631 -0.2887
 8235SOL    HW136167   2.175   2.484   3.704  3.1354  1.8941 -0.5301
 8235SOL    HW236168   2.157   2.348   3.652  1.4235  0.5835 -1.4440
 8236SOL     OW36169   0.906   2.044   7.487 -0.2160 -0.1554  0.5335
 8236SOL    HW136170   0.883   2.087   7.405  1.8243 -1.0820 -0.5251
 8236SOL    HW236171   0.828   2.001   7.523 -1.6361  0.1930 -2.1621
 8237SOL     OW36172   0.420   1.878   7.547 -0.2578 -0.3270 -0.1734
 8237SOL    HW136173   0.405   1.938   7.620  1.3424  0.1649 -0.2528
 8237SOL    HW236174   0.390   1.937   7.477 -0.9536 -1.4417 -0.8113
 8238SOL     OW36175   0.342   3.670   6.143  0.2343 -0.0485  0.5947
 8238SOL    HW136176   0.408   3.637   6.082  1.4105  1.1814  1.2035
 8238SOL    HW236177   0.372   3.760   6.129 -4.2696  1.1617 -1.3715
 8239SOL     OW36178   2.927   3.704   2.490 -0.2178 -0.1558  0.3160
 8239SOL    HW136179   2.854   3.712   2.428 -0.5693 -2.0643  0.4829
 8239SOL    HW236180   2.885   3.707   2.576  1.1716  0.1742  0.9830
 8240SOL     OW36181   3.979   3.362  16.632 -0.3476 -0.6906  0.6768
 8240SOL    HW136182   3.956   3.388  16.543  1.5631  0.0424  0.4187
 8240SOL    HW236183   3.988   3.446  16.676 -1.9222 -1.0371  1.6868
 8241SOL     OW36184   1.244   2.440   9.096  0.5104  0.5457 -0.6551
 8241SOL    HW136185   1.249   2.477   9.184 -1.5750  0.8527 -0.6766
 8241SOL    HW236186   1.339   2.426   9.093  0.3709 -0.2673 -1.3561
 8242SOL     OW36187   0.585   4.451   3.165  0.1503 -0.8571  0.0974
 8242SOL    HW136188   0.495   4.433   3.191  0.3967 -0.2040  1.4333
 8242SOL    HW236189   0.571   4.487   3.078 -1.0256 -2.2115 -0.2606
 8243SOL     OW36190   4.466   3.333   2.949  0.4395 -0.0942 -0.0580
 8243SOL    HW136191   4.545   3.300   2.991  0.5906 -1.1237 -1.1649
 8243SOL    HW236192   4.464   3.425   2.977  0.0713 -0.4404  1.0547
 8244SOL     OW36193   3.220   1.114   6.240  0.4057 -0.0469 -0.1153
 8244SOL    HW136194   3.220   1.194   6.187  1.2296 -1.1277 -1.7377
 8244SOL    HW236195   3.197   1.158   6.322  2.9505  1.2331 -0.0901
 8245SOL     OW36196   1.896   2.066   3.035 -0.0378  0.2321  0.4153
 8245SOL    HW136197   1.944   2.148   3.043 -0.1442  0.2507  0.8825
 8245SOL    HW236198   1.917   2.057   2.943  0.3326  1.4569  0.3805
 8246SOL     OW36199   0.746   3.156  16.905 -0.2160  0.2815  0.1236
 8246SOL    HW136200   0.834   3.188  16.886  0.2335 -0.7767  0.4032
 8246SOL    HW236201   0.711   3.197  16.825 -0.8146 -0.6642 -0.1108
 8247SOL     OW36202   4.301   3.158   1.382 -0.3924  0.2713  0.1719
 8247SOL    HW136203   4.331   3.244   1.352  0.4745 -0.5555 -1.3096
 8247SOL    HW236204   4.266   3.186   1.466  1.3922  0.3397  0.8903
 8248SOL     OW36205   3.713   3.698   4.787 -0.1169  0.7607  0.2111
 8248SOL    HW136206   3.791   3.689   4.733 -1.3732  0.6820 -1.5923
 8248SOL    HW236207   3.641   3.676   4.727 -0.0944  0.6414  0.2269
 8249SOL     OW36208   2.527   0.417  11.686 -0.0429 -0.1409  0.5735
 8249SOL    HW136209   2.435   0.393  11.689  0.1574 -0.8467  1.0703
 8249SOL    HW236210   2.508   0.510  11.681 -1.2171 -0.4224 -0.2011
 8250SOL     OW36211   0.094   0.682   5.268 -0.2149  0.0799 -0.2085
 8250SOL    HW136212   0.130   0.737   5.198  0.7998  0.2774  0.4578
 8250SOL    HW236213   0.159   0.689   5.339 -1.1405  1.0657  0.5404
 8251SOL     OW36214   0.120   3.446   6.123  0.3529  0.1049  0.1064
 8251SOL    HW136215   0.164   3.391   6.058  0.5516 -1.3987  1.4983
 8251SOL    HW236216   0.180   3.519   6.105  0.6549 -0.2476 -0.3196
 8252SOL     OW36217   0.015   3.545   1.228 -0.7682 -0.2666  0.2126
 8252SOL    HW136218   0.040   3.625   1.273 -0.5334  1.1327 -2.4443
 8252SOL    HW236219   0.064   3.549   1.146 -0.9700  0.9299  0.1610
 8253SOL     OW36220   4.596   2.142  16.115  0.6662  0.6245  0.4883
 8253SOL    HW136221   4.575   2.049  16.112  2.1263  0.3038  0.6584
 8253SOL    HW236222   4.679   2.143  16.162  1.2337 -0.7628 -0.5011
 8254SOL     OW36223   4.684   4.310  13.008  0.1413  0.2482 -0.6393
 8254SOL    HW136224   4.605   4.335  12.960  0.0399  0.0141 -0.5958
 8254SOL    HW236225   4.649   4.290  13.095  0.3414 -2.3305 -1.1656
 8255SOL     OW36226   3.570   4.051  13.604  0.1200 -0.3910  0.0156
 8255SOL    HW136227   3.563   4.030  13.510 -0.4101 -0.1821  0.0100
 8255SOL    HW236228   3.641   4.115  13.603 -1.3847  1.2631 -0.2932
 8256SOL     OW36229   1.040   0.524   3.808  0.3300  0.7113 -0.2630
 8256SOL    HW136230   1.096   0.448   3.828 -1.9889 -0.6344  1.1530
 8256SOL    HW236231   1.034   0.503   3.715 -0.2918  0.3869 -0.1512
 8257SOL     OW36232   3.524   4.121   5.960 -0.2478 -0.2989  0.3618
 8257SOL    HW136233   3.601   4.077   5.924 -0.1029  0.4702 -0.2694
 8257SOL    HW236234   3.473   4.044   5.986  0.4344  0.0657  2.7926
 8258SOL     OW36235   1.328   2.412   3.430  0.2371  0.5737 -0.6191
 8258SOL    HW136236   1.244   2.390   3.391 -0.7413  1.4728  0.9814
 8258SOL    HW236237   1.333   2.505   3.406  2.9447  0.6058  0.1103
 8259SOL     OW36238   2.910   0.623   4.665 -0.1341  0.5294  0.3996
 8259SOL    HW136239   2.979   0.579   4.617  1.2842  1.8494  1.2038
 8259SOL    HW236240   2.843   0.620   4.597 -1.2670  0.3469  1.5073
 8260SOL     OW36241   2.296   1.912   3.598 -0.5810  0.3761  0.2777
 8260SOL    HW136242   2.218   1.877   3.554  0.6604 -0.5439 -1.1885
 8260SOL    HW236243   2.258   1.929   3.685 -1.5340 -0.7997  0.0906
 8261SOL     OW36244   3.809   4.549   1.085 -0.7880  0.0145 -0.4599
 8261SOL    HW136245   3.828   4.457   1.066  2.3028  0.0864  2.2669
 8261SOL    HW236246   3.774   4.554   1.174  0.7558 -0.0768  0.1618
 8262SOL     OW36247   3.291   3.892   2.226 -0.4143 -0.0459  0.4400
 8262SOL    HW136248   3.232   3.822   2.255 -1.5422  0.7589  0.0925
 8262SOL    HW236249   3.258   3.910   2.138 -1.0481 -0.0794  0.6640
 8263SOL     OW36250   4.629   2.188   8.527 -0.1190 -0.2740  0.1704
 8263SOL    HW136251   4.701   2.127   8.539 -0.0904 -0.4465 -0.8907
 8263SOL    HW236252   4.559   2.124   8.515 -2.0921  2.1940 -1.6002
 8264SOL     OW36253   0.653   3.320   0.982 -0.1623 -0.1241 -0.2009
 8264SOL    HW136254   0.671   3.368   0.901 -0.0791 -0.3719 -0.3278
 8264SOL    HW236255   0.565   3.353   1.003 -0.0147  0.2353 -0.1522
 8265SOL     OW36256   3.619   3.860   8.236 -0.0272  0.2222  0.8571
 8265SOL    HW136257   3.563   3.792   8.274 -0.2496 -0.6611 -1.0617
 8265SOL    HW236258   3.611   3.935   8.296  0.3126 -0.5800  1.9184
 8266SOL     OW36259   1.431   2.554   9.626 -1.1646  0.4021 -0.1153
 8266SOL    HW136260   1.510   2.595   9.590 -1.4995 -0.7023 -2.1065
 8266SOL    HW236261   1.389   2.634   9.657  0.9451  0.6887  1.9694
 8267SOL     OW36262   2.026   0.744  13.718 -0.5456 -0.1285  0.6456
 8267SOL    HW136263   2.046   0.735  13.625  0.2248  1.1612  0.6876
 8267SOL    HW236264   2.046   0.654  13.745  1.5031 -0.0647 -0.7083
 8268SOL     OW36265   0.803   3.020   3.452 -0.0237  0.1038  0.0539
 8268SOL    HW136266   0.855   3.094   3.484 -0.1077  0.7338 -1.2702
 8268SOL    HW236267   0.837   3.013   3.363  0.6922 -2.1324  0.4975
 8269SOL     OW36268   1.132   2.230   4.320  0.4876 -0.2684 -0.4979
 8269SOL    HW136269   1.146   2.181   4.401  1.4239 -1.7144 -1.5320
 8269SOL    HW236270   1.097   2.312   4.355  0.3141 -1.3308  1.7475
 8270SOL     OW36271   2.079   3.040   1.396  0.0926  0.0174 -0.2023
 8270SOL    HW136272   2.020   3.040   1.321 -2.8982  1.3086  2.1597
 8270SOL    HW236273   2.118   3.127   1.392 -0.1854  0.1862  0.7417
 8271SOL     OW36274   4.116   1.068   5.664  0.2834  0.3550 -0.1761
 8271SOL    HW136275   4.147   0.982   5.693  2.4121  0.4749 -2.0232
 8271SOL    HW236276   4.202   1.109   5.654  0.4088 -0.0664 -0.8677
 8272SOL     OW36277   2.754   2.601   2.863 -0.2714  0.4407  0.0142
 8272SOL    HW136278   2.841   2.642   2.859  0.1917 -0.4587  0.9442
 8272SOL    HW236279   2.777   2.517   2.823  0.3095 -1.4850  4.3848
 8273SOL     OW36280   2.890   0.567   1.564  0.1100 -0.3650 -0.6875
 8273SOL    HW136281   2.909   0.560   1.658  3.3969 -1.4630 -1.4439
 8273SOL    HW236282   2.971   0.600   1.527 -0.0500  0.0384 -0.6781
 8274SOL     OW36283   0.890   2.548  11.390 -0.4714 -0.1194  0.0379
 8274SOL    HW136284   0.967   2.520  11.440 -0.7257 -0.7071  0.1028
 8274SOL    HW236285   0.852   2.460  11.382 -1.3487  0.0091  2.6922
 8275SOL     OW36286   2.549   1.943   6.322  0.0963 -0.1617  0.4976
 8275SOL    HW136287   2.585   2.012   6.266  1.9190 -1.1188  0.4547
 8275SOL    HW236288   2.456   1.943   6.303  0.0047  1.0823  0.9908
 8276SOL     OW36289   0.351   4.449   4.197 -0.3613  0.2538 -0.2135
 8276SOL    HW136290   0.394   4.528   4.165  0.3062 -0.3403 -0.7902
 8276SOL    HW236291   0.410   4.420   4.266 -0.9868 -0.0767  0.1820
 8277SOL     OW36292   4.115   0.402   2.474 -0.6658  0.4582  0.2624
 8277SOL    HW136293   4.057   0.423   2.401 -0.4626 -0.1662 -0.0790
 8277SOL    HW236294   4.174   0.341   2.429  0.7554 -0.0381  2.7914
 8278SOL     OW36295   4.237   0.993   8.440 -0.0722  0.3238 -0.1388
 8278SOL    HW136296   4.221   1.078   8.481  1.2214  1.1677 -1.3545
 8278SOL    HW236297   4.155   0.946   8.452  1.1065 -1.4423  0.8622
 8279SOL     OW36298   0.186   3.897   7.703 -0.5196  0.0715  0.1431
 8279SOL    HW136299   0.254   3.919   7.640 -2.7419 -0.5652 -2.4998
 8279SOL    HW236300   0.183   3.803   7.687 -0.3126  0.1069 -0.0959
 8280SOL     OW36301   3.578   2.870   7.931  0.0595 -0.1984  0.1778
 8280SOL    HW136302   3.633   2.811   7.984  2.2026  0.6031 -1.1755
 8280SOL    HW236303   3.642   2.908   7.872 -1.9457  0.6827 -1.3970
 8281SOL     OW36304   3.995   2.958   7.677  0.2904 -0.5268  0.2077
 8281SOL    HW136305   3.991   2.981   7.584 -0.2753  0.7543  0.5513
 8281SOL    HW236306   3.940   2.880   7.684  0.5383 -0.7434 -0.2520
 8282SOL     OW36307   2.876   3.627   4.405 -0.6911  0.3400  0.4863
 8282SOL    HW136308   2.829   3.572   4.342 -1.7587  0.5073  1.1572
 8282SOL    HW236309   2.903   3.700   4.349 -1.2937  1.1570  1.2648
 8283SOL     OW36310   0.144   0.929   2.616 -0.3924 -0.0026  0.5423
 8283SOL    HW136311   0.063   0.888   2.583 -1.2691  1.7741  0.5248
 8283SOL    HW236312   0.129   1.017   2.582  0.0971  0.1371  0.6986
 8284SOL     OW36313   4.433   4.360   6.942  0.1268  0.5348  0.0016
 8284SOL    HW136314   4.459   4.355   7.034 -0.2763  3.8607  0.2962
 8284SOL    HW236315   4.456   4.452   6.929  0.1088  0.2311 -2.2020
 8285SOL     OW36316   2.158   4.564   4.977 -0.5072  0.0907  0.0571
 8285SOL    HW136317   2.148   4.483   5.026  1.0534  0.1477  0.4580
 8285SOL    HW236318   2.066   4.574   4.951 -0.2637 -0.1244 -0.8835
 8286SOL     OW36319   0.136   4.692   6.551  0.8352  0.4298 -0.0365
 8286SOL    HW136320   0.173   4.606   6.571  0.0719  0.7976  2.9957
 8286SOL    HW236321   0.132   0.003   6.640 -0.2898  1.7328 -0.6115
 8287SOL     OW36322   2.548   4.251   1.808 -0.1609 -0.4863  0.1618
 8287SOL    HW136323   2.499   4.283   1.884  1.3013  0.9144  0.5185
 8287SOL    HW236324   2.485   4.189   1.771 -0.0435  0.2883 -1.3208
 8288SOL     OW36325   2.478   2.475  12.037 -0.1166 -0.1508  0.2011
 8288SOL    HW136326   2.510   2.512  12.119 -2.4199  3.0361 -0.3639
 8288SOL    HW236327   2.506   2.545  11.979  1.0239 -0.1676  0.7261
 8289SOL     OW36328   3.888   0.880  15.035 -0.6194 -0.8061  0.3037
 8289SOL    HW136329   3.840   0.961  15.053 -0.1450 -0.4881  0.1201
 8289SOL    HW236330   3.848   0.849  14.953 -2.7644  0.5832  0.8295
 8290SOL     OW36331   2.790   2.269   0.743 -0.0433  0.1815 -0.3608
 8290SOL    HW136332   2.883   2.249   0.742 -0.2674 -0.7161 -2.3936
 8290SOL    HW236333   2.795   2.327   0.819 -2.8981 -1.2439  0.8908
 8291SOL     OW36334   4.543   0.929   2.795 -0.0773  0.1431 -0.2519
 8291SOL    HW136335   4.452   0.901   2.784  0.0093  0.1649 -1.0326
 8291SOL    HW236336   4.566   0.943   2.704  2.2514 -1.0292  0.1709
 8292SOL     OW36337   0.728   0.395   5.503  0.1190 -0.6392 -0.3375
 8292SOL    HW136338   0.669   0.469   5.513  2.0218  0.6451  1.2260
 8292SOL    HW236339   0.679   0.313   5.513 -1.4108  0.4008  0.7736
 8293SOL     OW36340   3.468   0.023  11.211  0.1509  0.0566  0.0007
 8293SOL    HW136341   3.521   4.670  11.199  0.5531  0.3650 -0.2341
 8293SOL    HW236342   3.517   0.078  11.272  0.2362 -2.1520  1.9067
 8294SOL     OW36343   0.642   0.548  17.155 -0.5886 -0.2448  0.7641
 8294SOL    HW136344   0.594   0.626  17.185 -0.1950  0.1329  0.4109
 8294SOL    HW236345   0.731   0.581  17.147 -0.7615  0.3321  1.1738
 8295SOL     OW36346   2.054   2.812   3.020  0.5001  0.1965 -0.1356
 8295SOL    HW136347   1.995   2.738   3.006 -2.3275  1.9997  2.2250
 8295SOL    HW236348   2.005   2.881   3.064  0.6548 -1.2307  2.2973
 8296SOL     OW36349   1.259   1.878  13.270 -0.2525 -0.1266 -0.3325
 8296SOL    HW136350   1.339   1.906  13.314  0.0926 -0.1054 -0.9780
 8296SOL    HW236351   1.285   1.800  13.222  2.6602  0.9253 -0.4503
 8297SOL     OW36352   1.108   2.091   1.038 -0.7238  0.5796 -0.0079
 8297SOL    HW136353   1.139   2.107   0.949 -0.2506 -0.8715 -0.1002
 8297SOL    HW236354   1.185   2.085   1.095  1.2362  2.2338 -2.4957
 8298SOL     OW36355   0.500   4.033  14.990 -0.0454  0.8004  0.1456
 8298SOL    HW136356   0.491   4.057  14.898  0.2077 -0.0587 -0.1079
 8298SOL    HW236357   0.465   4.116  15.022  1.6928  1.2636  0.8713
 8299SOL     OW36358   3.694   2.369   3.749  0.1549  0.3580 -0.6230
 8299SOL    HW136359   3.619   2.381   3.808 -0.5958 -3.0475 -0.8448
 8299SOL    HW236360   3.661   2.287   3.711 -1.9652 -0.2351  2.4792
 8300SOL     OW36361   4.115   2.265   4.647 -0.2811  0.2380 -0.3301
 8300SOL    HW136362   4.204   2.274   4.611  0.1959  0.1359  0.8338
 8300SOL    HW236363   4.117   2.185   4.698  0.1638  0.0761 -0.5981
 8301SOL     OW36364   3.953   4.368   3.580  0.9357  0.4498 -0.2396
 8301SOL    HW136365   3.882   4.305   3.570  0.0983  1.5242 -1.0910
 8301SOL    HW236366   3.910   4.446   3.616 -2.0201  0.1302 -3.1263
 8302SOL     OW36367   3.671   0.538   4.451  0.1345 -0.1484  0.0459
 8302SOL    HW136368   3.587   0.500   4.478  0.2199  1.2803  2.2952
 8302SOL    HW236369   3.733   0.466   4.464 -1.2803 -1.5160 -0.7815
 8303SOL     OW36370   2.102   2.367  16.680 -0.4561  0.2982  0.1775
 8303SOL    HW136371   2.064   2.363  16.593 -0.0869 -1.8130  0.1164
 8303SOL    HW236372   2.149   2.284  16.687 -0.7049  0.2175  0.9862
 8304SOL     OW36373   0.728   4.439   7.674 -0.6994  0.1434 -0.7522
 8304SOL    HW136374   0.737   4.424   7.768  0.3985 -1.1134 -1.0555
 8304SOL    HW236375   0.812   4.413   7.635  0.6601  1.9835  0.9065
 8305SOL     OW36376   2.215   0.809  15.634  0.3517  0.6264 -0.2267
 8305SOL    HW136377   2.283   0.760  15.588  3.0930  3.0635  1.2200
 8305SOL    HW236378   2.255   0.826  15.719  0.7807  0.4303 -0.3861
 8306SOL     OW36379   4.408   0.005   1.665 -0.4266  0.0042 -0.2062
 8306SOL    HW136380   4.387   4.678   1.742 -0.5716  1.0121  0.4483
 8306SOL    HW236381   4.321   0.040   1.648 -1.0318 -1.5847 -0.3779
 8307SOL     OW36382   0.227   1.503   0.455 -0.0923  0.0207  0.0710
 8307SOL    HW136383   0.214   1.410   0.440  3.1201 -0.4668  0.3044
 8307SOL    HW236384   0.317   1.514   0.426  0.8218  0.0020  2.8329
 8308SOL     OW36385   0.485   4.180  13.493 -0.1606  0.4262 -0.1411
 8308SOL    HW136386   0.496   4.268  13.457  0.6815  0.6382  0.6311
 8308SOL    HW236387   0.392   4.171  13.472  0.2355 -2.6788 -0.6193
 8309SOL     OW36388   0.601   2.140   2.811  0.0791 -0.1334 -0.4557
 8309SOL    HW136389   0.662   2.191   2.865 -2.3083  0.0584  2.0254
 8309SOL    HW236390   0.581   2.199   2.738  0.6709 -2.7961 -2.7677
 8310SOL     OW36391   4.262   3.213   7.291 -0.0115 -0.2852  0.4496
 8310SOL    HW136392   4.217   3.170   7.218 -0.0259  1.8653 -0.7930
 8310SOL    HW236393   4.219   3.297   7.308 -0.8329  0.0473 -3.1536
 8311SOL     OW36394   3.505   1.495  16.125  0.4392  0.1282  0.2469
 8311SOL    HW136395   3.427   1.549  16.112  2.1710  2.2185 -1.4788
 8311SOL    HW236396   3.528   1.478  16.034 -1.5908  0.1160 -0.2614
 8312SOL     OW36397   0.287   1.098   4.409 -0.1094  0.2753 -0.2497
 8312SOL    HW136398   0.227   1.068   4.477  0.5609 -0.6325 -0.0670
 8312SOL    HW236399   0.361   1.143   4.448 -0.6368  0.9675 -0.0458
 8313SOL     OW36400   1.600   1.685   8.495 -0.2308 -0.2600  0.2824
 8313SOL    HW136401   1.559   1.612   8.542  0.2988  1.4100  3.3059
 8313SOL    HW236402   1.649   1.638   8.428 -2.1137 -1.2296 -0.4233
 8314SOL     OW36403   2.247   3.318   1.209 -0.4555  0.1035  0.0110
 8314SOL    HW136404   2.234   3.328   1.304  0.1430 -1.1084  0.2297
 8314SOL    HW236405   2.299   3.237   1.214 -0.2038  0.3087  0.7578
 8315SOL     OW36406   2.455   1.310  15.984 -0.3389  0.5633  0.5027
 8315SOL    HW136407   2.360   1.306  15.994 -0.4154  1.2156 -0.0176
 8315SOL    HW236408   2.487   1.398  15.966  2.7625  0.0376  3.3529
 8316SOL     OW36409   2.149   3.546   0.777 -0.5374 -0.0778 -0.6927
 8316SOL    HW136410   2.134   3.535   0.871  1.1826 -2.2907 -0.6857
 8316SOL    HW236411   2.144   3.459   0.738 -0.6442 -0.2989 -0.1819
 8317SOL     OW36412   4.085   1.277  15.146  0.0850  0.1690  0.1168
 8317SOL    HW136413   4.081   1.266  15.051  0.4376 -1.0586  0.2407
 8317SOL    HW236414   4.006   1.327  15.168 -0.4575 -0.9272  0.6707
 8318SOL     OW36415   0.795   4.341   7.959  0.0355 -0.2907  0.0194
 8318SOL    HW136416   0.730   4.320   8.026 -0.6599  0.5635 -0.3891
 8318SOL    HW236417   0.868   4.288   7.992  0.3632  0.4058  0.4044
 8319SOL     OW36418   0.089   1.322   6.250 -0.0659  0.2205 -0.0020
 8319SOL    HW136419   0.122   1.296   6.336  0.4785 -2.0393 -0.8974
 8319SOL    HW236420   0.166   1.365   6.212 -0.3154  0.5487 -0.1354
 8320SOL     OW36421   0.114   2.374  15.789  0.0286 -0.0230 -0.3269
 8320SOL    HW136422   0.090   2.466  15.793  0.3881 -0.0384  2.1416
 8320SOL    HW236423   0.027   2.334  15.793  0.1561 -0.1232  1.3045
 8321SOL     OW36424   0.706   2.406  14.362 -0.3257 -0.2285 -0.2819
 8321SOL    HW136425   0.729   2.465  14.433  1.9659  0.2292 -1.4063
 8321SOL    HW236426   0.618   2.378  14.389 -0.3659 -1.1835 -1.3953
 8322SOL     OW36427   2.611   2.465  13.684  0.1126  0.4742 -0.2011
 8322SOL    HW136428   2.564   2.383  13.671 -1.5366  1.4679 -0.5048
 8322SOL    HW236429   2.551   2.534  13.655  0.1487  1.4855  2.0969
 8323SOL     OW36430   4.356   1.380   2.561 -0.3104  0.6607  0.0845
 8323SOL    HW136431   4.426   1.380   2.495 -2.0207 -0.7990 -1.7280
 8323SOL    HW236432   4.399   1.414   2.640 -0.6057 -1.2899  1.0739
 8324SOL     OW36433   2.994   0.814   2.098 -0.6319 -0.4398  0.2735
 8324SOL    HW136434   2.993   0.727   2.059  1.5563 -1.1336  1.7808
 8324SOL    HW236435   2.923   0.872   2.069 -0.1829  0.0804  0.2144
 8325SOL     OW36436   2.086   3.763  13.934  0.0291  0.0394  0.2366
 8325SOL    HW136437   2.088   3.855  13.906  1.2579  0.0555  0.3792
 8325SOL    HW236438   2.179   3.748  13.948  0.3582  1.6824 -0.1570
 8326SOL     OW36439   2.717   1.008   7.126 -0.0641 -0.0754 -0.1385
 8326SOL    HW136440   2.780   0.937   7.138 -0.1239 -0.2780 -1.0676
 8326SOL    HW236441   2.670   1.010   7.210  2.5136  0.2774  1.2957
 8327SOL     OW36442   3.302   2.557   8.808 -0.1977 -0.0034  0.2496
 8327SOL    HW136443   3.260   2.599   8.733 -3.9279 -1.3803  1.5978
 8327SOL    HW236444   3.221   2.522   8.845 -0.1959 -0.0811  0.1804
 8328SOL     OW36445   1.049   2.146   7.740  0.0814  0.1070 -0.3890
 8328SOL    HW136446   0.986   2.216   7.758  1.0713  0.2519  2.4789
 8328SOL    HW236447   1.007   2.110   7.662 -4.4010  1.1047  1.5685
 8329SOL     OW36448   0.000   3.849   2.915 -0.1575 -1.0774 -0.6399
 8329SOL    HW136449   0.081   3.801   2.935 -0.9290 -0.1914  4.4844
 8329SOL    HW236450   4.674   3.780   2.873  0.2853 -2.0018  0.3537
 8330SOL     OW36451   1.550   1.318   2.681  0.3350 -0.1961 -0.1545
 8330SOL    HW136452   1.461   1.298   2.711 -0.2886 -0.2616 -2.0268
 8330SOL    HW236453   1.603   1.293   2.757 -3.1903  2.5031  3.2060
 8331SOL     OW36454   0.251   0.730   5.465  0.7237 -0.5168  0.8631
 8331SOL    HW136455   0.332   0.780   5.466  0.3832  0.0666 -0.5844
 8331SOL    HW236456   0.239   0.733   5.560 -0.8836 -1.6079  0.7111
 8332SOL     OW36457   0.068   0.315   5.374 -0.0509  0.8044 -0.0582
 8332SOL    HW136458   0.162   0.307   5.354  0.0918 -0.0618  0.9783
 8332SOL    HW236459   0.055   0.270   5.457  0.6680 -1.3148 -1.1052
 8333SOL     OW36460   1.445   3.291   9.277  0.2029  0.0781 -0.2558
 8333SOL    HW136461   1.526   3.280   9.327  0.4949  0.0074 -0.7439
 8333SOL    HW236462   1.399   3.213   9.310 -0.6959  0.1145 -1.4472
 8334SOL     OW36463   1.844   2.063   6.627  0.0593  0.2927  0.0360
 8334SOL    HW136464   1.886   2.038   6.710  0.5768  0.2914 -0.2298
 8334SOL    HW236465   1.829   2.157   6.636 -0.2536  0.4509 -2.2632
 8335SOL     OW36466   0.455   2.349   0.675  0.4164 -0.2665 -0.0256
 8335SOL    HW136467   0.466   2.283   0.744  0.5104 -0.8882 -0.6299
 8335SOL    HW236468   0.369   2.386   0.693  0.6075  0.2789 -0.2308
 8336SOL     OW36469   2.040   4.137   7.205 -0.4232  0.2246  0.6770
 8336SOL    HW136470   2.011   4.164   7.118  1.5762  0.5753  0.1351
 8336SOL    HW236471   1.990   4.056   7.217 -0.6326  0.4357  1.2358
 8337SOL     OW36472   2.534   1.950  12.231 -0.3433  0.3684 -0.0184
 8337SOL    HW136473   2.602   1.887  12.257  0.4457  2.2037  2.3559
 8337SOL    HW236474   2.558   1.957  12.138 -1.8773  0.4837 -0.4043
 8338SOL     OW36475   3.874   4.281   1.630 -0.5152  0.1578  0.0725
 8338SOL    HW136476   3.824   4.301   1.710 -0.3164  0.3100  0.1573
 8338SOL    HW236477   3.959   4.261   1.668  0.4069  1.6843 -1.2195
 8339SOL     OW36478   2.658   3.267   0.938 -0.5058  0.0155 -0.2580
 8339SOL    HW136479   2.702   3.283   1.022 -0.1873  0.8485 -0.5761
 8339SOL    HW236480   2.567   3.270   0.966 -0.9942  0.6328 -1.9160
 8340SOL     OW36481   2.035   0.247   3.922  0.3545  0.7374  0.3477
 8340SOL    HW136482   1.940   0.255   3.908  0.7593  2.5670 -1.3533
 8340SOL    HW236483   2.040   0.182   3.992 -0.5093 -0.7198 -0.9312
 8341SOL     OW36484   3.583   1.586   0.828  0.1694  0.1343 -0.2320
 8341SOL    HW136485   3.537   1.622   0.905 -1.3897 -0.2466 -0.9741
 8341SOL    HW236486   3.624   1.507   0.862 -1.0588 -0.6915 -0.6784
 8342SOL     OW36487   3.578   1.291   8.399  0.0863 -0.4579  0.2186
 8342SOL    HW136488   3.586   1.250   8.485 -0.7520  1.6212  1.2782
 8342SOL    HW236489   3.534   1.232   8.337  0.5462  2.2834 -2.7094
 8343SOL     OW36490   2.407   3.671  14.651 -0.4756 -0.4715  0.2708
 8343SOL    HW136491   2.403   3.765  14.634 -1.4701 -0.5003  0.3357
 8343SOL    HW236492   2.341   3.663  14.719 -0.3902 -2.4727  0.1012
 8344SOL     OW36493   0.943   2.217   5.627  0.0350  0.0293 -0.0745
 8344SOL    HW136494   0.882   2.251   5.562 -0.4513 -0.3838  0.1648
 8344SOL    HW236495   0.890   2.237   5.705  0.4894  0.0696  0.2265
 8345SOL     OW36496   3.577   1.805  15.136 -0.3382  0.5228  0.0501
 8345SOL    HW136497   3.532   1.852  15.206 -0.9461  2.2350 -1.4983
 8345SOL    HW236498   3.518   1.811  15.061 -0.3518  0.4436  0.0550
 8346SOL     OW36499   3.542   0.327   9.261 -0.9473 -0.0802 -0.2232
 8346SOL    HW136500   3.462   0.376   9.281 -0.7618  0.0079  0.2972
 8346SOL    HW236501   3.593   0.398   9.222  0.7080 -0.1333  1.8532
 8347SOL     OW36502   0.079   1.567   3.376 -0.3538  0.1315  0.0605
 8347SOL    HW136503   0.030   1.632   3.425 -1.8031 -1.4780  0.7234
 8347SOL    HW236504   0.008   1.507   3.355  0.6242  0.1550 -3.3992
 8348SOL     OW36505   0.349   2.118  16.863  0.4261  0.1824  0.3274
 8348SOL    HW136506   0.315   2.172  16.935  0.0314 -1.7172  1.5739
 8348SOL    HW236507   0.440   2.124  16.891  0.3016  0.4017  0.6912
 8349SOL     OW36508   1.819   1.214  12.505  0.2671 -0.0575  0.1421
 8349SOL    HW136509   1.746   1.160  12.534 -0.9696  1.6602  0.2776
 8349SOL    HW236510   1.880   1.141  12.501  1.0591  0.5403  1.5634
 8350SOL     OW36511   4.720   4.039   9.461  0.0742 -0.3041  0.6686
 8350SOL    HW136512   0.004   4.133   9.475 -1.4054 -0.0410 -0.0681
 8350SOL    HW236513   4.626   4.034   9.477  0.2253 -0.2783  1.5808
 8351SOL     OW36514   0.917   1.449   9.651  0.4449  0.2510  0.5028
 8351SOL    HW136515   0.886   1.364   9.618 -1.0011  0.4676  1.3335
 8351SOL    HW236516   0.843   1.471   9.706 -0.2059 -2.8629  0.8678
 8352SOL     OW36517   3.004   2.960  10.400  0.1455 -0.0934 -0.9264
 8352SOL    HW136518   2.955   2.927  10.325 -2.0046  2.7228 -0.7456
 8352SOL    HW236519   2.944   2.948  10.473  1.0595 -2.3841 -0.5467
 8353SOL     OW36520   0.884   0.744  16.231 -0.3277 -0.0904 -0.7308
 8353SOL    HW136521   0.908   0.823  16.279 -1.2513 -0.5108  0.4301
 8353SOL    HW236522   0.790   0.725  16.236 -0.4225  0.4381 -0.5320
 8354SOL     OW36523   0.597   3.754   0.725  0.1547 -0.5963  0.1013
 8354SOL    HW136524   0.594   3.813   0.649 -3.1904  1.0974  1.5171
 8354SOL    HW236525   0.660   3.796   0.782 -0.9680 -1.4253  1.9351
 8355SOL     OW36526   3.618   2.412   7.387 -0.7625  0.2241  0.2946
 8355SOL    HW136527   3.668   2.488   7.417 -0.5655 -0.1674  0.9411
 8355SOL    HW236528   3.537   2.425   7.436 -0.8331 -1.2457  0.5711
 8356SOL     OW36529   3.620   1.091   3.310 -0.3927 -0.3618 -0.1420
 8356SOL    HW136530   3.635   1.035   3.234  0.9400 -1.0175  0.5990
 8356SOL    HW236531   3.628   1.179   3.275  0.3504  0.1177  1.2220
 8357SOL     OW36532   0.865   0.682  17.053  0.3882  0.0171  0.6051
 8357SOL    HW136533   0.871   0.707  16.961 -1.9869 -2.8308 -0.3396
 8357SOL    HW236534   0.928   0.610  17.051  0.4719  0.1053 -0.0111
 8358SOL     OW36535   1.769   3.208   2.151 -0.0788  0.1214  0.2928
 8358SOL    HW136536   1.706   3.181   2.218  0.1840 -1.8451 -0.2424
 8358SOL    HW236537   1.719   3.278   2.108  0.7245  0.3637 -0.2366
 8359SOL     OW36538   2.581   4.218   6.683 -0.0991 -0.1115 -0.3051
 8359SOL    HW136539   2.592   4.216   6.588  0.6213  1.1455 -0.2554
 8359SOL    HW236540   2.529   4.297   6.700 -0.5906 -0.9790  2.2150
 8360SOL     OW36541   3.010   1.290   4.498 -0.2012 -0.2871 -0.1339
 8360SOL    HW136542   3.073   1.272   4.427  5.5776  1.1327  4.6295
 8360SOL    HW236543   2.949   1.352   4.459 -2.0973 -1.6261  0.7389
 8361SOL     OW36544   1.253   3.290   4.060  0.3215  0.2033 -0.3568
 8361SOL    HW136545   1.195   3.216   4.041  2.6989 -1.4121 -1.3960
 8361SOL    HW236546   1.264   3.282   4.154  0.5537 -0.4832 -0.4373
 8362SOL     OW36547   0.860   2.407   6.386 -0.1838 -0.0930  0.0019
 8362SOL    HW136548   0.899   2.354   6.316 -1.5436  0.7559 -1.3798
 8362SOL    HW236549   0.768   2.387   6.366 -0.2443 -0.6792  0.8422
 8363SOL     OW36550   1.503   0.789   6.857  0.2723  0.7097  0.2006
 8363SOL    HW136551   1.469   0.801   6.768  0.0653  0.3364  0.2284
 8363SOL    HW236552   1.598   0.779   6.848 -0.0218 -1.0718 -0.8880
 8364SOL     OW36553   2.389   4.268   6.911 -0.1409  0.6171 -0.1424
 8364SOL    HW136554   2.461   4.313   6.867  1.2996 -1.3461  0.1729
 8364SOL    HW236555   2.324   4.338   6.911 -1.4278 -0.5799  0.9098
 8365SOL     OW36556   3.780   0.945   6.385 -0.0864 -0.4806  0.2713
 8365SOL    HW136557   3.740   0.859   6.400 -2.7440  0.6688 -0.2067
 8365SOL    HW236558   3.818   0.931   6.299  0.2767  1.0032  0.1799
 8366SOL     OW36559   1.620   2.124   3.069  0.1742  0.0742 -0.1112
 8366SOL    HW136560   1.577   2.045   3.036 -2.3523  1.4370 -0.1346
 8366SOL    HW236561   1.712   2.109   3.050  0.7378 -0.2633  2.8600
 8367SOL     OW36562   3.766   4.069   3.373  0.3893  0.3595 -0.0072
 8367SOL    HW136563   3.844   4.066   3.318 -0.1088 -0.2454 -0.6885
 8367SOL    HW236564   3.714   4.141   3.337  0.8855  0.1553 -1.1372
 8368SOL     OW36565   0.912   4.397   1.395  0.7014  0.2763 -0.2701
 8368SOL    HW136566   0.866   4.415   1.313  0.2769  0.6254  0.0497
 8368SOL    HW236567   0.848   4.437   1.453  0.0473 -1.8355  0.4129
 8369SOL     OW36568   3.187   0.092   7.235 -0.3776  0.1728  0.0085
 8369SOL    HW136569   3.276   0.125   7.222 -1.3468  1.2621 -3.7290
 8369SOL    HW236570   3.192   0.043   7.152 -0.7766 -1.4916  0.9578
 8370SOL     OW36571   2.124   2.251   4.275  0.2262 -0.5396  0.1734
 8370SOL    HW136572   2.039   2.210   4.257  1.1682 -2.7501  0.8424
 8370SOL    HW236573   2.128   2.217   4.365  2.1908 -2.4200 -0.6557
 8371SOL     OW36574   3.896   1.674   5.452  0.2867 -0.0394 -0.3950
 8371SOL    HW136575   3.960   1.610   5.483 -0.2898 -1.1240 -1.4472
 8371SOL    HW236576   3.814   1.641   5.490 -0.1261 -1.0191 -2.1369
 8372SOL     OW36577   0.417   2.101  16.153 -0.4027 -0.2676  0.1076
 8372SOL    HW136578   0.345   2.076  16.211  1.2703 -2.5456  1.1860
 8372SOL    HW236579   0.446   2.184  16.190 -2.8523  0.0719  1.2615
 8373SOL     OW36580   4.364   0.826   0.265  0.0005  0.4261  0.3231
 8373SOL    HW136581   4.441   0.881   0.250 -0.8575  1.0508 -1.7914
 8373SOL    HW236582   4.306   0.856   0.196  1.8752  0.3004 -1.3071
 8374SOL     OW36583   4.077   1.236   8.423 -0.1162 -0.1413 -0.1284
 8374SOL    HW136584   4.024   1.222   8.501 -1.7031 -1.0513 -1.3742
 8374SOL    HW236585   4.006   1.250   8.360 -2.2906 -0.1910  2.3648
 8375SOL     OW36586   3.054   2.833   5.633 -0.0479 -0.1027 -0.5394
 8375SOL    HW136587   2.993   2.905   5.652 -1.6841 -1.5447 -0.3276
 8375SOL    HW236588   3.109   2.853   5.557  0.0090 -0.0685 -0.4887
 8376SOL     OW36589   4.514   0.439   9.844 -0.3312  0.1558 -0.1377
 8376SOL    HW136590   4.553   0.381   9.778 -1.4546  0.3982 -1.0045
 8376SOL    HW236591   4.461   0.371   9.886 -0.7331 -1.6408 -3.5965
 8377SOL     OW36592   3.532   0.802   9.609  0.0001 -0.6425 -0.2135
 8377SOL    HW136593   3.504   0.886   9.646 -1.9493 -0.7127 -1.4747
 8377SOL    HW236594   3.493   0.744   9.675 -1.7373 -0.7261 -1.3021
 8378SOL     OW36595   3.901   1.278   4.448 -0.3644  0.4350  0.1489
 8378SOL    HW136596   3.899   1.313   4.536 -0.5270  0.1384  0.2631
 8378SOL    HW236597   3.977   1.329   4.421 -0.9938  0.0905 -2.2956
 8379SOL     OW36598   2.299   3.299   2.533 -0.3163  0.0458 -0.0117
 8379SOL    HW136599   2.214   3.279   2.572 -1.5641 -0.5174 -3.0142
 8379SOL    HW236600   2.329   3.219   2.492 -2.4225  0.0111 -1.4964
 8380SOL     OW36601   0.947   1.704   6.478  0.3221 -0.0255  0.1353
 8380SOL    HW136602   0.869   1.695   6.423  1.3953 -2.8469 -0.9290
 8380SOL    HW236603   0.959   1.610   6.494 -0.9884 -0.4189 -1.2181
 8381SOL     OW36604   4.454   4.621  16.240  0.0280 -0.1544  0.4892
 8381SOL    HW136605   4.504   4.663  16.170  1.7083  0.9931  2.3890
 8381SOL    HW236606   4.410   4.556  16.186 -0.9662  0.6005  0.3856
 8382SOL     OW36607   0.791   3.312  10.394 -0.0347 -0.0195  0.3117
 8382SOL    HW136608   0.819   3.382  10.453  0.2774 -1.5119  1.9289
 8382SOL    HW236609   0.709   3.352  10.364  0.1371 -0.2059 -0.3888
 8383SOL     OW36610   2.129   0.619  16.008 -0.1235  0.0880  0.2184
 8383SOL    HW136611   2.204   0.560  16.000 -1.0882 -1.1940  0.6730
 8383SOL    HW236612   2.073   0.574  15.945  1.2404 -0.1234 -0.8606
 8384SOL     OW36613   0.412   4.288  14.877 -0.0289  0.4875  0.1507
 8384SOL    HW136614   0.429   4.381  14.891 -0.3087  0.3353  1.4330
 8384SOL    HW236615   0.339   4.289  14.815  0.4986  1.3439 -0.4538
 8385SOL     OW36616   1.778   1.361  17.551 -0.1224  0.0533 -0.4977
 8385SOL    HW136617   1.819   1.356  17.465  2.0369 -1.3432  0.5929
 8385SOL    HW236618   1.800   1.275  17.587 -1.2009  0.7684  1.8573
 8386SOL     OW36619   0.106   4.044   2.664 -0.0524 -0.2742 -0.5495
 8386SOL    HW136620   0.018   4.009   2.679  0.3069 -0.7498  0.4191
 8386SOL    HW236621   0.151   3.960   2.655 -1.6906 -1.0846 -1.2264
 8387SOL     OW36622   2.033   1.743  11.597  0.2854  0.4271 -0.9299
 8387SOL    HW136623   2.090   1.666  11.583  1.0758  0.3897  2.4940
 8387SOL    HW236624   2.039   1.782  11.510  2.6387  0.6535 -0.6747
 8388SOL     OW36625   4.383   2.872   5.438  0.2423  0.6278 -0.1947
 8388SOL    HW136626   4.320   2.881   5.509  1.9352  0.1728  1.3758
 8388SOL    HW236627   4.429   2.950   5.470  2.5019 -1.1644  0.9551
 8389SOL     OW36628   2.192   0.762   2.975 -0.0339  0.0853 -0.4966
 8389SOL    HW136629   2.207   0.668   2.972 -0.8141 -0.0156 -1.2070
 8389SOL    HW236630   2.180   0.775   2.881  0.5652 -1.8595 -0.8462
 8390SOL     OW36631   0.479   2.209   0.436 -0.2465  0.1183 -0.3249
 8390SOL    HW136632   0.467   2.275   0.504  0.0010 -0.4329  0.2558
 8390SOL    HW236633   0.568   2.178   0.452 -0.2257  1.3980  2.0852
 8391SOL     OW36634   1.772   3.662   1.556 -0.0778 -0.4672  0.0520
 8391SOL    HW136635   1.837   3.684   1.623  1.0121 -0.8320 -0.8870
 8391SOL    HW236636   1.752   3.750   1.525 -1.3320 -1.4667 -1.9344
 8392SOL     OW36637   1.962   4.061   6.491 -0.0912 -0.0160 -0.0943
 8392SOL    HW136638   1.910   4.140   6.479  0.0786  0.0345 -0.5153
 8392SOL    HW236639   2.049   4.099   6.506  0.8162 -0.9054 -3.1048
 8393SOL     OW36640   3.100   1.592  12.815 -0.2634  0.0148 -0.4646
 8393SOL    HW136641   3.012   1.609  12.782  0.2722  1.9437 -0.9261
 8393SOL    HW236642   3.092   1.586  12.910 -0.1869 -1.2266 -0.5305
 8394SOL     OW36643   0.119   2.011  16.206  0.6009  0.2057 -0.1266
 8394SOL    HW136644   0.111   1.960  16.125  0.9617 -0.4653  0.2604
 8394SOL    HW236645   0.103   1.949  16.277 -1.9704 -0.2577 -1.0971
 8395SOL     OW36646   0.619   4.692   7.680 -0.1618 -0.1489  0.8074
 8395SOL    HW136647   0.627   4.597   7.689 -0.1202 -0.0549  1.8355
 8395SOL    HW236648   0.566   4.706   7.759 -0.5227  0.6312  0.4273
 8396SOL     OW36649   3.973   0.754   6.583  0.0670 -0.0059 -0.2721
 8396SOL    HW136650   3.981   0.661   6.606  1.1043  0.4442  1.1803
 8396SOL    HW236651   3.996   0.745   6.490  0.4168  3.2023 -0.4931
 8397SOL     OW36652   0.578   1.679   4.150 -0.0585 -0.2257  0.3055
 8397SOL    HW136653   0.665   1.639   4.158 -0.9557 -2.0567  0.6898
 8397SOL    HW236654   0.514   1.609   4.142 -0.0156 -0.1962 -0.2784
 8398SOL     OW36655   0.537   3.457   4.298  0.0050  0.4620  0.2284
 8398SOL    HW136656   0.473   3.525   4.278 -1.1195 -0.4618  0.6756
 8398SOL    HW236657   0.616   3.509   4.311  1.1690 -0.9768 -1.0489
 8399SOL     OW36658   0.533   2.823  11.907  0.4098 -0.1270  0.1400
 8399SOL    HW136659   0.591   2.881  11.958  0.2540 -1.1745  1.4974
 8399SOL    HW236660   0.523   2.882  11.832  0.6021 -1.4481 -0.9221
 8400SOL     OW36661   0.069   3.927   7.408 -0.1231 -0.2202 -0.2487
 8400SOL    HW136662   0.002   3.897   7.346  1.0198 -4.3749  0.5558
 8400SOL    HW236663   0.032   3.930   7.496  1.5306  0.7846  0.4175
 8401SOL     OW36664   3.886   4.633   5.290 -0.7106 -0.5315 -0.0757
 8401SOL    HW136665   3.861   4.597   5.205 -0.7185 -2.2117  0.6288
 8401SOL    HW236666   3.931   4.554   5.320 -2.3979 -1.0312  1.1307
 8402SOL     OW36667   0.207   4.221  11.717  0.2463 -0.2458  0.6191
 8402SOL    HW136668   0.288   4.270  11.698  0.0655  0.0684  0.6514
 8402SOL    HW236669   0.248   4.135  11.721  0.0896 -0.2984  1.1198
 8403SOL     OW36670   0.019   1.382   8.904 -0.8036 -0.0633  0.1043
 8403SOL    HW136671   4.679   1.353   8.969  1.7286 -0.4866  2.4359
 8403SOL    HW236672   4.691   1.386   8.824 -0.9341 -2.8444  0.0242
 8404SOL     OW36673   4.384   2.050   8.520 -0.2664  0.3335 -0.5030
 8404SOL    HW136674   4.292   2.044   8.545 -0.4431  0.7246 -1.0357
 8404SOL    HW236675   4.428   1.972   8.552 -0.4336  0.5309  0.2137
 8405SOL     OW36676   4.135   3.804   3.626 -1.0058  0.1808 -0.1979
 8405SOL    HW136677   4.101   3.715   3.629  0.8492 -0.4555  2.0242
 8405SOL    HW236678   4.222   3.788   3.592 -0.2179  1.6321  1.1253
 8406SOL     OW36679   0.764   4.076   4.367 -0.4970  0.6077 -0.0619
 8406SOL    HW136680   0.676   4.048   4.340 -0.1124 -0.6420 -0.0254
 8406SOL    HW236681   0.816   4.093   4.289  1.5885 -1.4532  0.8570
 8407SOL     OW36682   2.768   3.194   3.871  0.1681  0.1153  0.2438
 8407SOL    HW136683   2.852   3.148   3.868  0.6057  0.8556  1.5926
 8407SOL    HW236684   2.741   3.168   3.782  1.6115 -1.3318  0.2341
 8408SOL     OW36685   1.958   2.346  11.770  1.0535  0.8987 -0.6627
 8408SOL    HW136686   1.953   2.439  11.788 -1.5462  1.4034 -3.9980
 8408SOL    HW236687   1.875   2.316  11.808  0.4514  1.9529 -1.1447
 8409SOL     OW36688   1.601   0.257  12.854  0.5829  0.1052 -0.7178
 8409SOL    HW136689   1.662   0.331  12.851  0.1306  0.4908 -0.4502
 8409SOL    HW236690   1.553   0.264  12.937  2.8248 -0.1731  0.6021
 8410SOL     OW36691   2.206   0.087   4.535 -0.1821 -0.2181  0.5788
 8410SOL    HW136692   2.244   0.104   4.448  0.7350  0.6074  1.1371
 8410SOL    HW236693   2.150   0.161   4.557  1.2386  1.2422 -0.6356
 8411SOL     OW36694   0.471   0.800  16.922  0.0016  0.2113  0.2170
 8411SOL    HW136695   0.393   0.833  16.966 -0.0752  0.0259  0.2219
 8411SOL    HW236696   0.528   0.876  16.907 -0.3913  0.4952  0.1856
 8412SOL     OW36697   2.480   4.147  13.864  0.0133 -0.5661 -0.5735
 8412SOL    HW136698   2.520   4.196  13.792 -0.2649  2.5312  1.3448
 8412SOL    HW236699   2.394   4.187  13.854 -0.1255 -0.9468 -0.8869
 8413SOL     OW36700   1.698   0.389   5.691 -0.3221  0.1202  0.3545
 8413SOL    HW136701   1.757   0.356   5.759 -0.6921  1.0795  1.1392
 8413SOL    HW236702   1.750   0.377   5.612 -1.7851 -0.5035 -0.5106
 8414SOL     OW36703   1.709   1.211   9.160 -0.3999 -0.1448 -0.0582
 8414SOL    HW136704   1.719   1.301   9.192  1.0077  0.3629 -1.8755
 8414SOL    HW236705   1.759   1.170   9.230 -0.0579  0.4463  0.0513
 8415SOL     OW36706   2.847   1.606  10.011  0.0849 -0.0246 -0.3061
 8415SOL    HW136707   2.848   1.683   9.954 -1.8820  0.5225  0.4049
 8415SOL    HW236708   2.763   1.568   9.986  0.6873 -0.9630 -0.9175
 8416SOL     OW36709   2.696   2.234  13.228 -0.1928 -0.4486  0.0901
 8416SOL    HW136710   2.642   2.208  13.153  0.6551  2.4929 -1.5473
 8416SOL    HW236711   2.733   2.151  13.257 -0.7834 -0.4653  0.7997
 8417SOL     OW36712   2.847   2.412   4.087  0.8666 -0.4132 -0.3675
 8417SOL    HW136713   2.788   2.429   4.160 -0.5800 -0.3319 -1.5475
 8417SOL    HW236714   2.799   2.456   4.016  0.2994  0.0749  0.3196
 8418SOL     OW36715   3.982   0.538   0.990 -0.1702  0.7043  0.3372
 8418SOL    HW136716   3.905   0.493   1.026 -0.8976  2.2206  0.7167
 8418SOL    HW236717   4.006   0.474   0.923 -2.8984  1.2129 -1.1537
 8419SOL     OW36718   2.825   1.045  16.279 -0.2249  0.5962  0.1724
 8419SOL    HW136719   2.889   0.982  16.245 -1.3302  0.9446 -2.5400
 8419SOL    HW236720   2.740   1.006  16.258 -0.8291  1.4813  1.0219
 8420SOL     OW36721   4.186   3.285   7.690  0.1005 -0.5308  0.0381
 8420SOL    HW136722   4.147   3.316   7.608  0.1527  1.6648  0.8322
 8420SOL    HW236723   4.113   3.236   7.728 -2.1883  2.5331 -0.4123
 8421SOL     OW36724   1.665   4.491   9.400 -0.5104 -0.2375  0.6614
 8421SOL    HW136725   1.680   4.404   9.362 -0.5076 -0.1150  0.3788
 8421SOL    HW236726   1.587   4.511   9.348  1.7341  1.1864 -2.1360
 8422SOL     OW36727   4.045   0.114  11.325 -0.1005  0.3497  0.3545
 8422SOL    HW136728   3.955   0.137  11.301  0.4034  1.3094 -0.6509
 8422SOL    HW236729   4.049   0.155  11.411  0.1668  1.9370 -0.4079
 8423SOL     OW36730   1.023   1.903   2.359 -0.1964  0.8001  0.0165
 8423SOL    HW136731   0.972   1.932   2.435 -0.7086  1.1099 -0.4470
 8423SOL    HW236732   0.962   1.913   2.286  0.3450 -1.6522 -0.7520
 8424SOL     OW36733   4.438   3.121   3.419  0.3645  0.0483 -0.3256
 8424SOL    HW136734   4.466   3.037   3.455  0.8731 -0.4845 -1.9414
 8424SOL    HW236735   4.353   3.090   3.386  0.0579 -2.6480  3.0385
 8425SOL     OW36736   0.683   3.866   6.465 -0.7274 -0.1021 -0.3711
 8425SOL    HW136737   0.773   3.832   6.471 -1.0718 -0.8063  0.7076
 8425SOL    HW236738   0.682   3.882   6.371  0.8143 -0.7985 -0.5120
 8426SOL     OW36739   2.078   0.163   6.028 -0.0129  0.5267  0.5058
 8426SOL    HW136740   2.060   0.070   6.016  0.1972  0.8564 -2.1751
 8426SOL    HW236741   2.118   0.178   5.943  3.7639 -1.6626  1.8966
 8427SOL     OW36742   1.053   1.987   4.182  0.1913  0.9299  0.2099
 8427SOL    HW136743   1.055   2.066   4.237  0.5085  0.7978  0.3910
 8427SOL    HW236744   0.959   1.971   4.190  0.2911  0.0228 -0.4279
 8428SOL     OW36745   1.639   1.506   0.988  0.6030 -0.1230  0.5686
 8428SOL    HW136746   1.571   1.561   0.947 -0.9519 -1.1801  1.7043
 8428SOL    HW236747   1.720   1.525   0.941 -0.2079  0.1167 -0.7290
 8429SOL     OW36748   2.839   0.277   2.939  0.1204  0.5938 -0.6159
 8429SOL    HW136749   2.846   0.210   2.871 -1.7583  0.4766 -0.6961
 8429SOL    HW236750   2.912   0.259   2.997 -0.1075  1.9732  0.0792
 8430SOL     OW36751   2.840   2.060   7.546 -0.1923  0.5444  0.1847
 8430SOL    HW136752   2.927   2.071   7.584  0.8979  1.2713 -2.5269
 8430SOL    HW236753   2.806   1.986   7.597  1.4790  0.0425  0.5766
 8431SOL     OW36754   3.352   2.870   8.206  0.1603  0.5779  0.5851
 8431SOL    HW136755   3.321   2.900   8.292  1.0894  0.9582  0.7939
 8431SOL    HW236756   3.395   2.788   8.232  0.2177  1.0918  2.1069
 8432SOL     OW36757   2.182   3.676   7.877  0.0431 -0.4665 -0.1833
 8432SOL    HW136758   2.207   3.746   7.937  1.1531 -1.6021  0.6420
 8432SOL    HW236759   2.098   3.643   7.910  0.7703 -0.9318  1.1904
 8433SOL     OW36760   3.147   2.150  10.736 -0.0836 -0.7426  0.1863
 8433SOL    HW136761   3.063   2.195  10.743 -1.0969 -2.3927 -1.3044
 8433SOL    HW236762   3.185   2.136  10.823 -2.0884  0.6311  1.2673
 8434SOL     OW36763   2.505   3.529  11.760 -0.3236  0.3359 -0.0287
 8434SOL    HW136764   2.502   3.471  11.837  0.3075 -0.6116 -0.7233
 8434SOL    HW236765   2.551   3.602  11.802 -0.7066  0.6297 -0.1172
 8435SOL     OW36766   1.395   4.303  16.063  0.0932 -0.0515 -0.8303
 8435SOL    HW136767   1.408   4.363  16.137 -2.2817 -0.3265 -0.1885
 8435SOL    HW236768   1.299   4.304  16.060  0.0899  0.8708 -0.5148
 8436SOL     OW36769   3.831   3.480   1.858 -0.2367 -0.6630  0.1993
 8436SOL    HW136770   3.831   3.426   1.937  2.1821 -0.3925  0.3578
 8436SOL    HW236771   3.832   3.568   1.896 -0.4531  0.0828 -1.5268
 8437SOL     OW36772   2.242   0.462   4.135 -0.5048  0.4382  0.1420
 8437SOL    HW136773   2.228   0.432   4.225  1.7913 -0.1234  0.3200
 8437SOL    HW236774   2.288   0.543   4.160 -1.6741  0.5298  2.0213
 8438SOL     OW36775   2.165   4.320   6.289 -0.6119 -0.0157  0.3393
 8438SOL    HW136776   2.101   4.391   6.282 -0.6870  0.0339  1.5283
 8438SOL    HW236777   2.216   4.347   6.365  0.8528 -3.9897  0.7475
 8439SOL     OW36778   3.315   0.751   1.239  0.3896  0.0719  0.3692
 8439SOL    HW136779   3.341   0.733   1.329  0.7264 -0.3578  0.1879
 8439SOL    HW236780   3.314   0.659   1.211 -0.6668  0.4874 -0.9678
 8440SOL     OW36781   3.340   3.479   5.201 -0.0545 -0.2016 -0.4450
 8440SOL    HW136782   3.397   3.546   5.240 -0.8640  0.0361  0.3294
 8440SOL    HW236783   3.401   3.443   5.137  0.6085 -1.6351  0.9738
 8441SOL     OW36784   3.657   3.757  14.642  0.5639 -0.1898 -0.5364
 8441SOL    HW136785   3.654   3.677  14.694 -0.5679  0.0220 -0.2891
 8441SOL    HW236786   3.634   3.719  14.557  1.2951 -2.8914  0.5058
 8442SOL     OW36787   2.323   1.157  17.476  0.4159 -0.0603  0.4665
 8442SOL    HW136788   2.371   1.123  17.401  1.2934  0.1266  0.9382
 8442SOL    HW236789   2.403   1.172  17.527  0.7622 -0.9740  0.2000
 8443SOL     OW36790   3.820   3.716   6.254 -0.2336  0.2341  0.5320
 8443SOL    HW136791   3.860   3.801   6.267 -1.3271  1.0927 -1.7340
 8443SOL    HW236792   3.755   3.710   6.324 -0.8004 -0.7979 -0.0639
 8444SOL     OW36793   2.815   1.311  16.010 -0.1273  0.0451 -0.3801
 8444SOL    HW136794   2.852   1.223  16.001 -2.4973 -0.9436 -0.5669
 8444SOL    HW236795   2.726   1.283  15.987  0.5601 -2.0096 -0.5562
 8445SOL     OW36796   1.294   4.220  17.136 -0.8142  0.0424 -0.2515
 8445SOL    HW136797   1.228   4.280  17.100 -0.4690  0.2756 -0.5015
 8445SOL    HW236798   1.367   4.282  17.140 -0.7543 -0.0131 -0.4940
 8446SOL     OW36799   3.000   1.879  10.059 -0.1345 -0.3609 -0.4098
 8446SOL    HW136800   2.946   1.945  10.101  1.0816  0.3357  0.0595
 8446SOL    HW236801   3.055   1.865  10.136  1.9655 -3.9247 -2.5718
 8447SOL     OW36802   0.536   4.403  13.712 -0.1254  0.7753  0.7159
 8447SOL    HW136803   0.492   4.364  13.788 -0.1273 -1.1837 -0.2993
 8447SOL    HW236804   0.462   4.409  13.651 -1.4984 -1.2753  2.1499
 8448SOL     OW36805   2.511   1.557   5.307  0.2228  0.1267  0.2996
 8448SOL    HW136806   2.512   1.643   5.264  0.4384 -0.2276 -0.4057
 8448SOL    HW236807   2.598   1.530   5.279 -1.0361 -0.8897 -2.6050
 8449SOL     OW36808   0.341   2.799  13.747  0.3517 -0.0441  0.8229
 8449SOL    HW136809   0.379   2.805  13.659 -0.6990  0.0462  0.3742
 8449SOL    HW236810   0.365   2.711  13.774  0.9449 -0.5964 -1.5578
 8450SOL     OW36811   1.015   4.224   8.031 -0.0472 -0.8412  0.7892
 8450SOL    HW136812   1.037   4.152   8.090  1.3941  0.4680  1.8839
 8450SOL    HW236813   1.053   4.298   8.078  1.5661 -0.7488 -0.6238
 8451SOL     OW36814   1.839   3.353  12.222 -0.8820  0.1444  0.0169
 8451SOL    HW136815   1.795   3.432  12.252 -0.4203  0.3742  0.0987
 8451SOL    HW236816   1.763   3.299  12.203  0.9032 -1.1992 -3.2553
 8452SOL     OW36817   3.230   1.098   5.831 -0.9081  0.0779 -0.0593
 8452SOL    HW136818   3.255   1.066   5.744 -2.9168 -1.4949 -0.0534
 8452SOL    HW236819   3.301   1.061   5.884 -0.8120  0.6067  0.1845
 8453SOL     OW36820   0.914   2.650   5.904 -0.3281 -0.4657 -0.0567
 8453SOL    HW136821   0.892   2.728   5.956  2.1397  0.4119 -0.2998
 8453SOL    HW236822   0.994   2.618   5.945 -0.7355  0.8457  1.7812
 8454SOL     OW36823   0.381   0.715   4.165  0.0158  0.4317  0.6590
 8454SOL    HW136824   0.467   0.675   4.160 -0.9275 -1.6998  1.2986
 8454SOL    HW236825   0.399   0.806   4.189 -0.4221  0.4007  1.1174
 8455SOL     OW36826   1.549   0.728   4.589 -0.4117  0.3447  0.5423
 8455SOL    HW136827   1.600   0.647   4.602  2.2833  1.9452  0.0723
 8455SOL    HW236828   1.485   0.691   4.528 -0.5781  3.1569 -0.9767
 8456SOL     OW36829   0.052   0.496  11.634 -0.3621 -0.1521 -0.1391
 8456SOL    HW136830   4.702   0.551  11.609  0.8503  0.4556 -2.4934
 8456SOL    HW236831   0.103   0.554  11.691  0.5559 -1.0901 -0.0064
 8457SOL     OW36832   1.452   2.816   5.018 -0.1559 -0.2866 -0.4966
 8457SOL    HW136833   1.485   2.901   5.047  1.9948 -1.0065 -0.7639
 8457SOL    HW236834   1.359   2.832   5.004 -0.3170 -2.5277 -1.8605
 8458SOL     OW36835   3.502   2.046  11.318 -0.3961 -0.2111  0.2318
 8458SOL    HW136836   3.583   2.096  11.328 -0.5002  0.0673 -0.3213
 8458SOL    HW236837   3.442   2.114  11.350  2.5612  1.0604  3.0621
 8459SOL     OW36838   0.576   1.180   5.770  0.1234  0.2828  0.3654
 8459SOL    HW136839   0.605   1.169   5.861  1.7894 -1.6243 -0.3919
 8459SOL    HW236840   0.657   1.166   5.721 -0.6606  0.2768 -0.9234
 8460SOL     OW36841   3.507   0.394   4.269  0.3330 -0.0402 -0.5925
 8460SOL    HW136842   3.446   0.423   4.201  0.5179 -0.5090 -0.9560
 8460SOL    HW236843   3.588   0.441   4.249 -0.5205  1.9716  0.6999
 8461SOL     OW36844   2.996   2.892   6.492  0.1087  0.0161 -0.4871
 8461SOL    HW136845   2.983   2.797   6.501 -0.5784  0.0061 -1.5509
 8461SOL    HW236846   2.966   2.899   6.401 -0.9297  0.6877 -0.0825
 8462SOL     OW36847   1.642   2.182   8.425  0.5331  0.1735 -0.1204
 8462SOL    HW136848   1.638   2.137   8.509 -3.5418  0.5993 -0.0644
 8462SOL    HW236849   1.651   2.109   8.363 -1.9443 -1.9976  2.0644
 8463SOL     OW36850   2.345   2.270   9.680  0.2996  0.1376  0.1800
 8463SOL    HW136851   2.379   2.310   9.759 -1.7744  0.8455  0.7146
 8463SOL    HW236852   2.347   2.346   9.621 -1.4642  0.0037 -0.0406
 8464SOL     OW36853   1.314   2.269   7.490  0.8381  0.8939  0.5893
 8464SOL    HW136854   1.319   2.175   7.473  1.1761  0.8263  1.0419
 8464SOL    HW236855   1.224   2.285   7.515  0.8026  1.0106  0.3882
 8465SOL     OW36856   3.465   3.593   8.448  0.2073 -0.0770  0.2191
 8465SOL    HW136857   3.493   3.674   8.488 -1.0536  0.6095 -0.2892
 8465SOL    HW236858   3.455   3.622   8.357 -0.2589 -0.7858  0.0450
 8466SOL     OW36859   0.402   0.106   1.185  0.2318  0.2338 -0.5464
 8466SOL    HW136860   0.368   0.022   1.155 -0.5404  0.1661  0.5163
 8466SOL    HW236861   0.377   0.099   1.277 -0.3711 -2.6503 -0.9401
 8467SOL     OW36862   0.668   0.012  16.211  0.1174  0.1157  0.3298
 8467SOL    HW136863   0.594   4.702  16.161  1.6056 -1.1678 -0.9705
 8467SOL    HW236864   0.696   4.663  16.263 -0.3810  0.7355  1.4758
 8468SOL     OW36865   0.200   0.492   8.170 -0.3457  0.5623 -0.2743
 8468SOL    HW136866   0.208   0.497   8.265 -1.0932 -1.6366 -0.0914
 8468SOL    HW236867   0.183   0.584   8.149  0.5049  0.3260 -2.0341
 8469SOL     OW36868   4.539   4.152   7.654 -0.0177 -0.2803  0.2756
 8469SOL    HW136869   4.631   4.177   7.642  0.3154 -1.0725  1.1204
 8469SOL    HW236870   4.510   4.123   7.567 -0.4128 -0.5676  0.5057
 8470SOL     OW36871   0.412   1.562  17.698  0.0469  0.0920  0.3760
 8470SOL    HW136872   0.329   1.598   0.025 -0.1678 -0.5554  0.5656
 8470SOL    HW236873   0.404   1.472   0.027  1.8220 -1.7554 -4.4270
 8471SOL     OW36874   0.104   3.251   4.400 -0.0516  0.1926 -0.2714
 8471SOL    HW136875   0.173   3.282   4.341  0.9723  0.0679  0.8607
 8471SOL    HW236876   0.138   3.170   4.437 -0.3292  0.0416 -0.3497
 8472SOL     OW36877   2.469   1.148  16.468  0.7489  0.2358  0.0060
 8472SOL    HW136878   2.424   1.126  16.550  0.7484  1.2072  0.2751
 8472SOL    HW236879   2.561   1.135  16.489  1.0163 -1.9638 -2.5738
 8473SOL     OW36880   4.265   0.378   1.428  0.1559 -0.0511  0.4367
 8473SOL    HW136881   4.262   0.433   1.350 -0.9901 -1.5381 -0.5648
 8473SOL    HW236882   4.333   0.312   1.419  1.2040  1.0173  0.4806
 8474SOL     OW36883   3.528   1.435   4.531  0.3285  0.2231 -0.2660
 8474SOL    HW136884   3.543   1.345   4.505  0.1301  0.0326  0.2664
 8474SOL    HW236885   3.609   1.481   4.510  0.9922 -0.0157  1.7949
 8475SOL     OW36886   0.554   0.312   6.614  0.1702  0.1904 -0.2395
 8475SOL    HW136887   0.517   0.374   6.551 -1.5645 -2.2818 -1.6793
 8475SOL    HW236888   0.479   0.262   6.646  0.3161  0.5684  0.6880
 8476SOL     OW36889   0.384   2.303  17.633 -0.4699 -0.1765  0.6280
 8476SOL    HW136890   0.373   2.234  17.699  1.3316  2.3475  3.5436
 8476SOL    HW236891   0.453   2.357  17.670 -3.4282  2.4741  2.2809
 8477SOL     OW36892   0.785   1.807   4.464 -0.3088 -0.2991 -0.1667
 8477SOL    HW136893   0.808   1.719   4.434 -0.4058 -0.2847 -0.2829
 8477SOL    HW236894   0.695   1.812   4.432 -0.1649  3.1837  0.0077
 8478SOL     OW36895   0.120   2.225   3.020 -0.0572  0.0305  0.3120
 8478SOL    HW136896   0.180   2.177   2.963 -1.1289  1.4112 -1.9858
 8478SOL    HW236897   0.097   2.302   2.968 -0.0194 -1.1784 -1.4690
 8479SOL     OW36898   0.520   1.058  16.688  0.0303 -0.6780 -0.4489
 8479SOL    HW136899   0.566   1.013  16.759  1.2514  0.1788 -0.7010
 8479SOL    HW236900   0.591   1.063  16.623  0.1009 -0.5936 -0.3644
 8480SOL     OW36901   3.324   1.492   7.938  0.1537  0.0131  0.6560
 8480SOL    HW136902   3.388   1.432   7.976  0.1634  1.0625  2.3082
 8480SOL    HW236903   3.350   1.568   7.991 -2.2277 -0.0426  1.9048
 8481SOL     OW36904   4.230   2.781   6.222  0.0018  0.2616 -0.0931
 8481SOL    HW136905   4.233   2.715   6.292 -0.0299 -1.6612 -1.9069
 8481SOL    HW236906   4.283   2.849   6.264 -0.7608  0.1407  1.0771
 8482SOL     OW36907   1.584   4.046  13.306 -0.4108 -0.5697  0.0023
 8482SOL    HW136908   1.526   4.122  13.318  1.7619  1.1493 -0.4710
 8482SOL    HW236909   1.634   4.079  13.231 -1.3773 -0.7777 -0.7355
 8483SOL     OW36910   4.271   0.498   2.747 -0.5440 -0.3030 -0.0505
 8483SOL    HW136911   4.256   0.458   2.832 -2.6305  0.5577 -0.0197
 8483SOL    HW236912   4.196   0.467   2.696 -0.7028 -0.7734  0.4740
 8484SOL     OW36913   3.212   0.011   2.404 -0.3864 -0.0735  0.1880
 8484SOL    HW136914   3.241   4.651   2.436 -1.2207 -1.1334 -1.8609
 8484SOL    HW236915   3.141   0.001   2.340 -2.1574  0.0185  2.1233
 8485SOL     OW36916   2.704   0.349   2.494  0.3470  0.2920  0.2577
 8485SOL    HW136917   2.799   0.344   2.500  0.4008  0.9630 -0.0312
 8485SOL    HW236918   2.691   0.416   2.427 -1.8859 -0.8972 -0.5107
 8486SOL     OW36919   1.476   2.936   6.666 -0.0712 -0.7595  0.0249
 8486SOL    HW136920   1.428   2.863   6.707 -0.6796 -0.8842 -0.9138
 8486SOL    HW236921   1.520   2.884   6.599 -1.0403  0.4229 -1.5215
 8487SOL     OW36922   4.585   1.936  14.241 -0.1027  0.1260 -0.5325
 8487SOL    HW136923   4.528   1.960  14.315 -0.5921  0.0265 -0.8774
 8487SOL    HW236924   4.579   1.841  14.249 -0.7725  0.2656  0.6335
 8488SOL     OW36925   0.122   4.555  14.008 -0.3275 -0.1471 -0.1374
 8488SOL    HW136926   0.083   4.595  14.086  1.2072 -0.1265  0.6327
 8488SOL    HW236927   0.214   4.548  14.035 -0.3847  1.0092  0.3365
 8489SOL     OW36928   0.119   4.655   2.196 -0.0007  0.5248  0.6575
 8489SOL    HW136929   0.202   4.635   2.239 -0.8223 -0.7896  1.6440
 8489SOL    HW236930   0.058   4.627   2.265  1.8541 -2.5269  1.0409
 8490SOL     OW36931   4.652   3.403  13.810  0.1167 -0.2378 -0.4036
 8490SOL    HW136932   4.567   3.380  13.773 -0.7051  1.5540  0.3844
 8490SOL    HW236933   4.638   3.388  13.904 -1.4521  2.7038 -0.1693
 8491SOL     OW36934   3.511   2.224   6.781  0.1271  0.7921 -0.2926
 8491SOL    HW136935   3.571   2.163   6.738  0.7302  0.4862  0.9686
 8491SOL    HW236936   3.576   2.284   6.819 -2.2365  3.2731 -0.1349
 8492SOL     OW36937   2.260   3.018   2.235  0.4220 -0.1610  0.4676
 8492SOL    HW136938   2.255   2.978   2.149 -0.1380  1.5339 -0.2830
 8492SOL    HW236939   2.248   3.107   2.203 -1.2132 -0.2666  0.8100
 8493SOL     OW36940   0.506   1.820   4.405  0.0017  0.4879  0.2052
 8493SOL    HW136941   0.489   1.797   4.314  0.3058 -0.3574  0.3543
 8493SOL    HW236942   0.452   1.751   4.443  0.6498  0.3577  0.8979
 8494SOL     OW36943   4.623   1.909   6.304  0.6470  0.0817  0.0119
 8494SOL    HW136944   4.612   1.982   6.242  2.4495  1.0747  0.8857
 8494SOL    HW236945   4.656   1.949   6.384  1.9251 -2.5895  0.7967
 8495SOL     OW36946   2.832   4.709  10.699 -0.2550  0.0040 -0.3071
 8495SOL    HW136947   2.859   4.717  10.607  1.4247  0.0937  0.1950
 8495SOL    HW236948   2.776   0.060  10.716  1.9561  1.0268  2.3032
 8496SOL     OW36949   2.614   1.173  15.765  0.1509 -0.3451 -0.1779
 8496SOL    HW136950   2.548   1.231  15.804  2.5760  0.6921  2.4051
 8496SOL    HW236951   2.611   1.205  15.675  0.1146  1.4999  0.4757
 8497SOL     OW36952   1.660   0.095   5.097  0.1953 -0.5134 -0.0271
 8497SOL    HW136953   1.645   0.029   5.164 -0.0903 -0.8285 -0.3998
 8497SOL    HW236954   1.735   0.147   5.126  0.5372 -0.4024 -1.1105
 8498SOL     OW36955   0.191   2.761   6.892  0.3203  0.1461  0.6515
 8498SOL    HW136956   0.151   2.845   6.869  0.9874  0.0519 -0.7988
 8498SOL    HW236957   0.274   2.782   6.936  1.1038 -1.5795 -0.0091
 8499SOL     OW36958   1.112   3.298   7.033  0.0951  0.0213  0.1362
 8499SOL    HW136959   1.059   3.221   7.013 -0.6627  0.5411  0.1617
 8499SOL    HW236960   1.190   3.289   6.979  0.8643  0.3940  1.1848
 8500SOL     OW36961   1.037   3.046   2.668  0.4463 -0.1538  0.3978
 8500SOL    HW136962   1.044   3.141   2.665 -1.3682 -0.0378 -0.1674
 8500SOL    HW236963   0.974   3.040   2.596  2.5504  0.2000 -1.4843
 8501SOL     OW36964   0.141   1.453   5.479 -0.2193 -0.2585 -0.0885
 8501SOL    HW136965   0.144   1.412   5.392 -0.0072 -1.4755  0.4933
 8501SOL    HW236966   0.134   1.374   5.534 -1.3113 -1.2291 -1.6053
 8502SOL     OW36967   2.653   3.861  16.714 -0.4325 -0.2404  0.1872
 8502SOL    HW136968   2.570   3.827  16.747  0.1168 -0.6886  1.1096
 8502SOL    HW236969   2.670   3.795  16.647 -0.7420 -0.6372  0.4984
 8503SOL     OW36970   0.822   4.427   6.479  0.1296  0.1148  0.1048
 8503SOL    HW136971   0.878   4.390   6.547  1.5644  3.4674  0.7594
 8503SOL    HW236972   0.755   4.457   6.540  0.6222  2.4101 -0.4874
 8504SOL     OW36973   3.228   3.124  17.453  0.3532  0.1268  0.0624
 8504SOL    HW136974   3.265   3.198  17.405 -1.2519  0.3072 -0.9155
 8504SOL    HW236975   3.204   3.063  17.383 -2.6476  0.5601  0.6742
 8505SOL     OW36976   2.898   3.790   7.778  0.1332 -0.0621  0.1356
 8505SOL    HW136977   2.975   3.841   7.751 -0.2067  0.4142  0.0570
 8505SOL    HW236978   2.877   3.746   7.696  1.6779  0.6214 -0.6318
 8506SOL     OW36979   4.724   3.792   3.448  0.6008  0.0844 -0.3171
 8506SOL    HW136980   4.688   3.712   3.409  2.0781 -1.4265  1.4230
 8506SOL    HW236981   4.641   3.822   3.486 -1.1765 -3.4374 -1.3294
 8507SOL     OW36982   2.535   4.293   7.899 -0.2414 -0.2890  0.6081
 8507SOL    HW136983   2.578   4.207   7.902  2.8431  1.1967 -1.0448
 8507SOL    HW236984   2.446   4.261   7.888 -0.2416 -0.9235  2.5022
 8508SOL     OW36985   3.243   0.581  13.428  0.4539  0.3466 -0.1956
 8508SOL    HW136986   3.234   0.540  13.514  0.6443 -2.4854 -1.5126
 8508SOL    HW236987   3.285   0.514  13.374 -0.1307 -0.0642 -0.1422
 8509SOL     OW36988   4.242   2.592   4.930 -0.5111 -0.1026 -0.0408
 8509SOL    HW136989   4.272   2.628   5.013 -2.2151  0.0308  0.5023
 8509SOL    HW236990   4.279   2.503   4.935 -0.0999  0.0499 -0.3985
 8510SOL     OW36991   0.690   0.068  14.997 -0.2324  0.5064 -0.1235
 8510SOL    HW136992   0.669   0.110  14.914  0.5378  2.0120  0.4443
 8510SOL    HW236993   0.609   0.018  15.008  0.4852 -0.4737  0.6582
 8511SOL     OW36994   3.145   4.211   2.341 -0.5171  0.4818 -0.3515
 8511SOL    HW136995   3.233   4.192   2.309 -0.5875  0.7457 -0.7028
 8511SOL    HW236996   3.111   4.121   2.350 -0.1985  0.6379  2.5883
 8512SOL     OW36997   3.562   3.862  15.651 -0.5877 -0.0470 -0.5792
 8512SOL    HW136998   3.499   3.929  15.626  0.1674  1.4517  1.5295
 8512SOL    HW236999   3.641   3.913  15.669  0.7680 -2.2967 -0.1699
 8513SOL     OW37000   0.232   0.495   7.405  0.5801  0.3846 -0.1849
 8513SOL    HW137001   0.289   0.419   7.404  0.6189  0.4187 -1.2657
 8513SOL    HW237002   0.169   0.468   7.472  1.1830 -0.6581 -0.0414
 8514SOL     OW37003   4.278   3.640  14.189 -0.1562  0.3462  0.1989
 8514SOL    HW137004   4.234   3.720  14.218 -0.1085 -0.4637  2.5551
 8514SOL    HW237005   4.363   3.670  14.156  0.3934  0.2003  1.4751
 8515SOL     OW37006   2.595   3.201   6.661 -0.2037 -0.6792  0.0366
 8515SOL    HW137007   2.686   3.171   6.654  0.2507  0.7939 -0.3074
 8515SOL    HW237008   2.600   3.291   6.692 -1.0547 -0.5783 -0.1218
 8516SOL     OW37009   0.956   3.427   1.758  0.1858 -0.3341 -0.5757
 8516SOL    HW137010   1.033   3.399   1.809  0.9102 -0.3200 -1.6451
 8516SOL    HW237011   0.977   3.520   1.764 -2.5194  0.1461  1.1649
 8517SOL     OW37012   1.742   1.026   7.900  0.2237 -0.1133 -0.1057
 8517SOL    HW137013   1.818   0.977   7.930  1.1490  1.3430 -0.0858
 8517SOL    HW237014   1.758   1.027   7.805  2.6541  2.9092  0.3600
 8518SOL     OW37015   0.113   1.217   8.010  0.7131 -0.2526  0.0710
 8518SOL    HW137016   0.024   1.195   8.038  1.6146 -2.6084  1.0235
 8518SOL    HW237017   0.129   1.157   7.937 -0.8392 -0.1864 -0.3274
 8519SOL     OW37018   1.706   1.334   8.797  0.4494  0.4510 -0.1864
 8519SOL    HW137019   1.657   1.255   8.819  0.9532 -0.0131 -0.7219
 8519SOL    HW237020   1.782   1.306   8.848  0.0797  0.1373  0.1917
 8520SOL     OW37021   4.047   0.208   1.129  0.7838  0.3231 -0.2145
 8520SOL    HW137022   4.138   0.221   1.105 -0.0723  2.0791 -2.4843
 8520SOL    HW237023   4.026   0.137   1.069 -1.6392  0.1284  0.8627
 8521SOL     OW37024   2.878   0.876   1.022  0.0232 -0.1410 -0.2773
 8521SOL    HW137025   2.807   0.838   1.073 -1.0494  1.6795 -0.3993
 8521SOL    HW237026   2.847   0.844   0.937  3.0241 -0.9518 -1.0643
 8522SOL     OW37027   0.417   3.748   4.925  0.3154  0.2175  0.3869
 8522SOL    HW137028   0.337   3.786   4.962 -0.5458 -1.8159  0.6184
 8522SOL    HW237029   0.441   3.826   4.875 -0.7040  0.2720 -0.0211
 8523SOL     OW37030   2.032   3.187   8.549  0.0609 -0.2118  1.1197
 8523SOL    HW137031   2.062   3.276   8.569  1.3759 -0.2575 -0.6431
 8523SOL    HW237032   1.943   3.198   8.515 -0.8509  0.6572  3.7437
 8524SOL     OW37033   0.654   3.989  13.353  0.4016  0.0035  0.1088
 8524SOL    HW137034   0.716   4.062  13.354  0.4927 -0.0704 -1.2880
 8524SOL    HW237035   0.572   4.031  13.380  1.5242  0.7150  2.4351
 8525SOL     OW37036   2.733   2.510  16.878  0.0652 -0.3503  0.0953
 8525SOL    HW137037   2.816   2.510  16.830  0.1322  0.4216  0.2075
 8525SOL    HW237038   2.718   2.604  16.878  0.4530 -0.2814  2.0151
 8526SOL     OW37039   4.134   2.972  13.012 -0.1489 -0.4218  0.2826
 8526SOL    HW137040   4.212   2.962  12.956 -0.2660  0.3733 -0.0224
 8526SOL    HW237041   4.077   2.914  12.961 -1.1716  0.7285  0.1244
 8527SOL     OW37042   0.563   2.511  14.129  0.0949 -0.3911 -0.0466
 8527SOL    HW137043   0.522   2.584  14.176  2.4867  0.7200  0.2746
 8527SOL    HW237044   0.489   2.489  14.072  0.0148  1.5404 -0.6939
 8528SOL     OW37045   1.962   1.337   4.795 -0.1553  0.4356 -0.3998
 8528SOL    HW137046   1.974   1.255   4.842 -3.1740 -1.2738 -2.6288
 8528SOL    HW237047   2.047   1.337   4.750 -0.4001  1.8282 -0.8610
 8529SOL     OW37048   0.820   1.632   4.898 -0.2331 -0.5014 -0.8109
 8529SOL    HW137049   0.885   1.660   4.833  0.3532 -0.5700 -0.2498
 8529SOL    HW237050   0.813   1.541   4.867  0.0244 -0.2755 -1.5319
 8530SOL     OW37051   0.548   2.774  14.642  0.9703  0.2755  0.9025
 8530SOL    HW137052   0.586   2.822  14.569 -0.9058  2.3483  1.2791
 8530SOL    HW237053   0.467   2.752  14.597  0.4384  0.9067  1.5442
 8531SOL     OW37054   2.696   0.084   2.770  0.4206 -0.0322 -0.0065
 8531SOL    HW137055   2.675   0.174   2.746  1.2583 -0.4717 -2.3747
 8531SOL    HW237056   2.683   0.038   2.687  0.9859 -1.7730  0.8619
 8532SOL     OW37057   0.542   3.791  10.795 -0.7024 -0.1488  0.1433
 8532SOL    HW137058   0.605   3.850  10.752 -1.7663  0.7894 -0.1361
 8532SOL    HW237059   0.574   3.701  10.791  3.8958  1.5118 -1.1703
 8533SOL     OW37060   2.412   4.125  14.344  0.3672  0.2370  0.1470
 8533SOL    HW137061   2.372   4.060  14.286 -0.9896 -0.6691  2.1208
 8533SOL    HW237062   2.400   4.195  14.280  0.0802 -0.5857 -0.6952
 8534SOL     OW37063   2.571   1.371   4.869 -0.0592  0.0916 -0.4070
 8534SOL    HW137064   2.639   1.322   4.823  0.2685 -0.9674  1.2167
 8534SOL    HW237065   2.541   1.299   4.924 -0.1680  0.7152  0.3444
 8535SOL     OW37066   3.948   4.117   2.508  0.1946  0.1138 -0.0325
 8535SOL    HW137067   3.863   4.079   2.484  0.6710 -1.4930  0.8399
 8535SOL    HW237068   3.938   4.132   2.602 -0.4144  0.7566 -0.2016
 8536SOL     OW37069   0.359   1.865   5.941 -0.2339 -0.3032  0.4264
 8536SOL    HW137070   0.394   1.897   6.023 -1.7272 -0.1522  1.0111
 8536SOL    HW237071   0.282   1.920   5.926  0.7978  0.9513 -0.2668
 8537SOL     OW37072   4.034   2.042  12.245 -0.4383 -0.0534 -0.0418
 8537SOL    HW137073   4.117   2.033  12.199 -0.1128 -0.6009  0.6646
 8537SOL    HW237074   3.990   2.091  12.175 -1.8788  1.6220  2.0335
 8538SOL     OW37075   1.974   1.579   8.629  0.3995 -0.4444 -0.1950
 8538SOL    HW137076   1.926   1.616   8.702 -0.2741  0.3934 -1.0606
 8538SOL    HW237077   1.978   1.490   8.664  2.0478 -0.7166 -1.0698
 8539SOL     OW37078   4.236   3.110  16.252 -0.4137  0.0175 -0.3788
 8539SOL    HW137079   4.239   3.065  16.337  0.7209  1.5566  0.4026
 8539SOL    HW237080   4.156   3.071  16.216 -2.8883  2.4603  2.4470
 8540SOL     OW37081   1.885   1.263   1.228 -0.6934  0.0498  0.4310
 8540SOL    HW137082   1.804   1.314   1.228  0.4880  1.9403 -1.0550
 8540SOL    HW237083   1.887   1.202   1.302 -1.4401  0.1693  0.5492
 8541SOL     OW37084   0.731   0.810   5.249 -0.1235  0.4731  0.1547
 8541SOL    HW137085   0.766   0.898   5.261  1.2575 -0.2571  1.4225
 8541SOL    HW237086   0.798   0.759   5.295 -0.2828  0.7141  0.6449
 8542SOL     OW37087   4.447   0.118   5.480 -1.1035 -0.3907 -0.3902
 8542SOL    HW137088   4.445   0.168   5.398 -0.4499 -1.8726 -1.3118
 8542SOL    HW237089   4.375   0.057   5.470 -1.7542  0.1829  0.7759
 8543SOL     OW37090   1.294   4.418   6.268 -0.8262 -0.4438  0.1051
 8543SOL    HW137091   1.378   4.372   6.276 -0.9992 -1.0094 -1.2886
 8543SOL    HW237092   1.287   4.433   6.174 -0.3717  1.8511  0.4454
 8544SOL     OW37093   1.925   2.137  12.707 -0.0334  0.3335  0.5260
 8544SOL    HW137094   1.905   2.071  12.641 -1.3104  0.7842  0.4578
 8544SOL    HW237095   1.862   2.209  12.697  1.1753  1.6266  2.1527
 8545SOL     OW37096   1.703   3.028  13.798  0.3028 -0.3229  0.2678
 8545SOL    HW137097   1.788   2.985  13.786  0.6007  0.4557 -0.4426
 8545SOL    HW237098   1.706   3.092  13.726 -0.4890  0.7832  1.2292
 8546SOL     OW37099   2.272   0.512   2.785  0.0934  0.0399  0.5785
 8546SOL    HW137100   2.347   0.475   2.738  0.8154  0.0943  1.6867
 8546SOL    HW237101   2.218   0.565   2.727 -0.4987  1.5358  2.4806
 8547SOL     OW37102   4.239   3.899  11.897 -0.0698 -0.1531  0.3158
 8547SOL    HW137103   4.326   3.859  11.898 -0.1974 -0.4395 -0.5013
 8547SOL    HW237104   4.205   3.881  11.809 -0.3576 -3.0301  1.0099
 8548SOL     OW37105   2.989   2.326  11.983 -0.2940  0.3357  0.1742
 8548SOL    HW137106   2.956   2.379  12.056  2.8709  2.9475 -0.2704
 8548SOL    HW237107   3.083   2.345  11.984 -0.1940 -0.2469  1.1359
 8549SOL     OW37108   1.727   3.798  13.188 -0.2041 -0.0766 -0.3599
 8549SOL    HW137109   1.636   3.808  13.216 -0.4973  1.9600 -2.0556
 8549SOL    HW237110   1.766   3.765  13.269 -0.4701 -1.3809 -0.7588
 8550SOL     OW37111   4.444   3.486   4.991  0.0796 -0.3655  0.3590
 8550SOL    HW137112   4.401   3.530   5.064  0.1620 -2.7795  1.8258
 8550SOL    HW237113   4.528   3.476   5.036  0.0635 -1.0687  0.2195
 8551SOL     OW37114   3.514   2.900   9.773 -0.1172 -0.4989  0.2356
 8551SOL    HW137115   3.433   2.864   9.737 -0.6339  1.2685 -0.3664
 8551SOL    HW237116   3.563   2.912   9.692 -0.2968 -1.5950 -0.0349
 8552SOL     OW37117   3.090   1.214   3.633  0.3381 -0.4311  0.7269
 8552SOL    HW137118   3.104   1.288   3.574  0.8725 -3.0062 -2.3729
 8552SOL    HW237119   3.168   1.214   3.688  0.1552  0.9974  1.0051
 8553SOL     OW37120   3.933   2.225  12.068 -0.6042  0.1933  0.2580
 8553SOL    HW137121   3.964   2.285  12.001  3.2433 -0.0941  1.7879
 8553SOL    HW237122   3.851   2.205  12.024 -0.1358 -0.0147 -0.5141
 8554SOL     OW37123   3.519   0.246   7.726 -0.1191 -0.3069  1.1743
 8554SOL    HW137124   3.591   0.232   7.788  0.8609 -1.1313 -0.1700
 8554SOL    HW237125   3.467   0.167   7.738 -1.3658  0.4926  1.0025
 8555SOL     OW37126   4.450   0.655  17.638 -0.5252 -0.2671  0.0221
 8555SOL    HW137127   4.484   0.728  17.586 -0.9147 -0.5511 -0.6255
 8555SOL    HW237128   4.362   0.681  17.666  0.8079  2.3871  1.7931
 8556SOL     OW37129   0.269   2.676   0.899  0.0826  0.3323  0.2795
 8556SOL    HW137130   0.239   2.762   0.869  1.9940  2.0265  3.2576
 8556SOL    HW237131   0.342   2.699   0.957  0.2860  2.4543 -0.8218
 8557SOL     OW37132   2.448   0.522  15.321  0.3139 -0.3291  0.2573
 8557SOL    HW137133   2.456   0.562  15.408  0.7574  2.2179 -0.9619
 8557SOL    HW237134   2.352   0.522  15.322  0.3103 -0.3553 -0.1359
 8558SOL     OW37135   2.017   0.251   2.752  0.3551 -0.2071 -0.0891
 8558SOL    HW137136   1.922   0.251   2.768  0.2446 -1.4658 -0.7294
 8558SOL    HW237137   2.012   0.251   2.656 -0.3881 -1.4474 -0.0509
 8559SOL     OW37138   0.811   1.034   8.640  0.1722 -0.7403 -0.3695
 8559SOL    HW137139   0.808   0.940   8.660 -2.9991 -0.5841 -0.1769
 8559SOL    HW237140   0.904   1.055   8.655  0.7049 -2.5289 -1.1603
 8560SOL     OW37141   1.273   4.221   3.148  0.1582  0.0154  0.2373
 8560SOL    HW137142   1.243   4.144   3.196  1.7236 -1.5378 -1.2923
 8560SOL    HW237143   1.298   4.201   3.058 -2.7787  0.7169 -0.7160
 8561SOL     OW37144   2.024   4.433   8.173 -0.1033 -0.8143  0.1856
 8561SOL    HW137145   2.005   4.415   8.265  1.3528 -0.1353  0.6113
 8561SOL    HW237146   2.098   4.491   8.190 -0.9977  0.5496 -0.5682
 8562SOL     OW37147   3.916   0.750   1.947  0.1838  0.2072 -0.0761
 8562SOL    HW137148   3.972   0.742   1.869 -0.4472  0.7265 -0.5869
 8562SOL    HW237149   3.828   0.736   1.911  1.2447  1.4412 -3.1445
 8563SOL     OW37150   0.316   4.394   3.168 -0.0813 -0.4881 -0.2877
 8563SOL    HW137151   0.224   4.414   3.154  0.4538  2.6002  0.6039
 8563SOL    HW237152   0.318   4.306   3.131 -0.2598 -0.5095 -0.2474
 8564SOL     OW37153   3.938   2.652   0.097 -0.4293 -0.0942  0.7434
 8564SOL    HW137154   3.861   2.632   0.045 -0.1169  2.4888 -0.7221
 8564SOL    HW237155   4.007   2.612   0.045 -0.5919 -0.5197  0.8589
 8565SOL     OW37156   3.754   0.210   6.832  1.0591 -0.4834  0.0398
 8565SOL    HW137157   3.805   0.261   6.896 -0.4063 -1.0967  1.6827
 8565SOL    HW237158   3.795   0.230   6.747 -2.1772 -1.2149 -1.6771
 8566SOL     OW37159   0.545   1.956   5.105 -0.3089  0.2184 -0.5465
 8566SOL    HW137160   0.633   1.975   5.073  0.5495 -1.5373  0.7678
 8566SOL    HW237161   0.497   1.940   5.024 -0.6030 -1.2262 -0.0888
 8567SOL     OW37162   0.773   0.005   2.666 -0.3710 -0.0641  0.1892
 8567SOL    HW137163   0.765   4.654   2.608 -1.4073 -0.2752  0.6143
 8567SOL    HW237164   0.715   4.713   2.741 -0.1422  0.1186  0.4072
 8568SOL     OW37165   2.098   2.245   6.469  0.2594  0.1589  0.3274
 8568SOL    HW137166   2.156   2.171   6.488  0.6519  0.7815  1.5545
 8568SOL    HW237167   2.132   2.313   6.528 -0.1452  1.4005 -0.8839
 8569SOL     OW37168   2.094   0.615   4.351 -0.0607 -0.0073  0.2803
 8569SOL    HW137169   2.165   0.672   4.383  0.0548 -0.7957  1.4281
 8569SOL    HW237170   2.097   0.545   4.417 -0.9425  0.8878  1.2698
 8570SOL     OW37171   0.306   1.927   2.057  0.2004  0.2501  0.3234
 8570SOL    HW137172   0.272   2.003   2.106  0.2145 -0.1486  0.9469
 8570SOL    HW237173   0.374   1.975   2.010 -1.0758  3.1462  1.3667
 8571SOL     OW37174   0.265   2.213   3.984  0.1606  0.3313 -0.0809
 8571SOL    HW137175   0.186   2.164   3.961  1.2144 -0.9268 -1.0485
 8571SOL    HW237176   0.322   2.153   3.935 -0.8066  0.3009 -1.1635
 8572SOL     OW37177   1.424   0.969   4.998  0.0185 -0.1397  0.4718
 8572SOL    HW137178   1.372   1.050   4.997 -0.6781 -0.6080 -0.3421
 8572SOL    HW237179   1.388   0.925   4.922  0.7140  0.4086 -0.1793
 8573SOL     OW37180   4.007   0.200   3.824  0.0290 -0.0462  0.0528
 8573SOL    HW137181   3.966   0.191   3.738  0.6826  0.1471 -0.2801
 8573SOL    HW237182   4.084   0.251   3.799  0.1691 -0.5386 -0.5111
 8574SOL     OW37183   3.066   1.942   7.036 -0.6828  0.0648  0.4357
 8574SOL    HW137184   3.131   1.902   6.979 -0.8571  0.2032  0.1416
 8574SOL    HW237185   3.072   2.036   7.018  2.1042  0.3186  2.6230
 8575SOL     OW37186   1.508   4.507   2.501 -0.5771  0.0538 -0.5748
 8575SOL    HW137187   1.504   4.540   2.411 -0.9805  0.1640 -0.5148
 8575SOL    HW237188   1.458   4.426   2.508 -0.0412 -0.2850 -0.5896
 8576SOL     OW37189   4.147   1.263   7.723  0.2364 -0.1317  0.1316
 8576SOL    HW137190   4.208   1.301   7.786 -0.1492  1.0425 -0.1921
 8576SOL    HW237191   4.174   1.172   7.714 -2.3777 -0.9016  0.0579
 8577SOL     OW37192   2.568   4.219   5.338  0.0095 -0.5933  0.0623
 8577SOL    HW137193   2.516   4.213   5.258  1.1696 -0.6756 -0.6806
 8577SOL    HW237194   2.579   4.313   5.357  0.2895 -0.5683 -0.2280
 8578SOL     OW37195   4.348   3.707   4.423 -0.2314 -0.2369 -0.1597
 8578SOL    HW137196   4.336   3.692   4.517  0.9113  1.6642  0.2613
 8578SOL    HW237197   4.295   3.633   4.392  1.5905 -1.8108  0.5167
 8579SOL     OW37198   2.133   2.853   4.646  0.0200 -0.4956  0.0218
 8579SOL    HW137199   2.133   2.946   4.669 -1.0942 -0.0799 -1.6334
 8579SOL    HW237200   2.081   2.815   4.717  1.7126  0.2516  1.6493
 8580SOL     OW37201   1.692   4.005   4.371 -0.2661 -0.5930  0.3064
 8580SOL    HW137202   1.600   4.032   4.372 -0.3361 -0.7610 -1.9459
 8580SOL    HW237203   1.675   3.917   4.403 -1.0149 -0.8994 -0.9158
 8581SOL     OW37204   3.481   0.395   8.333  0.1021  0.0209  0.2094
 8581SOL    HW137205   3.389   0.416   8.351  0.1731  0.5163 -0.0063
 8581SOL    HW237206   3.473   0.300   8.322 -0.5545  0.1346 -0.2800
 8582SOL     OW37207   2.612   0.311  14.820  0.2771  0.1677 -0.5039
 8582SOL    HW137208   2.528   0.283  14.784  0.9225  0.1241 -1.9651
 8582SOL    HW237209   2.651   0.225  14.837 -0.9120 -0.2727 -0.0124
 8583SOL     OW37210   1.052   4.484   8.197  0.3498 -0.3281  0.1085
 8583SOL    HW137211   1.016   4.570   8.217  1.1531 -0.3670  1.7544
 8583SOL    HW237212   1.041   4.435   8.278  0.2084 -0.3118  0.0981
 8584SOL     OW37213   3.477   3.717   7.691  0.7475  0.3990  0.1400
 8584SOL    HW137214   3.510   3.762   7.613 -0.8934  0.9052 -0.2818
 8584SOL    HW237215   3.438   3.639   7.651 -0.5826  1.8532 -1.3967
 8585SOL     OW37216   2.456   2.222  11.489 -0.6285  0.2097 -0.0928
 8585SOL    HW137217   2.422   2.306  11.458 -0.4121  0.5352  0.5514
 8585SOL    HW237218   2.434   2.223  11.582  1.1909 -1.7110  0.3511
 8586SOL     OW37219   2.249   4.480   6.979  0.6993  0.2154  0.2468
 8586SOL    HW137220   2.261   4.495   7.072 -1.0673  0.8555  0.3809
 8586SOL    HW237221   2.156   4.500   6.966  0.2176 -1.3025  1.4645
 8587SOL     OW37222   1.169   1.935   2.946  0.3447  0.1527 -0.7960
 8587SOL    HW137223   1.125   1.998   3.003 -2.5984 -1.0275 -1.7635
 8587SOL    HW237224   1.246   1.979   2.913  0.2088  0.6641 -0.4380
 8588SOL     OW37225   3.995   4.490   2.249 -0.3503  0.2297  0.6165
 8588SOL    HW137226   4.036   4.479   2.163 -0.7857  0.5319  0.3734
 8588SOL    HW237227   3.991   4.400   2.283  0.2513  0.3056  0.8951
 8589SOL     OW37228   3.042   1.761  13.865  0.0480 -0.1561 -0.3794
 8589SOL    HW137229   3.129   1.728  13.889  0.6058  1.6277  0.0916
 8589SOL    HW237230   2.996   1.724  13.940  0.9071  0.5499  0.4999
 8590SOL     OW37231   0.734   2.017   6.151 -0.8740  0.4609 -0.5927
 8590SOL    HW137232   0.768   1.935   6.116 -0.3562  0.2954  0.3017
 8590SOL    HW237233   0.639   2.028   6.140 -0.9863  1.1113  0.9921
 8591SOL     OW37234   4.331   2.695   2.188  0.4648 -0.2167 -0.4847
 8591SOL    HW137235   4.417   2.674   2.225  1.6873  3.8033 -0.9836
 8591SOL    HW237236   4.324   2.783   2.225  2.6508  0.4400 -1.5907
 8592SOL     OW37237   2.414   2.692   0.846  0.1733  0.1871  0.2824
 8592SOL    HW137238   2.510   2.692   0.845  0.1929  3.2195  1.7468
 8592SOL    HW237239   2.398   2.658   0.934 -0.1680  0.5916  0.3765
 8593SOL     OW37240   4.346   0.492   6.540  0.5338 -0.1012 -0.3028
 8593SOL    HW137241   4.326   0.507   6.632  1.0933  1.5597 -0.4446
 8593SOL    HW237242   4.295   0.415   6.516  0.1004  0.7953 -2.2696
 8594SOL     OW37243   3.357   3.370   7.030 -0.4596  0.1363 -0.1523
 8594SOL    HW137244   3.356   3.339   7.121  1.5906 -0.9084 -0.4817
 8594SOL    HW237245   3.291   3.317   6.985  0.7594 -1.4694 -0.0462
 8595SOL     OW37246   0.091   1.627   2.381 -0.3788  0.2448 -0.6793
 8595SOL    HW137247   0.149   1.652   2.309  0.3168 -0.4229 -0.3433
 8595SOL    HW237248   0.013   1.593   2.337  0.0357 -2.5894  0.7718
 8596SOL     OW37249   4.482   3.126  11.504 -0.4339  0.1462  0.3623
 8596SOL    HW137250   4.518   3.046  11.465 -0.1071  0.7486 -0.5830
 8596SOL    HW237251   4.563   3.170  11.531 -0.9993  1.3135  0.1375
 8597SOL     OW37252   0.446   4.270   5.628 -0.1853  0.6521 -0.4770
 8597SOL    HW137253   0.440   4.351   5.577 -0.4506  0.8843 -0.0753
 8597SOL    HW237254   0.479   4.301   5.712 -0.5926 -0.0171 -0.0811
 8598SOL     OW37255   3.554   3.301   5.529  0.5179 -0.1227 -0.5128
 8598SOL    HW137256   3.540   3.395   5.520  2.1253  0.5430  3.6207
 8598SOL    HW237257   3.471   3.262   5.556  0.5561 -0.1194 -0.3892
 8599SOL     OW37258   3.653   1.571   5.506 -0.1700 -0.1085  0.8237
 8599SOL    HW137259   3.572   1.524   5.528 -1.2311  1.3291  0.0127
 8599SOL    HW237260   3.612   1.656   5.490 -0.9512 -0.5656  0.3983
 8600SOL     OW37261   2.660   1.809   3.406 -0.3685 -0.5809 -0.0564
 8600SOL    HW137262   2.609   1.885   3.433 -0.2574  0.4756 -2.7945
 8600SOL    HW237263   2.590   1.767   3.355 -0.9726  0.9332 -0.4687
 8601SOL     OW37264   0.043   4.001  13.594 -0.4379 -0.5013  0.3270
 8601SOL    HW137265   4.706   3.958  13.654  0.8037  0.5597  2.3882
 8601SOL    HW237266   4.720   4.009  13.512 -0.1752 -1.9381  0.0307
 8602SOL     OW37267   4.445   2.689   4.204 -0.0948 -0.9952 -0.1334
 8602SOL    HW137268   4.469   2.656   4.118  1.7495  1.5376 -0.5606
 8602SOL    HW237269   4.468   2.609   4.252  2.3310 -1.1868 -1.6804
 8603SOL     OW37270   3.069   3.487   5.092 -0.2090 -0.4905  0.2014
 8603SOL    HW137271   3.090   3.406   5.045  0.6765 -0.9257  1.3563
 8603SOL    HW237272   3.150   3.522   5.131 -1.7401  0.0937  2.8459
 8604SOL     OW37273   1.379   0.826   0.282 -0.3590 -0.6187 -0.2826
 8604SOL    HW137274   1.399   0.828   0.189 -0.1805  0.2608 -0.2277
 8604SOL    HW237275   1.437   0.757   0.314  2.8542  2.4595  0.4944
 8605SOL     OW37276   1.771   2.336   3.001  0.1383 -0.1966 -0.0573
 8605SOL    HW137277   1.785   2.380   3.085  1.7244  1.2364 -1.0662
 8605SOL    HW237278   1.706   2.274   3.035  1.4533 -0.9211  1.1797
 8606SOL     OW37279   2.608   2.949   3.376 -0.0578  0.4196 -0.7127
 8606SOL    HW137280   2.674   2.936   3.308  0.4319  0.2067 -0.1966
 8606SOL    HW237281   2.526   2.936   3.328 -1.3125  1.4197  1.1433
 8607SOL     OW37282   2.499   3.341   4.323 -0.0447 -0.0336  0.4788
 8607SOL    HW137283   2.522   3.335   4.230 -2.1164  0.2201 -0.0525
 8607SOL    HW237284   2.575   3.301   4.364  0.1541 -2.0844 -1.9064
 8608SOL     OW37285   1.612   1.752   9.152  0.3551 -0.6752 -0.6244
 8608SOL    HW137286   1.687   1.695   9.139 -1.1168 -2.5916 -0.6859
 8608SOL    HW237287   1.652   1.813   9.214  0.6636  0.4381 -1.9218
 8609SOL     OW37288   0.522   1.382   9.334 -0.1999 -0.7199  0.1860
 8609SOL    HW137289   0.613   1.391   9.307 -0.9315  0.1825 -2.0002
 8609SOL    HW237290   0.469   1.367   9.255 -1.5152  2.3266  0.4830
 8610SOL     OW37291   0.546   3.549  13.145 -0.2574 -0.2708 -0.0922
 8610SOL    HW137292   0.484   3.477  13.140  1.6909 -1.9614  0.2925
 8610SOL    HW237293   0.498   3.628  13.171  0.9149  0.9321 -1.5671
 8611SOL     OW37294   3.567   0.993   6.137 -0.3659 -0.2228  0.2923
 8611SOL    HW137295   3.591   0.903   6.115  1.5931 -0.1401  2.1017
 8611SOL    HW237296   3.473   0.990   6.157 -0.0699 -2.5852  1.4232
 8612SOL     OW37297   1.984   2.577   2.070 -0.1193  0.2901  0.0505
 8612SOL    HW137298   2.069   2.615   2.047 -0.5426  0.9717 -0.4100
 8612SOL    HW237299   1.987   2.553   2.162 -0.3247 -2.0324 -0.5480
 8613SOL     OW37300   3.164   3.500   4.073 -0.1140 -0.2212 -0.8174
 8613SOL    HW137301   3.257   3.478   4.072 -0.1412 -0.5768  3.9000
 8613SOL    HW237302   3.154   3.561   4.146 -0.2059 -0.0031 -1.0122
 8614SOL     OW37303   1.102   3.959  15.895 -0.0750  0.8384  0.2960
 8614SOL    HW137304   1.183   3.975  15.848 -0.2536 -0.1149 -0.3383
 8614SOL    HW237305   1.045   3.996  15.827 -0.4948 -0.3477  0.0038
 8615SOL     OW37306   3.929   4.469   6.240  0.1291  0.4690 -0.1330
 8615SOL    HW137307   4.025   4.459   6.244  0.5404  3.7457 -1.4636
 8615SOL    HW237308   3.907   4.419   6.162 -0.6268  0.1345  0.2996
 8616SOL     OW37309   2.646   2.209   6.055 -0.8508  0.1028 -0.6307
 8616SOL    HW137310   2.586   2.280   6.078 -1.0867 -0.8357  1.6342
 8616SOL    HW237311   2.723   2.219   6.111 -1.6875  0.7691  0.3963
 8617SOL     OW37312   0.528   0.411  15.919 -0.1696  0.6775  0.3042
 8617SOL    HW137313   0.593   0.347  15.949  0.5977  0.8453 -0.9959
 8617SOL    HW237314   0.475   0.421  15.998 -0.4900  1.3778  0.0019
 8618SOL     OW37315   0.573   2.612   5.527 -0.4261 -0.1996  0.1350
 8618SOL    HW137316   0.568   2.611   5.432 -1.0113  0.4637  0.1626
 8618SOL    HW237317   0.604   2.523   5.548  0.7796 -0.0158 -0.8906
 8619SOL     OW37318   4.330   4.269   2.795  0.4963 -0.3340  0.0166
 8619SOL    HW137319   4.318   4.255   2.701  2.4826 -0.3802 -0.2396
 8619SOL    HW237320   4.370   4.189   2.831 -0.4046 -1.0984 -0.6789
 8620SOL     OW37321   2.170   3.228   2.032 -0.0688 -0.3210 -0.4108
 8620SOL    HW137322   2.132   3.304   1.987  0.8792 -0.2999 -1.1691
 8620SOL    HW237323   2.101   3.161   2.029 -3.4649  3.2521 -1.4263
 8621SOL     OW37324   4.320   2.838   7.192  0.4656 -0.2877  0.1617
 8621SOL    HW137325   4.374   2.808   7.119 -0.0938  2.3201 -1.3479
 8621SOL    HW237326   4.336   2.777   7.264  4.1411  2.5635  1.7982
 8622SOL     OW37327   3.551   3.240   4.863  0.2316  0.3397  0.4719
 8622SOL    HW137328   3.623   3.229   4.801  0.3370 -0.9635  0.8149
 8622SOL    HW237329   3.573   3.164   4.917  3.3298  2.1864  1.8202
 8623SOL     OW37330   1.257   1.741   3.831 -0.3007 -0.1546 -0.7617
 8623SOL    HW137331   1.172   1.701   3.817  1.0389 -3.0731 -0.4826
 8623SOL    HW237332   1.224   1.825   3.864 -0.7130 -0.0273 -1.4957
 8624SOL     OW37333   4.698   1.680   4.641 -0.7838  0.5240 -0.0702
 8624SOL    HW137334   4.696   1.679   4.736  1.5383  0.6228 -0.0182
 8624SOL    HW237335   0.022   1.755   4.608  1.2143 -1.4751 -1.6418
 8625SOL     OW37336   2.453   1.914   5.368 -0.3025 -0.1091 -0.2232
 8625SOL    HW137337   2.434   1.909   5.274  1.5012 -0.9772 -0.5288
 8625SOL    HW237338   2.507   1.993   5.371  0.3284 -0.5217 -0.6310
 8626SOL     OW37339   3.736   2.737   5.217  0.0125  0.2864  0.4223
 8626SOL    HW137340   3.643   2.722   5.205  0.4259 -0.3244 -2.0954
 8626SOL    HW237341   3.775   2.691   5.142 -1.7291 -0.1377 -0.2108
 8627SOL     OW37342   0.217   3.035   4.527  0.5395 -0.3598  0.6168
 8627SOL    HW137343   0.221   3.016   4.621  2.9364 -1.4412  0.2885
 8627SOL    HW237344   0.261   2.958   4.490  1.9971  1.2830 -1.0648
 8628SOL     OW37345   1.988   3.934   2.988  0.0552 -1.0517  0.5704
 8628SOL    HW137346   2.037   3.876   2.929  0.1655 -0.2712 -0.0992
 8628SOL    HW237347   1.997   4.013   2.935  0.8031 -1.8124 -0.4298
 8629SOL     OW37348   1.386   2.052  16.088  0.4986 -0.4742 -0.1800
 8629SOL    HW137349   1.449   2.035  16.158 -1.2196 -1.1322  1.2352
 8629SOL    HW237350   1.432   2.120  16.039 -1.6318  0.1834 -1.2815
 8630SOL     OW37351   4.153   1.835   5.354  0.7745 -0.2203 -0.2945
 8630SOL    HW137352   4.092   1.800   5.289 -1.7130 -0.0139  1.9430
 8630SOL    HW237353   4.181   1.754   5.397 -0.4316 -1.3472 -1.6322
 8631SOL     OW37354   3.526   3.214   8.752  0.3004  0.0386 -0.2383
 8631SOL    HW137355   3.495   3.134   8.795 -0.5810  0.7175  0.4123
 8631SOL    HW237356   3.436   3.242   8.734 -0.9867 -3.7246  0.2022
 8632SOL     OW37357   4.321   1.710   0.264 -0.3726  0.4037 -0.6695
 8632SOL    HW137358   4.412   1.734   0.282 -0.2477  0.7544 -1.7688
 8632SOL    HW237359   4.306   1.764   0.186 -2.2211  2.2370  0.9550
 8633SOL     OW37360   3.972   3.277   4.018 -0.0578  0.3133  0.2852
 8633SOL    HW137361   4.053   3.328   4.010  0.6359 -1.0299 -1.2161
 8633SOL    HW237362   3.995   3.197   3.971  1.1810  1.2995 -0.7792
 8634SOL     OW37363   1.745   1.008   8.657 -0.1188 -0.4872 -0.6470
 8634SOL    HW137364   1.832   1.038   8.629  1.1087 -0.6462  3.0050
 8634SOL    HW237365   1.738   1.047   8.744 -0.2604 -0.8386 -0.5009
 8635SOL     OW37366   1.859   1.797   3.304  0.4200  0.1330  0.4555
 8635SOL    HW137367   1.868   1.793   3.209 -1.1952 -0.2790  0.3295
 8635SOL    HW237368   1.775   1.843   3.315 -1.2370 -2.8724  0.2878
 8636SOL     OW37369   1.288   3.782   6.185  0.3724  0.2530 -0.1335
 8636SOL    HW137370   1.286   3.817   6.274  2.0041 -0.3117  0.1351
 8636SOL    HW237371   1.201   3.742   6.183 -0.1194  1.2487  1.9157
 8637SOL     OW37372   1.488   0.585   3.812  0.4047  0.2127  0.5029
 8637SOL    HW137373   1.495   0.649   3.882 -0.3478 -1.7934  2.4109
 8637SOL    HW237374   1.577   0.553   3.802  0.1640 -0.6366  1.0913
 8638SOL     OW37375   1.074   0.433   6.216 -0.7022 -0.7426  0.3430
 8638SOL    HW137376   1.037   0.445   6.304 -0.4395  0.4592  0.2853
 8638SOL    HW237377   1.164   0.465   6.226 -1.0850  0.3475  0.3494
 8639SOL     OW37378   1.367   0.682   0.927  0.0576 -0.1487 -0.1250
 8639SOL    HW137379   1.324   0.764   0.902 -0.2233 -0.2467  0.0356
 8639SOL    HW237380   1.439   0.691   0.865 -0.8042  0.7172 -1.0117
 8640SOL     OW37381   4.392   0.956   7.328  0.5258  0.1925 -0.3472
 8640SOL    HW137382   4.327   1.025   7.339  1.3736  1.0741 -0.8777
 8640SOL    HW237383   4.356   0.902   7.258  1.3607 -0.3954 -0.3228
 8641SOL     OW37384   2.914   2.512   6.883 -0.7378  0.3049  0.2291
 8641SOL    HW137385   2.906   2.579   6.950  2.0841 -0.9022  1.7563
 8641SOL    HW237386   2.999   2.544   6.852  0.3914 -2.1762  0.7626
 8642SOL     OW37387   1.961   2.817   3.321  0.3794 -0.2242  0.5133
 8642SOL    HW137388   1.946   2.912   3.319  1.0344 -0.1532 -1.1558
 8642SOL    HW237389   2.010   2.793   3.400  1.7681 -0.5794 -0.4521
 8643SOL     OW37390   4.598   0.424   3.460 -0.6439  0.4458 -0.2548
 8643SOL    HW137391   4.547   0.485   3.405 -0.0164  0.8473 -0.3853
 8643SOL    HW237392   4.643   0.378   3.389 -1.7893  0.6453 -1.1208
 8644SOL     OW37393   3.810   3.812  12.064  0.0843 -0.5669 -0.1417
 8644SOL    HW137394   3.758   3.890  12.045  0.0597 -0.3838  0.6827
 8644SOL    HW237395   3.782   3.796  12.154  1.0877  0.7638  0.4180
 8645SOL     OW37396   0.760   0.792  12.094  0.6751 -0.5792  0.5484
 8645SOL    HW137397   0.756   0.718  12.154  4.4030  0.1123  1.6793
 8645SOL    HW237398   0.686   0.753  12.047  0.6985 -0.0730  0.0903
 8646SOL     OW37399   0.722   4.418  15.195 -0.2715 -0.5931 -0.7359
 8646SOL    HW137400   0.712   4.490  15.257 -2.1857 -2.1795  0.8013
 8646SOL    HW237401   0.730   4.464  15.111 -1.3361  1.9749  0.5882
 8647SOL     OW37402   1.771   4.085   7.870 -0.5706 -0.2476 -0.3211
 8647SOL    HW137403   1.777   4.140   7.949 -4.6638  0.8357 -0.7833
 8647SOL    HW237404   1.760   4.151   7.802  0.8119  0.9287  0.5840
 8648SOL     OW37405   3.538   1.819   3.762 -0.0559  0.0724  0.1357
 8648SOL    HW137406   3.594   1.878   3.812  0.0300  0.7209 -0.7160
 8648SOL    HW237407   3.454   1.862   3.777 -0.0280  0.3387 -0.4320
 8649SOL     OW37408   3.085   1.885   3.599  0.1275  0.3966  0.3813
 8649SOL    HW137409   3.028   1.962   3.604  0.8482  1.0856 -2.3044
 8649SOL    HW237410   3.080   1.862   3.506  0.0950 -1.4882  0.8382
 8650SOL     OW37411   2.524   0.583   6.654  0.4039 -0.1442  0.1725
 8650SOL    HW137412   2.524   0.670   6.693  0.3442 -0.2665  0.4495
 8650SOL    HW237413   2.612   0.554   6.678  1.0069 -0.0506 -1.8819
 8651SOL     OW37414   2.970   2.524  16.729 -0.4589 -0.0920  0.4299
 8651SOL    HW137415   3.053   2.480  16.749  0.0621  0.0211 -1.4639
 8651SOL    HW237416   2.950   2.481  16.646  0.6701 -1.7114  0.9832
 8652SOL     OW37417   2.459   1.292  14.133 -0.1513 -0.7279 -0.2142
 8652SOL    HW137418   2.397   1.356  14.097  0.5733  1.4371  2.4237
 8652SOL    HW237419   2.410   1.270  14.212  2.1384 -0.0909  1.3945
 8653SOL     OW37420   4.159   1.410   4.199 -0.0169 -0.0588  0.2880
 8653SOL    HW137421   4.251   1.382   4.195 -0.1210 -0.5577  1.5833
 8653SOL    HW237422   4.134   1.356   4.124  0.3827  1.7292 -1.1581
 8654SOL     OW37423   1.292   4.324   4.169 -0.0481  0.0460  0.1704
 8654SOL    HW137424   1.290   4.273   4.087  0.6788  1.1484 -0.5279
 8654SOL    HW237425   1.385   4.316   4.188  0.0735  0.3683 -0.2822
 8655SOL     OW37426   4.300   0.605   7.633 -0.1730 -0.5014  0.0695
 8655SOL    HW137427   4.228   0.578   7.690 -0.0413 -1.8887 -0.4187
 8655SOL    HW237428   4.372   0.584   7.693 -0.5835 -0.6635  0.5004
 8656SOL     OW37429   0.022   3.810   3.769  0.4314 -0.2681  0.0174
 8656SOL    HW137430   4.697   3.875   3.719 -1.2440 -0.4298  1.4537
 8656SOL    HW237431   4.693   3.733   3.783  1.5994 -1.2617 -0.9493
 8657SOL     OW37432   2.907   3.212   4.848  0.5256 -0.4267 -0.6192
 8657SOL    HW137433   2.985   3.203   4.904  1.3655  0.9859 -1.5641
 8657SOL    HW237434   2.850   3.279   4.886 -1.2532 -3.3720  1.8657
 8658SOL     OW37435   0.851   2.886  12.930 -0.0934  0.4946  0.5181
 8658SOL    HW137436   0.852   2.824  12.857  2.0635  0.9160  0.1895
 8658SOL    HW237437   0.919   2.854  12.990 -1.7553 -1.4454  1.3531
 8659SOL     OW37438   0.542   1.277   3.563  0.4404 -0.6176  0.0774
 8659SOL    HW137439   0.597   1.221   3.507  3.1674  2.2096 -0.1026
 8659SOL    HW237440   0.456   1.236   3.557 -0.6272  1.5145  0.8894
 8660SOL     OW37441   2.270   2.953   3.874  0.4031 -0.0602 -0.5075
 8660SOL    HW137442   2.284   2.984   3.964 -0.1884  1.3175 -0.8998
 8660SOL    HW237443   2.330   3.011   3.827  4.1822 -0.6709  3.4773
 8661SOL     OW37444   2.343   2.916  17.681 -0.1737  0.1619 -0.2804
 8661SOL    HW137445   2.333   2.833  17.634 -1.7784 -0.0678  0.4789
 8661SOL    HW237446   2.439   2.914  17.680 -0.1643 -0.2225  1.2649
 8662SOL     OW37447   3.990   4.605  10.471 -0.2944 -0.5456 -0.2977
 8662SOL    HW137448   4.053   4.633  10.405  0.0797  2.2996  1.2840
 8662SOL    HW237449   4.043   4.628  10.548 -0.6840 -1.1164  0.1474
 8663SOL     OW37450   2.908   3.112   5.166 -0.2140 -0.0873  0.2253
 8663SOL    HW137451   2.819   3.083   5.184 -0.2205 -0.0012  0.3327
 8663SOL    HW237452   2.909   3.201   5.202 -1.6003  1.6146 -3.9632
 8664SOL     OW37453   1.264   0.230   6.902 -0.2602 -0.0896  0.1194
 8664SOL    HW137454   1.286   0.324   6.900 -1.1280  0.1299  0.8452
 8664SOL    HW237455   1.185   0.232   6.849  0.5391  1.3908 -1.0358
 8665SOL     OW37456   1.032   1.598   5.740 -0.5295 -0.2597 -0.4483
 8665SOL    HW137457   1.017   1.611   5.646  0.4519 -1.6150 -0.7902
 8665SOL    HW237458   1.009   1.684   5.776  1.6047 -0.0104  0.3251
 8666SOL     OW37459   1.117   3.541   5.990 -0.2692 -0.1952  0.4493
 8666SOL    HW137460   1.102   3.624   6.035  2.9381  0.2673  0.6580
 8666SOL    HW237461   1.199   3.514   6.032 -0.1203  0.8455  0.8225
 8667SOL     OW37462   0.965   4.271   3.432  0.0452  0.4833 -0.1230
 8667SOL    HW137463   1.002   4.202   3.487 -0.6169  1.0049  0.9794
 8667SOL    HW237464   1.050   4.308   3.408  0.0338  1.8187  1.8532
 8668SOL     OW37465   2.355   2.254  14.817  0.3167  0.1193 -0.0223
 8668SOL    HW137466   2.357   2.312  14.893 -1.2563  1.1841 -0.7753
 8668SOL    HW237467   2.368   2.321  14.751 -0.9494 -1.2129 -1.6389
 8669SOL     OW37468   1.460   4.259   3.377  0.0163  0.0575  0.4174
 8669SOL    HW137469   1.543   4.213   3.364  0.4299  0.5875  1.1564
 8669SOL    HW237470   1.408   4.255   3.297 -1.4762  1.0417  1.3510
 8670SOL     OW37471   1.355   0.927   8.399 -0.5620 -0.3359  0.0529
 8670SOL    HW137472   1.389   0.904   8.313 -0.4403 -1.1674  0.3219
 8670SOL    HW237473   1.407   0.867   8.453  0.1052 -0.2024 -0.4425
 8671SOL     OW37474   3.485   2.980   5.271 -0.0285  0.4836 -0.6910
 8671SOL    HW137475   3.568   3.007   5.311 -0.0275 -0.2693 -0.1783
 8671SOL    HW237476   3.496   2.997   5.178  2.4446  3.4868  0.1218
 8672SOL     OW37477   0.055   3.981  15.267  0.1950 -0.5286  0.1913
 8672SOL    HW137478   4.685   3.972  15.254  0.3796 -1.1486 -0.7616
 8672SOL    HW237479   0.083   3.897  15.231  0.1460 -1.6284  2.7185
 8673SOL     OW37480   2.894   1.203   5.158 -0.2580 -0.4175  0.2823
 8673SOL    HW137481   2.975   1.194   5.108  0.1424 -0.4170  0.9278
 8673SOL    HW237482   2.839   1.142   5.108 -0.2217  0.3474 -0.6957
 8674SOL     OW37483   4.702   1.336   2.718  0.1367 -0.1887 -0.1381
 8674SOL    HW137484   4.693   1.289   2.801 -1.6554 -1.8739 -1.2888
 8674SOL    HW237485   4.652   1.415   2.741  1.2231  0.0064  1.5886
 8675SOL     OW37486   0.209   2.672   2.807 -0.2488  0.3580 -0.4805
 8675SOL    HW137487   0.214   2.584   2.844 -4.3438  1.2212  2.0047
 8675SOL    HW237488   0.166   2.719   2.878  0.4593 -2.8081  2.0528
 8676SOL     OW37489   3.612   3.897   4.935 -0.0127  0.1518 -0.0058
 8676SOL    HW137490   3.657   3.833   4.880  1.1484  1.2866 -0.3547
 8676SOL    HW237491   3.582   3.842   5.008  2.6556  0.1329  1.0607
 8677SOL     OW37492   1.436   0.799   7.544 -0.4277 -0.0916  0.0701
 8677SOL    HW137493   1.357   0.840   7.581 -1.1710 -1.5571  0.1048
 8677SOL    HW237494   1.489   0.868   7.504 -0.2572 -1.1107 -1.4741
 8678SOL     OW37495   4.571   3.495   2.369 -0.1010  0.4241  0.0307
 8678SOL    HW137496   4.638   3.522   2.431  1.3446 -0.6679 -1.0713
 8678SOL    HW237497   4.590   3.401   2.362 -1.2218  0.2701 -1.1189
 8679SOL     OW37498   2.691   3.279   4.567 -0.3323 -0.5227 -0.0988
 8679SOL    HW137499   2.770   3.225   4.565 -0.5864 -0.9258  0.7451
 8679SOL    HW237500   2.723   3.368   4.578 -1.8909 -0.1142  1.2124
 8680SOL     OW37501   4.328   4.725  13.275  0.2617  0.4163  0.5368
 8680SOL    HW137502   4.277   4.695  13.199 -1.4545  0.2323  1.7688
 8680SOL    HW237503   4.282   0.081  13.293 -0.8785 -0.0499 -0.2670
 8681SOL     OW37504   1.643   0.733   0.287  0.0423  0.0744 -0.1385
 8681SOL    HW137505   1.621   0.645   0.256 -0.5434  0.1811 -0.0285
 8681SOL    HW237506   1.669   0.722   0.378  1.0714  0.8797 -0.3334
 8682SOL     OW37507   2.354   2.203  10.838  0.2557 -0.0357  0.3315
 8682SOL    HW137508   2.308   2.128  10.802 -0.9844  1.2835 -0.8276
 8682SOL    HW237509   2.398   2.159  10.910 -1.0848 -1.5461  0.2313
 8683SOL     OW37510   4.018   3.910   1.997  0.1814  0.3380  0.3363
 8683SOL    HW137511   3.974   3.990   2.024  1.9310  1.9047 -1.4685
 8683SOL    HW237512   4.085   3.916   2.064  0.1059  2.0518  0.2407
 8684SOL     OW37513   2.389   0.228  14.688 -0.1548  0.4097  0.0559
 8684SOL    HW137514   2.372   0.312  14.646  0.5358  1.6938  2.2927
 8684SOL    HW237515   2.408   0.178  14.609  1.6720  0.6763  0.3143
 8685SOL     OW37516   0.812   2.107   6.515  0.3743  0.1975 -1.2017
 8685SOL    HW137517   0.824   2.163   6.592  0.3832 -1.5958  0.0937
 8685SOL    HW237518   0.722   2.076   6.527  1.2783 -1.5642  1.0240
 8686SOL     OW37519   0.233   4.410   6.221 -0.6206  0.0584  0.5736
 8686SOL    HW137520   0.279   4.328   6.203  2.1779  0.8536  4.1586
 8686SOL    HW237521   0.266   4.440   6.306 -0.0404 -0.3474  0.4906
 8687SOL     OW37522   3.138   1.070   1.769  0.3327  0.1115  0.3371
 8687SOL    HW137523   3.074   1.077   1.841 -1.2353 -0.8656 -0.9635
 8687SOL    HW237524   3.114   0.985   1.732 -1.2891  1.6788 -2.1871
 8688SOL     OW37525   0.101   4.479   3.838  0.1179 -0.1137  0.8118
 8688SOL    HW137526   0.043   4.515   3.906  0.5270 -0.8039  1.5274
 8688SOL    HW237527   0.039   4.465   3.767  0.8776  0.6662  0.0050
 8689SOL     OW37528   2.963   1.310   1.175 -0.0079 -0.0517  0.3529
 8689SOL    HW137529   2.976   1.249   1.102  0.1724  1.0768 -0.5476
 8689SOL    HW237530   3.019   1.378   1.139 -0.0745 -2.3774 -4.2138
 8690SOL     OW37531   3.641   4.213  14.778 -0.2826  0.8826  0.0190
 8690SOL    HW137532   3.575   4.274  14.744 -2.3535 -0.0744  2.3454
 8690SOL    HW237533   3.706   4.282  14.788 -2.0288  2.6275 -0.6841
 8691SOL     OW37534   1.916   4.673   5.815 -0.5088 -0.2594  0.2394
 8691SOL    HW137535   1.839   4.619   5.798 -1.6223  1.6281 -0.7075
 8691SOL    HW237536   1.915   4.717   5.730 -0.6053 -1.1028 -0.1891
 8692SOL     OW37537   3.442   1.606  10.976 -0.2375  0.2680 -0.1238
 8692SOL    HW137538   3.411   1.696  10.972  1.6852  0.9187 -0.5635
 8692SOL    HW237539   3.373   1.555  11.018 -0.5947  1.1038  0.3015
 8693SOL     OW37540   2.577   1.974  11.965 -1.2979 -0.1539  0.3637
 8693SOL    HW137541   2.601   2.059  11.929 -1.6626 -0.7351 -1.2593
 8693SOL    HW237542   2.630   1.916  11.910  0.9968  3.0908 -0.8392
 8694SOL     OW37543   2.294   1.474  14.017  0.0423 -0.1409 -0.0154
 8694SOL    HW137544   2.241   1.485  13.939 -1.5112 -2.4014  0.7373
 8694SOL    HW237545   2.223   1.450  14.077  0.6303  0.9867  1.1515
 8695SOL     OW37546   0.019   0.187  17.001  0.5151  0.1778 -0.4768
 8695SOL    HW137547   0.066   0.270  17.004 -0.4455  0.7291 -0.7928
 8695SOL    HW237548   4.658   0.214  16.970 -0.2478 -0.9175  0.6689
 8696SOL     OW37549   3.101   0.865  12.070 -0.0631  0.4943  0.1095
 8696SOL    HW137550   3.109   0.855  11.975 -2.2818  2.2819 -0.2718
 8696SOL    HW237551   3.146   0.787  12.102  0.8945  1.0961  0.2383
 8697SOL     OW37552   2.977   1.835   6.357 -0.5610 -0.1224  0.0642
 8697SOL    HW137553   3.053   1.852   6.412  0.4842 -0.7018 -1.2134
 8697SOL    HW237554   2.920   1.904   6.393  0.7499  2.5857 -3.0229
 8698SOL     OW37555   4.324   0.066   9.737 -0.0504 -0.4202 -0.3497
 8698SOL    HW137556   4.339   4.699   9.716 -0.1771 -0.4319 -0.3864
 8698SOL    HW237557   4.366   0.107   9.661 -2.2794 -1.0084 -1.8680
 8699SOL     OW37558   3.943   0.548   4.182 -0.0419  0.2807  0.3045
 8699SOL    HW137559   4.007   0.543   4.254 -0.8394  0.6433  1.0422
 8699SOL    HW237560   3.896   0.466   4.191  0.9991 -0.0773  2.6105
 8700SOL     OW37561   0.437   3.937  10.139  0.0358  0.1197 -0.1571
 8700SOL    HW137562   0.374   3.964  10.073 -0.3704  2.0493  1.0063
 8700SOL    HW237563   0.397   3.856  10.171  0.0595  0.0454 -0.3159
 8701SOL     OW37564   0.727   0.566  12.231  0.2772 -0.3796 -0.3192
 8701SOL    HW137565   0.681   0.485  12.207  1.0854  0.1590 -3.6852
 8701SOL    HW237566   0.719   0.568  12.327 -0.3125  1.2951 -0.4001
 8702SOL     OW37567   1.552   1.262   1.059 -0.2953 -0.1591  0.1750
 8702SOL    HW137568   1.516   1.318   1.128 -0.6296  0.7690 -0.7445
 8702SOL    HW237569   1.609   1.335   1.033 -0.3585 -0.9586 -2.2254
 8703SOL     OW37570   3.837   0.237   1.868 -0.5326  0.1450  0.3592
 8703SOL    HW137571   3.911   0.177   1.860 -0.5492  0.3073 -0.8717
 8703SOL    HW237572   3.821   0.266   1.779 -0.8613  1.5917  0.8788
 8704SOL     OW37573   3.376   2.282   4.490  0.1253  0.3119  0.0829
 8704SOL    HW137574   3.450   2.275   4.550  0.0174  1.8852  0.3981
 8704SOL    HW237575   3.321   2.207   4.512  1.2975 -0.5744  0.0136
 8705SOL     OW37576   0.493   3.356  16.478  0.0804 -0.1524  0.7562
 8705SOL    HW137577   0.556   3.421  16.447 -0.3332 -0.7491 -1.3246
 8705SOL    HW237578   0.439   3.409  16.536 -1.1315 -0.4116 -0.1316
 8706SOL     OW37579   4.283   3.600   6.306 -0.0710 -0.7691  0.2783
 8706SOL    HW137580   4.260   3.596   6.214  1.1743 -1.3541 -0.0039
 8706SOL    HW237581   4.204   3.598   6.361  0.5096  4.8402  1.2883
 8707SOL     OW37582   1.496   0.385   5.321 -0.4986  0.1083 -0.1012
 8707SOL    HW137583   1.492   0.369   5.226 -0.4066 -0.8276  0.0578
 8707SOL    HW237584   1.474   0.295   5.341  1.5503 -0.4329 -0.3734
 8708SOL     OW37585   0.351   1.472   3.590  1.0171 -0.4275 -0.6911
 8708SOL    HW137586   0.436   1.428   3.578  0.5067 -1.8361  0.9033
 8708SOL    HW237587   0.298   1.461   3.511  0.2643  3.1679 -0.6772
 8709SOL     OW37588   3.282   0.074   7.509  0.3610 -0.0450  0.1679
 8709SOL    HW137589   3.361   0.090   7.457 -0.9700 -1.1460 -2.1611
 8709SOL    HW237590   3.240   0.010   7.452 -0.5293  0.4401  0.2895
 8710SOL     OW37591   2.841   4.025  11.062 -0.3320 -0.1833 -0.3725
 8710SOL    HW137592   2.753   4.043  11.028 -0.9350  0.6716  1.6367
 8710SOL    HW237593   2.883   3.980  10.988 -0.6734  0.4957 -0.9864
 8711SOL     OW37594   1.607   3.479  17.186  0.4285  0.1549  0.2018
 8711SOL    HW137595   1.628   3.497  17.278 -3.0715 -0.1635  1.0774
 8711SOL    HW237596   1.677   3.531  17.147 -0.1054  0.2626 -0.6009
 8712SOL     OW37597   0.769   3.668   6.712  0.4032  0.0595 -0.6978
 8712SOL    HW137598   0.757   3.581   6.749 -0.2043  0.0318 -0.9696
 8712SOL    HW237599   0.693   3.718   6.742 -0.1458 -0.4563 -1.2401
 8713SOL     OW37600   3.797   1.112   7.709 -0.3465  0.0540  0.5092
 8713SOL    HW137601   3.829   1.028   7.675 -1.3453 -1.3795  3.0352
 8713SOL    HW237602   3.877   1.154   7.741  0.3827 -0.2301 -0.9510
 8714SOL     OW37603   4.123   1.245   3.980 -0.3372 -0.4075  0.1320
 8714SOL    HW137604   4.197   1.230   3.922 -1.0525  0.0651 -0.9046
 8714SOL    HW237605   4.100   1.154   3.999 -2.5186  0.4295  1.5365
 8715SOL     OW37606   3.291   1.998   8.601 -0.0406 -0.3164  1.0259
 8715SOL    HW137607   3.263   2.085   8.630 -0.0021 -0.2756  0.9418
 8715SOL    HW237608   3.377   2.020   8.565 -0.0318 -0.8247  0.7385
 8716SOL     OW37609   2.718   2.666  11.397  0.6590 -0.2778 -0.7314
 8716SOL    HW137610   2.705   2.663  11.302 -2.1446 -1.4962 -0.3319
 8716SOL    HW237611   2.807   2.700  11.404  0.3713  0.7290 -1.9164
 8717SOL     OW37612   2.164   1.327   9.102  0.0032  0.2024 -0.5994
 8717SOL    HW137613   2.208   1.411   9.088  0.2273  0.1005 -0.5116
 8717SOL    HW237614   2.231   1.291   9.161 -0.9800 -0.5328  0.0569
 8718SOL     OW37615   4.064   2.964  16.102 -0.3640  0.7675 -0.6585
 8718SOL    HW137616   3.975   2.930  16.091 -1.3825  3.9591 -2.2143
 8718SOL    HW237617   4.123   2.890  16.094  2.4155  2.8982  0.3360
 8719SOL     OW37618   0.347   4.332  15.290 -0.3284 -0.0216  0.2952
 8719SOL    HW137619   0.313   4.243  15.289  0.9653 -0.4998 -1.4003
 8719SOL    HW237620   0.422   4.322  15.231 -0.8251  0.9028 -0.4876
 8720SOL     OW37621   1.837   3.725   2.260  0.0570  0.2122  0.2470
 8720SOL    HW137622   1.811   3.673   2.336 -2.2367 -1.7927 -1.9006
 8720SOL    HW237623   1.786   3.690   2.187 -0.6900  0.9596  0.4160
 8721SOL     OW37624   3.708   4.125   7.640  0.5789 -0.1469  0.1849
 8721SOL    HW137625   3.801   4.119   7.617  0.5558 -0.4660  0.1790
 8721SOL    HW237626   3.720   4.163   7.727  0.1488 -0.7478  0.5066
 8722SOL     OW37627   2.337   4.288  14.121  0.1929 -0.2338 -0.8246
 8722SOL    HW137628   2.283   4.210  14.110  0.4012 -0.2644 -1.6145
 8722SOL    HW237629   2.319   4.334  14.040  0.2892  4.7951  1.9943
 8723SOL     OW37630   2.475   1.130   7.009 -0.0452 -0.4240  0.5601
 8723SOL    HW137631   2.500   1.107   6.919 -1.1432  0.2009  0.0974
 8723SOL    HW237632   2.541   1.087   7.064 -1.3946 -0.4511  2.1195
 8724SOL     OW37633   4.447   4.077   0.170  0.1490 -0.5813 -0.2702
 8724SOL    HW137634   4.535   4.058   0.137  0.7085  0.2341  0.7700
 8724SOL    HW237635   4.427   4.000   0.224 -1.1631 -0.5540 -0.7150
 8725SOL     OW37636   4.518   0.359  17.207  0.4828 -0.1110 -0.5221
 8725SOL    HW137637   4.467   0.305  17.147 -1.4377 -0.6154  1.5707
 8725SOL    HW237638   4.495   0.324  17.293  0.2440 -1.8223 -1.2832
 8726SOL     OW37639   1.613   0.288   0.287  0.6960  0.2813 -0.1044
 8726SOL    HW137640   1.613   0.383   0.277 -2.2303  0.2633 -0.2913
 8726SOL    HW237641   1.537   0.266   0.342 -1.1103  1.6600 -2.0787
 8727SOL     OW37642   0.417   1.729   3.694  0.4887 -0.5842  0.2572
 8727SOL    HW137643   0.450   1.741   3.605  2.7731  1.0547  1.3029
 8727SOL    HW237644   0.388   1.639   3.678  1.2836 -0.6739 -0.6660
 8728SOL     OW37645   0.031   3.154   4.711 -0.0324  0.3241 -0.0301
 8728SOL    HW137646   4.678   3.134   4.660  0.0407 -0.5731  0.2001
 8728SOL    HW237647   0.095   3.175   4.644 -1.6859  0.7782 -1.4581
 8729SOL     OW37648   2.604   1.737  15.377 -0.2803 -0.1635 -0.0610
 8729SOL    HW137649   2.610   1.781  15.292 -2.6362 -1.2829 -0.8107
 8729SOL    HW237650   2.661   1.660  15.374 -0.9473 -0.7239  1.3506
 8730SOL     OW37651   3.197   3.506   5.730  0.5742  0.3420 -0.4623
 8730SOL    HW137652   3.191   3.447   5.805  0.9599  0.1912 -0.5495
 8730SOL    HW237653   3.110   3.508   5.689  0.0327 -0.2035  0.6768
 8731SOL     OW37654   1.434   1.433   1.229  0.3671  0.1295  0.5429
 8731SOL    HW137655   1.341   1.456   1.232 -0.0703 -1.6413  0.7188
 8731SOL    HW237656   1.479   1.515   1.247  2.3739 -1.0922  1.0366
 8732SOL     OW37657   1.880   2.412  17.022 -0.1912  0.8457 -0.1649
 8732SOL    HW137658   1.833   2.450  17.096 -1.4862  2.4079 -1.7935
 8732SOL    HW237659   1.835   2.327  17.013  0.5993  0.4542 -0.3946
 8733SOL     OW37660   2.365   3.617   5.666 -0.2113  0.1738 -0.3856
 8733SOL    HW137661   2.366   3.710   5.688 -1.0681 -0.5781  2.6945
 8733SOL    HW237662   2.274   3.590   5.655  0.4347 -1.4449 -1.7921
 8734SOL     OW37663   1.239   1.904  10.054 -0.4056 -0.2157 -0.3406
 8734SOL    HW137664   1.293   1.859  10.119 -0.7098  0.5692  0.4469
 8734SOL    HW237665   1.306   1.927   9.989  2.1898 -1.8848  1.7277
 8735SOL     OW37666   1.750   2.204   7.317 -0.3804 -0.3377 -0.2393
 8735SOL    HW137667   1.785   2.154   7.391 -0.3138 -1.2340 -0.8759
 8735SOL    HW237668   1.689   2.263   7.362 -0.0233 -0.2503  0.1371
 8736SOL     OW37669   0.015   4.056   3.093 -0.2186 -0.1257  0.3833
 8736SOL    HW137670   0.080   4.020   3.154 -0.2560  2.0793  1.7271
 8736SOL    HW237671   4.724   3.989   3.027 -1.8715  1.6822 -1.0622
 8737SOL     OW37672   0.216   0.436  10.862 -0.0235  0.7562  0.4716
 8737SOL    HW137673   0.149   0.399  10.805  2.1566 -2.2517 -0.1900
 8737SOL    HW237674   0.194   0.528  10.865  0.1776  0.8330 -0.2693
 8738SOL     OW37675   1.932   3.403   6.627 -0.3878 -0.3631  0.3139
 8738SOL    HW137676   1.939   3.358   6.543 -0.0179 -1.1064  0.7434
 8738SOL    HW237677   2.024   3.411   6.653 -0.6787 -0.4263  1.3309
 8739SOL     OW37678   1.673   2.529   6.868 -0.0871  0.1618  0.1281
 8739SOL    HW137679   1.605   2.467   6.841  1.8095 -1.2886 -1.2927
 8739SOL    HW237680   1.671   2.515   6.963 -0.8815 -1.7782 -0.1732
 8740SOL     OW37681   2.281   3.142   4.435  0.5628  0.0627 -0.1249
 8740SOL    HW137682   2.334   3.220   4.417  0.8033 -0.8720 -3.3980
 8740SOL    HW237683   2.338   3.065   4.433  1.0877  0.4189  0.8798
 8741SOL     OW37684   0.717   3.702   3.246 -0.1687 -0.0732  0.5899
 8741SOL    HW137685   0.733   3.623   3.194 -1.6686  1.3458 -2.0200
 8741SOL    HW237686   0.719   3.774   3.182  0.6802 -0.7662 -0.1580
 8742SOL     OW37687   2.118   0.739  16.820 -0.2297  0.2629  0.2190
 8742SOL    HW137688   2.195   0.702  16.863 -1.5067  0.4752  2.7042
 8742SOL    HW237689   2.108   0.823  16.864  2.2977  0.8703 -0.3681
 8743SOL     OW37690   4.199   3.406   4.624 -0.4437 -0.0578  0.3976
 8743SOL    HW137691   4.280   3.436   4.665 -0.4353 -2.1559  1.9491
 8743SOL    HW237692   4.214   3.421   4.531 -1.2224 -0.7652  0.1606
 8744SOL     OW37693   2.133   1.036  16.946 -0.0663 -0.2166 -0.1432
 8744SOL    HW137694   2.038   1.032  16.936 -0.0791  0.6693 -0.3692
 8744SOL    HW237695   2.138   1.065  17.037  1.1318  0.9672 -0.5778
 8745SOL     OW37696   1.133   0.034   5.096  0.1952  0.3029 -0.2907
 8745SOL    HW137697   1.048   4.716   5.097 -0.3149  1.3365  0.8535
 8745SOL    HW237698   1.130   0.064   5.187 -5.5574 -0.1293 -0.3473
 8746SOL     OW37699   0.399   2.560  13.210 -0.0539  0.1689 -0.1110
 8746SOL    HW137700   0.388   2.564  13.305 -1.2596  1.6948 -0.3223
 8746SOL    HW237701   0.371   2.471  13.190 -1.0555  0.8096 -1.5935
 8747SOL     OW37702   0.014   3.635   4.943 -0.4622 -0.5613 -0.1539
 8747SOL    HW137703   0.054   3.550   4.956 -0.0226 -0.4140 -0.5532
 8747SOL    HW237704   0.074   3.682   4.885  1.0632 -2.8061 -0.3635
 8748SOL     OW37705   0.015   4.384  12.674  0.1173  0.4647  0.0401
 8748SOL    HW137706   4.665   4.372  12.731 -0.4485 -1.6565 -1.1603
 8748SOL    HW237707   0.074   4.434  12.730  1.6957  0.0891 -1.3015
 8749SOL     OW37708   1.250   1.352   1.814 -0.5079  0.3008  0.0484
 8749SOL    HW137709   1.219   1.438   1.843 -2.9866  0.0098 -1.7982
 8749SOL    HW237710   1.168   1.306   1.829 -0.6937  0.3024 -1.0397
 8750SOL     OW37711   3.409   3.694   3.047 -0.1800  0.2227  0.2356
 8750SOL    HW137712   3.386   3.603   3.031 -0.2067  0.7263 -2.6590
 8750SOL    HW237713   3.426   3.701   3.140 -2.0737  0.8051  0.5458
 8751SOL     OW37714   0.464   1.362   7.070  0.1569  0.3569 -0.3438
 8751SOL    HW137715   0.462   1.446   7.023 -0.2137 -0.8411 -2.4977
 8751SOL    HW237716   0.375   1.328   7.063  0.1172  0.3832  0.0430
 8752SOL     OW37717   4.485   4.283  14.781  0.6236  0.3819  0.1420
 8752SOL    HW137718   4.469   4.357  14.840 -3.1356 -0.0583 -0.3334
 8752SOL    HW237719   4.580   4.289  14.790  1.1245 -1.0145 -4.5452
 8753SOL     OW37720   1.708   2.737   5.007 -0.5352 -0.8459  0.1841
 8753SOL    HW137721   1.625   2.784   5.022  0.9611  1.3572  1.5681
 8753SOL    HW237722   1.681   2.671   4.943 -1.3072  0.4414 -0.8358
 8754SOL     OW37723   0.215   1.054   7.627  0.1336 -0.0793  0.6088
 8754SOL    HW137724   0.210   0.986   7.695 -1.0343  1.5570  2.1808
 8754SOL    HW237725   0.241   0.996   7.556  0.4794  0.7909  0.0263
 8755SOL     OW37726   2.155   3.440   8.578  0.5612  0.2002 -0.0557
 8755SOL    HW137727   2.239   3.426   8.535 -0.0632 -0.7793 -0.9478
 8755SOL    HW237728   2.127   3.505   8.514 -0.4858 -1.3745 -1.1954
 8756SOL     OW37729   1.223   0.970   2.214 -0.1421  0.2054  0.3634
 8756SOL    HW137730   1.188   1.024   2.143  1.4123  1.5226  0.6108
 8756SOL    HW237731   1.239   0.890   2.165 -2.1379  0.4290 -0.6719
 8757SOL     OW37732   0.290   3.748   3.375 -0.4209 -0.1644  0.2903
 8757SOL    HW137733   0.215   3.709   3.330  0.1381  0.1797 -0.9497
 8757SOL    HW237734   0.263   3.839   3.380 -1.1106 -0.3987  0.7347
 8758SOL     OW37735   3.556   2.860   7.139 -0.1611  0.0344 -0.3181
 8758SOL    HW137736   3.501   2.891   7.068 -0.6769  1.8057  0.8533
 8758SOL    HW237737   3.519   2.776   7.167  0.4845 -1.3199 -3.4726
 8759SOL     OW37738   0.125   0.223  13.598  0.2959 -0.0326 -0.1269
 8759SOL    HW137739   0.137   0.179  13.514  0.7808 -0.6552  0.2700
 8759SOL    HW237740   0.029   0.228  13.606  0.1047 -2.3121 -1.0032
 8760SOL     OW37741   3.359   4.523   3.515  0.3689  0.2179  0.9324
 8760SOL    HW137742   3.295   4.513   3.445 -0.1477  0.3572  1.3865
 8760SOL    HW237743   3.335   4.451   3.573 -0.2886 -0.4018 -0.1153
 8761SOL     OW37744   0.016   2.446   3.914 -0.5128  0.3338  0.2729
 8761SOL    HW137745   0.044   2.463   3.825 -0.1509 -0.3291  0.2555
 8761SOL    HW237746   4.656   2.490   3.917 -0.3922  0.6491 -1.3374
 8762SOL     OW37747   1.901   2.732   7.415  0.6026 -0.8087 -0.1092
 8762SOL    HW137748   1.809   2.737   7.440  0.8067 -1.6758  0.8457
 8762SOL    HW237749   1.949   2.674   7.475  0.4049 -0.8793 -0.0211
 8763SOL     OW37750   0.144   0.502   6.142 -0.2961  0.2883  0.2136
 8763SOL    HW137751   0.184   0.522   6.227  0.7618 -0.5917 -0.0690
 8763SOL    HW237752   0.221   0.458   6.106 -0.7830  2.2318 -3.1264
 8764SOL     OW37753   3.812   2.585   5.011 -0.1112  0.0360  0.2431
 8764SOL    HW137754   3.809   2.489   5.018  0.7910  0.0612  0.8933
 8764SOL    HW237755   3.811   2.601   4.917  1.2815 -3.6087 -0.4122
 8765SOL     OW37756   2.707   3.885   6.200  0.8897 -0.2942 -0.3397
 8765SOL    HW137757   2.650   3.837   6.140  0.6571  0.4078 -0.6871
 8765SOL    HW237758   2.645   3.891   6.272  1.1970  0.4647 -0.1361
 8766SOL     OW37759   2.846   2.371  17.681  0.2149 -0.1550 -0.7896
 8766SOL    HW137760   2.933   2.344  17.651  1.7722  2.3284  1.4948
 8766SOL    HW237761   2.797   2.322  17.615 -2.9467  4.9314 -2.1716
 8767SOL     OW37762   4.715   1.113  10.227  0.3172  0.3300  0.0326
 8767SOL    HW137763   0.014   1.022  10.211 -0.9482  0.2572 -1.3802
 8767SOL    HW237764   0.075   1.143  10.260  0.8420 -0.1834 -0.8437
 8768SOL     OW37765   2.607   0.696   6.030  0.3692 -0.2142  0.2330
 8768SOL    HW137766   2.553   0.637   6.084  1.3311 -2.1880 -0.9479
 8768SOL    HW237767   2.606   0.635   5.955 -1.0227 -0.0684  0.1190
 8769SOL     OW37768   1.085   2.215   9.030 -0.1888 -0.0934  0.1161
 8769SOL    HW137769   1.138   2.291   9.053 -0.4962  0.1442  0.0397
 8769SOL    HW237770   1.155   2.154   9.006 -2.5379 -2.2906 -1.2431
 8770SOL     OW37771   4.199   2.365  11.283  0.0850 -0.3346 -0.1968
 8770SOL    HW137772   4.257   2.438  11.261 -0.9576 -0.5890 -3.7450
 8770SOL    HW237773   4.247   2.283  11.272  0.4067  0.0422 -1.5487
 8771SOL     OW37774   4.285   2.720  16.356 -0.1188 -0.4828 -0.5585
 8771SOL    HW137775   4.374   2.692  16.376 -0.0096  1.0228  0.9737
 8771SOL    HW237776   4.259   2.736  16.446 -0.0026 -1.6889 -0.3056
 8772SOL     OW37777   3.488   4.530   2.282  0.6784  0.2212  0.0957
 8772SOL    HW137778   3.576   4.523   2.246 -0.9660 -3.4195 -3.2059
 8772SOL    HW237779   3.460   4.438   2.278  3.1333 -0.4834 -0.8763
 8773SOL     OW37780   4.166   1.830  13.813  0.1294  0.4488  0.4196
 8773SOL    HW137781   4.071   1.824  13.801  0.3566  0.5152 -1.3725
 8773SOL    HW237782   4.170   1.783  13.897  1.8789 -0.6357 -0.2752
 8774SOL     OW37783   0.616   2.898   4.915  0.2157  0.6006 -0.1194
 8774SOL    HW137784   0.538   2.843   4.906  0.8249 -0.3117  0.1185
 8774SOL    HW237785   0.655   2.898   4.828  1.2242  2.0814  0.3357
 8775SOL     OW37786   3.386   2.497  14.629  0.4126 -0.2473 -0.6481
 8775SOL    HW137787   3.407   2.464  14.717  1.9086  0.0576 -0.8854
 8775SOL    HW237788   3.298   2.527  14.652  1.2068  0.4400  1.5208
 8776SOL     OW37789   1.809   1.442  17.042 -0.6297  0.3038  0.2534
 8776SOL    HW137790   1.810   1.382  17.117  0.0876  0.8605  0.6856
 8776SOL    HW237791   1.725   1.483  17.065 -1.3076  0.2118 -2.0580
 8777SOL     OW37792   2.416   1.728   8.552  0.3651 -0.7014  0.3865
 8777SOL    HW137793   2.378   1.755   8.636 -0.1624 -0.6054  0.1205
 8777SOL    HW237794   2.506   1.758   8.562 -0.9023  2.4896  2.4534
 8778SOL     OW37795   2.288   4.482   0.358  0.4380 -0.0503  0.1322
 8778SOL    HW137796   2.312   4.506   0.269 -0.9807  1.1445  0.0802
 8778SOL    HW237797   2.262   4.569   0.387  0.3132  0.4205 -1.3996
 8779SOL     OW37798   3.978   2.947   4.580  0.0376  0.0182  0.3133
 8779SOL    HW137799   3.978   2.868   4.526 -2.1410  1.9203 -2.4404
 8779SOL    HW237800   4.064   2.953   4.621  0.7616 -2.1691 -0.8897
 8780SOL     OW37801   4.425   3.399  13.474  0.1711  0.1427  0.1492
 8780SOL    HW137802   4.431   3.371  13.383 -1.3106  3.3005 -0.9226
 8780SOL    HW237803   4.353   3.463  13.469  2.2213  2.3978 -0.3782
 8781SOL     OW37804   3.116   0.071   1.975 -0.0750  0.2650  0.7802
 8781SOL    HW137805   3.122   4.704   2.002 -3.2040 -0.5737 -1.4292
 8781SOL    HW237806   3.183   0.071   1.905 -2.8448 -0.2890 -1.8707
 8782SOL     OW37807   3.726   4.322  15.639 -0.8060 -0.3865  0.2091
 8782SOL    HW137808   3.634   4.298  15.626 -1.0560  0.1182  1.0922
 8782SOL    HW237809   3.764   4.242  15.602 -0.6054 -1.2490  2.3109
 8783SOL     OW37810   4.173   1.853   2.562 -0.1980 -0.2038 -0.1264
 8783SOL    HW137811   4.239   1.841   2.631  0.8429 -0.4836 -1.1700
 8783SOL    HW237812   4.223   1.884   2.487  0.3381 -0.7637  0.0003
 8784SOL     OW37813   3.001   1.272   1.653 -0.4165 -0.0528 -0.3020
 8784SOL    HW137814   3.047   1.223   1.720  0.2888  1.5680  0.3840
 8784SOL    HW237815   3.012   1.223   1.571 -1.6719  0.5889 -0.8609
 8785SOL     OW37816   2.647   0.858   6.693  0.2326  0.5795 -0.0909
 8785SOL    HW137817   2.617   0.945   6.719  2.7469  1.7006 -1.0194
 8785SOL    HW237818   2.731   0.868   6.650  0.2459 -0.5492 -0.3281
 8786SOL     OW37819   4.182   2.865   6.855 -0.4264  0.1237 -0.1788
 8786SOL    HW137820   4.248   2.912   6.805  0.8860 -1.7810 -0.2123
 8786SOL    HW237821   4.099   2.913   6.845 -0.9553 -0.5846  0.7857
 8787SOL     OW37822   3.050   2.671   5.251 -0.3463 -0.2663 -0.2959
 8787SOL    HW137823   3.041   2.595   5.309  0.6442 -0.4760 -0.4242
 8787SOL    HW237824   3.047   2.636   5.163 -0.9081 -0.6200 -0.1388
 8788SOL     OW37825   1.971   3.078   7.449  0.0264  0.0745 -0.1821
 8788SOL    HW137826   1.911   3.069   7.375  0.1912 -0.9058 -0.1934
 8788SOL    HW237827   1.974   3.174   7.451  0.3708 -0.0129  3.2150
 8789SOL     OW37828   2.118   1.034   5.520 -0.1664  0.4254  0.7666
 8789SOL    HW137829   2.107   1.079   5.604 -0.7114  0.9918  0.3908
 8789SOL    HW237830   2.208   1.008   5.540 -0.1266 -0.9128 -1.1875
 8790SOL     OW37831   0.169   4.384  13.579 -0.0138 -0.1391 -0.0825
 8790SOL    HW137832   0.227   4.446  13.534 -2.9267  1.6899 -1.2919
 8790SOL    HW237833   0.080   4.412  13.558  0.2886  0.3397 -0.7396
 8791SOL     OW37834   4.360   4.089   4.217  0.1857 -0.4264  0.2651
 8791SOL    HW137835   4.453   4.073   4.205  0.9084  2.6988  1.7293
 8791SOL    HW237836   4.321   4.104   4.131 -0.8474 -0.5448  0.7023
 8792SOL     OW37837   3.019   2.734  16.900  0.2223 -0.3731 -0.0034
 8792SOL    HW137838   2.984   2.655  16.860  2.5374 -1.0293 -0.6935
 8792SOL    HW237839   3.026   2.788  16.821 -2.4939  0.1060  0.0564
 8793SOL     OW37840   3.650   4.530   0.129  0.6230  0.5622  0.3823
 8793SOL    HW137841   3.570   4.543   0.077  1.2924  4.8697  0.4146
 8793SOL    HW237842   3.708   4.508   0.056  0.5266 -2.4621  1.2300
 8794SOL     OW37843   3.168   0.308   3.811  0.0155  0.8146  0.1968
 8794SOL    HW137844   3.104   0.322   3.741  0.6636  1.2609 -0.3117
 8794SOL    HW237845   3.170   0.395   3.851  1.3375  0.3236  1.1988
 8795SOL     OW37846   3.555   1.899  14.732 -0.1602  0.1120 -1.0905
 8795SOL    HW137847   3.487   1.872  14.670 -1.1461 -2.1291  0.9892
 8795SOL    HW237848   3.632   1.844  14.718  0.6644  0.7091  1.1898
 8796SOL     OW37849   2.868   3.061   5.695  0.1930 -0.6037  0.1613
 8796SOL    HW137850   2.928   3.134   5.686  3.8786 -3.3458  2.7158
 8796SOL    HW237851   2.805   3.083   5.626  0.2923  2.0880  0.9585
 8797SOL     OW37852   3.305   4.181   7.252  0.0506  0.9194  0.1056
 8797SOL    HW137853   3.365   4.188   7.326 -0.7677  0.0707  0.8482
 8797SOL    HW237854   3.327   4.265   7.211  1.0399 -0.6215 -2.5509
 8798SOL     OW37855   4.252   4.119  13.769  0.4414 -0.2036  0.9566
 8798SOL    HW137856   4.328   4.118  13.828  0.1045 -1.6075  1.3492
 8798SOL    HW237857   4.222   4.210  13.778  0.4406 -0.0800 -0.2768
 8799SOL     OW37858   4.057   1.840   5.734 -0.6636  0.5046 -0.1005
 8799SOL    HW137859   4.022   1.893   5.663  2.2355 -0.2562 -2.0938
 8799SOL    HW237860   4.025   1.885   5.812  0.9196  0.1760  0.7456
 8800SOL     OW37861   0.131   2.754   6.446 -0.0561  0.0550 -0.2158
 8800SOL    HW137862   0.221   2.785   6.446 -0.3040  0.7601  0.3929
 8800SOL    HW237863   0.122   2.732   6.539  1.6696 -3.0470 -0.7584
 8801SOL     OW37864   1.674   3.513  17.443 -0.2631  0.0369 -0.3366
 8801SOL    HW137865   1.762   3.496  17.410 -0.0068 -1.5540  1.1757
 8801SOL    HW237866   1.661   3.481  17.532 -0.5207 -1.3024 -0.8549
 8802SOL     OW37867   0.784   0.439   3.089 -0.0655  0.4227  0.3099
 8802SOL    HW137868   0.737   0.428   3.172  2.4493 -1.0235  1.5426
 8802SOL    HW237869   0.711   0.422   3.029 -1.9641  0.2426  2.6781
 8803SOL     OW37870   2.377   3.443   2.195 -0.2257  0.4726 -0.1627
 8803SOL    HW137871   2.432   3.369   2.222  1.2375  0.9173 -1.9286
 8803SOL    HW237872   2.442   3.513   2.187  2.6724 -2.5123 -2.9158
 8804SOL     OW37873   1.116   1.222   7.218  0.7030 -0.1612  0.2196
 8804SOL    HW137874   1.049   1.164   7.181 -1.0674  1.2368  1.2208
 8804SOL    HW237875   1.056   1.297   7.209  0.8889  0.0154  0.4744
 8805SOL     OW37876   0.430   3.528  15.156 -0.2888 -0.2075  0.1696
 8805SOL    HW137877   0.444   3.446  15.202 -1.7487 -0.3587  0.3449
 8805SOL    HW237878   0.516   3.555  15.124  1.7442 -1.6105  4.4666
 8806SOL     OW37879   2.296   1.335   7.214  0.4981  0.3165 -0.6836
 8806SOL    HW137880   2.351   1.278   7.267 -0.7534  0.4787  0.8087
 8806SOL    HW237881   2.263   1.275   7.147 -0.4909  0.5116 -0.3702
 8807SOL     OW37882   3.652   1.348  16.290 -0.4263 -0.2648  0.1412
 8807SOL    HW137883   3.595   1.406  16.238  0.8575 -1.2755 -2.3738
 8807SOL    HW237884   3.677   1.404  16.363 -1.2325  0.3214 -0.0248
 8808SOL     OW37885   3.669   3.637   6.463 -0.3965  0.2971 -0.4912
 8808SOL    HW137886   3.663   3.551   6.503 -0.3227  1.9162  2.9465
 8808SOL    HW237887   3.585   3.649   6.419 -0.0348 -1.3742 -1.6632
 8809SOL     OW37888   0.162   4.009  16.493  0.0749 -0.5266  0.7511
 8809SOL    HW137889   0.247   4.013  16.538  0.1560  3.6163  0.1926
 8809SOL    HW237890   0.113   3.973  16.567 -3.4675  4.0120  0.5690
 8810SOL     OW37891   0.662   4.148  15.210  0.1876 -0.5418  0.4069
 8810SOL    HW137892   0.717   4.087  15.162  0.1947 -0.5125  0.3782
 8810SOL    HW237893   0.705   4.233  15.207 -0.2156 -0.3847 -0.8163
 8811SOL     OW37894   1.653   2.038  12.895 -0.3916 -0.1760  0.0536
 8811SOL    HW137895   1.682   2.128  12.882  1.2385 -0.7670 -0.4568
 8811SOL    HW237896   1.583   2.044  12.960 -0.1116  1.3514  0.2119
 8812SOL     OW37897   1.810   4.398   4.254 -0.1074 -0.5266 -0.3377
 8812SOL    HW137898   1.840   4.354   4.175  0.4957 -0.4720 -0.1319
 8812SOL    HW237899   1.878   4.377   4.317  0.6546 -0.2958 -1.0749
 8813SOL     OW37900   0.337   2.418   6.579 -0.3859 -0.2491  0.5071
 8813SOL    HW137901   0.363   2.490   6.638 -0.0396  1.3222 -1.5598
 8813SOL    HW237902   0.362   2.466   6.500  0.2323 -1.8056 -0.2492
 8814SOL     OW37903   4.678   3.248  10.151  0.4672 -0.2360 -0.1769
 8814SOL    HW137904   4.631   3.180  10.103  1.6685 -2.4823  1.8962
 8814SOL    HW237905   4.626   3.329  10.154  0.8716  0.0415 -0.6306
 8815SOL     OW37906   2.596   4.360   3.406 -0.2676  0.2256  0.4800
 8815SOL    HW137907   2.600   4.336   3.498 -2.0613  2.8554  1.2353
 8815SOL    HW237908   2.652   4.291   3.370 -1.4653  0.0096 -0.9761
 8816SOL     OW37909   3.044   2.258   1.793 -0.6242 -0.6306  0.0784
 8816SOL    HW137910   2.971   2.208   1.758  0.3980 -1.3172 -1.0612
 8816SOL    HW237911   3.055   2.219   1.880 -0.3572  0.3636  0.4910
 8817SOL     OW37912   1.865   4.597   3.437 -0.0181  0.0892  0.4043
 8817SOL    HW137913   1.959   4.614   3.449  0.1160 -0.0933 -0.3744
 8817SOL    HW237914   1.859   4.600   3.341  0.8854 -1.0663  0.3143
 8818SOL     OW37915   0.336   0.252   8.060  0.2328 -0.3591  0.3177
 8818SOL    HW137916   0.280   0.320   8.097 -1.3336 -3.0059  2.8132
 8818SOL    HW237917   0.417   0.286   8.097  0.2574 -0.9675  0.8311
 8819SOL     OW37918   3.214   2.612   7.948  0.1390 -0.4021 -0.9569
 8819SOL    HW137919   3.189   2.552   8.018 -0.9253  0.1140 -0.9010
 8819SOL    HW237920   3.134   2.607   7.897  0.7771  1.8522 -2.1662
 8820SOL     OW37921   4.397   1.201   4.479  0.9523  0.0864  0.1204
 8820SOL    HW137922   4.418   1.284   4.522 -1.3167 -0.9089  3.1347
 8820SOL    HW237923   4.387   1.229   4.388  0.4028 -1.8811 -0.4284
 8821SOL     OW37924   2.352   1.790   3.959 -0.2177 -0.2258  0.0009
 8821SOL    HW137925   2.331   1.811   4.050  1.0491  2.3574 -0.2951
 8821SOL    HW237926   2.294   1.850   3.912  0.5109  2.9162  3.1212
 8822SOL     OW37927   2.766   1.254   8.476  0.0461 -0.0699  0.5603
 8822SOL    HW137928   2.839   1.284   8.422 -1.3760  0.1589 -1.2476
 8822SOL    HW237929   2.780   1.159   8.476 -0.4282 -0.1464 -1.0781
 8823SOL     OW37930   1.329   0.696  11.562  0.0269  0.1205  0.0743
 8823SOL    HW137931   1.274   0.749  11.620  0.1676 -0.3742  0.6536
 8823SOL    HW237932   1.262   0.634  11.533  0.2912  1.0260 -2.4930
 8824SOL     OW37933   1.822   3.718   0.007  0.6426 -0.3393 -0.5506
 8824SOL    HW137934   1.748   3.744  17.655  0.0462 -2.2219 -0.6488
 8824SOL    HW237935   1.887   3.694  17.643  1.9942 -0.4817  0.8275
 8825SOL     OW37936   1.460   0.753   5.310  0.3993 -0.3445 -0.3923
 8825SOL    HW137937   1.433   0.692   5.379  1.7178  0.7369  1.0894
 8825SOL    HW237938   1.527   0.802   5.358 -1.8180  1.1294  1.2032
 8826SOL     OW37939   0.954   3.095   5.499 -0.0348 -0.3496 -0.0911
 8826SOL    HW137940   0.994   3.036   5.563  0.4912  0.0730 -0.0197
 8826SOL    HW237941   0.955   3.179   5.545  0.7699 -0.8387  0.8036
 8827SOL     OW37942   2.935   0.439   0.809 -0.0661  0.3524  0.6723
 8827SOL    HW137943   2.955   0.407   0.897 -2.3037  0.0074  1.0403
 8827SOL    HW237944   2.851   0.480   0.826 -0.3885  0.1849 -0.4817
 8828SOL     OW37945   2.505   3.592  16.691  0.0782 -0.5255 -0.3224
 8828SOL    HW137946   2.572   3.615  16.627 -1.7032  0.3610 -1.8737
 8828SOL    HW237947   2.436   3.554  16.637 -1.3177 -0.1012  1.1716
 8829SOL     OW37948   2.237   3.721  12.758 -0.2650 -0.3382  0.6222
 8829SOL    HW137949   2.193   3.651  12.807  3.0437 -0.8656  2.8345
 8829SOL    HW237950   2.284   3.752  12.835  0.4063  1.3088 -0.4528
 8830SOL     OW37951   2.027   1.786   0.064  0.7340 -0.2280  0.6751
 8830SOL    HW137952   1.953   1.741   0.023  0.3179 -0.5731  1.8244
 8830SOL    HW237953   1.990   1.874   0.073  0.6095  0.0111 -2.0745
 8831SOL     OW37954   3.746   3.479   9.680  0.5702 -0.5503 -0.2969
 8831SOL    HW137955   3.718   3.553   9.734  0.7809  0.7587 -1.9996
 8831SOL    HW237956   3.814   3.431   9.726  0.7019 -0.7107 -0.6615
 8832SOL     OW37957   4.396   2.900   8.286  0.1956  0.4058  0.0474
 8832SOL    HW137958   4.308   2.919   8.254 -0.2127  0.5407  1.2602
 8832SOL    HW237959   4.381   2.833   8.352 -2.5290  2.1377  1.1678
 8833SOL     OW37960   4.094   0.516  11.255 -0.2065 -0.5737  0.1242
 8833SOL    HW137961   4.155   0.560  11.197 -2.2171  2.1466  0.0532
 8833SOL    HW237962   4.059   0.454  11.190 -1.1991  1.5326 -1.3482
 8834SOL     OW37963   1.316   3.227   5.291 -0.0770 -0.0615  0.1413
 8834SOL    HW137964   1.221   3.211   5.298  0.0555  0.0276  2.1134
 8834SOL    HW237965   1.326   3.191   5.202 -0.5616  0.9995 -0.3496
 8835SOL     OW37966   4.692   2.489   3.381  0.5092 -0.7570 -0.1192
 8835SOL    HW137967   0.062   2.488   3.376  0.6551 -0.9395  2.5272
 8835SOL    HW237968   4.655   2.561   3.330 -1.0676 -0.8067  0.9339
 8836SOL     OW37969   2.535   1.475  11.724  0.1886  0.0293 -0.0862
 8836SOL    HW137970   2.447   1.449  11.697  0.1597  0.2340 -0.1888
 8836SOL    HW237971   2.592   1.414  11.677  2.3806  2.7157 -0.9560
 8837SOL     OW37972   4.386   0.478  12.865  0.6749 -0.2920  0.0508
 8837SOL    HW137973   4.441   0.509  12.793 -0.6850  0.7599 -0.5245
 8837SOL    HW237974   4.296   0.468  12.833  0.3408 -0.6367  1.0637
 8838SOL     OW37975   3.801   2.754  14.922  0.2053 -0.3276  0.3162
 8838SOL    HW137976   3.825   2.661  14.928 -2.7558 -1.0628  0.6290
 8838SOL    HW237977   3.709   2.748  14.897  0.3175 -1.3579  0.1342
 8839SOL     OW37978   3.603   0.650   8.360 -0.2641  0.3887 -0.6895
 8839SOL    HW137979   3.571   0.560   8.358 -3.1622  1.4475 -1.3333
 8839SOL    HW237980   3.532   0.705   8.328 -1.2333 -1.4780 -1.7292
 8840SOL     OW37981   4.371   4.017   6.709  0.1491 -0.1775 -0.1996
 8840SOL    HW137982   4.413   3.971   6.781 -0.2022 -0.2403 -0.0341
 8840SOL    HW237983   4.372   4.110   6.733 -1.9425 -0.0273 -0.6773
 8841SOL     OW37984   4.299   2.795   3.487 -0.2097  0.2458  0.0513
 8841SOL    HW137985   4.263   2.844   3.561 -1.6928 -0.1153 -0.4485
 8841SOL    HW237986   4.257   2.712   3.505 -0.1014  0.4649  1.3491
 8842SOL     OW37987   4.448   3.580  15.169  0.5872 -0.1637 -1.1530
 8842SOL    HW137988   4.513   3.557  15.102  1.1217  0.7641 -0.9575
 8842SOL    HW237989   4.369   3.581  15.115 -1.4097 -2.6216  1.7285
 8843SOL     OW37990   3.380   0.890   5.920 -0.0247 -0.0627  0.0415
 8843SOL    HW137991   3.336   0.843   5.849 -0.5733  0.1640  0.2260
 8843SOL    HW237992   3.456   0.834   5.929  1.0015  1.2416 -0.4428
 8844SOL     OW37993   0.462   2.091   5.374  0.1651  0.2590  0.1957
 8844SOL    HW137994   0.482   2.068   5.283 -1.0538 -2.3423  0.5912
 8844SOL    HW237995   0.512   2.023   5.419 -0.6149 -0.0090  0.6534
 8845SOL     OW37996   0.587   1.332   9.620 -0.0036  0.4050 -0.2236
 8845SOL    HW137997   0.536   1.354   9.542 -0.4962  1.9673  0.5390
 8845SOL    HW237998   0.664   1.299   9.573 -0.7286  0.5613 -1.5185
 8846SOL     OW37999   4.479   1.745  14.961  0.6927  0.1263  0.1349
 8846SOL    HW138000   4.506   1.658  14.993 -0.0537  0.0830  0.6402
 8846SOL    HW238001   4.460   1.726  14.869  0.4572 -0.5270  0.3181
 8847SOL     OW38002   0.582   2.615   2.936 -0.2461 -0.4469  0.1751
 8847SOL    HW138003   0.545   2.660   2.860  4.3703  0.2554 -1.6335
 8847SOL    HW238004   0.665   2.591   2.895 -0.4125  3.1772 -2.2682
 8848SOL     OW38005   1.542   1.182   3.875 -0.0285 -0.7293 -0.3969
 8848SOL    HW138006   1.454   1.217   3.890 -0.0569 -1.1888  0.5342
 8848SOL    HW238007   1.598   1.233   3.934  0.0334 -1.8527  0.5055
 8849SOL     OW38008   0.151   4.400   7.229 -0.8349 -0.7647  0.4652
 8849SOL    HW138009   0.198   4.479   7.259 -1.8517  0.4784 -1.2486
 8849SOL    HW238010   0.075   4.409   7.286 -1.8462  0.4258 -1.0548
 8850SOL     OW38011   3.055   3.077  10.106  0.2630 -0.7733 -0.3577
 8850SOL    HW138012   3.072   3.169  10.129 -0.0416 -0.6150 -0.7540
 8850SOL    HW238013   3.140   3.038  10.125  0.5807 -0.6180 -1.4580
 8851SOL     OW38014   3.080   3.956   4.652 -0.1582 -0.4868 -0.4204
 8851SOL    HW138015   3.026   4.010   4.709 -0.6668  0.7671 -2.0849
 8851SOL    HW238016   3.105   4.022   4.587  0.2567 -2.0997 -1.9077
 8852SOL     OW38017   3.183   3.187   2.085  0.1134  0.1854  0.2869
 8852SOL    HW138018   3.093   3.173   2.056  0.5513 -0.8239 -0.6148
 8852SOL    HW238019   3.221   3.197   1.997 -1.3683 -3.1634 -0.7406
 8853SOL     OW38020   0.419   2.206   6.700  0.6717  0.0728  0.0795
 8853SOL    HW138021   0.392   2.242   6.784 -0.5364  1.0726 -0.7326
 8853SOL    HW238022   0.413   2.286   6.647 -2.2118  0.7822  1.4804
 8854SOL     OW38023   3.975   3.888   8.843  0.0383  0.1049 -0.3809
 8854SOL    HW138024   3.933   3.808   8.812  2.2309 -1.9680  2.0128
 8854SOL    HW238025   3.906   3.953   8.829 -0.9131 -0.4122  1.8771
 8855SOL     OW38026   0.208   3.745   8.503  0.5393  0.3502  0.3864
 8855SOL    HW138027   0.292   3.703   8.481  0.1563 -0.3467  0.2378
 8855SOL    HW238028   0.227   3.770   8.593 -0.3884  0.6350  0.4975
 8856SOL     OW38029   1.837   3.496   6.127  0.4313 -0.6455 -0.2349
 8856SOL    HW138030   1.788   3.554   6.186 -1.9808 -1.4616 -1.4636
 8856SOL    HW238031   1.920   3.538   6.150  0.2988 -0.6519  0.2534
 8857SOL     OW38032   2.025   3.677  16.168  0.3041 -0.6172  0.1941
 8857SOL    HW138033   2.007   3.703  16.077  1.8186  0.9877  0.3649
 8857SOL    HW238034   2.063   3.757  16.204 -0.1071 -0.2622 -0.1539
 8858SOL     OW38035   0.625   3.937   8.003 -0.4202  0.3798  0.0521
 8858SOL    HW138036   0.544   3.915   7.957  0.0858 -1.4663  0.0682
 8858SOL    HW238037   0.598   3.946   8.094  0.7867  0.3483  0.4185
 8859SOL     OW38038   2.156   1.183  10.350  0.2115  0.3415 -0.1432
 8859SOL    HW138039   2.108   1.133  10.285 -1.8032  0.7102  1.0801
 8859SOL    HW238040   2.238   1.134  10.360 -0.7274 -1.6476 -2.2708
 8860SOL     OW38041   4.166   2.441   3.019 -0.3002 -0.2181  0.6865
 8860SOL    HW138042   4.126   2.457   3.104 -0.7516  0.6975  0.3041
 8860SOL    HW238043   4.209   2.358   3.038  1.2585  0.9811  2.3886
 8861SOL     OW38044   1.865   3.289   3.945  0.3184  0.7889  0.1145
 8861SOL    HW138045   1.853   3.216   3.884 -1.7395 -0.2797  1.7905
 8861SOL    HW238046   1.949   3.267   3.985 -0.2461 -0.0813  0.8409
 8862SOL     OW38047   1.569   2.535  15.972 -0.2390  0.1230  0.5585
 8862SOL    HW138048   1.658   2.529  15.937 -0.6183  1.5626 -0.6348
 8862SOL    HW238049   1.550   2.622  15.937  1.8708 -1.4800 -4.5948
 8863SOL     OW38050   4.349   0.570   3.554 -0.0527  0.3264  0.1740
 8863SOL    HW138051   4.371   0.659   3.527 -1.4943 -0.2173 -2.8285
 8863SOL    HW238052   4.263   0.595   3.588 -0.6622  0.2304 -1.2829
 8864SOL     OW38053   2.269   0.536   7.789 -0.6474  0.3756 -0.7631
 8864SOL    HW138054   2.335   0.600   7.816  0.3187 -2.0411  2.4771
 8864SOL    HW238055   2.299   0.473   7.854 -0.6653  0.5761 -0.5613
 8865SOL     OW38056   2.845   1.096   6.029 -0.0934 -0.8329  0.6101
 8865SOL    HW138057   2.820   1.024   6.086  0.7873 -0.6323  1.2438
 8865SOL    HW238058   2.754   1.123   6.016 -0.2832 -0.8390  1.9409
 8866SOL     OW38059   1.819   4.079   9.124 -0.1860  0.3750  0.4343
 8866SOL    HW138060   1.906   4.113   9.146 -0.3419  0.8141  0.3683
 8866SOL    HW238061   1.818   3.995   9.170 -1.3855  0.6763  0.9477
 8867SOL     OW38062   0.210   1.696   7.998 -0.2420  0.8628  0.1437
 8867SOL    HW138063   0.154   1.632   8.041 -0.1967  1.2355  0.7531
 8867SOL    HW238064   0.252   1.650   7.925  0.5465  3.5406 -1.0994
 8868SOL     OW38065   1.876   2.417   8.041 -0.2014  0.5245  0.0034
 8868SOL    HW138066   1.781   2.428   8.041  0.2291  4.2602  1.5212
 8868SOL    HW238067   1.896   2.406   8.134  0.6676  1.3226 -0.0922
 8869SOL     OW38068   3.014   3.476  10.296 -0.1026  0.4992  0.3331
 8869SOL    HW138069   3.039   3.447  10.208 -1.1729 -1.1876  0.5876
 8869SOL    HW238070   2.993   3.394  10.340 -2.5222  0.3176 -1.2057
 8870SOL     OW38071   4.459   2.810   5.769  0.0995 -0.1219  0.0914
 8870SOL    HW138072   4.548   2.809   5.804  0.5112 -0.1621 -0.9646
 8870SOL    HW238073   4.434   2.719   5.782  1.6746 -0.6711 -0.7750
 8871SOL     OW38074   1.007   3.325   8.235 -0.4858 -0.7661 -0.2564
 8871SOL    HW138075   1.076   3.259   8.239  1.9941  1.8775 -0.0614
 8871SOL    HW238076   0.938   3.280   8.186 -2.3812 -0.4350  2.1007
 8872SOL     OW38077   4.175   1.115   9.600  0.6918  0.0192  0.2578
 8872SOL    HW138078   4.199   1.025   9.621  0.0813  0.1910  1.6970
 8872SOL    HW238079   4.202   1.128   9.509 -0.9950 -1.4078 -0.4288
 8873SOL     OW38080   0.986   1.826   5.864 -0.4760 -0.1930  0.3675
 8873SOL    HW138081   0.948   1.802   5.949  0.1074  2.4184  1.3578
 8873SOL    HW238082   1.076   1.812   5.891  0.5324  1.6540 -2.0289
 8874SOL     OW38083   2.703   2.386   2.009 -0.0959 -0.2942 -0.4249
 8874SOL    HW138084   2.646   2.322   2.052  1.7527 -1.4091  0.3995
 8874SOL    HW238085   2.645   2.456   1.979  0.2324 -0.5998 -1.7885
 8875SOL     OW38086   0.324   3.199   5.215 -0.5328 -0.3207  0.1314
 8875SOL    HW138087   0.302   3.123   5.268  0.7862 -1.7288 -1.3301
 8875SOL    HW238088   0.409   3.216   5.255 -0.8464 -0.0987  0.7085
 8876SOL     OW38089   1.360   0.044   2.419  0.2880  0.0607 -0.1879
 8876SOL    HW138090   1.293   0.031   2.485  2.5113 -0.4755  1.9508
 8876SOL    HW238091   1.313   0.013   2.341  3.0558  0.0864 -1.8855
 8877SOL     OW38092   0.230   1.111   3.573  0.1050  0.4542 -0.2674
 8877SOL    HW138093   0.279   1.109   3.491 -0.1226  2.8835 -0.4656
 8877SOL    HW238094   0.244   1.021   3.604  0.5604  0.0509 -1.6340
 8878SOL     OW38095   2.608   1.406   7.934 -0.0920 -0.0199 -0.3067
 8878SOL    HW138096   2.550   1.351   7.987  1.2227 -1.9568 -0.8843
 8878SOL    HW238097   2.562   1.490   7.945  0.0214 -0.0607  0.4757
 8879SOL     OW38098   3.458   3.917   3.575 -0.2171 -0.1068 -0.1834
 8879SOL    HW138099   3.550   3.939   3.590  0.0145 -1.0056 -0.2445
 8879SOL    HW238100   3.448   3.941   3.483  0.2200 -1.7042 -0.6563
 8880SOL     OW38101   1.898   4.168  14.422  0.1525 -0.6807  0.1060
 8880SOL    HW138102   1.908   4.203  14.510 -1.1438  0.8716 -0.3653
 8880SOL    HW238103   1.895   4.074  14.440 -0.7206 -0.3961  1.4881
 8881SOL     OW38104   1.379   2.016   6.822  0.0830 -0.2241  0.7152
 8881SOL    HW138105   1.472   2.038   6.818 -0.4993  2.2886  0.6012
 8881SOL    HW238106   1.371   2.066   6.903 -1.9938  0.1757  0.2537
 8882SOL     OW38107   3.205   0.276   2.108 -1.0125  0.1868 -0.1439
 8882SOL    HW138108   3.131   0.309   2.158 -1.0698 -0.6044  0.2930
 8882SOL    HW238109   3.164   0.201   2.066  1.1266 -0.9500 -0.2347
 8883SOL     OW38110   4.668   0.878   1.368  0.8793  0.3178  0.1330
 8883SOL    HW138111   4.661   0.783   1.377 -1.9197  0.4446 -0.7363
 8883SOL    HW238112   4.578   0.907   1.361  0.6790  0.1258  1.8586
 8884SOL     OW38113   3.729   0.213   7.213 -0.1759 -0.4232  0.2436
 8884SOL    HW138114   3.727   0.303   7.179 -1.4149 -0.2323  0.8342
 8884SOL    HW238115   3.725   0.225   7.308  0.0398  0.7567  0.1124
 8885SOL     OW38116   1.192   3.806   1.954 -0.1319  0.0310 -0.2486
 8885SOL    HW138117   1.115   3.778   2.003  0.1136  1.8508  1.1826
 8885SOL    HW238118   1.197   3.742   1.884 -2.0322 -0.0031 -0.3648
 8886SOL     OW38119   1.813   2.712   8.033 -0.3084 -0.4084 -0.8366
 8886SOL    HW138120   1.864   2.787   8.062  0.9003 -1.7882  0.5558
 8886SOL    HW238121   1.850   2.632   8.071  0.5025  0.4580  0.1719
 8887SOL     OW38122   1.635   4.695  16.269  0.3534  0.6480  0.4484
 8887SOL    HW138123   1.575   0.026  16.318 -0.1340 -1.2651  2.0305
 8887SOL    HW238124   1.683   0.039  16.224  0.0022  1.5328  1.4360
 8888SOL     OW38125   0.203   0.489   3.829  0.5889  0.7361  0.2909
 8888SOL    HW138126   0.192   0.580   3.855  0.3710  1.0409 -0.8591
 8888SOL    HW238127   0.282   0.498   3.776  0.9968 -0.2289  0.7342
 8889SOL     OW38128   0.569   0.773   6.813 -0.2993 -0.3442 -0.0268
 8889SOL    HW138129   0.654   0.754   6.853 -1.6689 -1.0172  2.5532
 8889SOL    HW238130   0.583   0.754   6.720 -0.8930 -0.1029 -0.1688
 8890SOL     OW38131   3.293   4.521   8.478 -0.2884 -0.1733 -0.4956
 8890SOL    HW138132   3.286   4.599   8.534 -1.3602 -1.1788  0.7729
 8890SOL    HW238133   3.209   4.477   8.492 -0.0950  0.0990  1.6279
 8891SOL     OW38134   0.416   3.798   9.487 -0.5094  0.0907  0.2563
 8891SOL    HW138135   0.322   3.809   9.473 -0.5811 -1.1936 -0.2692
 8891SOL    HW238136   0.423   3.855   9.563  0.4118  0.5268 -0.1450
 8892SOL     OW38137   3.370   3.908   0.321 -0.0446 -0.3373 -0.2917
 8892SOL    HW138138   3.320   3.990   0.318 -0.3320 -0.4925  0.4959
 8892SOL    HW238139   3.451   3.948   0.289 -1.7913  2.9942 -0.6208
 8893SOL     OW38140   2.285   0.494   5.050  1.0981  0.2281 -0.0536
 8893SOL    HW138141   2.308   0.408   5.086 -0.2620 -0.2313 -0.2831
 8893SOL    HW238142   2.316   0.543   5.126 -0.6446 -0.3520  1.0275
 8894SOL     OW38143   3.054   1.558   6.567  0.0954  0.0068 -0.0061
 8894SOL    HW138144   3.129   1.613   6.542 -0.5320  1.6057  1.6008
 8894SOL    HW238145   2.998   1.621   6.612 -0.2750 -0.4176  0.1294
 8895SOL     OW38146   0.842   2.246   3.413 -0.1380  0.1352  0.2132
 8895SOL    HW138147   0.874   2.156   3.419 -0.1562  0.0703 -0.6513
 8895SOL    HW238148   0.795   2.255   3.496 -2.8940  1.3418 -1.4707
 8896SOL     OW38149   3.759   2.733   6.695  0.1758  0.0644  0.4039
 8896SOL    HW138150   3.718   2.738   6.781  1.5616 -0.7099  1.1084
 8896SOL    HW238151   3.729   2.814   6.654  0.5455  0.0627  0.1299
 8897SOL     OW38152   1.661   3.780  14.130  0.1542 -0.6118  0.2111
 8897SOL    HW138153   1.643   3.758  14.221 -0.0432 -0.1758  0.2775
 8897SOL    HW238154   1.647   3.699  14.082 -0.0245 -1.0072  0.9337
 8898SOL     OW38155   1.954   3.763   6.493 -0.3835 -0.3120  0.0707
 8898SOL    HW138156   1.970   3.857   6.479 -0.0336 -0.3149  0.4531
 8898SOL    HW238157   2.042   3.740   6.523 -0.3852  1.8126  1.7325
 8899SOL     OW38158   0.249   2.718  11.890 -0.4160  0.4683  0.1624
 8899SOL    HW138159   0.319   2.747  11.948  1.4089 -1.1606 -1.2218
 8899SOL    HW238160   0.175   2.771  11.919 -0.3388  1.3418 -1.2518
 8900SOL     OW38161   1.139   0.514   0.348 -0.0025  0.4782 -0.1546
 8900SOL    HW138162   1.178   0.530   0.434 -0.9805  1.8886  0.0239
 8900SOL    HW238163   1.153   0.421   0.330  0.1434  0.1451  1.7046
 8901SOL     OW38164   4.596   1.390   8.648  0.4589  0.1316  0.2161
 8901SOL    HW138165   4.630   1.318   8.596  1.2279  2.5873 -2.6963
 8901SOL    HW238166   4.654   1.458   8.613  1.5618  0.1373  2.0069
 8902SOL     OW38167   0.571   2.934   3.798  0.0733 -0.5447  0.4578
 8902SOL    HW138168   0.647   2.881   3.821  0.5270  0.1969  0.7001
 8902SOL    HW238169   0.541   2.963   3.884  0.7773 -0.1914  0.5817
 8903SOL     OW38170   1.706   2.199   9.718  0.0655 -0.0855 -0.0592
 8903SOL    HW138171   1.773   2.251   9.763 -1.5297  1.1977  0.8035
 8903SOL    HW238172   1.641   2.179   9.784 -0.7438  0.0838 -0.8083
 8904SOL     OW38173   4.461   1.764  14.691  0.2670 -0.3748 -0.0362
 8904SOL    HW138174   4.483   1.694  14.629 -1.3579  0.1533 -1.1910
 8904SOL    HW238175   4.369   1.775  14.668  0.4797 -1.6514 -1.4942
 8905SOL     OW38176   1.558   1.500   4.175 -0.6451 -0.1953  0.0143
 8905SOL    HW138177   1.558   1.579   4.121  2.7000 -0.7281 -0.7569
 8905SOL    HW238178   1.636   1.452   4.149 -0.0769  0.6286  0.1920
 8906SOL     OW38179   1.705   3.769   4.862 -0.3002 -0.1787  0.1677
 8906SOL    HW138180   1.777   3.737   4.808 -0.6221 -0.1615 -0.2714
 8906SOL    HW238181   1.751   3.848   4.893  1.2637 -1.7436  1.8349
 8907SOL     OW38182   2.876   2.210   7.965 -0.2952  0.1304 -0.0066
 8907SOL    HW138183   2.891   2.126   8.008 -0.9071  0.9350  1.7545
 8907SOL    HW238184   2.811   2.183   7.900 -0.0951  0.4013 -0.3214
 8908SOL     OW38185   1.389   0.165   5.457  0.2029 -0.1346 -0.3614
 8908SOL    HW138186   1.460   0.115   5.498 -0.9743 -2.1313 -0.7847
 8908SOL    HW238187   1.353   0.193   5.540  1.2343  3.3477 -1.0899
 8909SOL     OW38188   2.352   2.441  16.707 -0.0604  0.6715 -0.4204
 8909SOL    HW138189   2.393   2.412  16.789 -1.3419 -0.1117 -0.0618
 8909SOL    HW238190   2.259   2.426  16.719 -0.0623 -0.6016 -2.0498
 8910SOL     OW38191   0.843   4.400   4.383  0.8156  0.2325  0.2749
 8910SOL    HW138192   0.911   4.363   4.326  0.9736 -2.4879  2.2323
 8910SOL    HW238193   0.832   4.490   4.353 -0.2819  0.8578  2.5467
 8911SOL     OW38194   4.711   3.300   4.925  0.5789 -0.3178  0.3095
 8911SOL    HW138195   0.071   3.342   4.913 -0.0346  0.6882 -0.5314
 8911SOL    HW238196   4.719   3.243   4.848  1.1822  1.8793 -1.2301
 8912SOL     OW38197   4.594   4.123  15.990  0.4427  0.0920  0.1867
 8912SOL    HW138198   4.514   4.070  15.988 -0.0104  0.7933 -0.2389
 8912SOL    HW238199   4.595   4.145  16.084  1.0863  0.6150  0.0529
 8913SOL     OW38200   2.732   4.368  16.202  0.3141 -0.6606 -0.2744
 8913SOL    HW138201   2.773   4.292  16.244  0.0379  0.6171  2.3454
 8913SOL    HW238202   2.807   4.427  16.192 -0.6427  0.4481 -0.8986
 8914SOL     OW38203   1.197   1.313  11.688 -0.1864 -0.3665  0.0575
 8914SOL    HW138204   1.152   1.389  11.651 -2.3749 -0.9379  1.5441
 8914SOL    HW238205   1.258   1.288  11.619  1.2313 -1.0771  1.5474
 8915SOL     OW38206   3.795   1.390   6.828  0.8520 -0.3030 -0.0711
 8915SOL    HW138207   3.851   1.434   6.893 -0.3844 -0.9789  1.4613
 8915SOL    HW238208   3.844   1.379   6.747  0.9708  0.0970 -0.0531
 8916SOL     OW38209   1.106   2.842   9.145  0.1820 -0.0781 -0.2426
 8916SOL    HW138210   1.144   2.831   9.232  0.4731 -0.8276 -0.4693
 8916SOL    HW238211   1.071   2.754   9.132 -0.1802  0.6645 -4.5373
 8917SOL     OW38212   4.679   1.048   6.296 -0.3504 -0.2856 -0.1123
 8917SOL    HW138213   0.014   0.984   6.334 -0.5455 -0.0929  0.5066
 8917SOL    HW238214   4.608   0.988   6.272  2.0817 -2.3953 -2.1689
 8918SOL     OW38215   4.239   4.014   5.524  0.1386  0.1752  0.5760
 8918SOL    HW138216   4.270   3.952   5.458  1.1408  0.4562  0.7838
 8918SOL    HW238217   4.327   4.030   5.558 -0.4948 -0.1501  2.3180
 8919SOL     OW38218   4.527   2.291   6.317 -0.2676 -0.0948 -0.7068
 8919SOL    HW138219   4.600   2.331   6.365 -0.0865 -1.6396  0.3295
 8919SOL    HW238220   4.455   2.302   6.378  1.0330 -2.6084  1.3102
 8920SOL     OW38221   2.455   3.850   3.509  0.3622  0.2773 -0.3709
 8920SOL    HW138222   2.512   3.796   3.564 -1.4957 -0.6342  0.6500
 8920SOL    HW238223   2.426   3.779   3.451  0.7940 -0.6652  0.5675
 8921SOL     OW38224   4.235   3.179  11.593  0.2042  0.2054  0.1815
 8921SOL    HW138225   4.218   3.244  11.524  1.4762  0.1369 -0.1848
 8921SOL    HW238226   4.330   3.186  11.599 -0.1274  1.8158  3.2959
 8922SOL     OW38227   3.448   3.088   2.227  0.0457  0.2418 -0.1824
 8922SOL    HW138228   3.470   3.173   2.265 -1.4027  1.4168 -1.9793
 8922SOL    HW238229   3.402   3.113   2.147  1.7990 -0.3691 -1.3793
 8923SOL     OW38230   0.554   0.188   0.954  0.1359 -0.0115  0.8713
 8923SOL    HW138231   0.549   0.105   0.906 -1.7951  0.2666  0.5569
 8923SOL    HW238232   0.485   0.183   1.020  0.6123  2.4500  1.5447
 8924SOL     OW38233   2.676   3.388  14.144  0.0486  0.0097 -0.1626
 8924SOL    HW138234   2.625   3.416  14.220  0.8471  0.9861  0.0117
 8924SOL    HW238235   2.607   3.362  14.084 -0.7168 -1.2288  1.2300
 8925SOL     OW38236   3.007   3.852  16.229 -0.0437  0.3733 -0.5758
 8925SOL    HW138237   2.958   3.772  16.246 -0.1656  0.1996 -1.7492
 8925SOL    HW238238   2.938   3.902  16.185 -0.7625 -0.9750 -0.9718
 8926SOL     OW38239   3.324   4.396   3.851 -0.1363  0.0944  0.5171
 8926SOL    HW138240   3.311   4.323   3.911  1.7664 -1.1979 -0.6802
 8926SOL    HW238241   3.296   4.353   3.771  1.7719  0.7875 -0.5140
 8927SOL     OW38242   0.522   0.317   4.183  0.0770  0.0986  0.1632
 8927SOL    HW138243   0.595   0.303   4.122 -1.8460  0.0215 -2.0959
 8927SOL    HW238244   0.452   0.278   4.132  0.5892 -1.1937  0.4468
 8928SOL     OW38245   2.164   3.040   5.719 -0.1843 -0.0264  0.0805
 8928SOL    HW138246   2.088   3.098   5.726  1.5528  2.1154  1.1216
 8928SOL    HW238247   2.186   3.006   5.805 -0.4514  0.0748  0.1881
 8929SOL     OW38248   2.742   0.207  12.027 -0.2270  0.5969 -0.1628
 8929SOL    HW138249   2.761   0.267  12.099 -2.8064  0.2233  0.8396
 8929SOL    HW238250   2.718   0.129  12.077 -1.1421 -0.5086 -2.3123
 8930SOL     OW38251   3.701   2.716   2.953 -0.2777 -0.4534 -0.2806
 8930SOL    HW138252   3.689   2.788   3.015 -0.3271 -0.7122  0.0149
 8930SOL    HW238253   3.608   2.700   2.937 -0.7051  2.1150 -0.3490
 8931SOL     OW38254   1.327   2.628   4.815 -0.1906  0.0980  0.3762
 8931SOL    HW138255   1.351   2.712   4.855  2.1453  0.4806 -1.8359
 8931SOL    HW238256   1.416   2.595   4.821 -1.3878 -3.1656  0.0615
 8932SOL     OW38257   0.257   1.553  12.801 -0.0587  0.4134  0.2581
 8932SOL    HW138258   0.211   1.629  12.836  0.3600  1.8624 -2.3243
 8932SOL    HW238259   0.298   1.597  12.726  0.0517  1.4081  0.9066
 8933SOL     OW38260   1.475   4.574  12.912 -0.6867  0.2173  0.4216
 8933SOL    HW138261   1.542   4.642  12.909 -0.4320 -0.0061  1.0970
 8933SOL    HW238262   1.461   4.557  12.819  0.2145  1.2064  0.1037
 8934SOL     OW38263   0.237   1.030   2.834 -0.0545  0.2208 -0.3642
 8934SOL    HW138264   0.328   1.038   2.806  0.5183  0.2217  1.4782
 8934SOL    HW238265   0.206   0.989   2.753 -1.5651 -0.7383  0.6964
 8935SOL     OW38266   0.322   3.021   6.951 -0.3005  0.3221  0.1757
 8935SOL    HW138267   0.253   3.045   6.888 -1.1331 -0.3706  0.8240
 8935SOL    HW238268   0.285   3.065   7.028 -2.2103 -1.5878  0.3597
 8936SOL     OW38269   4.300   0.131   7.783 -0.3692  0.2745  0.3627
 8936SOL    HW138270   4.282   0.193   7.853  0.2076  0.5363  0.2764
 8936SOL    HW238271   4.307   0.048   7.829 -2.3512 -0.2868 -0.3519
 8937SOL     OW38272   2.525   0.732  15.939 -0.3248  0.1665  0.2528
 8937SOL    HW138273   2.604   0.679  15.927 -0.6986 -0.3640  0.1224
 8937SOL    HW238274   2.550   0.791  16.010 -0.8297 -1.2385  1.6090
 8938SOL     OW38275   3.831   0.410  13.515  0.3048 -0.7836  0.2550
 8938SOL    HW138276   3.892   0.381  13.447  0.9122  1.1752 -0.0323
 8938SOL    HW238277   3.778   0.330  13.519 -1.9349  0.7411  0.6304
 8939SOL     OW38278   2.424   3.055   6.218 -0.2681  0.1502  0.2670
 8939SOL    HW138279   2.467   3.063   6.303  1.8647  0.0923 -0.8174
 8939SOL    HW238280   2.491   2.995   6.184 -1.0539 -0.2837 -0.5008
 8940SOL     OW38281   0.741   0.234   5.228 -0.2242 -0.0211  0.4877
 8940SOL    HW138282   0.820   0.273   5.191 -0.4602  1.1815  1.2215
 8940SOL    HW238283   0.732   0.289   5.306 -1.9098 -0.9097  0.9286
 8941SOL     OW38284   3.006   4.671   6.058 -0.0501  0.2815 -0.2907
 8941SOL    HW138285   2.943   4.662   5.986 -0.7976 -1.4351  0.5861
 8941SOL    HW238286   2.950   4.639   6.128 -0.8062  1.4184 -0.3729
 8942SOL     OW38287   0.488   0.953  15.408 -1.2201 -0.1632  0.0206
 8942SOL    HW138288   0.556   0.930  15.345 -1.1269 -2.3500  0.9475
 8942SOL    HW238289   0.541   0.959  15.487  0.5006 -0.4597 -1.0975
 8943SOL     OW38290   4.170   1.402   3.630 -0.0926 -0.1136 -0.3772
 8943SOL    HW138291   4.192   1.316   3.596  3.2746  1.0381 -1.1663
 8943SOL    HW238292   4.190   1.391   3.723  1.0628  1.2709 -0.4596
 8944SOL     OW38293   3.359   4.116   8.997  0.1790 -0.7835 -0.1097
 8944SOL    HW138294   3.411   4.141   8.920 -1.3360 -0.3011 -0.9779
 8944SOL    HW238295   3.349   4.203   9.035 -0.3763  0.1296 -2.3367
 8945SOL     OW38296   3.712   4.506   9.553  0.0987 -0.4707  0.2867
 8945SOL    HW138297   3.756   4.589   9.572 -0.7779 -0.6311  3.0725
 8945SOL    HW238298   3.677   4.535   9.469 -1.5946 -2.4059  0.3187
 8946SOL     OW38299   0.636   4.101   5.090  0.2066  0.3180 -0.0304
 8946SOL    HW138300   0.712   4.119   5.145  0.2939 -0.0589 -0.0273
 8946SOL    HW238301   0.627   4.009   5.113  0.6833  0.4906  0.8437
 8947SOL     OW38302   3.520   1.465  12.133  0.1793 -0.0665  0.0684
 8947SOL    HW138303   3.532   1.558  12.154 -1.0509  0.5704 -2.0043
 8947SOL    HW238304   3.441   1.440  12.180  1.2033  0.2906  1.9729
 8948SOL     OW38305   3.007   1.657   7.017  0.3234  0.3838  0.0135
 8948SOL    HW138306   2.945   1.654   6.944  0.9827  1.6305 -0.6008
 8948SOL    HW238307   3.080   1.704   6.977  2.7860 -1.5373  2.2776
 8949SOL     OW38308   3.977   3.541   8.562  0.2557  0.5676  0.1438
 8949SOL    HW138309   4.066   3.542   8.598 -0.5347  2.4673  2.0261
 8949SOL    HW238310   3.924   3.593   8.623  1.5722  3.0270 -0.8269
 8950SOL     OW38311   4.192   1.341   6.602 -0.5262  0.2503 -0.2763
 8950SOL    HW138312   4.131   1.362   6.673 -0.8608 -0.2247 -0.4277
 8950SOL    HW238313   4.145   1.368   6.523  1.3675  0.2222 -1.4090
 8951SOL     OW38314   1.552   4.696   8.033 -0.0392 -0.8986 -0.7236
 8951SOL    HW138315   1.611   0.038   8.067  0.5519 -1.1482 -1.2593
 8951SOL    HW238316   1.465   0.011   8.037  1.5026  2.4245 -0.1876
 8952SOL     OW38317   2.206   1.426  10.437  0.2244  0.3498 -0.3214
 8952SOL    HW138318   2.241   1.344  10.401  0.3861  0.3023 -0.0569
 8952SOL    HW238319   2.112   1.411  10.433  0.1130  0.6747  1.1435
 8953SOL     OW38320   1.888   4.628   4.696  0.1788 -0.0594  0.0473
 8953SOL    HW138321   1.863   4.559   4.757 -1.6430  0.0667 -0.5437
 8953SOL    HW238322   1.883   4.710   4.745 -0.5312 -0.8962  1.3734
 8954SOL     OW38323   0.329   0.189   8.352  1.2830  0.0969 -0.0481
 8954SOL    HW138324   0.247   0.213   8.394  0.5673  1.3096 -2.1411
 8954SOL    HW238325   0.397   0.204   8.418  1.3933 -0.3868 -0.0461
 8955SOL     OW38326   2.939   2.099   3.778 -0.7900  0.1464 -0.4163
 8955SOL    HW138327   2.904   2.030   3.835  0.3938 -1.3476 -1.5075
 8955SOL    HW238328   2.854   2.126   3.744 -1.1381  0.9186  1.0784
 8956SOL     OW38329   1.168   2.446  11.423  0.0974 -0.1700  0.0184
 8956SOL    HW138330   1.197   2.357  11.443  1.2385 -0.2237 -1.8740
 8956SOL    HW238331   1.230   2.513  11.452 -0.4130  0.5801 -0.6552
 8957SOL     OW38332   2.645   0.347   6.388  0.0690 -0.0924 -0.7428
 8957SOL    HW138333   2.667   0.438   6.370 -0.1139 -0.0013 -0.5008
 8957SOL    HW238334   2.552   0.354   6.409  0.2642 -1.7632  0.6858
 8958SOL     OW38335   1.976   3.347   7.550 -0.6966  0.9538  0.5418
 8958SOL    HW138336   1.904   3.400   7.585  0.0960  1.4699  1.3692
 8958SOL    HW238337   2.036   3.344   7.624 -1.1806 -1.7627  0.8210
 8959SOL     OW38338   0.778   3.915  13.097  0.4236  0.1157 -0.9373
 8959SOL    HW138339   0.731   3.919  13.181  0.9271  1.0777 -0.7059
 8959SOL    HW238340   0.849   3.853  13.114  0.1826 -0.9168 -3.6894
 8960SOL     OW38341   4.028   4.482   8.680 -0.0271 -0.0244 -0.2003
 8960SOL    HW138342   3.936   4.459   8.688  0.3461 -1.8435 -0.9207
 8960SOL    HW238343   4.040   4.468   8.586 -3.0631  0.4029 -0.6512
 8961SOL     OW38344   1.497   1.069   3.576  0.9190  0.5458  0.2635
 8961SOL    HW138345   1.518   1.153   3.535 -1.9408  1.3491  0.4662
 8961SOL    HW238346   1.541   1.085   3.660 -0.9391 -3.8392  2.0562
 8962SOL     OW38347   0.001   3.129   2.356 -0.0488  0.6104  0.4620
 8962SOL    HW138348   0.043   3.200   2.307  1.6886 -1.9470 -1.7779
 8962SOL    HW238349   4.703   3.083   2.276  1.4391  1.1516 -0.2832
 8963SOL     OW38350   2.649   1.992  11.642 -0.4872  0.7688  0.2944
 8963SOL    HW138351   2.655   1.897  11.648  0.6724  0.9611  2.1449
 8963SOL    HW238352   2.582   1.990  11.574  0.7061  0.0717 -0.8559
 8964SOL     OW38353   1.165   2.780   6.592  0.3559  0.1547 -0.5546
 8964SOL    HW138354   1.089   2.730   6.564 -0.2481  1.2149 -0.8055
 8964SOL    HW238355   1.214   2.720   6.648 -2.0098 -1.6764 -0.4910
 8965SOL     OW38356   2.766   1.634   3.619 -0.1854 -0.2442  0.1531
 8965SOL    HW138357   2.745   1.710   3.564  1.7163  0.4031  0.3286
 8965SOL    HW238358   2.725   1.667   3.699  0.7395 -1.1077  0.9676
 8966SOL     OW38359   4.083   1.113   8.723 -0.0180  0.3628 -0.2823
 8966SOL    HW138360   4.160   1.108   8.779 -1.6876 -0.5003  1.9307
 8966SOL    HW238361   4.012   1.087   8.782  0.5303  0.4569  0.4032
 8967SOL     OW38362   0.508   3.181  11.444  0.1492 -0.0931  0.0561
 8967SOL    HW138363   0.513   3.229  11.361  1.3509 -0.7650 -0.2593
 8967SOL    HW238364   0.573   3.112  11.432 -1.6341 -1.7682 -0.0237
 8968SOL     OW38365   4.615   1.661  14.241 -0.2766  0.5063  0.0838
 8968SOL    HW138366   4.522   1.642  14.253  0.3102  0.3848  4.4185
 8968SOL    HW238367   4.620   1.652  14.146  1.9211 -0.3947  0.2807
 8969SOL     OW38368   3.398   1.887   6.643 -0.1924 -0.1432 -0.3928
 8969SOL    HW138369   3.465   1.822   6.621 -0.4285 -1.1012  1.7398
 8969SOL    HW238370   3.458   1.958   6.661 -1.2352  0.4509  0.7624
 8970SOL     OW38371   3.736   4.469   6.619 -0.0313 -0.5081  0.3983
 8970SOL    HW138372   3.645   4.495   6.634 -0.3518 -1.1288 -0.4617
 8970SOL    HW238373   3.730   4.375   6.634 -0.8941 -0.9179 -2.5085
 8971SOL     OW38374   1.020   3.138   4.906 -0.2269  0.7133 -0.2816
 8971SOL    HW138375   0.951   3.075   4.928  2.7144 -1.8873  1.4399
 8971SOL    HW238376   0.973   3.219   4.885  0.4640  1.5240  1.3264
 8972SOL     OW38377   2.697   3.189   6.116 -0.3875 -0.3683 -0.4514
 8972SOL    HW138378   2.705   3.201   6.211 -2.4779 -0.8687 -0.2224
 8972SOL    HW238379   2.774   3.230   6.077 -1.0593  0.6386 -0.7233
 8973SOL     OW38380   3.073   4.506   4.510 -0.5454  0.5127  0.8624
 8973SOL    HW138381   3.029   4.550   4.438  1.1138  2.2114  0.8671
 8973SOL    HW238382   3.081   4.417   4.476 -3.1503  1.5506 -2.4601
 8974SOL     OW38383   3.467   0.995   9.028  0.2577  0.2208 -0.6868
 8974SOL    HW138384   3.534   0.989   8.959 -0.0672  3.6177 -1.3091
 8974SOL    HW238385   3.521   1.036   9.095  0.8679  0.5419 -1.3665
 8975SOL     OW38386   0.898   3.449   8.803 -0.2054 -0.3649  0.2763
 8975SOL    HW138387   0.881   3.488   8.717 -0.5395  0.4240  0.6976
 8975SOL    HW238388   0.960   3.513   8.839  1.2386 -1.4931 -0.1807
 8976SOL     OW38389   4.599   2.446  11.275 -0.2919 -0.4630  0.0625
 8976SOL    HW138390   4.571   2.379  11.338 -3.1986  1.4666  0.8496
 8976SOL    HW238391   4.683   2.463  11.317  0.4256  0.2089 -1.6293
 8977SOL     OW38392   0.983   3.669   2.075 -0.4143 -0.1689  0.3692
 8977SOL    HW138393   0.997   3.576   2.095 -1.4630 -0.1537  1.1787
 8977SOL    HW238394   0.898   3.662   2.033  0.2562  0.0329 -1.0292
 8978SOL     OW38395   2.093   2.969   1.773 -0.4446 -0.2320 -0.1042
 8978SOL    HW138396   2.102   3.062   1.753  2.8461 -0.3875  0.6273
 8978SOL    HW238397   2.039   2.966   1.852 -0.6756  0.8620 -0.2149
 8979SOL     OW38398   1.829   4.149   8.595 -0.4140 -0.0098 -0.2696
 8979SOL    HW138399   1.838   4.088   8.668  2.5628  0.7133 -0.0328
 8979SOL    HW238400   1.734   4.156   8.586 -0.6337 -0.9842  1.2486
 8980SOL     OW38401   0.892   0.422  15.905 -0.0892  0.2170  0.1901
 8980SOL    HW138402   0.821   0.369  15.940  1.0869 -0.8099  1.0106
 8980SOL    HW238403   0.869   0.432  15.812  0.6309  0.5943  0.0513
 8981SOL     OW38404   3.993   1.799   7.299  0.0146  0.0206  0.1301
 8981SOL    HW138405   3.944   1.728   7.257 -0.2524 -0.5067  1.3262
 8981SOL    HW238406   4.073   1.760   7.333  0.2899  0.2339 -0.2794
 8982SOL     OW38407   0.578   2.328   5.461  0.1526 -0.1038 -0.5530
 8982SOL    HW138408   0.655   2.324   5.405  1.0641  1.5567  0.6000
 8982SOL    HW238409   0.512   2.282   5.408 -1.5641  3.5088 -1.5063
 8983SOL     OW38410   4.386   2.278   5.363 -0.3248  0.0575  0.3053
 8983SOL    HW138411   4.406   2.217   5.434  2.1585  2.6464  1.8217
 8983SOL    HW238412   4.470   2.313   5.334 -0.9410  0.0590 -1.4490
 8984SOL     OW38413   2.422   1.281   4.143  0.2299 -0.2825  0.0048
 8984SOL    HW138414   2.507   1.271   4.188  0.6410  0.4316 -0.6181
 8984SOL    HW238415   2.424   1.367   4.102  1.7292 -0.6137 -0.6448
 8985SOL     OW38416   4.523   1.056  17.298 -0.9156  0.5857  0.2906
 8985SOL    HW138417   4.457   1.005  17.252  1.7077 -1.8784 -0.7254
 8985SOL    HW238418   4.468   1.112  17.353  0.2864  1.5798  0.5023
 8986SOL     OW38419   2.212   1.791   7.978 -0.6400  0.4765  0.8918
 8986SOL    HW138420   2.203   1.859   8.045 -0.6724  0.0908  1.2814
 8986SOL    HW238421   2.145   1.824   7.919  0.8459  0.9539 -0.5389
 8987SOL     OW38422   2.208   3.315   1.478 -0.2393  0.2528  0.3520
 8987SOL    HW138423   2.189   3.283   1.567 -0.8431 -1.6423 -0.4674
 8987SOL    HW238424   2.132   3.370   1.462 -0.4881 -0.2209 -0.0650
 8988SOL     OW38425   3.425   0.987   1.147 -0.0898  0.2061  0.1299
 8988SOL    HW138426   3.439   0.986   1.052  1.3360  2.6921  0.3108
 8988SOL    HW238427   3.381   0.906   1.174  0.7969 -0.7100 -1.1839
 8989SOL     OW38428   4.330   3.051   6.716 -0.3600  0.4979  0.4847
 8989SOL    HW138429   4.309   3.135   6.755  2.1543  1.4162 -0.1568
 8989SOL    HW238430   4.421   3.066   6.694 -0.5651  0.8058 -0.1529
 8990SOL     OW38431   4.396   1.680  10.571  0.1805 -0.1645 -0.4925
 8990SOL    HW138432   4.435   1.746  10.513  3.2498 -3.4677 -2.2462
 8990SOL    HW238433   4.450   1.601  10.564 -0.6712 -0.5630 -2.7255
 8991SOL     OW38434   4.459   2.659   6.567  0.6057  0.6236  0.6137
 8991SOL    HW138435   4.384   2.659   6.507  2.4779  0.7252 -1.6924
 8991SOL    HW238436   4.420   2.639   6.652 -1.2854  0.2206 -0.3299
 8992SOL     OW38437   3.319   1.901   7.779  0.5774 -0.6581  0.3595
 8992SOL    HW138438   3.362   1.830   7.734 -0.1748 -0.5375 -0.5504
 8992SOL    HW238439   3.247   1.925   7.720 -0.2035 -1.0643  1.1292
 8993SOL     OW38440   3.442   4.586   1.144 -0.1146  0.1664 -0.2932
 8993SOL    HW138441   3.490   4.552   1.069 -0.3430  0.2418 -0.4739
 8993SOL    HW238442   3.515   4.593   1.205 -0.2129  1.1992 -0.2942
 8994SOL     OW38443   1.618   1.507  17.256 -0.1627  0.0436 -0.3405
 8994SOL    HW138444   1.527   1.517  17.228 -0.1459  0.2669 -0.3101
 8994SOL    HW238445   1.614   1.537  17.347  0.4534 -0.4334 -0.1564
 8995SOL     OW38446   2.106   4.015   9.943 -0.0365 -0.9727 -0.7322
 8995SOL    HW138447   2.098   4.090  10.002 -0.7629 -0.6394 -1.2516
 8995SOL    HW238448   2.179   3.962   9.975 -1.7646 -1.5905  2.2616
 8996SOL     OW38449   4.425   1.865   2.690  0.2290  0.5360  0.4339
 8996SOL    HW138450   4.500   1.806   2.701 -1.3476 -1.5277  0.1306
 8996SOL    HW238451   4.472   1.947   2.704  1.8192  0.0255 -1.8515
 8997SOL     OW38452   1.795   2.445   0.924  0.0479  0.4180  1.0097
 8997SOL    HW138453   1.883   2.482   0.930  0.3324 -0.1421  0.3173
 8997SOL    HW238454   1.740   2.520   0.900  0.8722  1.5696  2.7558
 8998SOL     OW38455   1.443   1.980   7.875 -0.0311 -0.2449 -0.8507
 8998SOL    HW138456   1.511   1.942   7.820  1.2408  1.3963 -0.4125
 8998SOL    HW238457   1.430   2.057   7.820 -0.2032  0.0830 -0.3544
 8999SOL     OW38458   3.509   1.121   1.479  0.1449  0.1103  0.4383
 8999SOL    HW138459   3.456   1.046   1.507  1.2128 -0.9277 -0.3148
 8999SOL    HW238460   3.452   1.160   1.413 -0.2653  0.0083  0.7289
 9000SOL     OW38461   0.544   2.817  11.603 -0.6051  0.0319  0.5346
 9000SOL    HW138462   0.580   2.739  11.644 -0.4200 -1.1965 -1.9586
 9000SOL    HW238463   0.624   2.861  11.574 -2.6088  1.4852 -2.8715
 9001SOL     OW38464   3.282   3.647  17.013 -0.2782 -0.0529  0.3553
 9001SOL    HW138465   3.265   3.586  17.084  0.7904 -2.3781 -1.3930
 9001SOL    HW238466   3.197   3.664  16.972 -0.6128 -0.1130  1.0233
 9002SOL     OW38467   0.921   4.670  13.897 -0.5046  0.2421 -0.1132
 9002SOL    HW138468   0.882   4.607  13.836 -1.0876 -1.0090  1.5397
 9002SOL    HW238469   0.846   0.002  13.912  0.3550  1.7287 -1.4414
 9003SOL     OW38470   2.085   4.298   5.068 -0.7955  0.3966 -0.4280
 9003SOL    HW138471   2.111   4.213   5.030  3.0497  1.2661  0.2761
 9003SOL    HW238472   2.036   4.273   5.146 -1.0602  0.4910 -0.5664
 9004SOL     OW38473   1.130   4.070   5.896  0.7114 -0.4260  0.3400
 9004SOL    HW138474   1.057   4.018   5.929 -0.3303  0.9022  0.1426
 9004SOL    HW238475   1.095   4.159   5.908  2.4567  0.3201 -0.1458
 9005SOL     OW38476   4.059   0.694   1.735  0.2650  0.2090  0.0210
 9005SOL    HW138477   4.080   0.764   1.672 -1.2708 -1.2017 -2.0594
 9005SOL    HW238478   4.119   0.624   1.706 -1.4274 -1.5022  0.6744
 9006SOL     OW38479   2.864   2.879  10.186 -0.2312 -0.3721 -0.0942
 9006SOL    HW138480   2.901   2.791  10.186  0.0605 -0.2472 -0.2981
 9006SOL    HW238481   2.932   2.929  10.142 -0.8097 -0.6147 -1.2524
 9007SOL     OW38482   4.446   0.439   3.055  0.1754 -0.4904  0.2034
 9007SOL    HW138483   4.356   0.457   3.081 -0.2515 -1.8070 -0.3469
 9007SOL    HW238484   4.496   0.495   3.113 -1.0068 -0.5758  1.3046
 9008SOL     OW38485   0.655   1.946   3.550  0.1278 -0.0086 -0.3358
 9008SOL    HW138486   0.631   1.862   3.511  0.9498  0.0826 -1.0385
 9008SOL    HW238487   0.576   1.999   3.562 -1.2426 -1.9673 -0.7313
 9009SOL     OW38488   2.798   1.662   6.575 -0.3243 -0.0773  0.2294
 9009SOL    HW138489   2.713   1.652   6.532  0.1749 -0.4853 -0.6489
 9009SOL    HW238490   2.826   1.571   6.566 -2.6604 -0.6036 -1.5766
 9010SOL     OW38491   2.722   4.417   1.689 -0.4771 -0.6058  0.0076
 9010SOL    HW138492   2.754   4.480   1.754 -1.4954  0.7250 -0.7556
 9010SOL    HW238493   2.663   4.368   1.746 -0.1714  1.3735  2.0349
 9011SOL     OW38494   0.652   1.263   3.817  0.3049 -0.7093 -0.6537
 9011SOL    HW138495   0.744   1.272   3.794  0.5715 -1.1367  0.2539
 9011SOL    HW238496   0.612   1.258   3.730 -0.0842  2.5144 -0.6603
 9012SOL     OW38497   4.034   0.639   9.719  0.0864 -0.5153 -0.8243
 9012SOL    HW138498   4.064   0.576   9.785  0.4870 -0.3347 -0.8320
 9012SOL    HW238499   3.938   0.636   9.713  0.0785 -1.4316 -0.2018
 9013SOL     OW38500   3.955   0.919   7.582  0.0907  0.6322 -0.3435
 9013SOL    HW138501   4.031   0.875   7.545 -0.5998  1.3477 -2.6054
 9013SOL    HW238502   3.903   0.950   7.508 -0.3612  0.8597  0.0629
 9014SOL     OW38503   0.060   2.800  13.138  0.3538 -0.4505  0.0660
 9014SOL    HW138504   4.719   2.869  13.142 -1.3862 -2.2312  1.7742
 9014SOL    HW238505   0.129   2.826  13.199 -0.5480 -0.1777  0.9566
 9015SOL     OW38506   2.351   0.353  11.301 -0.1857 -0.4570 -0.3828
 9015SOL    HW138507   2.404   0.392  11.232 -0.6922  0.0223 -0.5008
 9015SOL    HW238508   2.295   0.295  11.250 -2.2630  0.7160  0.5281
 9016SOL     OW38509   4.509   2.733   8.093 -0.1035  0.5940  0.0539
 9016SOL    HW138510   4.589   2.708   8.141 -1.4839  0.7523  2.4641
 9016SOL    HW238511   4.462   2.776   8.165 -0.4202  2.1899 -1.1047
 9017SOL     OW38512   4.304   4.033   3.552 -0.3695 -0.1719 -0.4605
 9017SOL    HW138513   4.217   4.009   3.584 -0.3965  0.8091  0.2353
 9017SOL    HW238514   4.294   4.129   3.553 -0.1287 -0.1450 -0.8841
 9018SOL     OW38515   3.203   2.030   9.509  0.1174  0.0907  0.4273
 9018SOL    HW138516   3.195   1.958   9.571  2.7141 -1.2922 -0.8319
 9018SOL    HW238517   3.296   2.042   9.491  0.2880 -0.3487  1.0211
 9019SOL     OW38518   0.304   0.759   3.886  0.6199  0.8202  0.5531
 9019SOL    HW138519   0.345   0.839   3.852 -1.8720  2.0309  0.3716
 9019SOL    HW238520   0.355   0.744   3.966  0.1316 -1.5747  0.3906
 9020SOL     OW38521   3.344   3.009   3.335  0.8060  0.1508  0.0796
 9020SOL    HW138522   3.437   3.007   3.310  1.3361  0.3317  2.0476
 9020SOL    HW238523   3.310   2.942   3.276  0.1302  1.4127 -0.9603
 9021SOL     OW38524   4.143   4.046   1.477 -0.6057 -0.2597  0.3709
 9021SOL    HW138525   4.180   3.978   1.419  1.8571 -0.8663  2.6264
 9021SOL    HW238526   4.161   4.129   1.433 -1.8823  0.9679  2.1521
 9022SOL     OW38527   2.858   3.115   6.579 -0.5055 -0.1721  0.2998
 9022SOL    HW138528   2.904   3.040   6.541 -0.1146  0.8313 -1.1751
 9022SOL    HW238529   2.918   3.143   6.648  0.1294 -0.0742 -0.2932
 9023SOL     OW38530   3.032   2.340  16.458 -0.2551 -0.4203 -0.8458
 9023SOL    HW138531   2.965   2.408  16.460 -0.9571 -1.1513  0.0326
 9023SOL    HW238532   3.037   2.336  16.362 -0.4799  0.6662 -0.9070
 9024SOL     OW38533   3.065   1.422   3.437  0.4281  0.0191 -0.1734
 9024SOL    HW138534   2.970   1.418   3.422  0.4196 -0.6947  0.0500
 9024SOL    HW238535   3.078   1.494   3.499  1.7473  0.6308 -1.1728
 9025SOL     OW38536   1.518   0.518  12.182  0.4773 -0.1305  0.6267
 9025SOL    HW138537   1.551   0.491  12.096  0.5654 -3.7787  1.7846
 9025SOL    HW238538   1.602   0.521  12.228  1.1465 -1.0394 -0.5320
 9026SOL     OW38539   3.695   0.830   3.924 -0.3051  0.1160  0.1184
 9026SOL    HW138540   3.738   0.908   3.890  1.0191  0.1274  1.8157
 9026SOL    HW238541   3.744   0.810   4.004  1.2736 -0.2904 -0.9508
 9027SOL     OW38542   0.441   2.876   2.244 -0.3477 -0.5812 -0.7188
 9027SOL    HW138543   0.377   2.804   2.242 -0.8587 -0.1376 -0.4655
 9027SOL    HW238544   0.530   2.843   2.239 -0.0873  0.4313 -2.6600
 9028SOL     OW38545   3.860   0.525   4.894  0.3441  0.0545  0.1419
 9028SOL    HW138546   3.938   0.582   4.889  0.5615 -0.0640  2.2749
 9028SOL    HW238547   3.794   0.592   4.913 -0.1792  0.0057 -1.5440
 9029SOL     OW38548   3.532   3.636   5.405 -0.1014 -0.2719 -0.2804
 9029SOL    HW138549   3.490   3.632   5.491 -1.7852  3.0702 -0.9254
 9029SOL    HW238550   3.624   3.613   5.417  0.2135  0.8447 -0.5472
 9030SOL     OW38551   3.441   2.266  11.535 -0.5386 -0.1455  0.2890
 9030SOL    HW138552   3.363   2.275  11.480  1.1376  0.5274 -1.9554
 9030SOL    HW238553   3.408   2.241  11.622  1.0147  0.7076  1.1121
 9031SOL     OW38554   3.624   1.030   0.194  0.4512  0.1776  0.4193
 9031SOL    HW138555   3.583   1.039   0.280 -2.3765  0.0102 -0.9075
 9031SOL    HW238556   3.563   1.080   0.140  2.5689  0.8239 -1.3601
 9032SOL     OW38557   2.183   1.436   7.874 -0.3425 -0.2011 -0.0029
 9032SOL    HW138558   2.111   1.377   7.895  0.4977 -1.2150  0.0782
 9032SOL    HW238559   2.200   1.472   7.961  3.5260  0.8994 -1.1938
 9033SOL     OW38560   1.409   3.839   4.419  0.3355  0.7614 -0.6288
 9033SOL    HW138561   1.472   3.774   4.450 -0.6808 -0.7559 -1.7430
 9033SOL    HW238562   1.346   3.798   4.359  1.2257 -1.1654 -0.2512
 9034SOL     OW38563   0.804   2.172   8.932 -0.0603 -0.2080  0.6341
 9034SOL    HW138564   0.763   2.256   8.911  0.0392  0.0005  1.2751
 9034SOL    HW238565   0.887   2.194   8.976  0.1075  1.3709 -0.4604
 9035SOL     OW38566   3.407   4.335   8.061  0.7488 -0.2657  0.9334
 9035SOL    HW138567   3.427   4.413   8.113  2.8148 -0.0813 -0.1279
 9035SOL    HW238568   3.392   4.371   7.974 -0.0503  0.6209  1.4468
 9036SOL     OW38569   1.291   2.940   0.347  0.1774 -0.1162 -0.2436
 9036SOL    HW138570   1.239   2.864   0.374  2.5167 -0.5904  2.9021
 9036SOL    HW238571   1.221   3.005   0.336  1.3720  1.0489 -0.8966
 9037SOL     OW38572   3.950   2.085   4.010 -0.1434 -0.0821 -0.3751
 9037SOL    HW138573   3.936   2.169   4.054  0.3062 -1.3428  2.2053
 9037SOL    HW238574   3.981   2.123   3.928  0.1346 -0.6226 -0.5216
 9038SOL     OW38575   0.981   0.215   2.084 -0.1224  0.1420  0.2722
 9038SOL    HW138576   0.994   0.172   2.168 -0.7558 -0.4656  0.0514
 9038SOL    HW238577   0.895   0.253   2.102  0.0097  0.7466 -0.3505
 9039SOL     OW38578   3.676   0.312   3.200 -0.0041  0.4832  0.2282
 9039SOL    HW138579   3.634   0.272   3.276  1.7854 -0.0261  0.9252
 9039SOL    HW238580   3.726   0.245   3.153 -0.6525  0.8347 -0.9613
 9040SOL     OW38581   1.277   1.753   5.629 -0.4449  0.0603 -0.8982
 9040SOL    HW138582   1.287   1.751   5.534 -2.1688 -0.8017 -1.0620
 9040SOL    HW238583   1.228   1.834   5.620 -0.9251  0.1280  2.5745
 9041SOL     OW38584   3.135   4.023   5.189  0.1957 -0.2725 -0.1071
 9041SOL    HW138585   3.159   3.944   5.142  0.6717  0.2454 -0.7340
 9041SOL    HW238586   3.055   4.049   5.143  0.4417 -1.2568 -1.0718
 9042SOL     OW38587   0.049   3.652  11.724  0.6310  0.2967 -0.4257
 9042SOL    HW138588   0.028   3.578  11.668  0.5619 -0.3755  0.4879
 9042SOL    HW238589   0.128   3.618  11.767  1.1357  2.5123  0.3923
 9043SOL     OW38590   2.435   3.881   5.809 -0.5034 -0.1855  0.0128
 9043SOL    HW138591   2.382   3.889   5.729  0.3161  1.0430 -0.4001
 9043SOL    HW238592   2.387   3.951   5.853  0.9381  1.3210 -0.8434
 9044SOL     OW38593   2.870   4.318   7.296 -0.2353 -0.2448 -0.5822
 9044SOL    HW138594   2.923   4.364   7.362  1.0702 -0.2462 -1.6394
 9044SOL    HW238595   2.803   4.274   7.348 -0.0244 -1.2231 -1.1461
 9045SOL     OW38596   1.326   2.140   2.790 -0.4887 -0.1018 -0.1239
 9045SOL    HW138597   1.236   2.168   2.807  0.0747  2.5929 -1.5778
 9045SOL    HW238598   1.319   2.160   2.697  0.0857  3.2590  0.5592
 9046SOL     OW38599   1.195   4.501   6.525 -0.1737  0.3781  0.7519
 9046SOL    HW138600   1.279   4.519   6.567  0.6278  2.5812 -1.8092
 9046SOL    HW238601   1.217   4.477   6.435  2.7375  1.4562  1.1811
 9047SOL     OW38602   2.733   0.000   3.272 -0.0206  0.2579  0.4928
 9047SOL    HW138603   2.801   4.683   3.324  0.5746  0.3347 -0.2259
 9047SOL    HW238604   2.749   0.085   3.314 -0.5994 -0.2795  1.8216
 9048SOL     OW38605   2.676   3.132   3.051 -0.1614 -0.4088  0.0705
 9048SOL    HW138606   2.695   3.045   3.084 -1.7823 -1.4588 -1.7794
 9048SOL    HW238607   2.669   3.128   2.956 -1.9512 -0.0199  0.1802
 9049SOL     OW38608   3.045   2.400   1.262 -0.5243 -0.0389  0.1832
 9049SOL    HW138609   3.002   2.333   1.315  0.6252 -0.4173  0.6506
 9049SOL    HW238610   3.032   2.476   1.319  1.5038 -1.1193  2.1112
 9050SOL     OW38611   1.771   4.002   1.826  0.0010 -0.3108  0.0323
 9050SOL    HW138612   1.766   4.041   1.739 -1.1622  0.1517  0.3043
 9050SOL    HW238613   1.841   4.053   1.866  1.4096 -1.9074 -0.4100
 9051SOL     OW38614   3.316   0.045  13.799 -0.3565  0.0220 -0.0387
 9051SOL    HW138615   3.286   0.130  13.765 -0.1037 -0.0467 -0.4292
 9051SOL    HW238616   3.252   0.034  13.870  1.6110  0.0428  1.7505
 9052SOL     OW38617   1.570   2.163   2.175  1.0381 -0.0984 -0.3784
 9052SOL    HW138618   1.641   2.141   2.113 -0.2525 -0.8888 -1.5864
 9052SOL    HW238619   1.555   2.257   2.163 -1.2665 -0.4810 -0.3952
 9053SOL     OW38620   4.113   1.031   0.882 -0.5470 -0.3271 -0.1272
 9053SOL    HW138621   4.083   0.973   0.953 -0.9160  0.7190  0.5722
 9053SOL    HW238622   4.030   1.043   0.837 -1.1934 -2.0528  0.5785
 9054SOL     OW38623   3.839   3.742   7.337  0.5012  0.1450 -0.0091
 9054SOL    HW138624   3.855   3.784   7.253  0.8873 -0.0986 -0.0563
 9054SOL    HW238625   3.898   3.795   7.391 -1.5151  0.8834  1.4841
 9055SOL     OW38626   0.041   3.298  13.563  0.2242 -0.4295  0.4647
 9055SOL    HW138627   0.032   3.341  13.648  0.3220  0.4833  0.0203
 9055SOL    HW238628   0.007   3.379  13.523  0.7718 -0.4080  0.0444
 9056SOL     OW38629   0.497   2.297   8.368  0.1879 -0.3472 -0.3831
 9056SOL    HW138630   0.416   2.247   8.365 -0.4548  0.4229  3.4582
 9056SOL    HW238631   0.563   2.230   8.350  2.4646  1.6401  0.4929
 9057SOL     OW38632   3.640   0.645   1.418 -0.1976  0.2886  0.3041
 9057SOL    HW138633   3.600   0.730   1.435  2.2681  1.7843 -1.3038
 9057SOL    HW238634   3.567   0.602   1.373 -0.4596  0.7482  0.2841
 9058SOL     OW38635   0.190   2.252  11.566 -0.0589  0.3813  0.1665
 9058SOL    HW138636   0.216   2.179  11.622 -0.7023  0.1901  0.2097
 9058SOL    HW238637   0.247   2.323  11.596  1.6486 -0.2136 -1.6938
 9059SOL     OW38638   2.189   1.535  11.518 -0.0652 -0.1805  0.0664
 9059SOL    HW138639   2.126   1.462  11.521 -0.4205  0.2354  2.3933
 9059SOL    HW238640   2.237   1.514  11.438 -2.5447 -1.3796 -1.1076
 9060SOL     OW38641   0.639   2.628   0.934 -0.3127  0.0727  0.0534
 9060SOL    HW138642   0.723   2.583   0.923  0.5748  1.7199  0.2640
 9060SOL    HW238643   0.599   2.634   0.847  0.1719 -1.9981 -0.3269
 9061SOL     OW38644   3.336   2.476   2.419 -0.1328  0.0912 -0.2136
 9061SOL    HW138645   3.293   2.521   2.346 -1.2997  1.7024  1.4687
 9061SOL    HW238646   3.307   2.386   2.408 -1.0323  0.3652 -0.0925
 9062SOL     OW38647   1.113   4.095   1.099  0.5454  0.6407  0.0119
 9062SOL    HW138648   1.023   4.062   1.093  0.7321  0.0137  0.6305
 9062SOL    HW238649   1.093   4.187   1.081 -1.6891  0.4054  1.2073
 9063SOL     OW38650   1.509   4.285  16.959 -0.4131 -0.2896  0.4542
 9063SOL    HW138651   1.469   4.292  16.873 -0.8272 -0.5962  0.6218
 9063SOL    HW238652   1.504   4.191  16.981  0.0713  0.0809  2.2024
 9064SOL     OW38653   0.950   3.321   5.964 -0.0125 -0.2696 -0.3919
 9064SOL    HW138654   0.899   3.323   6.045  0.0396 -1.2176 -0.3332
 9064SOL    HW238655   0.975   3.413   5.964  1.6851 -0.7303 -1.1758
 9065SOL     OW38656   3.741   3.321  17.115  0.3017  0.0958 -0.0305
 9065SOL    HW138657   3.807   3.286  17.175  0.7621  0.8301 -0.1007
 9065SOL    HW238658   3.738   3.412  17.145 -1.7469 -0.5999  1.8813
 9066SOL     OW38659   1.715   1.314   0.251  0.6350  0.3305  0.2673
 9066SOL    HW138660   1.769   1.392   0.239  2.3345 -1.1984 -2.0432
 9066SOL    HW238661   1.772   1.258   0.304 -0.2597  0.7968  1.7164
 9067SOL     OW38662   3.696   0.097   6.370 -0.1771  0.0205 -0.0565
 9067SOL    HW138663   3.629   0.028   6.377  0.8787 -0.8530  1.4117
 9067SOL    HW238664   3.762   0.055   6.424 -0.5447  0.6930  0.9171
 9068SOL     OW38665   1.995   2.085   5.432  0.0461  0.3475  0.6435
 9068SOL    HW138666   1.950   2.157   5.478  0.0492  0.1229  1.0005
 9068SOL    HW238667   2.035   2.028   5.498 -0.7584 -1.0346 -0.0629
 9069SOL     OW38668   2.572   3.455   5.585 -0.0043 -0.1431  0.1562
 9069SOL    HW138669   2.525   3.372   5.597  0.7405 -0.4030  1.2537
 9069SOL    HW238670   2.507   3.512   5.625  0.9253  2.6714 -2.3037
 9070SOL     OW38671   2.878   2.462   0.926 -0.1268 -0.3140 -0.0299
 9070SOL    HW138672   2.946   2.407   0.965  0.1337 -0.9615 -1.3899
 9070SOL    HW238673   2.868   2.525   0.997  1.9007 -1.0929  0.9372
 9071SOL     OW38674   4.462   2.700  17.220  0.1712  0.1032 -0.0907
 9071SOL    HW138675   4.544   2.698  17.269  1.2674 -2.9160 -2.0049
 9071SOL    HW238676   4.489   2.660  17.138  2.2824 -0.7282  1.0208
 9072SOL     OW38677   3.449   4.490   0.400  0.3267 -0.1099  0.1045
 9072SOL    HW138678   3.438   4.473   0.494 -1.3617  0.4338  0.0079
 9072SOL    HW238679   3.467   4.584   0.399  2.8326 -0.6095 -1.5153
 9073SOL     OW38680   3.592   4.253   8.281  0.3188  0.3840 -0.1370
 9073SOL    HW138681   3.640   4.335   8.274  0.8871  0.0326 -0.2956
 9073SOL    HW238682   3.547   4.259   8.197 -2.4616  3.7163  1.5566
 9074SOL     OW38683   2.337   2.905  16.435 -0.1633 -0.0602 -0.2988
 9074SOL    HW138684   2.396   2.837  16.469  0.1513  1.1382  1.5925
 9074SOL    HW238685   2.291   2.919  16.518  0.8896  1.6514  0.0014
 9075SOL     OW38686   0.474   0.368   4.453 -0.4194  0.9022  0.4135
 9075SOL    HW138687   0.492   0.343   4.362  1.4620 -1.8341  1.5457
 9075SOL    HW238688   0.487   0.463   4.450 -0.1081  0.8267 -1.0036
 9076SOL     OW38689   3.307   3.092   7.977 -0.0553  0.3120  0.1290
 9076SOL    HW138690   3.232   3.134   8.019 -2.5255 -1.3702 -2.5583
 9076SOL    HW238691   3.291   3.104   7.883  1.4469 -2.5331 -0.4995
 9077SOL     OW38692   4.095   0.438   8.395 -0.2220 -0.2188  0.3645
 9077SOL    HW138693   4.137   0.421   8.479 -0.1343 -1.9904 -0.0334
 9077SOL    HW238694   4.005   0.409   8.408 -0.4582  0.3333 -0.0176
 9078SOL     OW38695   3.649   1.865   2.969  0.5135 -0.4115  0.1670
 9078SOL    HW138696   3.673   1.940   2.915  0.9703 -0.2185  0.6360
 9078SOL    HW238697   3.555   1.862   2.954  0.6054  1.2876 -0.7765
 9079SOL     OW38698   2.930   4.574  10.263 -0.2131  0.4429 -0.0698
 9079SOL    HW138699   2.851   4.582  10.317 -0.0777  0.6862  0.0929
 9079SOL    HW238700   2.983   4.506  10.304  1.4049  0.8697 -1.4969
 9080SOL     OW38701   2.511   0.311   0.746  0.2207 -0.5492  0.4099
 9080SOL    HW138702   2.541   0.384   0.801  0.2319 -0.2334 -0.0130
 9080SOL    HW238703   2.424   0.344   0.726 -0.3525 -2.2799  0.0507
 9081SOL     OW38704   2.592   3.310   8.721  0.3401 -0.4151 -0.1141
 9081SOL    HW138705   2.526   3.332   8.787  1.3626  0.0310  0.7730
 9081SOL    HW238706   2.571   3.227   8.679  0.6966 -0.3631 -0.3969
 9082SOL     OW38707   2.787   1.088   6.328  0.1095 -0.3812  0.2974
 9082SOL    HW138708   2.859   1.086   6.264 -1.9862  0.1265 -2.0948
 9082SOL    HW238709   2.840   1.074   6.406  0.4216 -0.3079  0.1008
 9083SOL     OW38710   3.982   4.709  14.938  0.7968 -0.0701 -0.2479
 9083SOL    HW138711   4.025   4.648  14.878 -0.1310  0.5444 -1.5319
 9083SOL    HW238712   3.967   0.054  14.874  1.2110 -0.1540 -0.4425
 9084SOL     OW38713   3.572   2.299  13.675  0.1387  0.1875  0.7877
 9084SOL    HW138714   3.546   2.228  13.733 -1.3982 -1.8055 -2.3072
 9084SOL    HW238715   3.531   2.268  13.594  1.0639  0.4490  0.2203
 9085SOL     OW38716   0.737   1.324   0.563 -0.7940 -0.4994 -0.6495
 9085SOL    HW138717   0.671   1.285   0.506 -1.7511  0.1411  0.0132
 9085SOL    HW238718   0.703   1.414   0.569  0.6178  0.0184 -0.4253
 9086SOL     OW38719   3.433   1.671   8.089 -0.1459 -0.5938 -0.0958
 9086SOL    HW138720   3.404   1.751   8.132  0.5599 -0.8539  0.8679
 9086SOL    HW238721   3.447   1.617   8.166 -2.0364 -0.4063  0.3773
 9087SOL     OW38722   4.113   0.108   5.735 -0.3460 -0.1873  0.1107
 9087SOL    HW138723   4.190   0.073   5.781 -1.0764  2.2232  3.1631
 9087SOL    HW238724   4.088   0.046   5.667  0.4401  0.5917 -0.8884
 9088SOL     OW38725   1.132   2.293   9.491 -0.5224 -0.2485 -0.1995
 9088SOL    HW138726   1.119   2.198   9.496  2.4751 -0.5409  1.7771
 9088SOL    HW238727   1.057   2.311   9.547 -1.4957 -0.4929 -1.4412
 9089SOL     OW38728   3.718   0.486   3.409  0.8659 -0.3512 -0.3100
 9089SOL    HW138729   3.655   0.444   3.467  0.5439  2.3239  1.2732
 9089SOL    HW238730   3.702   0.450   3.322  1.5684 -0.1137 -0.5334
 9090SOL     OW38731   3.030   3.931  15.126  0.3971 -0.0944 -0.3652
 9090SOL    HW138732   3.013   3.844  15.161  3.1459 -0.7825 -0.7390
 9090SOL    HW238733   2.941   3.964  15.108  0.8022  0.6268 -1.0772
 9091SOL     OW38734   2.480   1.186   6.423 -0.0624 -0.7993 -0.7032
 9091SOL    HW138735   2.430   1.166   6.343 -2.3694  0.1230  0.4944
 9091SOL    HW238736   2.419   1.240   6.475  1.0591 -1.2714  1.0783
 9092SOL     OW38737   1.904   1.195   6.843 -0.0627  0.0085 -0.2093
 9092SOL    HW138738   1.824   1.193   6.897 -1.0416  1.0552 -1.6087
 9092SOL    HW238739   1.867   1.158   6.763 -0.5184 -0.5085  0.2327
 9093SOL     OW38740   1.615   3.787   5.350  0.6792 -0.1743 -0.6149
 9093SOL    HW138741   1.521   3.780   5.366  1.1693  0.3552  2.6147
 9093SOL    HW238742   1.614   3.834   5.267 -0.7011 -3.5014 -2.4718
 9094SOL     OW38743   1.638   0.367   8.030 -0.0253  0.1847 -0.0072
 9094SOL    HW138744   1.592   0.425   7.970  1.9993 -2.5333 -4.2162
 9094SOL    HW238745   1.706   0.339   7.968 -1.3480  0.8167 -1.7390
 9095SOL     OW38746   1.444   4.559   3.715  0.0706  0.5635  0.0295
 9095SOL    HW138747   1.492   4.539   3.635  1.2116 -1.6298  1.2384
 9095SOL    HW238748   1.469   4.484   3.770 -0.2810  1.1149  0.9506
 9096SOL     OW38749   2.344   1.293  14.378 -0.1831  0.3450  0.2469
 9096SOL    HW138750   2.332   1.236  14.454  0.6847  0.0097  0.1339
 9096SOL    HW238751   2.343   1.376  14.425  2.0628  0.4699  0.0567
 9097SOL     OW38752   0.119   1.425  13.614  0.1833  0.0579 -0.1678
 9097SOL    HW138753   0.169   1.504  13.632  0.7981  0.0017 -1.5761
 9097SOL    HW238754   0.139   1.408  13.522 -3.0792 -0.3570 -0.7837
 9098SOL     OW38755   3.054   4.040   7.189 -1.1533  0.5392 -0.7531
 9098SOL    HW138756   3.140   4.064   7.223 -1.4143 -1.1345  1.0750
 9098SOL    HW238757   3.007   4.122   7.203 -3.9266 -1.0008 -0.8766
 9099SOL     OW38758   2.557   1.004   2.438 -0.4583 -1.0624  0.5028
 9099SOL    HW138759   2.640   0.996   2.484  0.4231  0.4868 -0.8120
 9099SOL    HW238760   2.530   0.913   2.449 -0.7624 -1.2944 -2.2035
 9100SOL     OW38761   3.418   1.545   9.011 -0.2124  0.3677 -0.1199
 9100SOL    HW138762   3.323   1.538   8.999 -0.1133  0.4541 -0.9526
 9100SOL    HW238763   3.420   1.622   9.068 -2.6977  0.3650 -0.0028
 9101SOL     OW38764   1.406   2.242  13.587  0.6075  0.2824 -0.1410
 9101SOL    HW138765   1.347   2.196  13.528 -0.5620  1.1295  0.3607
 9101SOL    HW238766   1.346   2.311  13.615  0.8765 -0.3505  1.9490
 9102SOL     OW38767   2.077   0.688   6.930 -0.2865 -0.2528 -0.0922
 9102SOL    HW138768   2.167   0.720   6.923 -1.5276  2.9777 -1.2570
 9102SOL    HW238769   2.095   0.596   6.948 -2.4335 -0.5542  0.4255
 9103SOL     OW38770   4.654   4.060  13.352  0.0480 -0.0192 -0.0376
 9103SOL    HW138771   4.594   4.134  13.359 -2.0253 -1.9228  2.1211
 9103SOL    HW238772   4.639   4.030  13.262 -0.2461  0.7198 -0.2297
 9104SOL     OW38773   2.750   1.764  10.624 -0.2869 -0.3530 -0.0279
 9104SOL    HW138774   2.696   1.703  10.573 -0.8997 -1.6219  2.1691
 9104SOL    HW238775   2.741   1.717  10.707 -1.0346 -1.4324 -0.7172
 9105SOL     OW38776   0.761   3.001   4.132 -0.4652 -0.0562  0.1340
 9105SOL    HW138777   0.831   3.049   4.087  0.3417 -2.2110 -0.9149
 9105SOL    HW238778   0.744   3.058   4.206  0.6868  1.6953 -0.9573
 9106SOL     OW38779   3.912   3.851   5.117  0.5444 -0.7027 -0.6372
 9106SOL    HW138780   3.969   3.898   5.056  0.8765 -0.6939 -0.3198
 9106SOL    HW238781   3.901   3.768   5.071 -0.1541 -0.0908 -1.5861
 9107SOL     OW38782   2.853   0.088   4.090  0.1931 -0.2733 -0.5550
 9107SOL    HW138783   2.899   0.012   4.053  1.5782 -0.1312  0.8814
 9107SOL    HW238784   2.859   0.154   4.021 -0.7210  0.5325  0.1535
 9108SOL     OW38785   3.758   4.048  13.289 -0.4146 -0.1704 -0.1316
 9108SOL    HW138786   3.680   3.993  13.288  0.4456 -1.3484 -3.5899
 9108SOL    HW238787   3.807   4.041  13.207 -1.9794 -1.9157 -0.9061
 9109SOL     OW38788   3.018   2.162   5.431  0.9576 -0.2538 -0.1124
 9109SOL    HW138789   2.958   2.198   5.366  2.1522  0.4427 -0.8321
 9109SOL    HW238790   2.965   2.092   5.470 -0.1680  0.7835  0.2139
 9110SOL     OW38791   0.522   3.267  11.176 -0.4463 -0.6584 -0.0903
 9110SOL    HW138792   0.596   3.218  11.141 -0.5338 -1.3697  0.7212
 9110SOL    HW238793   0.454   3.250  11.110 -1.2443  0.7533  0.3599
 9111SOL     OW38794   2.284   4.005  15.638 -0.0111 -0.3158 -0.1881
 9111SOL    HW138795   2.331   3.932  15.598 -0.2814 -0.2505 -0.6245
 9111SOL    HW238796   2.194   3.983  15.611 -0.1024  1.6837 -1.5492
 9112SOL     OW38797   0.975   3.291   0.181 -0.8069  0.1586 -0.1511
 9112SOL    HW138798   1.041   3.314   0.115 -2.7462  0.3483 -2.0208
 9112SOL    HW238799   1.019   3.216   0.220 -3.3713 -2.6467 -2.6764
 9113SOL     OW38800   4.626   4.669   3.121 -0.1161 -0.4363 -0.1643
 9113SOL    HW138801   4.603   0.031   3.089 -0.4999  0.5422  2.6939
 9113SOL    HW238802   4.577   4.608   3.066  1.7348 -0.3485 -1.8900
 9114SOL     OW38803   4.161   0.678   0.049 -0.1062  0.4940 -1.3147
 9114SOL    HW138804   4.157   0.718  17.664  0.6300 -0.8965 -1.9909
 9114SOL    HW238805   4.159   0.583   0.038  2.4258  0.4184 -1.0563
 9115SOL     OW38806   3.872   4.619   6.451  0.0656 -0.0543  0.1174
 9115SOL    HW138807   3.828   4.561   6.513  0.9394 -1.5951 -0.7054
 9115SOL    HW238808   3.906   4.552   6.392 -0.9882  0.7237 -1.3851
 9116SOL     OW38809   2.622   0.032  13.155  0.0549 -0.2590 -0.3107
 9116SOL    HW138810   2.528   0.014  13.152  0.0718 -0.2414 -0.8091
 9116SOL    HW238811   2.649   4.683  13.209 -3.1849 -0.9637  0.3186
 9117SOL     OW38812   2.573   0.307  13.223 -0.1156 -0.3265  0.0987
 9117SOL    HW138813   2.551   0.342  13.136 -1.9601  0.1344  0.7453
 9117SOL    HW238814   2.668   0.314  13.230 -0.2327  2.3836 -1.0333
 9118SOL     OW38815   0.588   0.946   8.371 -0.0577  0.3404 -0.0970
 9118SOL    HW138816   0.502   0.951   8.411  0.9424  0.1002  2.0684
 9118SOL    HW238817   0.628   0.974   8.453  2.7566 -0.6388 -1.1229
 9119SOL     OW38818   2.902   4.064  12.627 -0.2373  0.0218 -0.6669
 9119SOL    HW138819   2.904   4.012  12.547 -0.6226 -1.0205 -0.0038
 9119SOL    HW238820   2.952   4.143  12.605 -0.0380  0.7920  2.4960
 9120SOL     OW38821   3.038   2.686   2.529  0.7842  0.1546  0.2252
 9120SOL    HW138822   3.109   2.688   2.592  0.7323  1.9389  0.2147
 9120SOL    HW238823   2.987   2.767   2.529  0.3420 -0.1242  1.7278
 9121SOL     OW38824   1.022   4.045   2.637 -0.0203  0.1943 -0.1418
 9121SOL    HW138825   0.969   3.967   2.618 -0.1769  0.0714  0.8321
 9121SOL    HW238826   1.035   4.096   2.557  4.7265  0.2858  0.6842
 9122SOL     OW38827   3.580   4.135   2.038  0.3263  0.2327  0.0681
 9122SOL    HW138828   3.673   4.137   2.013  0.4769  0.3966  0.6420
 9122SOL    HW238829   3.551   4.090   1.959  1.9325 -0.1073 -0.3393
 9123SOL     OW38830   3.251   0.307   0.970 -0.2350  0.0560  0.2066
 9123SOL    HW138831   3.275   0.223   1.009  0.3809 -0.0961 -0.5019
 9123SOL    HW238832   3.159   0.314   0.994 -0.4876 -1.9617 -0.1416
 9124SOL     OW38833   0.100   1.584   6.580  0.4777 -0.5889  0.3706
 9124SOL    HW138834   0.123   1.547   6.495 -1.5097  0.0148 -0.4188
 9124SOL    HW238835   0.013   1.618   6.561  1.2728  0.2728 -1.7297
 9125SOL     OW38836   2.169   2.233   5.090 -0.6725 -0.7963  0.0101
 9125SOL    HW138837   2.225   2.268   5.160 -0.7980  0.3953 -0.4814
 9125SOL    HW238838   2.211   2.264   5.009 -1.6793 -0.0461 -0.2232
 9126SOL     OW38839   2.769   0.733   5.692 -0.2141 -0.3771 -0.1155
 9126SOL    HW138840   2.827   0.797   5.732 -0.6403 -0.6682  0.9675
 9126SOL    HW238841   2.815   0.649   5.702  0.5933 -0.1173 -1.5974
 9127SOL     OW38842   4.086   2.513   5.897 -0.0760 -0.0985  0.6006
 9127SOL    HW138843   4.001   2.532   5.936  0.2548  0.0720  1.2469
 9127SOL    HW238844   4.067   2.424   5.867  1.3188 -0.4542  0.7697
 9128SOL     OW38845   1.266   1.343  14.010  0.2484  0.2180 -0.4691
 9128SOL    HW138846   1.174   1.368  14.006  0.5732  1.4319 -0.5414
 9128SOL    HW238847   1.257   1.267  14.067 -2.5834  0.1064 -1.0919
 9129SOL     OW38848   1.583   3.402   9.053  0.1759 -0.4345  0.0850
 9129SOL    HW138849   1.554   3.372   9.140 -1.5078  0.8914 -0.0175
 9129SOL    HW238850   1.499   3.410   9.008 -0.7963 -2.0575  1.5597
 9130SOL     OW38851   3.199   1.251   5.108  0.6359 -0.0530 -0.1189
 9130SOL    HW138852   3.131   1.294   5.058 -0.8745 -1.5331  0.6349
 9130SOL    HW238853   3.275   1.303   5.083  0.1419  1.1339  0.8471
 9131SOL     OW38854   3.300   0.960   9.727  0.2333  0.2115 -0.5701
 9131SOL    HW138855   3.345   0.935   9.808 -0.7626  0.6022  0.1182
 9131SOL    HW238856   3.216   0.917   9.744 -0.8828  2.0676 -1.4338
 9132SOL     OW38857   2.819   3.602  14.743  0.0185 -0.1646 -0.4744
 9132SOL    HW138858   2.801   3.673  14.804  0.9072 -0.5645  0.2384
 9132SOL    HW238859   2.738   3.600  14.692 -0.5608 -1.1320  0.4791
 9133SOL     OW38860   3.776   0.710   3.203 -0.2348  0.6207  0.3460
 9133SOL    HW138861   3.798   0.674   3.117  0.8389  0.2674  0.7674
 9133SOL    HW238862   3.680   0.704   3.208 -0.1786  0.1928  1.0122
 9134SOL     OW38863   0.503   4.664   0.848  0.0632 -1.0538  0.1414
 9134SOL    HW138864   0.547   4.580   0.833  0.3348 -0.7673 -0.6821
 9134SOL    HW238865   0.441   4.643   0.917 -0.9666  1.7516  0.0833
 9135SOL     OW38866   1.126   1.894   7.562 -0.2735  0.7877 -0.0020
 9135SOL    HW138867   1.101   1.859   7.648 -0.7023 -1.1218 -0.9053
 9135SOL    HW238868   1.046   1.944   7.543 -0.6916 -0.1903 -0.8159
 9136SOL     OW38869   0.026   2.032  14.775 -1.2430 -0.3481 -0.3879
 9136SOL    HW138870   4.711   1.960  14.823 -0.1746  0.2395  1.3722
 9136SOL    HW238871   0.109   2.050  14.819 -0.4372 -1.0806 -1.5849
 9137SOL     OW38872   4.288   2.991   5.859  0.3009 -0.5013 -0.0672
 9137SOL    HW138873   4.334   2.922   5.812 -1.3375 -0.0651 -2.3158
 9137SOL    HW238874   4.216   2.940   5.897  0.1981 -0.8314 -0.6984
 9138SOL     OW38875   2.229   4.621   0.921  0.4896 -0.3812  0.4688
 9138SOL    HW138876   2.154   4.601   0.865  1.4852  2.3582 -1.7894
 9138SOL    HW238877   2.186   4.664   0.995  3.9196  3.0437  0.4358
 9139SOL     OW38878   3.232   3.908   7.922 -0.2094  0.2201 -0.0347
 9139SOL    HW138879   3.302   3.910   7.987 -0.4493  1.6345  0.1789
 9139SOL    HW238880   3.263   3.980   7.868  0.3801  1.0282  1.3962
 9140SOL     OW38881   3.876   3.997  10.705 -0.3793 -0.3021 -0.2592
 9140SOL    HW138882   3.888   3.991  10.799  2.6124  2.8121 -0.4486
 9140SOL    HW238883   3.928   4.075  10.684  1.8816 -1.4676  1.0580
 9141SOL     OW38884   3.057   1.505  13.079  0.3635 -0.1295  0.5017
 9141SOL    HW138885   3.006   1.435  13.120  2.0518 -1.3164  0.6069
 9141SOL    HW238886   3.103   1.532  13.159 -0.0130  1.1922  0.2607
 9142SOL     OW38887   1.862   1.587   8.867 -0.8212  0.0395 -0.0372
 9142SOL    HW138888   1.862   1.615   8.959 -0.0011 -1.9917  0.5672
 9142SOL    HW238889   1.824   1.500   8.877  1.3281 -0.8834  0.0479
 9143SOL     OW38890   3.142   2.401   9.129 -0.7199  0.7726  0.1620
 9143SOL    HW138891   3.126   2.354   9.211 -0.3481 -2.2497 -1.4854
 9143SOL    HW238892   3.209   2.462   9.160 -1.4156  0.5704  2.0683
 9144SOL     OW38893   0.908   1.199   6.569  0.0754 -0.0643 -0.3687
 9144SOL    HW138894   0.977   1.264   6.571 -0.3815  0.3767  1.6902
 9144SOL    HW238895   0.902   1.179   6.476 -0.8966  0.1189 -0.3479
 9145SOL     OW38896   1.132   1.795   7.932 -0.2345 -0.0007  0.2177
 9145SOL    HW138897   1.055   1.773   7.879  1.7464  1.2883 -3.1786
 9145SOL    HW238898   1.201   1.792   7.867 -0.3766 -0.3670  0.0827
 9146SOL     OW38899   4.119   1.534   0.207 -0.1921  0.1166  0.0815
 9146SOL    HW138900   4.202   1.581   0.215 -0.6293  1.1702 -1.6534
 9146SOL    HW238901   4.136   1.456   0.259 -1.0547 -0.8799 -1.1208
 9147SOL     OW38902   3.874   1.223  16.526  0.6115  0.0710  0.0617
 9147SOL    HW138903   3.820   1.301  16.538  2.3027  1.3383 -0.4693
 9147SOL    HW238904   3.960   1.242  16.563  0.7677 -1.2232  0.3650
 9148SOL     OW38905   2.104   4.106   9.109 -0.3043  0.5260  0.5862
 9148SOL    HW138906   2.130   4.068   9.193  0.0271  0.3270  0.3938
 9148SOL    HW238907   2.188   4.118   9.066 -1.0307 -1.4877 -1.4383
 9149SOL     OW38908   0.219   0.617  15.866 -0.0430 -0.0665 -0.3968
 9149SOL    HW138909   0.212   0.524  15.886 -0.0081  0.5791  2.6670
 9149SOL    HW238910   0.213   0.606  15.772 -1.3909 -0.5503 -0.2502
 9150SOL     OW38911   0.033   3.328   9.686  0.6313  0.1207  0.1804
 9150SOL    HW138912   4.719   3.253   9.731 -1.0795 -0.9534 -3.1284
 9150SOL    HW238913   4.690   3.392   9.709 -0.3675 -1.2159  0.9931
 9151SOL     OW38914   2.716   3.395  16.094  0.0492  0.1610 -0.4498
 9151SOL    HW138915   2.635   3.430  16.131 -1.0111  1.4586 -3.9813
 9151SOL    HW238916   2.710   3.303  16.119  0.5662  0.5687  1.1797
 9152SOL     OW38917   1.801   0.383  11.196  0.4131 -0.1281  0.3162
 9152SOL    HW138918   1.708   0.382  11.217  0.6848 -1.5226  1.4311
 9152SOL    HW238919   1.829   0.308  11.248 -1.0541 -1.0604 -0.2488
 9153SOL     OW38920   1.547   3.637   7.342 -0.4836 -0.3229  0.1149
 9153SOL    HW138921   1.541   3.728   7.315 -1.0112 -0.0512  1.1447
 9153SOL    HW238922   1.622   3.600   7.294  0.9840 -1.8152  3.4703
 9154SOL     OW38923   2.171   0.295   9.119 -0.2718  0.1689 -0.3198
 9154SOL    HW138924   2.115   0.229   9.077  1.1548 -0.8483 -0.6374
 9154SOL    HW238925   2.245   0.242   9.148 -0.6457 -0.0608  0.2258
 9155SOL     OW38926   3.717   4.055  11.000 -0.1386 -0.3988  0.4212
 9155SOL    HW138927   3.684   4.071  11.089  0.2055 -0.7687  0.6114
 9155SOL    HW238928   3.717   4.143  10.962  0.5079  0.4942  2.4904
 9156SOL     OW38929   3.001   3.979   6.220 -0.0896  0.6020 -0.1462
 9156SOL    HW138930   2.919   3.932   6.205 -1.1117  2.8670 -1.7535
 9156SOL    HW238931   3.007   4.025   6.136  0.4569  2.0838  0.6975
 9157SOL     OW38932   0.464   2.578   8.359  0.1821  0.0359 -0.3558
 9157SOL    HW138933   0.485   2.485   8.349  0.8828  0.0842  0.6730
 9157SOL    HW238934   0.451   2.563   8.453  1.5828 -0.7070 -0.2837
 9158SOL     OW38935   3.585   2.856   1.666  0.2999  0.2298  0.3272
 9158SOL    HW138936   3.530   2.932   1.650 -2.8190 -1.9691  0.5373
 9158SOL    HW238937   3.635   2.852   1.584  0.9969 -0.6673  0.7907
 9159SOL     OW38938   1.548   1.011  14.976 -0.0227  0.1740  0.2079
 9159SOL    HW138939   1.487   0.984  15.045 -0.7182  0.3499 -0.3502
 9159SOL    HW238940   1.567   0.920  14.951  1.4122 -0.4382  3.4746
 9160SOL     OW38941   2.373   1.997   3.132  0.6719 -0.1210 -0.8390
 9160SOL    HW138942   2.468   2.014   3.138  0.6342 -0.3213  0.4286
 9160SOL    HW238943   2.376   1.973   3.040  0.4683 -1.1567 -0.5765
 9161SOL     OW38944   2.062   4.192  14.211 -0.3862  0.2861  0.7452
 9161SOL    HW138945   1.992   4.249  14.178 -0.1034  0.0449 -0.2644
 9161SOL    HW238946   2.026   4.164  14.295 -1.0643 -1.6035 -0.1683
 9162SOL     OW38947   1.220   0.822   5.208  0.3037  0.7711 -0.4644
 9162SOL    HW138948   1.164   0.784   5.277 -0.5002  0.9056 -1.0451
 9162SOL    HW238949   1.310   0.809   5.236  0.8169  0.9515 -2.0340
 9163SOL     OW38950   1.623   0.984   6.238  0.2731 -0.1861  0.7020
 9163SOL    HW138951   1.678   0.983   6.159  0.6328  2.3309  0.9107
 9163SOL    HW238952   1.608   1.079   6.245 -1.0245 -0.3296 -0.0287
 9164SOL     OW38953   1.532   2.875   2.328 -0.3181  0.1494 -0.1979
 9164SOL    HW138954   1.615   2.835   2.300  0.2869  1.4053 -0.1898
 9164SOL    HW238955   1.553   2.963   2.360  0.4082 -0.2583  0.4571
 9165SOL     OW38956   1.396   1.499   8.905  0.1298  0.2144  0.3450
 9165SOL    HW138957   1.304   1.525   8.911  0.2241  0.8110 -0.6612
 9165SOL    HW238958   1.395   1.436   8.977  1.7009  1.1643  1.2021
 9166SOL     OW38959   2.987   2.452   5.948 -0.3186  0.5877  0.5844
 9166SOL    HW138960   3.078   2.432   5.928 -0.4047  1.1937 -0.3919
 9166SOL    HW238961   2.947   2.370   5.917 -1.2244  1.4616 -0.5475
 9167SOL     OW38962   2.803   1.980   1.085  0.4975  0.0868  0.0640
 9167SOL    HW138963   2.897   1.971   1.099  0.3802 -0.4443  0.4861
 9167SOL    HW238964   2.776   1.890   1.103  0.5140  0.3385  1.3360
 9168SOL     OW38965   1.469   1.802   4.406  0.8282  0.2519  0.5669
 9168SOL    HW138966   1.427   1.884   4.378  0.2287  0.3322  1.7146
 9168SOL    HW238967   1.395   1.741   4.407  1.3385 -0.3677  0.2621
 9169SOL     OW38968   3.601   3.589   8.911 -0.5275 -0.0397  0.2283
 9169SOL    HW138969   3.552   3.571   8.831  0.1150  0.1033 -0.1931
 9169SOL    HW238970   3.585   3.683   8.920  0.8446  0.3455 -1.5659
 9170SOL     OW38971   3.507   1.441   6.332  0.4039 -0.3304 -0.0673
 9170SOL    HW138972   3.598   1.449   6.359  0.1777 -3.5897  1.6538
 9170SOL    HW238973   3.505   1.485   6.247  3.4025 -0.3591 -0.1509
 9171SOL     OW38974   1.362   2.802   9.604 -0.0030 -0.0474  0.2727
 9171SOL    HW138975   1.319   2.812   9.519  1.0717 -0.0834 -0.2710
 9171SOL    HW238976   1.430   2.870   9.597  0.4019 -0.3743  1.0285
 9172SOL     OW38977   3.541   3.603  16.866 -0.6066 -0.1838 -0.1303
 9172SOL    HW138978   3.464   3.622  16.919 -0.6855  0.3572 -0.4450
 9172SOL    HW238979   3.541   3.507  16.855 -1.7375 -0.2427  0.4261
 9173SOL     OW38980   3.958   3.718   4.299 -0.5916  0.3233  0.2591
 9173SOL    HW138981   3.948   3.806   4.334  0.9647  1.6516 -2.7054
 9173SOL    HW238982   4.014   3.740   4.225  0.2506  0.4563  0.9276
 9174SOL     OW38983   3.012   0.444   3.586  0.1807  0.6078  0.3390
 9174SOL    HW138984   3.083   0.503   3.612  1.2025 -1.0824  1.3744
 9174SOL    HW238985   2.998   0.482   3.500 -0.5202 -0.5324 -0.0492
 9175SOL     OW38986   0.362   0.550  15.429  0.0125  0.5833 -0.1135
 9175SOL    HW138987   0.407   0.523  15.508  0.5712 -1.2790 -1.0597
 9175SOL    HW238988   0.295   0.481  15.421 -0.8124  1.2995  0.6761
 9176SOL     OW38989   1.066   2.643   9.660  0.0017 -0.2159 -0.1623
 9176SOL    HW138990   1.064   2.662   9.754  0.2306  2.0851 -0.6125
 9176SOL    HW238991   1.161   2.656   9.649 -0.1181  0.7976 -0.0430
 9177SOL     OW38992   2.279   2.816   5.595 -0.4142  0.0913  0.3590
 9177SOL    HW138993   2.239   2.895   5.633 -0.8313 -0.8369  1.8323
 9177SOL    HW238994   2.204   2.759   5.579 -0.0418 -0.2082 -0.3291
 9178SOL     OW38995   2.086   2.892   5.056 -0.3739 -0.4197  0.4716
 9178SOL    HW138996   1.992   2.908   5.046 -0.5987 -1.0429  1.6212
 9178SOL    HW238997   2.099   2.803   5.023 -2.2917 -0.8261  0.8036
 9179SOL     OW38998   2.732   0.926   3.343  0.6865  0.5942 -0.3688
 9179SOL    HW138999   2.653   0.922   3.396  1.1418 -0.7017  0.2114
 9179SOL    HW239000   2.771   1.010   3.369  0.7855  0.6264 -0.6190
 9180SOL     OW39001   0.173   1.393  13.323 -0.4951  0.5274  0.1714
 9180SOL    HW139002   0.247   1.443  13.287  1.1302 -2.5614 -0.8295
 9180SOL    HW239003   0.100   1.438  13.281 -1.9717 -1.7017  0.3745
 9181SOL     OW39004   2.928   2.236   8.983  0.0493 -0.4841 -0.6850
 9181SOL    HW139005   2.989   2.254   9.055  0.8117  1.6663 -1.8605
 9181SOL    HW239006   2.963   2.150   8.959  2.0091 -0.3968  1.8806
 9182SOL     OW39007   0.753   0.507  12.510  0.3434 -0.1273 -0.1776
 9182SOL    HW139008   0.713   0.421  12.521  0.6039 -0.3826 -1.1862
 9182SOL    HW239009   0.723   0.555  12.587  1.7880 -0.1787  0.4058
 9183SOL     OW39010   0.034   4.329   4.155  0.3269 -0.5130 -0.4526
 9183SOL    HW139011   0.078   4.412   4.138 -0.2869  0.0974  0.9548
 9183SOL    HW239012   0.008   4.291   4.071  0.1207  3.1243 -2.0659
 9184SOL     OW39013   3.755   1.243   0.712 -0.0103  0.3302 -0.0305
 9184SOL    HW139014   3.811   1.312   0.676 -0.8232  0.1509 -1.6689
 9184SOL    HW239015   3.708   1.216   0.633  1.1409  0.6135 -0.8110
 9185SOL     OW39016   2.263   0.518  12.325  0.0345  0.0760  0.5786
 9185SOL    HW139017   2.345   0.487  12.286  0.3751  1.6681  0.0170
 9185SOL    HW239018   2.309   0.584  12.376  1.6151 -0.5669 -0.0370
 9186SOL     OW39019   3.020   3.022   8.418  0.0941 -0.0724 -0.4208
 9186SOL    HW139020   2.929   3.041   8.441  0.8684  2.1063  0.9020
 9186SOL    HW239021   3.058   3.007   8.504  2.1044  0.7182 -1.1422
 9187SOL     OW39022   1.650   2.365  14.105 -0.0041  0.2464  0.1687
 9187SOL    HW139023   1.739   2.395  14.126  0.1031  0.3240 -0.3807
 9187SOL    HW239024   1.661   2.364  14.010 -0.1465 -2.1861  0.1885
 9188SOL     OW39025   1.673   3.794  17.319 -0.8057  0.2793  0.1767
 9188SOL    HW139026   1.709   3.724  17.265 -0.0186  0.9725 -0.1883
 9188SOL    HW239027   1.706   3.768  17.405 -0.3005 -1.8110 -0.6402
 9189SOL     OW39028   1.878   3.476   5.320  0.5123  0.0679 -0.3779
 9189SOL    HW139029   1.955   3.473   5.377  1.0216  0.0876 -1.0684
 9189SOL    HW239030   1.900   3.533   5.247 -1.3788  1.6933  0.3019
 9190SOL     OW39031   1.839   0.304   5.886 -0.8186 -0.0353  0.4847
 9190SOL    HW139032   1.856   0.212   5.906 -1.1520 -0.3334 -0.6411
 9190SOL    HW239033   1.854   0.343   5.972  1.8348  0.5208 -0.2339
 9191SOL     OW39034   1.361   3.864   5.917  0.0683 -0.5945 -0.7508
 9191SOL    HW139035   1.333   3.839   6.005 -0.9030  4.3401  0.3757
 9191SOL    HW239036   1.315   3.947   5.902  2.3104  0.4514 -1.8740
 9192SOL     OW39037   2.528   0.810   8.747 -0.6451  0.7121  0.0087
 9192SOL    HW139038   2.508   0.789   8.839  2.4622  1.6748  0.9121
 9192SOL    HW239039   2.567   0.726   8.724  1.4747  1.3819  1.1283
 9193SOL     OW39040   0.261   3.503  13.058  0.1196  0.7327 -0.2446
 9193SOL    HW139041   0.243   3.593  13.083 -0.1318 -0.1532  2.7580
 9193SOL    HW239042   0.227   3.507  12.969 -0.1744 -1.8696 -0.2536
 9194SOL     OW39043   2.285   0.900   8.664  0.0040  0.1630  0.4108
 9194SOL    HW139044   2.257   0.818   8.704  2.7556 -2.1823 -2.4919
 9194SOL    HW239045   2.379   0.897   8.680 -0.5350  0.1256  3.5161
 9195SOL     OW39046   0.633   1.822   5.382  0.2699  0.2176  0.2874
 9195SOL    HW139047   0.724   1.845   5.360  0.4294 -0.4291  0.2718
 9195SOL    HW239048   0.602   1.823   5.292  1.6082  2.9933 -0.1631
 9196SOL     OW39049   1.437   4.569   6.657  0.1845  0.0857 -0.1462
 9196SOL    HW139050   1.513   4.561   6.714 -0.7072 -0.9198  0.8950
 9196SOL    HW239051   1.469   4.633   6.594 -1.1381  0.1634 -0.7618
 9197SOL     OW39052   4.084   1.069   3.655 -0.1335 -0.0401  0.5894
 9197SOL    HW139053   4.028   0.999   3.690 -0.6112  0.8913  1.7013
 9197SOL    HW239054   4.161   1.045   3.707  1.0676  0.2239 -1.0776
 9198SOL     OW39055   3.658   0.446  15.465 -0.3271 -1.1096 -0.4588
 9198SOL    HW139056   3.656   0.371  15.406  1.6186 -0.9509 -0.7176
 9198SOL    HW239057   3.679   0.519  15.407  0.6458 -0.4190  0.7753
 9199SOL     OW39058   4.567   1.288   5.683 -0.1570  0.2698 -0.2058
 9199SOL    HW139059   4.582   1.375   5.720  1.4104 -1.1385  2.5068
 9199SOL    HW239060   4.658   1.267   5.659  0.3151  1.5808  0.4508
 9200SOL     OW39061   1.015   0.093   2.347  0.8982  0.2114  0.2539
 9200SOL    HW139062   1.088   0.043   2.311  1.4192  0.3763  1.0803
 9200SOL    HW239063   0.957   0.020   2.368  0.7934 -0.0923 -1.1017
 9201SOL     OW39064   3.579   4.447   3.819 -0.2751 -0.4712 -0.1026
 9201SOL    HW139065   3.484   4.434   3.822 -0.4508  0.9112  0.3725
 9201SOL    HW239066   3.590   4.515   3.885 -0.9276 -0.7331  0.2728
 9202SOL     OW39067   2.015   4.304  13.905  0.3718  0.6282  0.0198
 9202SOL    HW139068   1.987   4.396  13.905 -2.3124 -0.1850  1.7630
 9202SOL    HW239069   1.929   4.262  13.907  1.3855 -1.4369 -0.7287
 9203SOL     OW39070   1.195   4.277  14.292  0.7000  0.5548  0.2886
 9203SOL    HW139071   1.218   4.361  14.332 -2.1308  1.1331  0.7278
 9203SOL    HW239072   1.196   4.291  14.198 -0.7120 -1.2132  0.0052
 9204SOL     OW39073   2.687   4.574   4.152  0.3370  0.4900  0.2642
 9204SOL    HW139074   2.626   4.605   4.219 -1.4968 -2.2632 -0.1318
 9204SOL    HW239075   2.761   4.542   4.204 -0.7401  0.6439  1.8742
 9205SOL     OW39076   4.610   2.987  13.282  1.0527  0.0302 -0.4016
 9205SOL    HW139077   4.599   3.058  13.346 -0.4710 -1.4235  0.9693
 9205SOL    HW239078   4.540   2.928  13.309  0.9229  0.7116  0.8061
 9206SOL     OW39079   4.690   4.500   7.830 -0.2615  0.5004 -0.2493
 9206SOL    HW139080   4.606   4.455   7.822 -0.2539  0.1817  1.4310
 9206SOL    HW239081   4.659   4.574   7.883  1.9286  1.3475 -0.1534
 9207SOL     OW39082   0.053   1.981  13.843 -0.1098  0.0768 -0.0881
 9207SOL    HW139083   0.080   1.889  13.837 -0.7692 -0.0831 -0.5717
 9207SOL    HW239084   0.130   2.025  13.877 -1.9067  2.0713  1.3720
 9208SOL     OW39085   0.031   4.689   6.311  0.2143 -0.5435 -0.8628
 9208SOL    HW139086   4.719   0.052   6.314 -1.9310 -1.4229 -1.4863
 9208SOL    HW239087   0.048   4.672   6.404  1.4685 -0.2499 -1.0402
 9209SOL     OW39088   4.544   4.305  13.269  0.0471  0.3284 -0.1300
 9209SOL    HW139089   4.589   4.376  13.315  0.9855  0.1547 -0.7767
 9209SOL    HW239090   4.453   4.325  13.290 -0.0720  0.5373 -0.8601
 9210SOL     OW39091   3.860   3.511  16.118 -0.2506 -0.4521  0.6090
 9210SOL    HW139092   3.777   3.480  16.081 -0.2919  1.2925 -0.7705
 9210SOL    HW239093   3.908   3.520  16.036 -0.0532 -1.3157  0.6293
 9211SOL     OW39094   0.381   3.009  14.418 -0.2340  0.2041 -0.1119
 9211SOL    HW139095   0.460   2.954  14.425  0.2053  1.2756  3.5369
 9211SOL    HW239096   0.404   3.099  14.399  0.1376  0.0440 -0.4127
 9212SOL     OW39097   2.196   3.375   2.955  0.1633 -0.0814  0.1367
 9212SOL    HW139098   2.156   3.299   2.913 -0.3869  0.8507 -1.0235
 9212SOL    HW239099   2.251   3.333   3.021  1.8489 -2.6824 -2.8858
 9213SOL     OW39100   2.390   3.730   1.916 -0.4614  0.2485  0.3385
 9213SOL    HW139101   2.313   3.773   1.878 -0.7979 -1.8713 -1.4263
 9213SOL    HW239102   2.342   3.660   1.960 -1.5323  1.0495  0.4454
 9214SOL     OW39103   3.501   2.437   0.785 -0.1000  0.3624  0.5456
 9214SOL    HW139104   3.548   2.371   0.733  0.1123  0.1907  0.9489
 9214SOL    HW239105   3.571   2.496   0.814 -1.1885  1.7393  0.3450
 9215SOL     OW39106   1.681   0.690   4.236  0.6308  0.2015  0.1465
 9215SOL    HW139107   1.753   0.732   4.284 -1.5021  1.4499  2.2595
 9215SOL    HW239108   1.630   0.655   4.309  1.4753 -0.0803  0.6079
 9216SOL     OW39109   1.870   2.424  15.734  0.3507 -0.2827 -0.0998
 9216SOL    HW139110   1.808   2.493  15.711 -0.0800  0.0956  2.1327
 9216SOL    HW239111   1.813   2.348  15.730  2.3719 -1.8873  1.6593
 9217SOL     OW39112   2.431   4.434  13.077  0.3855  0.3076  0.4827
 9217SOL    HW139113   2.406   4.526  13.073 -1.0155 -0.0451  1.1403
 9217SOL    HW239114   2.377   4.393  13.145 -1.9558  0.4163 -1.3234
 9218SOL     OW39115   4.478   4.052  11.761  0.6336 -0.0086  0.3796
 9218SOL    HW139116   4.508   4.055  11.852  0.7072  0.0917  0.3528
 9218SOL    HW239117   4.478   3.958  11.744  1.0711 -0.2999  2.0078
 9219SOL     OW39118   1.715   2.465   8.360 -0.1993 -0.5815 -0.3173
 9219SOL    HW139119   1.693   2.379   8.397  1.0991 -0.1761  1.4155
 9219SOL    HW239120   1.800   2.445   8.321  0.0345 -1.7005  0.7479
 9220SOL     OW39121   0.985   2.529   5.551 -0.7553 -0.6864 -0.0874
 9220SOL    HW139122   0.924   2.487   5.612  1.8884 -0.8326  2.4152
 9220SOL    HW239123   1.022   2.450   5.512 -0.7818 -1.0568  0.6441
 9221SOL     OW39124   1.326   4.407   8.803  0.2196  0.0002  0.2888
 9221SOL    HW139125   1.295   4.352   8.875  0.5606  0.7014  0.9732
 9221SOL    HW239126   1.372   4.476   8.851 -0.2207  1.3140 -1.2058
 9222SOL     OW39127   1.238   1.992   6.126 -0.1734 -0.3965  0.3702
 9222SOL    HW139128   1.201   1.942   6.199  0.6398 -0.4560  0.7477
 9222SOL    HW239129   1.172   2.051   6.088 -0.6785 -0.2135  1.5448
 9223SOL     OW39130   2.718   1.871   8.858  0.0297 -0.0390  0.1354
 9223SOL    HW139131   2.798   1.898   8.904 -0.6187  0.9248  0.6846
 9223SOL    HW239132   2.650   1.909   8.912 -0.5992  1.3421 -1.6529
 9224SOL     OW39133   1.468   2.617   8.369 -0.2655  0.0207 -0.2482
 9224SOL    HW139134   1.535   2.548   8.367  2.8608  3.0727 -0.1230
 9224SOL    HW239135   1.507   2.672   8.437 -1.0948 -1.9398  1.8189
 9225SOL     OW39136   0.377   4.649   3.312  0.0124 -0.3726  0.6177
 9225SOL    HW139137   0.360   4.570   3.262 -0.0224  0.3030 -0.4282
 9225SOL    HW239138   0.394   4.698   3.232 -0.9230  0.4178  0.8888
 9226SOL     OW39139   4.687   4.712   8.006  0.0149 -0.1287 -0.3725
 9226SOL    HW139140   0.055   4.693   7.998  0.4279  1.3681  1.0440
 9226SOL    HW239141   4.697   0.068   8.055  1.2952  0.3840 -1.5139
 9227SOL     OW39142   1.187   1.153  11.020  0.6414  0.2723 -0.3308
 9227SOL    HW139143   1.237   1.150  10.938  1.4134 -0.7851  0.1718
 9227SOL    HW239144   1.261   1.151  11.080  0.0490 -0.5788  0.3633
 9228SOL     OW39145   4.158   1.083   9.995  0.2667  0.5619 -0.1681
 9228SOL    HW139146   4.196   1.171   9.989 -1.5417  1.4743  2.0404
 9228SOL    HW239147   4.091   1.100  10.061 -0.2197  2.7888 -1.2240
 9229SOL     OW39148   1.492   1.114  12.970  0.4612  0.2287 -0.1202
 9229SOL    HW139149   1.559   1.088  12.907 -0.5545 -0.0226 -1.0861
 9229SOL    HW239150   1.521   1.202  12.996 -2.9448  0.4088  3.0682
 9230SOL     OW39151   3.239   1.056   9.460  0.3150 -0.7267 -0.6995
 9230SOL    HW139152   3.202   1.112   9.529  0.2658  0.0550 -1.3653
 9230SOL    HW239153   3.284   0.993   9.516  0.8394 -2.5659 -3.2538
 9231SOL     OW39154   0.439   2.472   7.109  0.1351 -0.6125 -0.1491
 9231SOL    HW139155   0.481   2.428   7.183  2.5909  1.1342 -0.4915
 9231SOL    HW239156   0.379   2.535   7.148 -0.2253  0.1271 -1.9235
 9232SOL     OW39157   0.140   1.536   2.937  0.4112  0.0857 -0.1796
 9232SOL    HW139158   0.048   1.552   2.959  0.5814 -1.6994  1.7711
 9232SOL    HW239159   0.137   1.598   2.863  0.2372  0.1456 -0.1234
 9233SOL     OW39160   0.961   1.098   7.035 -0.0779 -0.3318 -0.3411
 9233SOL    HW139161   0.972   1.005   7.019 -2.3085 -0.3179 -2.0782
 9233SOL    HW239162   0.916   1.119   6.952 -0.6333 -0.2332 -0.0170
 9234SOL     OW39163   1.989   1.382   2.241 -0.4448  0.0322  0.2671
 9234SOL    HW139164   1.901   1.350   2.262 -1.4337  2.1971 -0.6001
 9234SOL    HW239165   2.034   1.405   2.322 -1.6196 -0.9836  1.2178
 9235SOL     OW39166   2.501   0.606   4.435  0.1837  0.6752  0.1841
 9235SOL    HW139167   2.433   0.539   4.441 -0.0576  1.2243  3.4602
 9235SOL    HW239168   2.513   0.626   4.342 -3.5765  2.3164  0.0720
 9236SOL     OW39169   2.186   0.674   3.941  0.1664  0.1874  0.1940
 9236SOL    HW139170   2.198   0.753   3.888  3.2873 -0.1836  0.3423
 9236SOL    HW239171   2.122   0.711   4.001  0.9822 -0.2532  1.3332
 9237SOL     OW39172   4.320   2.602   6.792  0.3862  0.2324  0.3102
 9237SOL    HW139173   4.236   2.569   6.761  1.1541 -0.0274 -1.5456
 9237SOL    HW239174   4.307   2.695   6.809  0.3902 -0.0108  1.6603
 9238SOL     OW39175   0.164   4.565  12.834 -0.0701  0.1915  0.5725
 9238SOL    HW139176   0.117   4.611  12.903 -1.5508 -1.2610  0.5351
 9238SOL    HW239177   0.227   4.633  12.810  1.9798 -2.3450 -1.3900
 9239SOL     OW39178   4.311   2.171   1.463  0.4488 -0.8544  0.3993
 9239SOL    HW139179   4.257   2.236   1.509 -0.0377  0.6073 -2.1760
 9239SOL    HW239180   4.249   2.145   1.395  0.5741  1.9189 -0.7913
 9240SOL     OW39181   2.115   0.873   5.195 -0.8744 -0.2259  0.4817
 9240SOL    HW139182   2.085   0.962   5.216 -1.2036  0.3474 -2.4362
 9240SOL    HW239183   2.031   0.830   5.178 -0.6624 -1.0142  1.4330
 9241SOL     OW39184   0.684   4.513  10.325 -0.2799  0.1230  0.0078
 9241SOL    HW139185   0.599   4.488  10.361 -0.1448 -1.1105 -0.5298
 9241SOL    HW239186   0.728   4.530  10.409  1.4144  0.0084 -0.8625
 9242SOL     OW39187   3.540   3.704   2.646  0.2729 -0.5773 -0.2672
 9242SOL    HW139188   3.450   3.674   2.636 -0.6419  1.6802  1.3623
 9242SOL    HW239189   3.543   3.732   2.738  0.7605 -1.8413  0.1124
 9243SOL     OW39190   1.300   3.147   5.847 -0.6654  0.2657  0.4941
 9243SOL    HW139191   1.288   3.234   5.809 -0.5359  0.3074  0.5451
 9243SOL    HW239192   1.390   3.123   5.823 -1.5520 -2.3631 -0.1464
 9244SOL     OW39193   4.689   3.447  13.135 -0.5664 -0.3616  0.0721
 9244SOL    HW139194   4.688   3.459  13.040 -0.5688 -2.4948 -0.2035
 9244SOL    HW239195   0.052   3.471  13.165 -0.0915 -1.1430 -0.7068
 9245SOL     OW39196   4.199   1.873  14.315  0.4217  0.7060 -0.2666
 9245SOL    HW139197   4.212   1.957  14.270  0.7619  0.7338 -0.1125
 9245SOL    HW239198   4.210   1.903  14.405 -0.3206 -0.4393  0.2137
 9246SOL     OW39199   2.683   3.848   0.487  0.0893 -0.2582  1.0704
 9246SOL    HW139200   2.760   3.833   0.541  1.1876  2.6804  0.3194
 9246SOL    HW239201   2.622   3.784   0.524 -2.8743  1.8957 -0.0676
 9247SOL     OW39202   1.836   0.529  15.842 -0.0500  0.1151 -0.7714
 9247SOL    HW139203   1.776   0.468  15.886  0.7682 -0.7510 -0.8482
 9247SOL    HW239204   1.808   0.618  15.863  1.0634  0.6643 -1.6343
 9248SOL     OW39205   2.120   1.397  14.248 -0.0387 -0.4843 -0.0912
 9248SOL    HW139206   2.103   1.320  14.194 -0.3442 -0.6544  0.2408
 9248SOL    HW239207   2.191   1.362  14.302  0.0835 -1.3045 -0.7777
 9249SOL     OW39208   1.953   3.901  14.447  0.0660  0.5373 -0.4996
 9249SOL    HW139209   1.933   3.868  14.360 -1.1869  0.7725 -0.2967
 9249SOL    HW239210   2.046   3.878  14.455 -0.0314 -0.3294 -1.7728
 9250SOL     OW39211   2.235   0.340  10.584 -0.0980 -0.0828  0.2492
 9250SOL    HW139212   2.309   0.364  10.640 -0.7595  1.6004  0.4269
 9250SOL    HW239213   2.223   0.428  10.547  1.7230 -0.4906 -1.3326
 9251SOL     OW39214   0.302   2.311  16.495 -0.3340  0.2007 -0.0632
 9251SOL    HW139215   0.383   2.331  16.447 -1.3411 -0.4927 -2.0673
 9251SOL    HW239216   0.245   2.298  16.419 -0.9516 -0.4939  0.5254
 9252SOL     OW39217   1.541   4.245   2.808 -0.1429  0.0218  0.5640
 9252SOL    HW139218   1.585   4.271   2.727 -1.0669  0.9067  0.3467
 9252SOL    HW239219   1.617   4.210   2.855 -0.4938 -2.7930 -1.0335
 9253SOL     OW39220   2.995   3.855   2.067  0.2786 -0.0308  0.0141
 9253SOL    HW139221   3.074   3.835   2.017 -0.0662 -0.7071 -0.2667
 9253SOL    HW239222   2.971   3.769   2.101  1.1994 -0.2507  0.0874
 9254SOL     OW39223   3.183   0.655   6.558 -0.2485  0.4643 -0.2023
 9254SOL    HW139224   3.166   0.664   6.464 -0.1564  2.3045 -0.0348
 9254SOL    HW239225   3.212   0.744   6.576  0.8874  0.2296 -0.8419
 9255SOL     OW39226   1.852   4.607   6.090 -0.0395 -0.2242  0.0615
 9255SOL    HW139227   1.786   4.538   6.100  1.7910 -1.9443  0.4530
 9255SOL    HW239228   1.856   4.623   5.995  2.1154  1.2655  0.4181
 9256SOL     OW39229   3.016   4.079   3.824 -0.3476 -0.1982  0.1172
 9256SOL    HW139230   3.053   4.032   3.749  2.0775 -0.3027  1.3804
 9256SOL    HW239231   2.940   4.126   3.789 -1.1656 -0.8604  1.0102
 9257SOL     OW39232   2.036   0.470   0.789 -0.1734 -0.2511 -0.1258
 9257SOL    HW139233   2.033   0.391   0.843  0.2570 -0.4309 -0.3638
 9257SOL    HW239234   1.994   0.536   0.844  0.1226 -0.7761  0.7328
 9258SOL     OW39235   0.988   4.416   7.502 -0.0909  0.4185  0.6154
 9258SOL    HW139236   0.983   4.470   7.423  1.0198 -0.9104 -0.3651
 9258SOL    HW239237   1.012   4.486   7.564  0.4822  1.0795 -0.3466
 9259SOL     OW39238   0.724   0.682   2.856 -0.2481  0.7447  0.4719
 9259SOL    HW139239   0.663   0.608   2.866  3.0268 -2.0582 -0.5174
 9259SOL    HW239240   0.712   0.701   2.762  0.2425  0.1862  0.3000
 9260SOL     OW39241   3.894   3.708  11.753  0.0542 -0.1379  0.0461
 9260SOL    HW139242   3.870   3.757  11.832  1.7745  0.9625 -0.1038
 9260SOL    HW239243   3.849   3.627  11.777  0.9209  0.1172  2.5672
 9261SOL     OW39244   0.569   4.327  13.107  0.1353 -0.4440 -0.2569
 9261SOL    HW139245   0.636   4.281  13.056  0.9826 -0.1339  0.5807
 9261SOL    HW239246   0.514   4.349  13.032  0.8101 -0.1914 -0.6806
 9262SOL     OW39247   4.557   0.618   3.264 -0.2541  0.1298  0.8015
 9262SOL    HW139248   4.652   0.627   3.261 -0.1505 -0.7444  1.4962
 9262SOL    HW239249   4.523   0.704   3.241  0.9657  0.4682  0.2388
 9263SOL     OW39250   1.203   1.282   0.787  0.0057  0.2421 -0.1072
 9263SOL    HW139251   1.293   1.308   0.766 -0.3779  1.9063  0.3163
 9263SOL    HW239252   1.189   1.221   0.714  2.6458  0.3879 -0.7585
 9264SOL     OW39253   4.523   1.205   2.953  0.0580 -0.0455  0.1898
 9264SOL    HW139254   4.509   1.111   2.940  0.7507 -0.2637  1.0376
 9264SOL    HW239255   4.579   1.198   3.031  0.3400 -0.8431 -0.0785
 9265SOL     OW39256   2.177   3.868   1.823  0.5891 -0.3028 -0.5861
 9265SOL    HW139257   2.123   3.832   1.893  0.9187 -0.1006 -0.2319
 9265SOL    HW239258   2.111   3.926   1.783  1.1152 -0.9814 -2.4592
 9266SOL     OW39259   2.540   2.252   4.152 -0.6235  0.1257  0.8146
 9266SOL    HW139260   2.453   2.262   4.113  0.2715  1.2989 -0.8972
 9266SOL    HW239261   2.571   2.341   4.165 -0.7171 -0.0363  2.0733
 9267SOL     OW39262   2.013   2.973   3.601 -0.0678  0.2413  0.1076
 9267SOL    HW139263   1.923   2.943   3.588 -0.1002 -0.0270  1.0160
 9267SOL    HW239264   2.007   3.007   3.690 -0.7500 -0.5849  0.3695
 9268SOL     OW39265   1.878   3.797   3.744  0.0961 -0.5734 -0.3865
 9268SOL    HW139266   1.784   3.795   3.729  0.2031 -3.7612 -0.7378
 9268SOL    HW239267   1.902   3.770   3.655  1.4103 -2.9932  0.6832
 9269SOL     OW39268   3.250   3.955   3.936  0.2033  0.0289  0.0824
 9269SOL    HW139269   3.177   3.977   3.877  0.0326  1.7582  0.9403
 9269SOL    HW239270   3.261   4.043   3.971 -1.1177  1.4274 -2.9488
 9270SOL     OW39271   3.469   1.324   7.272 -0.2969 -0.0552 -0.2014
 9270SOL    HW139272   3.527   1.321   7.348 -0.0574  1.2144 -0.3274
 9270SOL    HW239273   3.533   1.301   7.205 -0.3527 -0.1908 -0.2077
 9271SOL     OW39274   3.248   3.425   3.293  0.1710  0.0223 -0.4946
 9271SOL    HW139275   3.281   3.472   3.369  0.2892 -0.0007 -0.5317
 9271SOL    HW239276   3.333   3.402   3.256 -0.8677 -2.4126 -1.3746
 9272SOL     OW39277   3.458   0.174   4.422  0.4450  0.1748 -0.2207
 9272SOL    HW139278   3.478   0.244   4.361 -0.1658  0.2936 -0.2873
 9272SOL    HW239279   3.424   0.104   4.365  1.4792  0.5786 -1.3294
 9273SOL     OW39280   2.801   4.172   8.527 -0.3453 -0.2177  0.0704
 9273SOL    HW139281   2.779   4.259   8.494 -1.9972 -1.5836 -2.4252
 9273SOL    HW239282   2.864   4.143   8.461  1.6257  0.5432  1.6011
 9274SOL     OW39283   4.693   4.059   5.873 -0.7236 -0.1520  0.3328
 9274SOL    HW139284   0.022   3.998   5.923  2.0934  1.4987 -0.6936
 9274SOL    HW239285   0.005   4.046   5.785 -0.9917 -0.5119  0.2745
 9275SOL     OW39286   0.323   4.168   5.896  0.5253  0.3776 -0.2809
 9275SOL    HW139287   0.403   4.220   5.900 -0.1504  1.3177  1.0657
 9275SOL    HW239288   0.256   4.236   5.886 -0.2779 -1.0313 -4.5025
 9276SOL     OW39289   1.941   0.707   5.938  0.3029  0.4432  0.5908
 9276SOL    HW139290   1.966   0.697   5.846  0.1749 -0.6159  0.6667
 9276SOL    HW239291   1.979   0.793   5.959  1.4198  0.7130 -2.5033
 9277SOL     OW39292   1.873   1.087   4.562  0.7900  0.2521 -0.1015
 9277SOL    HW139293   1.814   1.034   4.616  0.5985 -0.8137 -1.3681
 9277SOL    HW239294   1.819   1.109   4.486 -0.4726 -1.8432  0.1735
 9278SOL     OW39295   3.311   0.119  12.930  0.7226 -0.0164 -0.2046
 9278SOL    HW139296   3.319   0.200  12.980 -3.4153  0.3593 -0.1299
 9278SOL    HW239297   3.395   0.109  12.886  0.6547 -0.7631 -0.1607
 9279SOL     OW39298   4.009   2.086   7.627 -0.1173 -0.3829 -0.9563
 9279SOL    HW139299   4.071   2.082   7.700 -0.5487 -1.8518 -0.6905
 9279SOL    HW239300   3.956   2.160   7.659  1.9467  0.6475  0.1052
 9280SOL     OW39301   1.651   1.311  16.729 -0.0935  0.0786 -0.3988
 9280SOL    HW139302   1.562   1.285  16.702  0.2716 -1.9890  0.3940
 9280SOL    HW239303   1.705   1.243  16.689 -0.9126 -0.7223 -0.1403
 9281SOL     OW39304   2.216   3.488   4.015  0.0656  0.2445  0.1988
 9281SOL    HW139305   2.126   3.514   3.998 -0.8054 -1.1889  2.5718
 9281SOL    HW239306   2.242   3.565   4.066 -3.5930  2.9357 -2.0448
 9282SOL     OW39307   4.445   0.386   8.484 -0.8335  0.9370  0.4171
 9282SOL    HW139308   4.506   0.458   8.504 -1.3123  1.3048  0.5650
 9282SOL    HW239309   4.374   0.408   8.545  0.1989 -0.0486  1.9694
 9283SOL     OW39310   0.161   4.672   9.803 -0.6137  0.2682 -0.0490
 9283SOL    HW139311   0.068   4.692   9.805 -0.4861  1.0609 -1.6188
 9283SOL    HW239312   0.203   0.013   9.858 -0.4333  0.8898 -0.9288
 9284SOL     OW39313   0.876   2.944   5.055 -0.1796 -0.1258  0.3255
 9284SOL    HW139314   0.804   2.957   5.116 -0.0782  2.0664 -0.0243
 9284SOL    HW239315   0.838   2.882   4.992  3.2185 -1.2618 -0.5861
 9285SOL     OW39316   3.130   2.002   6.094 -0.3849  0.5498  0.2857
 9285SOL    HW139317   3.107   2.026   6.005 -3.2383 -2.4777  0.1970
 9285SOL    HW239318   3.205   2.059   6.110 -1.2213  1.1798  2.0460
 9286SOL     OW39319   1.520   3.863  11.337 -0.2216  0.0856  0.0597
 9286SOL    HW139320   1.610   3.840  11.359  0.0772 -0.7817 -2.0673
 9286SOL    HW239321   1.498   3.861  11.430 -1.6545 -0.9367 -0.3043
 9287SOL     OW39322   2.801   3.366  16.466 -0.4286  0.6182 -0.4091
 9287SOL    HW139323   2.737   3.317  16.414 -1.5505  0.1837  1.3898
 9287SOL    HW239324   2.777   3.334  16.553  1.1564 -1.7583 -0.8288
 9288SOL     OW39325   0.583   1.889   5.766 -0.3303 -0.2143 -0.0540
 9288SOL    HW139326   0.503   1.906   5.816  1.3332  0.7461  2.2960
 9288SOL    HW239327   0.616   1.818   5.821  2.2269  0.9591 -0.0729
 9289SOL     OW39328   0.849   3.008   3.158  0.0142 -0.0013  0.2854
 9289SOL    HW139329   0.832   3.099   3.184  0.9028  0.0331  0.7347
 9289SOL    HW239330   0.900   3.008   3.077  0.9239  2.2299  0.8657
 9290SOL     OW39331   2.686   1.544   8.343  0.3979 -0.4175  0.8381
 9290SOL    HW139332   2.698   1.572   8.434  1.1370  0.0652  0.5986
 9290SOL    HW239333   2.770   1.499   8.336 -1.0826 -2.9543 -0.4111
 9291SOL     OW39334   2.190   4.454   4.062  0.0408 -0.3806  0.1860
 9291SOL    HW139335   2.097   4.477   4.064 -0.7603 -3.6076  1.0328
 9291SOL    HW239336   2.185   4.387   4.130 -0.0533  1.1872  1.7072
 9292SOL     OW39337   0.664   4.430   4.791  0.2163 -0.0658 -0.1477
 9292SOL    HW139338   0.579   4.437   4.749  0.5902 -0.0560 -0.9053
 9292SOL    HW239339   0.708   4.356   4.750 -0.2889  0.3568 -1.4544
 9293SOL     OW39340   2.928   3.823   5.642  0.3104  0.2997 -0.0659
 9293SOL    HW139341   3.012   3.869   5.645  0.7210 -0.4745  0.3846
 9293SOL    HW239342   2.883   3.863   5.716  1.0559 -0.6826  0.9151
 9294SOL     OW39343   0.679   0.826  15.264  0.0846  0.4855  0.1000
 9294SOL    HW139344   0.738   0.769  15.215 -1.1295  0.2340 -1.0985
 9294SOL    HW239345   0.710   0.911  15.235 -0.5231  0.4495 -0.6772
 9295SOL     OW39346   4.007   0.809   9.085  0.0643  0.1587  0.4439
 9295SOL    HW139347   3.963   0.889   9.056  0.8685 -0.0030 -1.2344
 9295SOL    HW239348   4.020   0.758   9.005  0.4904 -0.3139  0.8141
 9296SOL     OW39349   2.242   4.312  13.204 -0.5076  0.1114 -0.7840
 9296SOL    HW139350   2.183   4.328  13.277 -0.6839  1.0657 -1.1251
 9296SOL    HW239351   2.182   4.258  13.152 -1.5360 -0.2362  0.7612
 9297SOL     OW39352   0.287   0.438   6.594 -0.0697 -0.2705  0.0521
 9297SOL    HW139353   0.234   0.363   6.567 -0.6635  0.6116 -1.1839
 9297SOL    HW239354   0.233   0.454   6.672 -0.6486  1.9351 -0.8018
 9298SOL     OW39355   0.785   2.390   4.467  0.6120 -0.3862  0.2218
 9298SOL    HW139356   0.708   2.441   4.441  1.0064 -0.0462 -0.2862
 9298SOL    HW239357   0.754   2.304   4.496  0.4974 -0.7852 -1.0581
 9299SOL     OW39358   1.336   2.530   8.134 -0.9430  0.0976  0.6320
 9299SOL    HW139359   1.353   2.534   8.229  0.0213 -0.8416  0.4956
 9299SOL    HW239360   1.417   2.500   8.093 -1.3007  1.9270 -1.3673
 9300SOL     OW39361   2.361   1.576   9.125 -0.2850  0.2561 -0.2224
 9300SOL    HW139362   2.445   1.540   9.096 -0.3050 -1.3917  1.7752
 9300SOL    HW239363   2.386   1.666   9.144  0.5794 -0.2589  1.0558
 9301SOL     OW39364   4.533   1.510  15.106  0.6618 -0.6018 -0.1156
 9301SOL    HW139365   4.583   1.529  15.186  0.7961 -0.5944 -0.2025
 9301SOL    HW239366   4.528   1.415  15.107 -0.1714 -0.5271  2.6974
 9302SOL     OW39367   2.108   3.146  16.840 -1.3271  0.0311  0.4550
 9302SOL    HW139368   2.156   3.135  16.922 -0.7109 -0.5196  0.0205
 9302SOL    HW239369   2.017   3.134  16.865 -1.5696  3.0689  1.0603
 9303SOL     OW39370   1.683   1.498   2.998 -0.6196  1.0594  0.1465
 9303SOL    HW139371   1.673   1.405   2.979 -1.0891  1.3871 -1.1763
 9303SOL    HW239372   1.669   1.488   3.092 -0.2692 -1.9801 -0.1382
 9304SOL     OW39373   1.344   1.237  15.872  0.1222 -0.4583 -0.2935
 9304SOL    HW139374   1.267   1.197  15.831 -2.5007  1.9284  2.3407
 9304SOL    HW239375   1.408   1.167  15.858 -0.6247 -1.6150  2.1669
 9305SOL     OW39376   1.360   3.508   5.010  0.4552  0.4681 -0.2541
 9305SOL    HW139377   1.353   3.598   5.042  0.7576  0.9042 -1.4073
 9305SOL    HW239378   1.444   3.492   5.051  0.4935  3.1174  0.6826
 9306SOL     OW39379   3.749   1.856   8.389  0.6691  0.5598 -0.3200
 9306SOL    HW139380   3.803   1.928   8.358  2.6228 -1.9868 -2.7312
 9306SOL    HW239381   3.768   1.783   8.330  1.1216 -0.6947  1.3707
 9307SOL     OW39382   4.180   3.581   2.019 -0.1927  0.0754  0.1423
 9307SOL    HW139383   4.255   3.628   2.054  1.4652 -1.1303 -1.7936
 9307SOL    HW239384   4.211   3.491   2.009 -1.0877 -0.4225  1.8654
 9308SOL     OW39385   0.342   3.891   4.410  0.2202 -0.2038 -0.3637
 9308SOL    HW139386   0.250   3.902   4.384  0.0461  0.5058  0.5499
 9308SOL    HW239387   0.367   3.977   4.444  1.2521 -0.4382 -0.5590
 9309SOL     OW39388   4.712   3.384   8.146 -0.2322  0.4711 -0.2503
 9309SOL    HW139389   4.683   3.316   8.085 -1.0417  0.8556 -0.2997
 9309SOL    HW239390   4.711   3.332   8.226  3.5044 -1.2933 -1.3759
 9310SOL     OW39391   3.974   4.164   7.596  0.2114  0.2939 -0.2478
 9310SOL    HW139392   4.030   4.201   7.664  0.6323  1.2237 -1.1106
 9310SOL    HW239393   3.948   4.245   7.552  2.0746  1.1787  0.2855
 9311SOL     OW39394   0.678   2.860   7.655 -0.4171  0.1136 -0.5351
 9311SOL    HW139395   0.693   2.951   7.679  1.1431  0.2867 -2.1544
 9311SOL    HW239396   0.608   2.828   7.712 -0.9659 -1.5958 -2.1469
 9312SOL     OW39397   0.636   2.773   3.546 -0.1040 -0.2161  0.0460
 9312SOL    HW139398   0.689   2.851   3.534 -0.1939 -0.4317 -1.7565
 9312SOL    HW239399   0.578   2.802   3.616  1.3954 -1.8674  2.0033
 9313SOL     OW39400   1.390   3.735   0.207 -0.6701 -0.5222 -0.5734
 9313SOL    HW139401   1.352   3.773   0.127 -0.4645  0.8117 -0.0328
 9313SOL    HW239402   1.321   3.767   0.265 -0.3273  0.3089 -0.6297
 9314SOL     OW39403   2.088   0.245   2.489 -0.2459 -0.4404  0.0010
 9314SOL    HW139404   2.182   0.246   2.469 -0.2345  0.1440  0.0686
 9314SOL    HW239405   2.065   0.338   2.495  1.7849  0.0938 -0.3305
 9315SOL     OW39406   4.428   3.173   6.000  0.0695  0.1439  0.1975
 9315SOL    HW139407   4.377   3.122   5.938 -2.6549  2.9493  0.1277
 9315SOL    HW239408   4.441   3.106   6.066 -1.5084 -0.8875 -0.5539
 9316SOL     OW39409   3.789   1.358   7.258  0.7818 -0.0441 -0.7511
 9316SOL    HW139410   3.854   1.407   7.309 -0.5879  0.7715  0.2020
 9316SOL    HW239411   3.744   1.308   7.325  1.1180  1.7570  0.8206
 9317SOL     OW39412   4.254   3.382   9.744  0.2590  0.7465 -0.0776
 9317SOL    HW139413   4.255   3.345   9.832 -3.0039 -0.2910 -0.4941
 9317SOL    HW239414   4.164   3.403   9.723 -0.3413 -0.1111  1.6692
 9318SOL     OW39415   4.042   4.719   3.197  0.4432  0.4223  0.0422
 9318SOL    HW139416   4.109   0.015   3.132 -0.0972 -1.4194 -1.1324
 9318SOL    HW239417   4.049   0.072   3.251 -0.1138 -0.3177  1.1762
 9319SOL     OW39418   2.413   2.509   6.377 -0.4885  0.6359 -0.4220
 9319SOL    HW139419   2.329   2.491   6.335 -0.2307  0.7958 -1.0072
 9319SOL    HW239420   2.432   2.597   6.345  1.1782 -0.0334 -1.2903
 9320SOL     OW39421   2.283   2.748   0.335  0.2753  0.4666  0.4163
 9320SOL    HW139422   2.337   2.797   0.397  1.2188 -0.0215 -0.0120
 9320SOL    HW239423   2.349   2.687   0.302 -1.1945 -0.3546 -0.9816
 9321SOL     OW39424   2.451   0.824   9.034  0.7735 -0.0304 -0.4362
 9321SOL    HW139425   2.419   0.793   9.119  0.6268  1.9892  0.2511
 9321SOL    HW239426   2.405   0.909   9.028  0.8559 -0.0319 -1.1303
 9322SOL     OW39427   1.018   0.997  15.362  0.1901 -0.4535  0.6362
 9322SOL    HW139428   0.938   0.963  15.323  0.9047 -0.3398 -0.9205
 9322SOL    HW239429   1.087   0.944  15.322 -0.3782 -0.8707  0.2227
 9323SOL     OW39430   4.300   0.757   7.095  0.8548  0.7335  0.0784
 9323SOL    HW139431   4.281   0.787   7.006 -1.3619 -2.0978 -0.3773
 9323SOL    HW239432   4.381   0.708   7.080  0.2541 -0.5662  1.1631
 9324SOL     OW39433   1.095   1.353   3.126  0.1700  0.1617  0.1607
 9324SOL    HW139434   1.033   1.404   3.073 -0.7194 -0.1625  0.8853
 9324SOL    HW239435   1.089   1.269   3.081 -1.1901 -0.4972  1.5478
 9325SOL     OW39436   3.304   2.394   3.965  0.4814 -0.3856  0.1585
 9325SOL    HW139437   3.220   2.349   3.969 -0.6110  1.7656  1.4938
 9325SOL    HW239438   3.296   2.459   4.035 -2.5363 -0.7297  0.1403
 9326SOL     OW39439   3.224   2.590   5.727 -0.6735  0.1525  0.0603
 9326SOL    HW139440   3.289   2.636   5.780 -1.8896  0.3805  1.3774
 9326SOL    HW239441   3.267   2.507   5.709 -2.8905 -1.0189  0.1133
 9327SOL     OW39442   2.660   2.345   3.573 -0.3205 -0.0983 -0.2180
 9327SOL    HW139443   2.721   2.275   3.595 -1.1818 -0.2343  1.7602
 9327SOL    HW239444   2.728   2.411   3.559 -0.3324 -0.0312  0.0404
 9328SOL     OW39445   4.562   2.846  15.399 -0.0315 -0.4247 -0.5468
 9328SOL    HW139446   4.537   2.875  15.311 -0.0837 -0.9066 -0.6920
 9328SOL    HW239447   4.622   2.774  15.381  1.0987  0.1997  0.7306
 9329SOL     OW39448   4.607   2.677   8.717  0.1316  0.4647  0.2039
 9329SOL    HW139449   4.567   2.723   8.643 -0.1461 -0.9989 -0.5603
 9329SOL    HW239450   4.635   2.596   8.674 -0.9926  1.7467 -2.9742
 9330SOL     OW39451   3.928   3.327  16.360 -0.2354  0.4923 -0.6478
 9330SOL    HW139452   3.912   3.243  16.317 -1.0236  0.7946 -0.9364
 9330SOL    HW239453   3.903   3.390  16.293 -0.9399  0.9408  0.0321
 9331SOL     OW39454   4.644   2.956   8.441 -0.2390  0.4178 -0.1922
 9331SOL    HW139455   4.691   2.893   8.386 -0.0829  0.9918 -0.7247
 9331SOL    HW239456   4.554   2.943   8.411 -0.2764  0.0936  0.0613
 9332SOL     OW39457   0.158   2.937   4.820  0.1433 -0.4612  0.1764
 9332SOL    HW139458   0.219   2.969   4.887 -0.4592  0.1893  0.4193
 9332SOL    HW239459   0.102   3.013   4.803  1.4683  0.2611 -0.9489
 9333SOL     OW39460   0.227   1.729   8.400  0.2620  0.1217  0.2610
 9333SOL    HW139461   0.205   1.817   8.431  0.3564 -0.6072  2.3987
 9333SOL    HW239462   0.320   1.737   8.381  0.3949 -1.5038  0.2550
 9334SOL     OW39463   0.934   0.664   8.939  0.0309 -0.4488  0.2839
 9334SOL    HW139464   1.029   0.664   8.954  0.1813 -1.0442 -0.6926
 9334SOL    HW239465   0.922   0.571   8.958  1.2024 -0.6131  0.2323
 9335SOL     OW39466   1.202   2.895   3.134 -0.1090 -0.5404 -0.6826
 9335SOL    HW139467   1.181   2.986   3.157  1.6917 -0.4085  0.4533
 9335SOL    HW239468   1.206   2.857   3.222  2.0487 -0.5619 -0.7912
 9336SOL     OW39469   1.299   0.172   4.922  0.3367  0.2502 -0.3793
 9336SOL    HW139470   1.235   0.122   4.972 -1.8722  1.3191 -2.1253
 9336SOL    HW239471   1.307   0.123   4.840 -2.1054 -1.3159  0.3292
 9337SOL     OW39472   4.500   1.155   0.157  0.1661 -0.0764  0.4961
 9337SOL    HW139473   4.511   1.139   0.251 -0.8617 -0.4140  0.5567
 9337SOL    HW239474   4.589   1.144   0.125  0.0643 -1.2676  0.6408
 9338SOL     OW39475   4.044   0.280   8.782  0.1620  0.4426 -0.5755
 9338SOL    HW139476   3.974   0.307   8.842  1.0002  0.2475  0.5019
 9338SOL    HW239477   4.022   0.189   8.761 -1.0037 -0.0185  2.6483
 9339SOL     OW39478   3.749   3.161   5.181  0.0972 -0.4078 -0.5059
 9339SOL    HW139479   3.811   3.181   5.251  1.4241 -2.8616 -0.9850
 9339SOL    HW239480   3.805   3.110   5.123  1.3892  0.3580  0.0683
 9340SOL     OW39481   3.960   0.230   7.629  0.5149  0.3286  0.1882
 9340SOL    HW139482   3.955   0.168   7.702 -0.7478  1.3337  0.9571
 9340SOL    HW239483   4.001   0.178   7.560 -0.7827 -1.3417  0.6420
 9341SOL     OW39484   0.182   2.668   4.771 -0.4375  0.7546  0.4727
 9341SOL    HW139485   0.121   2.615   4.821 -1.3774  0.5961 -0.8443
 9341SOL    HW239486   0.136   2.752   4.769  0.9366  1.4524 -1.8842
 9342SOL     OW39487   3.698   0.264   0.128  0.0046  0.0696  0.3251
 9342SOL    HW139488   3.628   0.225   0.180 -0.3357 -1.3485 -1.1980
 9342SOL    HW239489   3.767   0.293   0.187 -1.3802  1.1526  1.4064
 9343SOL     OW39490   1.320   0.102   8.075  0.4754 -0.1271 -0.0829
 9343SOL    HW139491   1.267   0.169   8.032 -0.1020  0.3789  1.4247
 9343SOL    HW239492   1.250   0.050   8.114  1.8783 -2.1646 -0.2663
 9344SOL     OW39493   4.335   1.815  15.203 -0.1940  0.6329 -0.1314
 9344SOL    HW139494   4.380   1.793  15.122 -0.0518 -0.6118  0.2829
 9344SOL    HW239495   4.302   1.727  15.225 -0.4276  0.1539 -2.4411
 9345SOL     OW39496   2.172   3.069   9.283  0.0165  0.0582  0.9349
 9345SOL    HW139497   2.125   3.090   9.203  3.1082  0.2369 -0.8204
 9345SOL    HW239498   2.186   3.160   9.312  0.3132  0.1457  0.5170
 9346SOL     OW39499   3.457   1.125  16.720 -0.6584  0.5937  0.7397
 9346SOL    HW139500   3.431   1.079  16.800 -2.6596 -0.8563 -0.7601
 9346SOL    HW239501   3.511   1.200  16.747 -1.5448  0.6103  2.4433
 9347SOL     OW39502   3.677   0.847   9.230  0.1119 -0.7028 -0.0728
 9347SOL    HW139503   3.626   0.926   9.244  1.4530  0.0225  0.6890
 9347SOL    HW239504   3.757   0.851   9.283  0.3414 -3.3075 -0.1875
 9348SOL     OW39505   3.400   4.112   4.896  0.3361 -0.1845  0.3934
 9348SOL    HW139506   3.421   4.077   4.810 -2.9040  0.3758 -0.6308
 9348SOL    HW239507   3.365   4.032   4.935  0.7834 -0.4284  0.2972
 9349SOL     OW39508   2.931   2.954   5.947 -0.1354 -0.0151  0.1136
 9349SOL    HW139509   2.972   2.869   5.929 -0.2612  0.0479 -0.4903
 9349SOL    HW239510   2.908   2.987   5.860  0.7755  1.4360  0.4482
 9350SOL     OW39511   0.796   0.300  17.335  0.4960 -0.2702  0.4750
 9350SOL    HW139512   0.765   0.338  17.417  0.1359  0.0654  0.1787
 9350SOL    HW239513   0.781   0.371  17.272 -0.8239 -1.3751 -0.4445
 9351SOL     OW39514   4.692   3.844  10.475  0.4733  0.4789  0.4284
 9351SOL    HW139515   4.607   3.799  10.475  1.3189 -1.0689  5.3221
 9351SOL    HW239516   4.690   3.911  10.543 -2.1986  0.2721  0.5323
 9352SOL     OW39517   3.369   1.967   6.291 -0.3798  0.6111 -0.0669
 9352SOL    HW139518   3.412   2.002   6.213  2.6483 -0.8516  0.9585
 9352SOL    HW239519   3.431   1.980   6.363 -0.2236 -1.7311  0.2080
 9353SOL     OW39520   0.164   4.359  11.301  0.2102  0.5428  0.0043
 9353SOL    HW139521   0.144   4.413  11.224  0.2094  0.9853  0.3173
 9353SOL    HW239522   0.095   4.294  11.290 -0.3500  1.0891  0.3149
 9354SOL     OW39523   2.002   0.570  16.365  0.0674 -0.0357  0.2614
 9354SOL    HW139524   1.986   0.611  16.450 -0.2115  0.4424 -0.0199
 9354SOL    HW239525   1.926   0.511  16.368 -0.1937  0.3075  0.4625
 9355SOL     OW39526   0.254   0.968  10.125  0.2599 -0.0245 -0.5561
 9355SOL    HW139527   0.336   1.001  10.161 -0.3216 -1.6643  2.2877
 9355SOL    HW239528   0.253   0.882  10.167 -0.8387 -1.4270 -3.4542
 9356SOL     OW39529   3.993   1.604   3.068 -0.8482 -0.4008 -0.6661
 9356SOL    HW139530   4.034   1.676   3.020 -3.0190  0.7063 -0.8851
 9356SOL    HW239531   3.904   1.636   3.084 -1.3722 -0.6776 -3.1087
 9357SOL     OW39532   2.710   0.229  11.752  0.5167 -0.2140 -0.5899
 9357SOL    HW139533   2.642   0.295  11.737  0.3154  0.0490  1.4103
 9357SOL    HW239534   2.717   0.222  11.847 -1.6467 -0.0183 -0.4080
 9358SOL     OW39535   4.203   0.670   2.440  0.7507  0.2858  0.2852
 9358SOL    HW139536   4.123   0.711   2.405  0.3796  0.0044  0.8008
 9358SOL    HW239537   4.181   0.577   2.448 -1.3549  0.9974  2.5413
 9359SOL     OW39538   4.461   0.778   5.797  0.1778  0.7604  0.1334
 9359SOL    HW139539   4.462   0.735   5.883  1.7343  1.6473  0.5652
 9359SOL    HW239540   4.542   0.737   5.766  0.1374 -0.9447  2.3138
 9360SOL     OW39541   2.258   0.158   8.030 -0.6558  0.8591  1.2175
 9360SOL    HW139542   2.182   0.178   7.975 -0.1698 -0.1484  0.1698
 9360SOL    HW239543   2.282   0.247   8.054 -3.3052  1.8895  0.0897
 9361SOL     OW39544   3.992   0.379  14.015  0.4688 -0.3097 -0.4873
 9361SOL    HW139545   4.068   0.404  13.963 -1.1258  1.7313 -1.8513
 9361SOL    HW239546   4.028   0.392  14.102 -0.9824  0.7346 -0.0385
 9362SOL     OW39547   1.497   4.062   6.015 -0.4810 -0.1116 -0.1525
 9362SOL    HW139548   1.588   4.032   6.022 -0.0977  0.7561 -1.4935
 9362SOL    HW239549   1.465   3.994   5.956  0.1014 -1.5730  1.2140
 9363SOL     OW39550   4.061   1.830  17.443  0.2800  0.3314  0.1137
 9363SOL    HW139551   4.088   1.753  17.392  1.0072  1.2678 -0.9265
 9363SOL    HW239552   4.083   1.806  17.533  1.9371 -0.3727 -0.4785
 9364SOL     OW39553   2.896   4.077   9.008 -0.0160 -0.3434  0.3699
 9364SOL    HW139554   2.894   4.040   9.097  0.1996 -0.7208  0.2187
 9364SOL    HW239555   2.805   4.066   8.982  0.2833  1.1033 -1.3135
 9365SOL     OW39556   0.409   1.124   8.780 -1.0703  0.3317 -0.5043
 9365SOL    HW139557   0.375   1.189   8.718 -1.0167 -0.3136 -1.1996
 9365SOL    HW239558   0.362   1.142   8.862  0.4740 -0.4211  0.5347
 9366SOL     OW39559   3.867   1.077   5.152 -0.5776 -0.7549 -0.0039
 9366SOL    HW139560   3.896   1.117   5.234  1.0236 -1.0164 -0.4266
 9366SOL    HW239561   3.821   1.155   5.120 -1.0060  0.0953  2.6635
 9367SOL     OW39562   2.214   1.255  16.807 -0.7841  0.3067  0.6340
 9367SOL    HW139563   2.178   1.175  16.846 -1.5239 -0.0522 -0.7586
 9367SOL    HW239564   2.133   1.305  16.802 -0.0291  1.3973 -0.7210
 9368SOL     OW39565   4.116   4.231   6.436 -0.1616 -0.8542 -0.1687
 9368SOL    HW139566   4.170   4.294   6.389  2.2270 -2.6298  0.1925
 9368SOL    HW239567   4.174   4.165   6.473  1.2864 -0.3800 -1.5855
 9369SOL     OW39568   1.911   4.561   8.777 -0.2718 -0.4286 -0.0577
 9369SOL    HW139569   1.877   4.502   8.844  1.1760 -0.5606  0.5646
 9369SOL    HW239570   2.001   4.533   8.763  0.2896  0.6548  1.3349
 9370SOL     OW39571   2.874   3.756   9.140 -0.4723 -0.0697 -0.2543
 9370SOL    HW139572   2.862   3.762   9.235 -0.4438 -1.8979 -0.1342
 9370SOL    HW239573   2.806   3.810   9.100 -1.6570 -1.2216  0.2069
 9371SOL     OW39574   3.752   0.769  10.999 -0.1502 -0.0380  0.7023
 9371SOL    HW139575   3.658   0.777  11.016 -0.5253 -1.2971 -0.7568
 9371SOL    HW239576   3.785   0.859  10.989  0.3041 -0.0981  1.7123
 9372SOL     OW39577   0.574   0.722   7.300 -0.3631  0.1407  0.4112
 9372SOL    HW139578   0.637   0.791   7.278 -0.7092 -0.3064 -1.9276
 9372SOL    HW239579   0.543   0.691   7.215  1.5333 -2.2413  0.5908
 9373SOL     OW39580   1.580   1.106   8.118 -0.1971 -0.2198 -0.6948
 9373SOL    HW139581   1.518   1.173   8.089  0.0123  1.2467  2.2722
 9373SOL    HW239582   1.635   1.106   8.040  1.2085 -0.8361  0.3066
 9374SOL     OW39583   1.447   4.492   5.416 -0.8601  0.5403  0.4784
 9374SOL    HW139584   1.466   4.464   5.505  0.2470  5.0785  1.6653
 9374SOL    HW239585   1.352   4.494   5.429 -1.0846 -1.0021 -0.8899
 9375SOL     OW39586   1.494   2.092  13.117  0.2555 -0.8048  0.3797
 9375SOL    HW139587   1.519   2.054  13.201  0.9171  1.8163  1.3884
 9375SOL    HW239588   1.454   2.166  13.164 -0.8366 -0.1705 -1.5538
 9376SOL     OW39589   3.026   3.306   3.564 -0.0812 -0.1803  0.0958
 9376SOL    HW139590   3.016   3.228   3.618 -0.0765 -1.2111 -1.4013
 9376SOL    HW239591   3.057   3.368   3.630 -1.0734  1.3437 -0.8613
 9377SOL     OW39592   0.057   3.722  15.140 -0.2888  0.1232 -0.0435
 9377SOL    HW139593   0.061   3.650  15.203 -0.7979  0.8434  0.8143
 9377SOL    HW239594   0.011   3.676  15.070 -1.4113  1.0636  0.0719
 9378SOL     OW39595   3.631   0.781   5.974  0.3156 -0.6593 -0.5438
 9378SOL    HW139596   3.587   0.705   5.936 -0.0233 -1.0256  0.5932
 9378SOL    HW239597   3.684   0.816   5.902  3.0003 -2.0203  0.7946
 9379SOL     OW39598   2.702   0.443   7.186  0.4939 -0.0156 -0.2521
 9379SOL    HW139599   2.682   0.487   7.268  1.6647 -0.0504  0.0517
 9379SOL    HW239600   2.716   0.350   7.206 -0.7626  0.0801  0.9898
 9380SOL     OW39601   0.638   0.669  16.684  0.2382 -0.3821  0.8462
 9380SOL    HW139602   0.580   0.598  16.708 -0.9009 -0.0543 -0.9181
 9380SOL    HW239603   0.611   0.723  16.758 -0.6804  0.4417 -0.0990
 9381SOL     OW39604   3.574   2.078   0.086 -0.3481  0.3171  0.2401
 9381SOL    HW139605   3.632   2.078   0.162  1.2755  0.0865 -0.9795
 9381SOL    HW239606   3.621   2.018   0.027  1.1250  0.5052  1.2232
 9382SOL     OW39607   3.516   2.577   5.942 -0.5091 -0.4073 -0.4426
 9382SOL    HW139608   3.578   2.507   5.960  0.8893  0.9532  0.0151
 9382SOL    HW239609   3.529   2.604   5.851  0.4201  3.7102  0.9139
 9383SOL     OW39610   4.569   2.529   0.511  0.1267 -0.3915 -0.6355
 9383SOL    HW139611   4.617   2.471   0.452 -0.5626  0.1636 -1.7429
 9383SOL    HW239612   4.528   2.589   0.448 -0.6099 -1.8128 -1.5220
 9384SOL     OW39613   2.442   3.876   3.922 -0.5061 -0.7203 -0.3371
 9384SOL    HW139614   2.467   3.961   3.957 -2.3326  0.0848 -0.9963
 9384SOL    HW239615   2.378   3.911   3.860 -1.9203 -0.4606  1.2767
 9385SOL     OW39616   3.412   0.386   3.719 -0.1726  0.3093  0.2156
 9385SOL    HW139617   3.413   0.442   3.797 -0.2458 -0.1124  0.5200
 9385SOL    HW239618   3.326   0.347   3.731  0.4594 -1.7386 -1.9512
 9386SOL     OW39619   1.920   0.225  16.327  0.0127 -0.1077  0.1661
 9386SOL    HW139620   1.857   0.291  16.354 -0.2899  0.6905 -2.4693
 9386SOL    HW239621   1.902   0.216  16.233  0.2868 -1.6353  0.2471
 9387SOL     OW39622   0.983   4.272  15.037  0.1081 -0.0076  0.2845
 9387SOL    HW139623   0.936   4.327  14.974  0.8397 -0.1385 -0.3676
 9387SOL    HW239624   0.958   4.183  15.012 -0.7296 -0.3035  2.1601
 9388SOL     OW39625   2.894   0.022   1.168 -0.2920  0.2540 -0.0738
 9388SOL    HW139626   2.887   4.660   1.207 -2.0941  1.0817  1.4784
 9388SOL    HW239627   2.902   0.007   1.074  1.1295 -0.4171  0.1688
 9389SOL     OW39628   1.470   1.612   2.864  0.2406 -0.4296  0.6763
 9389SOL    HW139629   1.548   1.572   2.902  0.8618  0.1126 -0.0224
 9389SOL    HW239630   1.503   1.656   2.785  0.8872  0.5360  1.4840
 9390SOL     OW39631   1.977   0.159   7.217 -0.5970  0.5747  0.6101
 9390SOL    HW139632   1.922   0.237   7.208 -1.6401 -0.5535 -3.0072
 9390SOL    HW239633   2.059   0.208   7.224 -0.0394 -0.5537  1.8225
 9391SOL     OW39634   1.647   2.520   9.254 -0.2315 -0.6932 -0.0006
 9391SOL    HW139635   1.672   2.609   9.226 -2.2222  0.8822  3.2542
 9391SOL    HW239636   1.618   2.492   9.167  3.2065  1.3232 -1.7950
 9392SOL     OW39637   2.507   4.526  15.788 -0.5125  0.5986  0.5742
 9392SOL    HW139638   2.529   4.491  15.874  0.4895  2.4263  1.0666
 9392SOL    HW239639   2.593   4.561  15.767  0.3561 -0.6282  2.0912
 9393SOL     OW39640   3.387   0.256   4.846 -0.5126 -0.5208 -0.3614
 9393SOL    HW139641   3.295   0.279   4.850 -0.7667 -1.4886 -0.7377
 9393SOL    HW239642   3.416   0.279   4.758 -0.3264  2.0702  0.3645
 9394SOL     OW39643   0.755   0.247   7.255  0.0230  0.0002  0.0451
 9394SOL    HW139644   0.826   0.292   7.299 -0.2984  0.4836  0.0672
 9394SOL    HW239645   0.698   0.215   7.325 -2.9571  2.9116 -1.0194
 9395SOL     OW39646   3.764   1.393  14.165  0.2484  0.0597  0.0933
 9395SOL    HW139647   3.687   1.446  14.144  1.0360  0.8081 -0.9365
 9395SOL    HW239648   3.813   1.458  14.216 -1.6356 -1.2276  3.5497
 9396SOL     OW39649   2.126   1.000   3.423 -0.0324  0.4171  0.4572
 9396SOL    HW139650   2.047   1.038   3.385 -2.5300 -2.6964  2.5012
 9396SOL    HW239651   2.084   0.953   3.495 -2.1083  0.5774 -0.6417
 9397SOL     OW39652   0.922   3.050   8.552 -0.1114  0.6763 -0.7371
 9397SOL    HW139653   0.848   2.994   8.527 -1.5885  1.4906  1.7918
 9397SOL    HW239654   0.898   3.139   8.528 -1.4611  0.3657 -0.5108
 9398SOL     OW39655   1.746   0.506   3.822 -0.0969  0.0218 -0.1666
 9398SOL    HW139656   1.794   0.484   3.742  0.3410  0.5169 -0.0352
 9398SOL    HW239657   1.742   0.422   3.869  0.7689 -0.3197 -0.7094
 9399SOL     OW39658   4.644   4.197   3.959  0.4589  1.0524 -0.0677
 9399SOL    HW139659   4.573   4.133   3.965  0.5344  1.0966  1.2356
 9399SOL    HW239660   4.667   4.179   3.868 -0.9064 -0.5778 -0.0812
 9400SOL     OW39661   2.080   1.280   1.946 -0.3211 -0.3526  0.1488
 9400SOL    HW139662   2.137   1.239   1.881 -0.0414  0.1050  0.1046
 9400SOL    HW239663   2.143   1.309   2.012 -0.4048 -0.5019  0.2955
 9401SOL     OW39664   4.043   4.134   8.615  0.1341  0.0964  0.1705
 9401SOL    HW139665   4.085   4.049   8.628 -1.9189 -1.1521 -1.3455
 9401SOL    HW239666   4.109   4.191   8.575 -0.7303  1.1432  0.2554
 9402SOL     OW39667   2.926   0.430   9.432 -0.7966  0.2905 -0.2030
 9402SOL    HW139668   2.881   0.391   9.507 -1.0990  1.6289  0.3226
 9402SOL    HW239669   3.008   0.458   9.474 -1.4046  2.9423 -0.7302
 9403SOL     OW39670   1.775   2.305  16.669  0.6227 -0.4170 -0.2611
 9403SOL    HW139671   1.812   2.246  16.736 -1.4465 -0.8456  0.5040
 9403SOL    HW239672   1.849   2.304  16.609  1.3774 -0.7880  0.6693
 9404SOL     OW39673   0.524   1.093   6.821  0.3664 -0.4261  0.4188
 9404SOL    HW139674   0.497   1.001   6.816 -0.3553 -0.1704 -0.2586
 9404SOL    HW239675   0.490   1.114   6.908 -0.0017  0.5659  0.0364
 9405SOL     OW39676   4.003   4.071  16.545 -0.2206 -0.5909 -0.3587
 9405SOL    HW139677   4.036   4.077  16.456 -0.9989 -1.8004 -0.7236
 9405SOL    HW239678   3.910   4.049  16.534 -0.1518 -0.0657 -2.0102
 9406SOL     OW39679   2.878   3.642   2.178  1.3896  0.3734 -0.0264
 9406SOL    HW139680   2.790   3.679   2.184  0.3474 -1.7538 -2.0726
 9406SOL    HW239681   2.845   3.554   2.198 -1.6492  1.0187 -2.0665
 9407SOL     OW39682   2.116   3.350   8.856  0.0975  0.2155 -0.1928
 9407SOL    HW139683   2.091   3.417   8.793 -0.1630 -2.3487 -2.7863
 9407SOL    HW239684   2.176   3.400   8.912  1.7299  0.4654 -2.2063
 9408SOL     OW39685   3.614   2.822   3.307  0.6211 -0.5447  0.3464
 9408SOL    HW139686   3.707   2.806   3.316  0.8379  0.9440  0.7845
 9408SOL    HW239687   3.597   2.861   3.393 -1.2953 -1.4333  0.3858
 9409SOL     OW39688   3.693   3.771   2.393 -0.2255 -0.2497  0.4147
 9409SOL    HW139689   3.645   3.739   2.469  0.7796  0.5428  1.3827
 9409SOL    HW239690   3.731   3.691   2.357  2.5694  1.4189 -0.2946
 9410SOL     OW39691   0.157   4.707  11.582  0.5091 -0.2485 -0.0760
 9410SOL    HW139692   0.176   4.721  11.489  2.2613 -1.4711  0.0922
 9410SOL    HW239693   0.142   4.614  11.599 -1.0547 -0.0894 -0.6537
 9411SOL     OW39694   0.067   1.254   5.270 -0.4106 -0.6278 -0.0364
 9411SOL    HW139695   0.127   1.182   5.287  0.7633  0.2340 -0.5447
 9411SOL    HW239696   0.080   1.285   5.180  1.9063 -0.9028  0.2058
 9412SOL     OW39697   0.232   0.330   2.881 -0.2512  0.4169  0.2322
 9412SOL    HW139698   0.213   0.295   2.794  1.0130  0.4088 -0.0339
 9412SOL    HW239699   0.173   0.405   2.881  1.2920  1.6296 -0.8123
 9413SOL     OW39700   1.417   0.414   1.483  0.2210  0.3492  0.5371
 9413SOL    HW139701   1.389   0.366   1.561  0.2558 -0.3620  0.1104
 9413SOL    HW239702   1.424   0.344   1.417 -0.6956  1.2153 -0.4869
 9414SOL     OW39703   1.041   0.980   5.079 -0.3171  0.5999 -0.4943
 9414SOL    HW139704   1.102   1.043   5.042 -1.3108  0.8504 -1.7232
 9414SOL    HW239705   1.096   0.910   5.114 -1.0387  1.3402  2.1552
 9415SOL     OW39706   0.389   0.037   2.769 -0.1948 -0.8827  0.0870
 9415SOL    HW139707   0.380   4.716   2.685 -1.2815  0.1135 -0.3544
 9415SOL    HW239708   0.317   0.100   2.764  0.1582 -0.3116  2.4128
 9416SOL     OW39709   2.307   2.638   1.714  0.4509 -0.0957  0.1623
 9416SOL    HW139710   2.304   2.719   1.663 -1.3470 -2.3170 -3.1524
 9416SOL    HW239711   2.373   2.589   1.665  0.4994  0.8307 -0.7128
 9417SOL     OW39712   4.235   0.716   8.693 -0.0236 -0.0832 -0.2739
 9417SOL    HW139713   4.150   0.759   8.680 -0.1257 -0.5483 -1.1622
 9417SOL    HW239714   4.269   0.768   8.766 -0.6553 -0.1059  0.0383
 9418SOL     OW39715   2.162   4.567   2.707  0.4138 -0.1284 -0.2755
 9418SOL    HW139716   2.224   4.494   2.710  0.6383  0.1433  1.2909
 9418SOL    HW239717   2.158   4.589   2.614 -3.6098 -0.1302 -0.0850
 9419SOL     OW39718   0.115   0.547  15.160 -0.3290  0.4971  0.0953
 9419SOL    HW139719   0.182   0.616  15.162 -0.3386  0.5176 -0.3792
 9419SOL    HW239720   0.129   0.498  15.080  0.0051  2.1385 -0.8488
 9420SOL     OW39721   1.627   4.346   7.456  0.6634  0.0958 -0.2613
 9420SOL    HW139722   1.589   4.433   7.448  1.5051  0.6250  1.4304
 9420SOL    HW239723   1.706   4.377   7.501  2.3616 -0.7623 -2.6733
 9421SOL     OW39724   1.090   2.855  11.304  0.1531 -0.0373  0.0594
 9421SOL    HW139725   1.134   2.879  11.222  2.2930  1.0965  1.5639
 9421SOL    HW239726   1.163   2.811  11.346  1.1845  0.4895 -1.1843
 9422SOL     OW39727   4.475   2.418  14.804  0.3969 -0.0866  0.2365
 9422SOL    HW139728   4.478   2.383  14.715 -0.6131 -2.1144  1.0175
 9422SOL    HW239729   4.480   2.335  14.851  0.7072  0.1329  0.5966
 9423SOL     OW39730   1.313   0.543   1.152  0.4175  0.0804 -0.1968
 9423SOL    HW139731   1.294   0.609   1.219  2.8669 -1.2748  1.8274
 9423SOL    HW239732   1.339   0.597   1.078  0.2092  1.5292  0.7746
 9424SOL     OW39733   0.643   3.571  10.603  0.0821  0.3294 -0.2334
 9424SOL    HW139734   0.668   3.529  10.686 -2.2369 -1.6645 -0.5313
 9424SOL    HW239735   0.582   3.508  10.564  0.6300 -0.8141  0.7257
 9425SOL     OW39736   1.290   1.374   2.144 -0.1567  0.0313  0.2552
 9425SOL    HW139737   1.194   1.376   2.145 -0.1414  1.5766 -1.6215
 9425SOL    HW239738   1.306   1.373   2.238 -0.8766 -2.0801  0.3546
 9426SOL     OW39739   4.596   2.474   4.302 -0.3372  1.1430  0.2040
 9426SOL    HW139740   4.597   2.504   4.393  2.2817 -0.9401  0.8615
 9426SOL    HW239741   4.686   2.441   4.298 -0.0259  2.1870 -1.3162
 9427SOL     OW39742   0.593   0.983   6.531  0.0626 -0.0584  0.0796
 9427SOL    HW139743   0.667   0.937   6.572  0.3576 -0.5068 -0.9425
 9427SOL    HW239744   0.529   0.916   6.507  1.9718 -1.5610 -0.8911
 9428SOL     OW39745   0.829   2.284   5.392 -0.1207 -0.4392 -0.4590
 9428SOL    HW139746   0.855   2.194   5.374 -2.8537 -1.7240  2.3210
 9428SOL    HW239747   0.873   2.330   5.320  1.2619 -1.2944 -0.1470
 9429SOL     OW39748   4.623   2.758   7.011  0.3532 -0.5166  0.5408
 9429SOL    HW139749   4.642   2.843   7.050  0.5964  0.2037 -1.1338
 9429SOL    HW239750   4.684   2.754   6.937  0.6021 -1.2202  0.7826
 9430SOL     OW39751   2.181   1.718   7.176 -0.0143  0.6176 -0.1524
 9430SOL    HW139752   2.256   1.725   7.118  0.9748  1.7031  1.2670
 9430SOL    HW239753   2.133   1.644   7.136  1.3697 -0.5187  0.2877
 9431SOL     OW39754   3.992   1.746   4.691 -0.8356 -0.2156  0.0542
 9431SOL    HW139755   3.995   1.738   4.786  1.2128 -1.8567 -0.1597
 9431SOL    HW239756   3.922   1.683   4.673 -1.3277  0.3868 -0.1359
 9432SOL     OW39757   4.380   4.590   2.605  0.5110 -0.3746  0.3062
 9432SOL    HW139758   4.355   4.498   2.597  0.8448 -0.8455  4.7754
 9432SOL    HW239759   4.401   4.620   2.516 -1.3128 -0.3543 -0.1146
 9433SOL     OW39760   3.785   0.533   7.425 -0.3198  0.3761  0.4118
 9433SOL    HW139761   3.713   0.499   7.479 -0.5498 -1.9702 -1.3486
 9433SOL    HW239762   3.853   0.553   7.489 -1.3717  3.9634  0.4084
 9434SOL     OW39763   3.862   2.494   9.202 -0.7813 -0.3580  0.2404
 9434SOL    HW139764   3.830   2.423   9.145 -2.0987 -0.1659  0.7364
 9434SOL    HW239765   3.921   2.436   9.249  0.3973  1.7310  1.2949
 9435SOL     OW39766   4.027   2.557   2.815 -0.1681  0.3578  0.6873
 9435SOL    HW139767   4.076   2.535   2.736 -3.5379  1.0566 -1.5718
 9435SOL    HW239768   4.087   2.511   2.874  0.9716 -0.4363 -1.0873
 9436SOL     OW39769   0.713   2.803  16.141 -0.5046 -0.4402 -0.5868
 9436SOL    HW139770   0.771   2.871  16.176  0.7014 -0.3927 -2.6975
 9436SOL    HW239771   0.651   2.855  16.090 -0.6613  0.6514  0.7094
 9437SOL     OW39772   2.995   4.270   3.551  0.3105 -0.2074  0.3147
 9437SOL    HW139773   2.926   4.316   3.600  0.7330  0.9765 -0.2144
 9437SOL    HW239774   2.961   4.264   3.462 -0.1851 -0.6971  0.5369
 9438SOL     OW39775   2.929   0.834   7.166 -0.0411  0.1339  0.1581
 9438SOL    HW139776   2.940   0.740   7.183 -2.4705 -0.4379 -1.5070
 9438SOL    HW239777   2.960   0.863   7.252 -0.1793  0.9911 -0.0819
 9439SOL     OW39778   0.059   3.020   6.860  0.5585 -0.0133 -0.1908
 9439SOL    HW139779   4.724   3.059   6.798  0.1097  3.0029  2.1301
 9439SOL    HW239780   0.014   3.052   6.938  0.6112  0.3847 -0.3255
 9440SOL     OW39781   0.342   2.044   4.435 -0.3254  0.0572  0.0330
 9440SOL    HW139782   0.363   2.107   4.366  1.5889 -1.3131 -0.6267
 9440SOL    HW239783   0.398   1.971   4.411  0.1009  0.9009 -1.5554
 9441SOL     OW39784   0.149   3.520   0.991  0.0621 -0.0285 -0.2148
 9441SOL    HW139785   0.222   3.473   1.032 -1.2567 -3.4298 -1.8175
 9441SOL    HW239786   0.145   3.479   0.905  1.0660  3.5160 -1.9535
 9442SOL     OW39787   0.027   4.284  15.782 -0.2683 -0.2897  0.1506
 9442SOL    HW139788   0.004   4.198  15.818 -1.5662  0.2625  0.6303
 9442SOL    HW239789   4.719   4.346  15.847 -0.3422  0.1196 -0.2778
 9443SOL     OW39790   2.580   4.511  15.344  0.3405 -0.1030  0.1453
 9443SOL    HW139791   2.521   4.504  15.269  2.1662 -3.1446 -1.0099
 9443SOL    HW239792   2.626   4.592  15.323  0.0452  0.1152  0.3527
 9444SOL     OW39793   1.811   1.402   4.994  0.4674  0.4642  0.0244
 9444SOL    HW139794   1.722   1.390   4.961 -0.3147 -1.6311  3.0059
 9444SOL    HW239795   1.867   1.381   4.919  0.2378 -0.8822  0.2391
 9445SOL     OW39796   1.086   2.487   7.777 -0.2863  0.2924 -0.2344
 9445SOL    HW139797   1.008   2.495   7.832  0.4938 -1.4902  1.1153
 9445SOL    HW239798   1.065   2.554   7.711 -2.3804  0.2323  0.3433
 9446SOL     OW39799   2.937   3.857   4.246  0.3242 -0.0194  1.1143
 9446SOL    HW139800   3.030   3.877   4.252  0.7124 -1.2344 -0.7304
 9446SOL    HW239801   2.922   3.878   4.154 -0.0675  0.1666  1.2231
 9447SOL     OW39802   2.352   0.370  12.676 -0.2463 -0.6249  0.1210
 9447SOL    HW139803   2.369   0.283  12.640 -1.5851 -1.4275  1.4630
 9447SOL    HW239804   2.359   0.353  12.770 -0.0679  0.0329  0.2271
 9448SOL     OW39805   1.018   0.358   7.354  0.9559  0.0929 -0.0823
 9448SOL    HW139806   1.100   0.404   7.339 -0.1598  1.3164 -2.4491
 9448SOL    HW239807   1.035   0.276   7.309  1.4410 -0.1805  0.5945
 9449SOL     OW39808   1.124   0.805  11.741 -0.2275  0.8783 -0.1400
 9449SOL    HW139809   1.076   0.887  11.751 -1.4713  0.3340 -1.4692
 9449SOL    HW239810   1.077   0.754  11.807  1.3388 -1.4557 -0.8129
 9450SOL     OW39811   3.462   3.402  11.235 -0.1214 -0.8711 -0.4304
 9450SOL    HW139812   3.557   3.406  11.224  0.1405 -2.7166  1.2017
 9450SOL    HW239813   3.453   3.314  11.271  0.5233 -0.3363  1.0426
 9451SOL     OW39814   1.875   4.172  14.831  0.4008  0.1012 -0.2238
 9451SOL    HW139815   1.847   4.247  14.883  0.2968  0.1728 -0.3827
 9451SOL    HW239816   1.955   4.204  14.791  0.0678 -0.0279 -0.9988
 9452SOL     OW39817   2.456   0.669  15.565 -0.1742  0.8600 -0.0903
 9452SOL    HW139818   2.512   0.598  15.596 -1.7362 -0.2154  0.2574
 9452SOL    HW239819   2.507   0.746  15.592  0.0974  0.4977  0.4325
 9453SOL     OW39820   2.852   2.159   3.479  0.0383  0.1304  0.4572
 9453SOL    HW139821   2.783   2.160   3.412  0.9979 -1.7949 -0.5701
 9453SOL    HW239822   2.873   2.065   3.484  2.5173  0.7387  1.1406
 9454SOL     OW39823   4.678   4.679   5.513  0.3274 -0.2792  0.3702
 9454SOL    HW139824   4.612   0.021   5.496  1.5095  1.0555  1.1073
 9454SOL    HW239825   4.695   4.627   5.434 -2.5158  0.5807 -0.8150
 9455SOL     OW39826   0.840   1.186   9.727  0.0380  0.0293  0.4333
 9455SOL    HW139827   0.908   1.211   9.791 -0.5179 -1.0029  1.4221
 9455SOL    HW239828   0.903   1.165   9.658  0.6222 -0.7816  1.2165
 9456SOL     OW39829   0.946   3.886   7.653 -0.1585 -0.1854  0.4125
 9456SOL    HW139830   1.035   3.850   7.653 -0.7343 -1.6703  4.2083
 9456SOL    HW239831   0.936   3.873   7.747 -1.2261  2.3640  0.6447
 9457SOL     OW39832   3.581   4.448   7.635  0.3554 -0.2926 -0.1309
 9457SOL    HW139833   3.667   4.446   7.675  1.1118  0.2187 -1.7205
 9457SOL    HW239834   3.599   4.483   7.547  0.2261  2.1991  0.8266
 9458SOL     OW39835   1.363   3.530   3.998  0.0764  0.2256  0.3427
 9458SOL    HW139836   1.330   3.554   3.911 -1.5395 -1.7609  0.3976
 9458SOL    HW239837   1.330   3.440   4.005  0.0157  0.3269  1.3204
 9459SOL     OW39838   3.324   3.348   4.806  0.1256 -0.0545 -0.3262
 9459SOL    HW139839   3.320   3.327   4.712  0.1009 -2.7534  0.2571
 9459SOL    HW239840   3.395   3.297   4.845 -1.2584 -1.4622  0.3723
 9460SOL     OW39841   1.123   1.160  11.358  0.4906  0.4727 -0.3380
 9460SOL    HW139842   1.043   1.158  11.409  0.1723 -1.7450 -0.9098
 9460SOL    HW239843   1.203   1.161  11.411  0.6134  0.1591 -0.5118
 9461SOL     OW39844   4.323   2.330   6.487 -0.1428 -0.5250 -0.6534
 9461SOL    HW139845   4.229   2.318   6.503  0.6921 -0.9440  3.9440
 9461SOL    HW239846   4.349   2.268   6.555  0.8211  0.5999  0.0077
 9462SOL     OW39847   1.842   0.549   6.692  0.2858 -0.0432  0.0704
 9462SOL    HW139848   1.781   0.506   6.632 -0.4173  0.7028  0.2460
 9462SOL    HW239849   1.840   0.499   6.774 -1.8568 -0.1480 -0.0459
 9463SOL     OW39850   3.551   0.703   6.335 -0.1339 -0.8684 -0.7200
 9463SOL    HW139851   3.539   0.658   6.251  0.7026  0.2366 -1.4404
 9463SOL    HW239852   3.489   0.776   6.332 -0.2455 -0.9182  0.4150
 9464SOL     OW39853   3.433   1.532   8.340 -0.3607 -0.6128 -0.0687
 9464SOL    HW139854   3.476   1.599   8.393 -0.7100  0.1685 -0.7876
 9464SOL    HW239855   3.468   1.453   8.381  1.6188 -0.9434 -2.3709
 9465SOL     OW39856   2.112   1.881   5.127 -0.0893 -0.3204  0.7159
 9465SOL    HW139857   2.107   1.886   5.223 -1.7303 -1.5779  0.6984
 9465SOL    HW239858   2.060   1.959   5.109 -1.5012 -0.8392  2.5561
 9466SOL     OW39859   4.675   4.479   6.728 -0.0109 -0.1364  0.0372
 9466SOL    HW139860   4.720   4.419   6.670  2.3738 -0.0378  1.8077
 9466SOL    HW239861   0.024   4.527   6.765  1.2958 -1.5173 -0.8238
 9467SOL     OW39862   1.304   3.905   2.870 -0.0413  0.4907  0.3322
 9467SOL    HW139863   1.313   4.000   2.864  1.5963  0.3860  0.8988
 9467SOL    HW239864   1.209   3.908   2.880  0.1761 -1.6071  3.3232
 9468SOL     OW39865   0.676   3.462   3.688  0.8325  0.6495 -0.5066
 9468SOL    HW139866   0.610   3.532   3.686 -2.5800 -2.6026 -1.9323
 9468SOL    HW239867   0.620   3.384   3.686 -0.1229  1.3650 -1.3229
 9469SOL     OW39868   0.010   1.062   5.009 -0.5129  0.2327 -0.1035
 9469SOL    HW139869   0.010   1.091   4.918  0.9688 -0.1318 -0.2333
 9469SOL    HW239870   4.658   1.006   5.007  0.7085 -1.5719  2.7328
 9470SOL     OW39871   0.080   4.009   5.630 -0.0064  0.3274  0.0762
 9470SOL    HW139872   0.172   3.983   5.634  0.4898  2.2644  1.2186
 9470SOL    HW239873   0.074   4.075   5.561  3.2914  1.6005  1.0097
 9471SOL     OW39874   1.948   0.799  16.092  0.2962 -0.4035  0.2060
 9471SOL    HW139875   1.917   0.800  16.002 -1.3935  0.3657  0.8137
 9471SOL    HW239876   2.015   0.730  16.089 -0.7045 -1.2151 -3.3966
 9472SOL     OW39877   2.450   4.054   5.038  0.4739 -0.0089  0.0357
 9472SOL    HW139878   2.520   4.031   5.099  0.1315  2.1682  1.2492
 9472SOL    HW239879   2.483   4.047   4.949 -1.0227 -0.4343 -0.4919
 9473SOL     OW39880   4.463   1.302   6.601 -1.1427 -0.2673 -0.0261
 9473SOL    HW139881   4.504   1.303   6.515 -0.1100  1.1891  0.4820
 9473SOL    HW239882   4.373   1.326   6.579 -1.8619 -1.6044  1.4473
 9474SOL     OW39883   2.886   0.117   3.785  0.0999  0.4154  0.5021
 9474SOL    HW139884   2.955   0.135   3.722  0.3029 -0.7022  0.4069
 9474SOL    HW239885   2.925   0.038   3.822  0.0294  0.0387 -0.2383
 9475SOL     OW39886   0.332   0.299  10.490  0.5853  0.1358 -0.2294
 9475SOL    HW139887   0.237   0.287  10.491  0.6266 -0.1355  0.7438
 9475SOL    HW239888   0.363   0.297  10.399 -2.3791  2.3632 -1.2955
 9476SOL     OW39889   4.085   4.028   6.213 -0.2686  0.2699  0.0482
 9476SOL    HW139890   4.008   3.975   6.231 -1.0401  0.9863 -1.1016
 9476SOL    HW239891   4.101   4.064   6.300  0.1523  2.3385 -0.8680
 9477SOL     OW39892   3.680   1.640  14.321 -0.7227  0.1145  0.7562
 9477SOL    HW139893   3.774   1.629  14.311 -0.6839  1.4856 -0.4301
 9477SOL    HW239894   3.652   1.599  14.403 -1.5557 -0.6014  0.1074
 9478SOL     OW39895   3.314   1.541   0.840 -0.6810 -0.5329  0.2504
 9478SOL    HW139896   3.336   1.475   0.774 -2.3929  1.2339 -2.0924
 9478SOL    HW239897   3.296   1.617   0.784  1.7463 -1.2654 -1.5173
 9479SOL     OW39898   0.748   1.912   7.878 -0.2940 -0.0816  0.0646
 9479SOL    HW139899   0.697   1.851   7.931  1.2122 -1.7709 -0.4197
 9479SOL    HW239900   0.813   1.941   7.942  0.4248 -1.6287  0.0344
 9480SOL     OW39901   2.918   1.467   9.033  0.2883  0.3583 -0.4725
 9480SOL    HW139902   2.875   1.386   9.006  1.3754  0.1769 -1.6704
 9480SOL    HW239903   2.997   1.424   9.066  0.5176 -0.2091 -1.7535
 9481SOL     OW39904   1.205   0.843   0.739  0.0937 -1.0215  0.2407
 9481SOL    HW139905   1.251   0.914   0.694 -2.1319  0.5036  0.3567
 9481SOL    HW239906   1.113   0.869   0.735  0.4060  0.0765  0.3779
 9482SOL     OW39907   4.325   3.365   1.994  0.1125  0.0431 -0.2817
 9482SOL    HW139908   4.264   3.291   1.989  0.1444 -0.1551  2.2134
 9482SOL    HW239909   4.401   3.321   2.031 -0.3722  1.2007  2.0686
 9483SOL     OW39910   1.028   3.740   6.184 -0.0297 -0.2278  0.6381
 9483SOL    HW139911   0.986   3.751   6.269 -0.5346 -1.6049  0.5671
 9483SOL    HW239912   1.000   3.821   6.141  2.8208  0.9206  0.9419
 9484SOL     OW39913   4.135   2.637  10.768 -0.4683  0.1012 -0.9135
 9484SOL    HW139914   4.142   2.544  10.789  0.4835  0.2372 -0.6395
 9484SOL    HW239915   4.153   2.672  10.856  0.3458 -1.7349 -0.3368
 9485SOL     OW39916   1.088   4.218   6.340  0.2628  0.4467 -0.1505
 9485SOL    HW139917   1.170   4.268   6.345  0.8907 -0.7094  1.2680
 9485SOL    HW239918   1.086   4.178   6.427  0.2531  1.1261  0.1664
 9486SOL     OW39919   0.125   2.430   2.315 -0.6113  0.1973 -0.5592
 9486SOL    HW139920   0.102   2.484   2.391  0.0664  0.9944 -0.9290
 9486SOL    HW239921   0.046   2.377   2.309 -0.5391 -0.0108  0.2054
 9487SOL     OW39922   0.351   2.659  14.512  0.4576  0.1801  0.0705
 9487SOL    HW139923   0.359   2.678  14.419 -2.1694  1.3918  0.1146
 9487SOL    HW239924   0.357   2.564  14.516 -0.1711  0.1098 -0.7994
 9488SOL     OW39925   1.152   0.751   3.650 -0.2894 -0.1080 -0.1538
 9488SOL    HW139926   1.123   0.731   3.739  3.8618 -0.1099  1.1606
 9488SOL    HW239927   1.110   0.834   3.627 -2.3433  0.0912  4.3179
 9489SOL     OW39928   3.934   1.352  10.305 -0.2578  0.2757 -0.4476
 9489SOL    HW139929   4.013   1.350  10.358 -0.4757  0.5508 -0.1108
 9489SOL    HW239930   3.873   1.416  10.342 -2.2499 -1.5488 -0.5429
 9490SOL     OW39931   3.148   4.675   3.090 -0.5284 -0.3715 -0.0318
 9490SOL    HW139932   3.071   4.713   3.048 -1.2409 -3.5697 -1.6322
 9490SOL    HW239933   3.176   4.619   3.018 -2.0196 -1.6622  0.3895
 9491SOL     OW39934   3.921   2.173   4.947  0.0431 -0.0365 -0.3249
 9491SOL    HW139935   3.998   2.160   5.002  0.5698 -3.0245 -1.7780
 9491SOL    HW239936   3.941   2.132   4.863  0.4016 -0.5645  0.0183
 9492SOL     OW39937   0.022   2.161   4.467 -0.1463 -0.1296  0.8882
 9492SOL    HW139938   4.709   2.122   4.546  0.4047 -0.4528  0.9886
 9492SOL    HW239939   0.082   2.096   4.432  1.1758  1.4299  0.2945
 9493SOL     OW39940   4.168   0.246   7.981 -0.7581  0.1592 -0.1343
 9493SOL    HW139941   4.091   0.193   7.961 -1.5958  2.1526 -2.1423
 9493SOL    HW239942   4.191   0.236   8.074 -0.0206  2.6303 -0.0669
 9494SOL     OW39943   0.303   0.876   6.011  0.0238 -0.2448  0.0368
 9494SOL    HW139944   0.313   0.969   6.027  1.4949 -0.2630 -0.7655
 9494SOL    HW239945   0.219   0.853   6.051  0.4163 -1.5067  0.1621
 9495SOL     OW39946   3.739   1.650   7.150 -0.2118 -0.3902  0.0800
 9495SOL    HW139947   3.688   1.686   7.223  2.7869 -0.1028  2.0113
 9495SOL    HW239948   3.705   1.713   7.086  0.7160  1.5311  1.4600
 9496SOL     OW39949   3.514   2.657   1.853 -0.2900  0.4246  0.9987
 9496SOL    HW139950   3.504   2.713   1.931  0.3797 -3.4734  3.8779
 9496SOL    HW239951   3.552   2.726   1.799 -0.3771  1.2766  2.0080
 9497SOL     OW39952   1.456   1.809   8.073  0.5823  0.0175 -0.3011
 9497SOL    HW139953   1.422   1.879   8.017  0.2269  2.4415  2.9190
 9497SOL    HW239954   1.506   1.862   8.136  2.8675 -1.7707 -0.5946
 9498SOL     OW39955   2.648   2.642  17.680  0.2302  0.1660 -0.0572
 9498SOL    HW139956   2.730   2.597  17.697 -0.7859 -1.5174  0.4479
 9498SOL    HW239957   2.593   2.572   0.013  0.1110  1.0839  1.5813
 9499SOL     OW39958   4.141   3.317  10.921  0.1742 -0.3192 -0.2628
 9499SOL    HW139959   4.217   3.308  10.979 -1.1313  3.0551  1.9420
 9499SOL    HW239960   4.130   3.225  10.894  0.2740 -0.2439 -0.5588
 9500SOL     OW39961   3.005   3.225   2.915 -0.3946  0.1911  0.3210
 9500SOL    HW139962   2.973   3.310   2.945  2.4022  1.8123 -1.2325
 9500SOL    HW239963   2.980   3.227   2.823 -2.1679  3.4407  0.8973
 9501SOL     OW39964   2.506   1.810  11.010 -0.6363  0.3697  0.8820
 9501SOL    HW139965   2.514   1.741  11.076 -3.8927 -1.6361 -0.7991
 9501SOL    HW239966   2.481   1.886  11.063  2.2581  1.6963  0.3121
 9502SOL     OW39967   1.586   3.471   0.040  0.5638 -0.1564  0.2293
 9502SOL    HW139968   1.584   3.565   0.020  1.1612  0.0151  0.9725
 9502SOL    HW239969   1.524   3.452   0.111  1.0357 -2.5376 -0.0060
 9503SOL     OW39970   1.823   0.047   3.714 -0.9465 -0.2120 -0.5621
 9503SOL    HW139971   1.899   0.073   3.661 -0.8773 -1.1604 -0.9153
 9503SOL    HW239972   1.752   0.067   3.654  0.4226  0.9566 -1.8002
 9504SOL     OW39973   0.644   0.330   1.703  0.1957 -0.5550  0.4284
 9504SOL    HW139974   0.677   0.332   1.793 -0.9401  2.1533  0.7727
 9504SOL    HW239975   0.669   0.241   1.677  2.2233 -0.0526  0.6684
 9505SOL     OW39976   1.061   0.207   8.752 -0.2489  0.0637  0.3756
 9505SOL    HW139977   1.118   0.172   8.820  1.3166 -0.0564 -0.9895
 9505SOL    HW239978   1.060   0.303   8.763 -0.9757 -0.1997  2.6038
 9506SOL     OW39979   0.367   2.535   6.343  0.6743 -0.5057 -0.8702
 9506SOL    HW139980   0.382   2.630   6.339 -0.5202 -0.1835  1.7561
 9506SOL    HW239981   0.335   2.529   6.253 -0.6892  3.0332 -0.6401
 9507SOL     OW39982   3.216   3.738  13.683 -0.0215  0.0372 -0.3237
 9507SOL    HW139983   3.144   3.715  13.625 -1.0856  0.3745  0.8859
 9507SOL    HW239984   3.266   3.657  13.692  0.8464  0.5752 -0.2102
 9508SOL     OW39985   1.428   1.920   5.944 -0.4426 -0.4841  0.3556
 9508SOL    HW139986   1.439   1.997   5.889  1.6854 -1.2203 -0.2498
 9508SOL    HW239987   1.372   1.954   6.013 -0.8546 -1.2672  0.4001
 9509SOL     OW39988   2.761   3.322  10.082 -0.0043 -0.7642 -0.0290
 9509SOL    HW139989   2.677   3.354  10.114  0.1633  0.7947 -1.1144
 9509SOL    HW239990   2.808   3.339  10.164  0.7269 -0.3586 -0.5347
 9510SOL     OW39991   3.896   0.397  11.914  0.1962  0.3859  0.0177
 9510SOL    HW139992   3.834   0.399  11.986  1.4982 -0.9873  1.1652
 9510SOL    HW239993   3.850   0.439  11.841 -0.3131  0.0541  0.1499
 9511SOL     OW39994   1.247   4.134  10.715  0.2675  0.6244 -0.0803
 9511SOL    HW139995   1.208   4.156  10.630  1.4517  1.5999 -0.3626
 9511SOL    HW239996   1.245   4.038  10.722  0.4248  0.5336 -1.2914
 9512SOL     OW39997   0.349   0.423  15.693  0.4530 -0.4047 -0.3653
 9512SOL    HW139998   0.407   0.417  15.769 -2.1236  1.1975  1.7443
 9512SOL    HW239999   0.380   0.345  15.647  2.6230  0.0374  0.3437
 9513SOL     OW40000   0.727   3.123  13.157  0.2079  0.1527  0.6169
 9513SOL    HW140001   0.643   3.148  13.195  0.2061  1.1853 -0.0508
 9513SOL    HW240002   0.695   3.107  13.068 -1.2502  3.6720  0.4830
 9514SOL     OW40003   1.518   2.180   9.073  0.2673 -0.0757 -0.8303
 9514SOL    HW140004   1.505   2.090   9.045  2.0362 -1.0098  1.3449
 9514SOL    HW240005   1.513   2.169   9.168  0.8463 -0.4610 -0.8447
 9515SOL     OW40006   4.035   0.822   3.879 -0.2984  0.2751  0.4181
 9515SOL    HW140007   4.124   0.812   3.914 -0.6415 -0.7015  0.9961
 9515SOL    HW240008   4.017   0.729   3.863  2.1889 -0.2318  0.5398
 9516SOL     OW40009   0.511   2.898   3.010 -0.0354  0.2181 -0.1731
 9516SOL    HW140010   0.601   2.868   2.991 -0.7301 -1.9674 -0.0733
 9516SOL    HW240011   0.501   2.836   3.082  1.2143 -0.3632 -0.4985
 9517SOL     OW40012   3.631   0.334   9.914 -0.8882  0.0565 -0.3763
 9517SOL    HW140013   3.583   0.307   9.836 -0.0101 -1.2215 -0.4640
 9517SOL    HW240014   3.704   0.273   9.918  0.9092  2.2430  0.3226
 9518SOL     OW40015   4.389   3.605  13.083 -0.5858  0.5813  0.2647
 9518SOL    HW140016   4.375   3.699  13.098  2.2784  1.1870 -0.7879
 9518SOL    HW240017   4.388   3.596  12.987 -0.4962 -1.5025  0.4576
 9519SOL     OW40018   2.724   2.404  10.024 -0.0681 -0.0686  0.4603
 9519SOL    HW140019   2.650   2.448   9.983  0.3989 -0.7810 -1.1437
 9519SOL    HW240020   2.780   2.386   9.949 -1.2880 -0.7660 -0.2855
 9520SOL     OW40021   4.423   2.034   4.579 -0.1994 -0.3073 -0.1798
 9520SOL    HW140022   4.509   2.042   4.621  0.6070  0.0424 -1.8681
 9520SOL    HW240023   4.425   2.116   4.530  1.6700 -0.7816 -0.9302
 9521SOL     OW40024   2.179   0.100   5.793 -0.1709 -0.2920  0.4760
 9521SOL    HW140025   2.243   0.031   5.805 -0.8604 -0.6743  1.8840
 9521SOL    HW240026   2.229   0.171   5.752  0.9159 -1.2806  0.0834
 9522SOL     OW40027   3.072   0.562  17.604  0.0824  0.2551  0.1665
 9522SOL    HW140028   3.035   0.608  17.529 -0.9603 -0.1672  0.4181
 9522SOL    HW240029   3.072   0.472  17.570 -1.9804 -0.7239  2.7514
 9523SOL     OW40030   2.964   0.442   6.996 -0.1074 -0.0725  0.1099
 9523SOL    HW140031   2.997   0.519   7.041  2.8870 -0.6568 -1.0386
 9523SOL    HW240032   2.902   0.417   7.065  0.5977  1.2728  1.2264
 9524SOL     OW40033   1.725   2.827   4.607  0.1606  0.1004 -0.3691
 9524SOL    HW140034   1.652   2.888   4.598  0.0098  0.1846  1.3577
 9524SOL    HW240035   1.694   2.752   4.557  0.5249 -1.0594  1.1489
 9525SOL     OW40036   2.706   0.490   5.178 -0.1123  0.4808 -0.8227
 9525SOL    HW140037   2.670   0.412   5.220 -1.2821  1.6440  0.3390
 9525SOL    HW240038   2.795   0.500   5.213 -0.5055  1.0994  0.0067
 9526SOL     OW40039   2.410   3.525   7.267  0.0930  0.1988  0.1997
 9526SOL    HW140040   2.492   3.563   7.236 -0.7397  0.5756 -1.5393
 9526SOL    HW240041   2.444   3.477   7.342 -2.6420 -2.7998 -0.4683
 9527SOL     OW40042   1.087   4.331   7.131  0.0891  0.2326 -0.2766
 9527SOL    HW140043   1.129   4.343   7.216  1.3075 -0.2523 -0.8128
 9527SOL    HW240044   1.084   4.236   7.126  1.1591  0.1904 -0.1146
 9528SOL     OW40045   1.336   2.244   4.616 -0.5441 -0.9717  0.5841
 9528SOL    HW140046   1.352   2.289   4.533 -4.4173 -1.7801 -0.5953
 9528SOL    HW240047   1.247   2.210   4.604 -1.3591  1.0317  0.9103
 9529SOL     OW40048   1.494   2.149   9.351 -0.2481 -0.1509  0.4761
 9529SOL    HW140049   1.585   2.135   9.376 -0.4962  0.1106  1.5500
 9529SOL    HW240050   1.457   2.184   9.432 -1.3267  0.3903 -0.2512
 9530SOL     OW40051   2.828   2.110   0.500 -0.5196 -0.0909 -0.1400
 9530SOL    HW140052   2.793   2.165   0.570  1.5778 -0.7922  1.4990
 9530SOL    HW240053   2.888   2.177   0.469  0.2418 -0.1320  1.2123
 9531SOL     OW40054   1.735   3.133   6.967 -0.8304  0.1564  0.2799
 9531SOL    HW140055   1.744   3.084   6.886  2.5962  2.3106 -0.6190
 9531SOL    HW240056   1.654   3.093   7.000  0.1817 -1.0005  1.3425
 9532SOL     OW40057   0.510   4.640   6.506  0.2049 -0.2494 -0.5402
 9532SOL    HW140058   0.571   4.712   6.491 -1.7328  1.2828 -1.0143
 9532SOL    HW240059   0.560   4.595   6.574  1.3164 -0.0093 -1.2049
 9533SOL     OW40060   3.125   4.397   7.759  0.2102 -0.1279 -0.4293
 9533SOL    HW140061   3.216   4.417   7.781 -0.2825  2.0976 -0.4148
 9533SOL    HW240062   3.093   4.486   7.746  2.2484  0.5022 -1.0793
 9534SOL     OW40063   1.619   3.786   0.331  0.0760 -0.5318  0.4932
 9534SOL    HW140064   1.538   3.750   0.296 -0.9531  0.4454  1.9074
 9534SOL    HW240065   1.594   3.775   0.423  1.0293  0.1423  0.8441
 9535SOL     OW40066   2.388   4.239   9.215  0.0357  0.4301  0.4566
 9535SOL    HW140067   2.344   4.173   9.269  1.2901 -0.4835  0.3801
 9535SOL    HW240068   2.376   4.217   9.123 -2.6872  0.8582  0.7195
 9536SOL     OW40069   3.558   3.809   8.595  0.1864  0.1874 -0.2326
 9536SOL    HW140070   3.577   3.889   8.546 -0.8079  0.3357 -0.3626
 9536SOL    HW240071   3.574   3.846   8.683  1.5929  1.2217 -0.9172
 9537SOL     OW40072   3.421   3.911   6.941  0.5921  0.3271  0.0465
 9537SOL    HW140073   3.334   3.945   6.921  0.4777 -0.2384 -0.4050
 9537SOL    HW240074   3.408   3.816   6.940  1.8022  0.1294  1.9522
 9538SOL     OW40075   3.261   0.763   5.711 -0.4450 -0.2733  0.2499
 9538SOL    HW140076   3.175   0.732   5.684 -0.1023 -1.7613  0.8903
 9538SOL    HW240077   3.280   0.844   5.664 -0.2167 -0.9429 -0.7817
 9539SOL     OW40078   0.222   2.907   3.368  0.7629  0.2432  0.3918
 9539SOL    HW140079   0.294   2.866   3.319 -0.7687 -0.3756 -1.3218
 9539SOL    HW240080   0.215   2.841   3.436  2.1471  0.0200  0.3223
 9540SOL     OW40081   4.243   2.543  15.848 -0.5155  0.3774  0.2543
 9540SOL    HW140082   4.303   2.583  15.785 -0.0139 -2.2738 -0.9415
 9540SOL    HW240083   4.303   2.494  15.905 -0.6769 -1.6517 -1.3195
 9541SOL     OW40084   3.836   1.007   5.571 -0.0066 -0.3458  0.1865
 9541SOL    HW140085   3.931   1.020   5.574  0.2221 -2.3038  0.9682
 9541SOL    HW240086   3.816   1.001   5.478 -1.1111 -1.7323  0.5139
 9542SOL     OW40087   2.855   1.158   5.520 -0.0783 -0.1432 -0.4807
 9542SOL    HW140088   2.888   1.238   5.482  0.0614  0.9508  1.9444
 9542SOL    HW240089   2.816   1.186   5.603  2.2585  3.2754 -0.5723
 9543SOL     OW40090   1.058   4.650   5.582 -0.0797 -0.0732  0.2255
 9543SOL    HW140091   1.004   4.707   5.527 -3.1066 -3.6519 -0.5365
 9543SOL    HW240092   1.091   4.706   5.653 -0.8408  0.3243  0.2681
 9544SOL     OW40093   1.589   1.998   7.528  0.2216 -0.8072  0.1631
 9544SOL    HW140094   1.496   2.000   7.506 -0.0909 -0.4409  1.5700
 9544SOL    HW240095   1.620   1.961   7.445  0.6722 -2.7356  1.1927
 9545SOL     OW40096   0.007   2.572   1.784 -0.2824  0.4997 -0.5894
 9545SOL    HW140097   0.001   2.646   1.723 -0.2716  0.3336 -0.7891
 9545SOL    HW240098   0.094   2.585   1.822 -0.2475  0.6387 -0.7153
 9546SOL     OW40099   4.199   0.579   6.182 -0.4525 -0.5109  0.6988
 9546SOL    HW140100   4.192   0.661   6.231 -0.4836 -0.1408  0.0753
 9546SOL    HW240101   4.136   0.538   6.242  1.1448 -2.8343  0.7650
 9547SOL     OW40102   1.765   4.450  16.309  0.0401  0.2450 -0.2304
 9547SOL    HW140103   1.844   4.468  16.258  1.2948 -0.6053  1.4080
 9547SOL    HW240104   1.721   4.535  16.301 -0.6851  0.0249  1.4917
 9548SOL     OW40105   4.470   0.525   7.815  0.0581  0.4141 -0.2719
 9548SOL    HW140106   4.524   0.452   7.787  1.2702  0.7352  1.2152
 9548SOL    HW240107   4.443   0.485   7.897  2.7723  1.1842  0.9833
 9549SOL     OW40108   0.514   3.509   5.055  0.7089  0.3837  0.4655
 9549SOL    HW140109   0.512   3.588   5.002  0.7598 -0.3698 -0.6633
 9549SOL    HW240110   0.544   3.440   4.996 -1.2341 -0.0867  0.0559
 9550SOL     OW40111   4.291   0.239  17.008  0.1174 -0.6766 -0.2155
 9550SOL    HW140112   4.224   0.176  17.034  0.3970 -0.4641  1.0071
 9550SOL    HW240113   4.237   0.318  17.001  0.2693 -0.6104 -0.6296
 9551SOL     OW40114   2.279   4.664   7.691  0.1899  0.5423  0.3771
 9551SOL    HW140115   2.261   4.580   7.735 -4.7409  1.7468  0.6814
 9551SOL    HW240116   2.197   4.680   7.643  0.9595  0.9951 -0.7704
 9552SOL     OW40117   3.554   3.346   9.002  0.3146  0.0573 -0.3418
 9552SOL    HW140118   3.577   3.435   8.975 -0.8045  0.8062  1.1921
 9552SOL    HW240119   3.549   3.308   8.914  1.8789  0.3525 -0.5658
 9553SOL     OW40120   3.546   0.943   5.076  0.4874 -0.1404 -0.1592
 9553SOL    HW140121   3.452   0.943   5.088  0.3453 -1.3093 -1.2124
 9553SOL    HW240122   3.561   1.035   5.055  0.0982  0.0117  0.2486
 9554SOL     OW40123   3.179   0.480   9.155 -0.1742 -0.2301 -0.0635
 9554SOL    HW140124   3.172   0.389   9.184 -0.2686  0.1702  1.1536
 9554SOL    HW240125   3.123   0.525   9.217 -0.4684  1.5083 -1.5973
 9555SOL     OW40126   1.336   1.608   0.869 -0.5909 -0.0004  0.0645
 9555SOL    HW140127   1.353   1.513   0.872 -0.0870  0.1069  0.5284
 9555SOL    HW240128   1.244   1.610   0.894 -0.6593 -3.8684  0.2148
 9556SOL     OW40129   2.941   4.322   2.239  0.0522  0.2105 -0.1298
 9556SOL    HW140130   3.013   4.264   2.266 -0.2794 -0.6446 -1.0660
 9556SOL    HW240131   2.872   4.272   2.282  0.3955  1.7816  2.2688
 9557SOL     OW40132   2.808   3.444   4.194  0.4172  0.0083 -0.1461
 9557SOL    HW140133   2.889   3.416   4.153  0.1043 -0.5197 -0.4142
 9557SOL    HW240134   2.744   3.387   4.149 -0.2635  1.3252 -0.8448
 9558SOL     OW40135   4.219   4.481   8.874  0.0527 -0.3284  0.8987
 9558SOL    HW140136   4.169   4.459   8.795  0.7312  0.2518  0.3093
 9558SOL    HW240137   4.142   4.518   8.918  0.8415  1.8703  0.4366
 9559SOL     OW40138   0.094   0.965   5.472  0.1389 -0.1060 -0.4269
 9559SOL    HW140139   0.087   0.971   5.376 -0.3980 -0.0003 -0.3809
 9559SOL    HW240140   0.132   0.880   5.493  0.2087 -0.2230 -1.0320
 9560SOL     OW40141   2.015   1.190  10.940  0.0993 -0.1424  0.2296
 9560SOL    HW140142   2.043   1.234  11.021 -0.8068  2.6842 -0.9793
 9560SOL    HW240143   1.993   1.271  10.894 -0.0975 -1.2715 -1.6203
 9561SOL     OW40144   3.740   1.990  11.976 -0.1237  0.1016  0.3177
 9561SOL    HW140145   3.718   2.083  11.969  2.9436  0.8097 -0.1243
 9561SOL    HW240146   3.677   1.959  11.910 -1.1694  0.2532  1.2560
 9562SOL     OW40147   1.169   1.824   8.780  0.1263 -0.2694  0.7073
 9562SOL    HW140148   1.246   1.871   8.749 -0.0507 -0.1280  0.4885
 9562SOL    HW240149   1.167   1.848   8.873 -0.7935  0.4077  0.5118
 9563SOL     OW40150   0.161   1.293   6.529 -0.1844  0.1561  0.3094
 9563SOL    HW140151   0.103   1.349   6.581 -0.1798 -0.3590  0.8580
 9563SOL    HW240152   0.210   1.244   6.594  0.3484  0.5998  0.2455
 9564SOL     OW40153   1.261   1.728   5.889  0.2321  0.0355  0.4716
 9564SOL    HW140154   1.268   1.703   5.797  0.4466  4.4051 -0.7174
 9564SOL    HW240155   1.336   1.787   5.896  0.4575 -0.4232  2.0923
 9565SOL     OW40156   1.222   2.988   7.060  0.0389  0.0631  0.2063
 9565SOL    HW140157   1.160   2.919   7.082 -0.4099  0.1074 -0.9487
 9565SOL    HW240158   1.171   3.036   6.994  0.8336  0.7348  0.0747
 9566SOL     OW40159   1.721   0.515   4.647  0.1713  0.3066 -0.0600
 9566SOL    HW140160   1.670   0.509   4.728  0.5292  1.2104  0.2237
 9566SOL    HW240161   1.693   0.431   4.610  1.7932 -0.8179  1.2431
 9567SOL     OW40162   3.417   3.164  11.326 -0.0009  0.1823  0.2027
 9567SOL    HW140163   3.363   3.096  11.366  0.2625  0.1620  0.5294
 9567SOL    HW240164   3.493   3.166  11.384  0.0321  0.5736  0.1434
 9568SOL     OW40165   3.866   1.809   2.776  0.3377 -0.5688  0.3232
 9568SOL    HW140166   3.838   1.828   2.866  2.0745  1.8169  0.3741
 9568SOL    HW240167   3.790   1.762   2.742  0.2429  0.0761 -0.3742
   4.72515   4.72515  17.70198
